LAMMPS (23 Jun 2022 - Update 1)
OMP_NUM_THREADS environment is not set. Defaulting to 1 thread. (src/comm.cpp:98)
  using 1 OpenMP thread(s) per MPI task
###

# Read restart info
read_restart ${read_res}
read_restart ./trial8/1000/equpmf70.res
Reading restart file ...
  restart file = 23 Jun 2022, LAMMPS = 23 Jun 2022
  restoring atom style atomic from restart
  orthogonal box = (1747.1478 1747.1478 1747.1478) to (2252.8522 2252.8522 2252.8522)
  2 by 1 by 2 MPI processor grid
  restoring pair style table from restart
  1000 atoms
  read_restart CPU = 0.038 seconds

# Settings
pair_style table/pgn spline 10941
pair_coeff 1 1 N20e.txt DE_GNP 308 72.9   # 1.35 * r
pair_coeff 2 2 N100e.txt DE_GNP 473.9 111.78
WARNING: 20 of 10941 force values in table DE_GNP are inconsistent with -dE/dr.
WARNING:  Should only be flagged at inflection points (src/pair_table_pgn.cpp:478)
pair_coeff 1 2 mixed_potentiale.txt DE_GNP 391.2 92.95
WARNING: 1564 of 10941 force values in table DE_GNP are inconsistent with -dE/dr.
WARNING:  Should only be flagged at inflection points (src/pair_table_pgn.cpp:478)

# Neighbor list
neighbor 2.0 bin
neigh_modify delay 0 every 1 check no once yes

# Temperature
variable T equal ${Temp}
variable T equal 300

# Deformation
reset_timestep 0
variable tmp equal "lx"
variable L0 equal ${tmp}
variable L0 equal 505.704464552478
variable strain equal "(lx - v_L0)/v_L0"
variable stp equal "step"
variable tmpe equal "temp"
variable p1 equal "v_strain"
variable p2 equal "-pxx*1.01325/10000"
variable p3 equal "-pyy*1.01325/10000"
variable p4 equal "-pzz*1.01325/10000"
variable p5 equal "lx"
variable p6 equal "ly"
variable p7 equal "lz"
variable p8 equal "press"
variable p9 equal "epair"
variable p10 equal "etotal"

# Thermo
thermo_style custom step temp v_p1 v_p2 v_p3 v_p4 press lx ly lz vol density epair pe ke etotal pxx pyy pzz pxy pxz pyz spcpu
thermo ${ts_save}
thermo 1000

# Dump
# dump 1 all custom 2000 ./${N20}${N100}/tensile/trajectory/trajectory_${usic}_${trial}_*.tensile.custom id type x y z ix iy iz
# dump_modify 1 sort id
dump 2 all cfg 50000 ./trial${trial}/${N20}${N100}/tensile/trajectory/dumpten.tens_${usic}_${trial}_*.cfg mass type xs ys zs fx fy fz
dump 2 all cfg 50000 ./trial8/${N20}${N100}/tensile/trajectory/dumpten.tens_${usic}_${trial}_*.cfg mass type xs ys zs fx fy fz
dump 2 all cfg 50000 ./trial8/100${N100}/tensile/trajectory/dumpten.tens_${usic}_${trial}_*.cfg mass type xs ys zs fx fy fz
dump 2 all cfg 50000 ./trial8/1000/tensile/trajectory/dumpten.tens_${usic}_${trial}_*.cfg mass type xs ys zs fx fy fz
dump 2 all cfg 50000 ./trial8/1000/tensile/trajectory/dumpten.tens_1_${trial}_*.cfg mass type xs ys zs fx fy fz
dump 2 all cfg 50000 ./trial8/1000/tensile/trajectory/dumpten.tens_1_8_*.cfg mass type xs ys zs fx fy fz
dump_modify 2 element N20 N100

fix 1 all nvt temp ${T} ${T} 100
fix 1 all nvt temp 300 ${T} 100
fix 1 all nvt temp 300 300 100
fix 2 all deform 1 x erate ${strain_rate} y erate ${strain_rate} z erate ${strain_rate} units box
fix 2 all deform 1 x erate 5e-6 y erate ${strain_rate} z erate ${strain_rate} units box
fix 2 all deform 1 x erate 5e-6 y erate 5e-6 z erate ${strain_rate} units box
fix 2 all deform 1 x erate 5e-6 y erate 5e-6 z erate 5e-6 units box
fix             def1 all print ${ts_save} "${p1} ${p2} ${p3} ${p4}" file ./tensile/${trial}/tensile${N20}${N100}_${usic}_${trial}.txt screen no
fix             def1 all print 1000 "${p1} ${p2} ${p3} ${p4}" file ./tensile/${trial}/tensile${N20}${N100}_${usic}_${trial}.txt screen no
fix             def1 all print 1000 "${p1} ${p2} ${p3} ${p4}" file ./tensile/8/tensile${N20}${N100}_${usic}_${trial}.txt screen no
fix             def1 all print 1000 "${p1} ${p2} ${p3} ${p4}" file ./tensile/8/tensile100${N100}_${usic}_${trial}.txt screen no
fix             def1 all print 1000 "${p1} ${p2} ${p3} ${p4}" file ./tensile/8/tensile1000_${usic}_${trial}.txt screen no
fix             def1 all print 1000 "${p1} ${p2} ${p3} ${p4}" file ./tensile/8/tensile1000_1_${trial}.txt screen no
fix             def1 all print 1000 "${p1} ${p2} ${p3} ${p4}" file ./tensile/8/tensile1000_1_8.txt screen no

timestep       		${ts}
timestep       		0.1
run				${steps_tensile}
run				6000000
Generated 0 of 1 mixed pair_coeff terms from geometric mixing rule
Unused restart file global fix info:
  fix style: npt, fix ID: 5
Neighbor list info ...
  update every 1 steps, delay 0 steps, check no
  max neighbors/atom: 2000, page size: 100000
  master list distance cutoff = 113.78
  ghost atom cutoff = 113.78
  binsize = 56.89, bins = 9 9 9
  1 neighbor lists, perpetual/occasional/extra = 1 0 0
  (1) pair table/pgn, perpetual
      attributes: half, newton on
      pair build: half/bin/atomonly/newton
      stencil: half/bin/3d
      bin: standard
Per MPI rank memory allocation (min/avg/max) = 3.863 | 3.863 | 3.864 Mbytes
   Step          Temp           v_p1           v_p2           v_p3           v_p4          Press            Lx             Ly             Lz           Volume        Density         E_pair         PotEng         KinEng         TotEng          Pxx            Pyy            Pzz            Pxy            Pxz            Pyz           S/CPU     
         0   313.40699      7.8683097e-16 -0.00099208963 -0.0057280391  -0.003660341    34.14909       505.70446      505.70446      505.70446      1.2932735e+08  2.8485253     -5232706.2     -5232706.2      933.27251     -5231773        9.7911634      56.531351      36.124757     -80.856752      23.458295     -64.480885      0            
      1000   315.71119      0.0005         0.013134315    0.0091907213   0.010947421   -109.45787      505.95732      505.95732      505.95732      1.2952143e+08  2.8442568     -5232596       -5232596        940.13401     -5231655.9     -129.62561     -90.705367     -108.04264     -77.539165      22.0438       -67.739513      14964.871    
      2000   315.96477      0.001          0.024818812    0.020853096    0.022716831   -224.98146      506.21017      506.21017      506.21017      1.2971572e+08  2.8399968     -5232151.1     -5232151.1      940.88912     -5231210.2     -244.94263     -205.80406     -224.19769     -73.315334      20.330106     -69.030659      15077.304    
      3000   313.20958      0.0015         0.032609723    0.028029709    0.029981576   -298.11994      506.46302      506.46302      506.46302      1.2991019e+08  2.8357453     -5231481.4     -5231481.4      932.68466     -5230548.7     -321.83295     -276.63172     -295.89514     -71.736511      20.26166      -66.095389      15186.442    
      4000   312.35779      0.002          0.038759911    0.033603416    0.035096092   -353.514        506.71587      506.71587      506.71587      1.3010486e+08  2.8315023     -5230638.6     -5230638.6      930.14816     -5229708.5     -382.53058     -331.63993     -346.3715      -74.278585      22.606084     -60.663134      15044.144    
      5000   311.80785      0.0025         0.045442657    0.040073218    0.041293181   -417.16936      506.96873      506.96873      506.96873      1.3029973e+08  2.8272678     -5229608.9     -5229608.9      928.51052     -5228680.4     -448.48416     -395.49191     -407.53201     -76.714382      23.112699     -55.431006      15189.259    
      6000   311.32672      0.003          0.052844158    0.047817007    0.049239184   -493.13381      507.22158      507.22158      507.22158      1.3049479e+08  2.8230417     -5228359.1     -5228359.1      927.07781     -5227432       -521.53129     -471.91717     -485.95296     -76.987149      20.228763     -52.125794      15234.178    
      7000   311.36647      0.0035         0.060868015    0.056374051    0.057916536   -576.227        507.47443      507.47443      507.47443      1.3069004e+08  2.818824      -5226874.2     -5226874.2      927.19617     -5225947       -600.7206      -556.36862     -571.59177     -75.751435      18.449751     -50.852083      15117.392    
      8000   312.33802      0.004          0.069806171    0.065093852    0.06661845    -662.94423      507.72728      507.72728      507.72728      1.3088549e+08  2.8146147     -5225149.3     -5225149.3      930.08929     -5224219.2     -688.93334     -642.42637     -657.47298     -72.980335      17.718672     -50.467799      15079.791    
      9000   314.44265      0.0045         0.078962792    0.073958167    0.075246048   -750.61109      507.98013      507.98013      507.98013      1.3108113e+08  2.8104138     -5223186.2     -5223186.2      936.35652     -5222249.8     -779.30216     -729.91036     -742.62076     -68.04175       17.791229     -51.875298      15131.088    
     10000   317.7478       0.005          0.08732506     0.082928669    0.083661191   -835.31514      508.23299      508.23299      508.23299      1.3127697e+08  2.8062212     -5220985.2     -5220985.2      946.19868     -5220039       -861.83134     -818.44233     -825.67175     -60.942304      19.318662     -52.657468      15135.442    
     11000   321.52184      0.0055         0.094912213    0.091273549    0.091321836   -912.92902      508.48584      508.48584      508.48584      1.31473e+08    2.802037      -5218566.3     -5218566.3      957.43713     -5217608.9     -936.71072     -900.79989     -901.27645     -57.867075      18.117562     -50.84802       14997.605    
     12000   324.71734      0.006          0.10155947     0.097979934    0.097749587   -978.00473      508.73869      508.73869      508.73869      1.3166923e+08  2.7978611     -5215959.4     -5215959.4      966.95279     -5214992.5     -1002.314      -966.98676     -964.71342     -60.436229      14.872835     -48.9142        15054.093    
     13000   326.84171      0.0065         0.10771181     0.1035637      0.10390946    -1036.8779      508.99154      508.99154      508.99154      1.3186566e+08  2.7936934     -5213174.7     -5213174.7      973.27879     -5212201.4     -1063.0329     -1022.0942     -1025.5067     -64.297177      13.533501     -46.508682      14903.266    
     14000   327.74691      0.007          0.11377217     0.10943802     0.11059098    -1098.1205      509.2444       509.2444       509.2444       1.3206228e+08  2.7895341     -5210213.7     -5210213.7      975.97434     -5209237.7     -1122.844      -1080.0693     -1091.4481     -66.557629      16.044573     -42.223735      14986.422    
     15000   328.27308      0.0075         0.12013392     0.11634024     0.11748132    -1164.423       509.49725      509.49725      509.49725      1.3225909e+08  2.785383      -5207064.4     -5207064.4      977.54118     -5206086.8     -1185.6296     -1148.1889     -1159.4504     -65.243029      20.553598     -39.751282      15183.386    
     16000   329.45496      0.008          0.12738689     0.12409588     0.12450856    -1236.9153      509.7501       509.7501       509.7501       1.324561e+08   2.7812402     -5203721.6     -5203721.6      981.06061     -5202740.5     -1257.2108     -1224.7311     -1228.804      -60.255286      21.325692     -40.82692       15022.84     
     17000   331.35884      0.0085         0.13504069     0.13174283     0.13140945    -1309.953       510.00295      510.00295      510.00295      1.326533e+08   2.7771055     -5200184.5     -5200184.5      986.73005     -5199197.7     -1332.748      -1300.2006     -1296.9105     -55.36821       17.433311     -41.703751      15181.355    
     18000   333.99845      0.009          0.14169279     0.13865985     0.13762622    -1375.0436      510.2558       510.2558       510.2558       1.328507e+08   2.772979      -5196457.6     -5196457.6      994.59035     -5195463       -1398.3991     -1368.4664     -1358.2652     -52.945472      13.010991     -41.691501      15047.819    
     19000   337.39166      0.0095         0.14723801     0.14463373     0.14308778    -1430.9056      510.50866      510.50866      510.50866      1.330483e+08   2.7688608     -5192564.6     -5192564.6      1004.6947     -5191559.9     -1453.1262     -1427.4239     -1412.1666     -53.38089       11.929588     -40.433893      14939.19     
     20000   340.53679      0.01           0.15263773     0.14999722     0.14850879    -1484.1475      510.76151      510.76151      510.76151      1.3324609e+08  2.7647506     -5188521.5     -5188521.5      1014.0604     -5187507.5     -1506.4172     -1480.3575     -1465.6678     -55.729148      14.194111     -38.215822      15029.761    
     21000   342.59276      0.0105         0.15840988     0.15514924     0.1545214     -1539.8652      511.01436      511.01436      511.01436      1.3344408e+08  2.7606486     -5184325       -5184325        1020.1827     -5183304.8     -1563.384      -1531.2039     -1525.0076     -54.62501       15.910073     -35.520715      15094.199    
     22000   343.71386      0.011          0.16433826     0.16060612     0.1607597     -1597.8422      511.26721      511.26721      511.26721      1.3364227e+08  2.7565547     -5179960.6     -5179960.6      1023.5212     -5178937.1     -1621.8926     -1585.0592     -1586.5749     -51.828265      13.370785     -34.458148      14417.583    
     23000   344.44008      0.0115         0.17006227     0.16656022     0.16636022    -1654.6845      511.52007      511.52007      511.52007      1.3384065e+08  2.7524689     -5175428.5     -5175428.5      1025.6837     -5174402.9     -1678.3841     -1643.8216     -1641.8477     -50.524777      11.280574     -34.657068      14899.826    
     24000   345.19252      0.012          0.17541246     0.17257258     0.17148379    -1708.9196      511.77292      511.77292      511.77292      1.3403922e+08  2.7483912     -5170738.2     -5170738.2      1027.9244     -5169710.3     -1731.1864     -1703.159      -1692.4134     -50.025398      13.508949     -33.841636      15004.079    
     25000   346.05175      0.0125         0.18031953     0.17812115     0.1764593     -1759.6841      512.02577      512.02577      512.02577      1.34238e+08    2.7443215     -5165900.8     -5165900.8      1030.483      -5164870.3     -1779.6154     -1757.919      -1741.5179     -48.799423      17.059842     -31.041593      14991.686    
     26000   347.7795       0.013          0.18484875     0.18293637     0.18146923    -1806.9063      512.27862      512.27862      512.27862      1.3443696e+08  2.7402599     -5160928.9     -5160928.9      1035.628      -5159893.3     -1824.3153     -1805.4416     -1790.962      -46.246044      17.552186     -27.202336      14904.84     
     27000   350.1944       0.0135         0.1894934      0.18756986     0.18684569    -1855.1162      512.53147      512.53147      512.53147      1.3463613e+08  2.7362062     -5155819.6     -5155819.6      1042.8191     -5154776.8     -1870.1545     -1851.1706     -1844.0236     -43.750251      14.868734     -24.523034      14883.667    
     28000   351.18222      0.014          0.19463732     0.19245336     0.19211509    -1905.4388      512.78433      512.78433      512.78433      1.3483549e+08  2.7321606     -5150567.2     -5150567.2      1045.7607     -5149521.4     -1920.921      -1899.367      -1896.0285     -44.318931      12.647392     -25.002559      14830.018    
     29000   350.97312      0.0145         0.19980675     0.19701008     0.19653527    -1951.9767      513.03718      513.03718      513.03718      1.3503505e+08  2.7281229     -5145174.6     -5145174.6      1045.138      -5144129.5     -1971.9393     -1944.3384     -1939.6523     -45.945295      14.103515     -27.257743      14747.52     
     30000   351.67933      0.015          0.20458802     0.20136322     0.20046441    -1994.9524      513.29003      513.29003      513.29003      1.3523481e+08  2.7240932     -5139649.9     -5139649.9      1047.241      -5138602.6     -2019.1268     -1987.3005     -1978.4299     -44.481244      17.642425     -28.199617      14963.505    
     31000   353.33285      0.0155         0.20897112     0.20603668     0.20482106    -2039.0784      513.54288      513.54288      513.54288      1.3543476e+08  2.7200714     -5134001.3     -5134001.3      1052.1649     -5132949.2     -2062.3846     -2033.4239     -2021.4267     -40.614544      17.191248     -27.870747      14835.31     
     32000   354.45026      0.016          0.2129783      0.21063778     0.20930852    -2082.16        513.79574      513.79574      513.79574      1.3563491e+08  2.7160575     -5128233.5     -5128233.5      1055.4923     -5127178       -2101.9324     -2078.8332     -2065.7145     -37.699546      14.323826     -25.799299      14859.673    
     33000   354.78986      0.0165         0.21647572     0.21489804     0.21329649    -2120.8002      514.04859      514.04859      514.04859      1.3583526e+08  2.7120515     -5122342.3     -5122342.3      1056.5036     -5121285.8     -2136.4492     -2120.8787     -2105.0727     -37.034277      13.620848     -22.520365      14993.498    
     34000   354.81493      0.017          0.22010372     0.21906512     0.2169174     -2158.3559      514.30144      514.30144      514.30144      1.360358e+08   2.7080534     -5116330       -5116330        1056.5783     -5115273.4     -2172.2548     -2162.0046     -2140.8083     -38.14741       12.236361     -19.467245      14891.792    
     35000   354.86446      0.0175         0.22449616     0.22320941     0.22073121    -2198.986       514.55429      514.55429      514.55429      1.3623654e+08  2.7040632     -5110204.8     -5110204.8      1056.7258     -5109148.1     -2215.6049     -2202.9056     -2178.4476     -39.447284      9.8717289     -16.440628      14800.357    
     36000   355.24857      0.018          0.228852       0.22728432     0.22477057    -2240.0095      514.80714      514.80714      514.80714      1.3643748e+08  2.7000808     -5103961.5     -5103961.5      1057.8696     -5102903.6     -2258.5936     -2243.1219     -2218.3131     -38.921809      9.2293867     -15.035313      14991.06     
     37000   355.81938      0.0185         0.23285551     0.23129614     0.22877863    -2279.5634      515.06         515.06         515.06         1.3663862e+08  2.6961061     -5097593.8     -5097593.8      1059.5693     -5096534.3     -2298.1052     -2282.7154     -2257.8695     -36.658897      10.119986     -14.338993      14871.35     
     38000   356.34055      0.019          0.23654537     0.23467734     0.23256892    -2315.2945      515.31285      515.31285      515.31285      1.3683995e+08  2.6921393     -5091107.2     -5091107.2      1061.1213     -5090046.1     -2334.5213     -2316.0853     -2295.2768     -33.353998      10.001522     -14.264393      14930.103    
     39000   357.0965       0.0195         0.23986905     0.23746447     0.23607652    -2346.9365      515.5657       515.5657       515.5657       1.3704148e+08  2.6881803     -5084523       -5084523        1063.3724     -5083459.6     -2367.3235     -2343.5921     -2329.8941     -30.600223      8.9479716     -16.524009      14983.223    
     40000   358.34841      0.02           0.24305134     0.2405956      0.23958851    -2379.2597      515.81855      515.81855      515.81855      1.3724321e+08  2.684229      -5077848.9     -5077848.9      1067.1004     -5076781.8     -2398.7302     -2374.494      -2364.5548     -31.052955      8.187241      -18.635615      14870.085    
     41000   359.11204      0.0205         0.24633781     0.2445069      0.24329098    -2415.1186      516.07141      516.07141      516.07141      1.3744514e+08  2.6802855     -5071075.7     -5071075.7      1069.3743     -5070006.3     -2431.1651     -2413.0955     -2401.0953     -33.601263      8.5047072     -15.990304      14868.754    
     42000   359.12095      0.021          0.24951997     0.24821636     0.24651963    -2448.4117      516.32426      516.32426      516.32426      1.3764727e+08  2.6763497     -5064199.9     -5064199.9      1069.4009     -5063130.5     -2462.5706     -2449.705      -2432.9595     -33.136351      9.333373      -10.918336      14840.517    
     43000   359.17755      0.0215         0.25236614     0.25113388     0.24894326    -2475.3459      516.57711      516.57711      516.57711      1.3784959e+08  2.6724216     -5057231       -5057231        1069.5694     -5056161.5     -2490.6602     -2478.4987     -2456.8789     -29.339718      10.317617     -8.7302386      14695.761    
     44000   359.43951      0.022          0.25498782     0.25342279     0.2509357     -2498.0551      516.82996      516.82996      516.82996      1.3805211e+08  2.6685012     -5050182.7     -5050182.7      1070.3495     -5049112.3     -2516.5341     -2501.0884     -2476.5428     -26.27649       9.5982617     -9.361083       14862.775    
     45000   360.02577      0.0225         0.25731128     0.25583352     0.25333498    -2521.5224      517.08282      517.08282      517.08282      1.3825483e+08  2.6645884     -5043055.4     -5043055.4      1072.0953     -5041983.3     -2539.4649     -2524.8805     -2500.2219     -24.913619      8.6465279     -9.5509805      15000.882    
     46000   360.44512      0.023          0.25964195     0.2588793      0.25652893    -2549.7168      517.33567      517.33567      517.33567      1.3845775e+08  2.6606833     -5035849.9     -5035849.9      1073.344      -5034776.5     -2562.4668     -2554.94       -2531.7436     -27.208424      8.2085443     -9.3660665      14851.875    
     47000   360.80114      0.0235         0.26222672     0.26207029     0.26001335    -2580.1805      517.58852      517.58852      517.58852      1.3866086e+08  2.6567858     -5028549.9     -5028549.9      1074.4042     -5027475.5     -2587.9765     -2586.4326     -2566.1323     -31.159021      8.3788236     -9.5476683      14860.366    
     48000   361.32852      0.024          0.26497427     0.26478666     0.2629223     -2607.7251      517.84137      517.84137      517.84137      1.3886418e+08  2.652896      -5021160.7     -5021160.7      1075.9746     -5020084.7     -2615.0927     -2613.2411     -2594.8413     -31.301269      7.6967353     -9.1093586      13876.646    
     49000   361.94763      0.0245         0.26740155     0.26683348     0.26481128    -2628.658       518.09422      518.09422      518.09422      1.3906769e+08  2.6490137     -5013705.7     -5013705.7      1077.8182     -5012627.9     -2639.0482     -2633.4417     -2613.4841     -24.056971      4.4323317     -7.8844355      14792.541    
     50000   362.74661      0.025          0.26957946     0.2685466      0.26630878    -2646.3849      518.34708      518.34708      518.34708      1.3927141e+08  2.6451389     -5006193.5     -5006193.5      1080.1974     -5005113.3     -2660.5424     -2650.3488     -2628.2633     -14.838882      2.2898526     -6.6328766      14499.592    
     51000   363.51772      0.0255         0.27151697     0.27050389     0.26829867    -2665.744       518.59993      518.59993      518.59993      1.3947532e+08  2.6412718     -4998618.7     -4998618.7      1082.4937     -4997536.2     -2679.6641     -2669.6658     -2647.902      -12.704207      4.9371157     -4.5349058      14903.965    
     52000   363.74296      0.026          0.27296859     0.27293776     0.27069922    -2686.4234      518.85278      518.85278      518.85278      1.3967943e+08  2.6374122     -4990966.2     -4990966.2      1083.1644     -4989883.1     -2693.9905     -2693.6862     -2671.5936     -17.305063      11.577936     -1.7404712      14730.514    
     53000   363.45051      0.0265         0.27436414     0.27532753     0.27297374    -2706.3588      519.10563      519.10563      519.10563      1.3988374e+08  2.6335601     -4983245.7     -4983245.7      1082.2936     -4982163.4     -2707.7635     -2717.2714     -2694.0414     -20.733041      14.851165     -0.79349058     14505.209    
     54000   363.53681      0.027          0.27617436     0.27693278     0.27464783    -2723.1021      519.35849      519.35849      519.35849      1.4008824e+08  2.6297154     -4975475.7     -4975475.7      1082.5505     -4974393.1     -2725.6291     -2733.114      -2710.5633     -21.370303      11.129049     -1.6403029      14790.685    
     55000   364.32345      0.0275         0.27835653     0.27795496     0.27603001    -2738.1906      519.61134      519.61134      519.61134      1.4029295e+08  2.6258783     -4967660.5     -4967660.5      1084.893      -4966575.6     -2747.1653     -2743.2021     -2724.2044     -20.817804      5.1005828     -1.6713625      14697.25     
     56000   365.57071      0.028          0.28013266     0.27911578     0.27737262    -2752.2693      519.86419      519.86419      519.86419      1.4049786e+08  2.6220486     -4959793.4     -4959793.4      1088.6072     -4958704.8     -2764.6944     -2754.6586     -2737.4549     -18.106417      1.4627468     -1.1865889      14827.566    
     57000   366.63841      0.0285         0.28183197     0.28103092     0.27866979    -2768.4273      520.11704      520.11704      520.11704      1.4070297e+08  2.6182264     -4951868       -4951868        1091.7866     -4950776.2     -2781.4653     -2773.5595     -2750.257      -14.454442      1.6059943     -0.74986521     14789.316    
     58000   366.79992      0.029          0.28359556     0.28316106     0.27998523    -2785.5641      520.36989      520.36989      520.36989      1.4090827e+08  2.6144116     -4943894.2     -4943894.2      1092.2675     -4942801.9     -2798.8705     -2794.5824     -2763.2394     -12.662828      3.4471106     -1.0206291      14745.335    
     59000   366.8518       0.0295         0.28476314     0.28451663     0.28139779    -2798.5116      520.62275      520.62275      520.62275      1.4111378e+08  2.6106042     -4935876.9     -4935876.9      1092.422      -4934784.5     -2810.3937     -2807.9608     -2777.1803     -12.983722      4.9682289     -1.044952       14824.325    
     60000   367.51611      0.03           0.28555108     0.28523422     0.28312069    -2809.1323      520.8756       520.8756       520.8756       1.4131948e+08  2.6068042     -4927812.5     -4927812.5      1094.4002     -4926718.1     -2818.17       -2815.0429     -2794.1839     -13.733298      6.4606005     -1.5651855      14880.22     
     61000   368.01261      0.0305         0.28631626     0.28601426     0.28491537    -2820.1197      521.12845      521.12845      521.12845      1.4152539e+08  2.6030116     -4919715.7     -4919715.7      1095.8787     -4918619.8     -2825.7218     -2822.7413     -2811.8961     -14.447165      8.0369923     -1.9273265      14676.773    
     62000   368.07587      0.031          0.28675669     0.28666581     0.28593191    -2827.0562      521.3813       521.3813       521.3813       1.4173149e+08  2.5992263     -4911595.5     -4911595.5      1096.0671     -4910499.4     -2830.0685     -2829.1716     -2821.9285     -13.02657       7.5180104     -0.069311191    14719.578    
     63000   368.16476      0.0315         0.2872684      0.28743689     0.28631128    -2832.5243      521.63416      521.63416      521.63416      1.419378e+08   2.5954483     -4903441.2     -4903441.2      1096.3318     -4902344.9     -2835.1187     -2836.7816     -2825.6727     -11.1172        4.4374         3.149594       14771.136    
     64000   368.27642      0.032          0.28814469     0.28855397     0.2867877     -2840.6493      521.88701      521.88701      521.88701      1.421443e+08   2.5916777     -4895247.1     -4895247.1      1096.6643     -4894150.4     -2843.767      -2847.8063     -2830.3746     -10.253145      1.5334661      7.6570076      14896.549    
     65000   368.40008      0.0325         0.28919225     0.28982713     0.28767023    -2851.1872      522.13986      522.13986      522.13986      1.4235101e+08  2.5879144     -4887014.1     -4887014.1      1097.0325     -4885917       -2854.1056     -2860.3714     -2839.0844     -10.095871      2.3784447      9.8910224      14742.914    
     66000   369.03393      0.033          0.29020066     0.29070407     0.28835896    -2859.6552      522.39271      522.39271      522.39271      1.4255791e+08  2.5841583     -4878758.4     -4878758.4      1098.92       -4877659.5     -2864.0579     -2869.0261     -2845.8816     -8.544986       4.836493       6.3159883      14783.116    
     67000   370.34933      0.0335         0.29102735     0.29075684     0.28844217    -2862.8221      522.64556      522.64556      522.64556      1.4276502e+08  2.5804096     -4870495.1     -4870495.1      1102.8371     -4869392.3     -2872.2166     -2869.5469     -2846.7029     -4.502253       6.0269243      1.5562096      14815.347    
     68000   371.76732      0.034          0.29155143     0.29080879     0.28872195    -2865.6375      522.89842      522.89842      522.89842      1.4297232e+08  2.576668      -4862217.3     -4862217.3      1107.0596     -4861110.3     -2877.3889     -2870.0597     -2849.4641     -0.4928096      5.8595073      0.3255763      14773.005    
     69000   372.58114      0.0345         0.29158924     0.29173279     0.28987856    -2872.6066      523.15127      523.15127      523.15127      1.4317983e+08  2.5729337     -4853914.4     -4853914.4      1109.483      -4852804.9     -2877.7621     -2879.1788     -2860.8789     -1.0595575      4.3836696      2.4872962      14744.886    
     70000   372.81749      0.035          0.29147618     0.29281119     0.29073506    -2878.6         523.40412      523.40412      523.40412      1.4338754e+08  2.5692066     -4845582.3     -4845582.3      1110.1868     -4844472.1     -2876.6462     -2889.8218     -2869.3319     -4.8644473      3.2826583      6.379701       14860.913    
     71000   373.01884      0.0355         0.29157582     0.29295458     0.29053698    -2878.7479      523.65697      523.65697      523.65697      1.4359545e+08  2.5654868     -4837233.7     -4837233.7      1110.7864     -4836122.9     -2877.6296     -2891.2369     -2867.3771     -7.3239501      1.6641452      8.0603816      14734.452    
     72000   373.48632      0.036          0.29162675     0.29200128     0.28997677    -2873.9363      523.90983      523.90983      523.90983      1.4380356e+08  2.561774      -4828885.9     -4828885.9      1112.1785     -4827773.7     -2878.1323     -2881.8286     -2861.8482     -7.4567804     -2.3514884      9.072565       14695.481    
     73000   373.98258      0.0365         0.29138777     0.29124052     0.28976973    -2869.9664      524.16268      524.16268      524.16268      1.4401187e+08  2.5580685     -4820545.6     -4820545.6      1113.6563     -4819432       -2875.7737     -2874.3205     -2859.8049     -7.2372198     -5.6789846      9.2570348      14757.45     
     74000   374.39755      0.037          0.29081008     0.29135603     0.29011107    -2869.5688      524.41553      524.41553      524.41553      1.4422038e+08  2.5543701     -4812211.7     -4812211.7      1114.892      -4811096.8     -2870.0724     -2875.4605     -2863.1737     -4.9243917     -5.8322104      7.208658       14787.409    
     75000   374.79345      0.0375         0.29048184     0.29177475     0.29052802    -2871.2381      524.66838      524.66838      524.66838      1.4442909e+08  2.5506788     -4803880.2     -4803880.2      1116.0709     -4802764.1     -2866.8328     -2879.5929     -2867.2886      0.24831128    -5.0326808      4.7364408      14757.94     
     76000   375.00401      0.038          0.29062692     0.29151314     0.29011697    -2869.5025      524.92123      524.92123      524.92123      1.4463801e+08  2.5469946     -4795538.3     -4795538.3      1116.6979     -4794421.6     -2868.2647     -2877.011      -2863.2319      2.8824622     -3.1578131      3.2841037      14940.25     
     77000   375.12018      0.0385         0.29058487     0.29072847     0.28899718    -2863.099       525.17409      525.17409      525.17409      1.4484712e+08  2.5433175     -4787184.9     -4787184.9      1117.0438     -4786067.9     -2867.8497     -2869.2669     -2852.1804      0.85241971     1.190874       5.2836643      14551.043    
     78000   375.5536       0.039          0.28974972     0.28989647     0.28806015    -2854.5319      525.42694      525.42694      525.42694      1.4505644e+08  2.5396475     -4778839.5     -4778839.5      1118.3345     -4777721.2     -2859.6074     -2861.0557     -2842.9326     -1.745158       3.8042882      11.263468      14623.269    
     79000   376.0792       0.0395         0.28874506     0.28923725     0.2877129     -2847.9158      525.67979      525.67979      525.67979      1.4526596e+08  2.5359846     -4770520.3     -4770520.3      1119.8996     -4769400.4     -2849.6922     -2854.5497     -2839.5055     -2.4046209      2.0154685      15.063887      14763.041    
     80000   376.32491      0.04           0.28826852     0.28860687     0.28762982    -2844.001       525.93264      525.93264      525.93264      1.4547568e+08  2.5323287     -4762221.1     -4762221.1      1120.6313     -4761100.5     -2844.9891     -2848.3283     -2838.6856     -3.6001675     -0.5126943      12.870614      14654.467    
     81000   376.62594      0.0405         0.28815763     0.28784799     0.28731031    -2840.0886      526.1855       526.1855       526.1855       1.456856e+08   2.5286798     -4753932.5     -4753932.5      1121.5278     -4752811       -2843.8947     -2840.8388     -2835.5323     -6.0776399     -1.4943761      6.9707211      14711.513    
     82000   377.30651      0.041          0.28801056     0.28678656     0.28632621    -2832.8755      526.43835      526.43835      526.43835      1.4589572e+08  2.5250379     -4745660.5     -4745660.5      1123.5544     -4744536.9     -2842.4432     -2830.3633     -2825.82       -5.0978953     -1.659129       2.9183997      14714.142    
     83000   378.00173      0.0415         0.28730361     0.28611303     0.28506144    -2824.1733      526.6912       526.6912       526.6912       1.4610605e+08  2.521403      -4737402.4     -4737402.4      1125.6246     -4736276.8     -2835.4662     -2823.7161     -2813.3377      1.5151918     -2.1494759      3.1153962      14875.133    
     84000   378.5708       0.042          0.28578349     0.28581241     0.28437922    -2815.9392      526.94405      526.94405      526.94405      1.4631657e+08  2.5177751     -4729154.3     -4729154.3      1127.3192     -4728027       -2820.4638     -2820.7492     -2806.6047      7.3228897     -2.7348505      6.1084244      14811.536    
     85000   379.6049       0.0425         0.28423032     0.28524134     0.28427004    -2808.5918      527.1969       527.1969       527.1969       1.465273e+08   2.5141541     -4720920.1     -4720920.1      1130.3986     -4719789.7     -2805.1351     -2815.1131     -2805.5272      6.6906397     -5.0546834      10.577493      9405.5799    
     86000   380.3665       0.043          0.28317543     0.28420644     0.28391092    -2800.5355      527.44976      527.44976      527.44976      1.4673823e+08  2.5105401     -4712714.5     -4712714.5      1132.6665     -4711581.9     -2794.7242     -2804.8994     -2801.9829      2.477427      -8.2861203      13.078091      14286.878    
     87000   380.26441      0.0435         0.28232253     0.28279925     0.28260867    -2788.8164      527.70261      527.70261      527.70261      1.4694937e+08  2.506933      -4704538.4     -4704538.4      1132.3625     -4703406.1     -2786.3068     -2791.0116     -2789.1307     -1.0371582     -8.8358077      12.430762      14570.786    
     88000   379.76236      0.044          0.28124738     0.28157398     0.2808256     -2775.3827      527.95546      527.95546      527.95546      1.471607e+08   2.5033328     -4696389.6     -4696389.6      1130.8675     -4695258.7     -2775.6958     -2778.9191     -2771.5332     -1.0409601     -5.3346098      8.279592       14484.595    
     89000   379.53519      0.0445         0.27991654     0.28051698     0.27944765    -2762.9942      528.20831      528.20831      528.20831      1.4737224e+08  2.4997395     -4688268.7     -4688268.7      1130.191      -4687138.5     -2762.5614     -2768.4874     -2757.9338      3.0157596     -2.1023683      2.9309047      14581.596    
     90000   379.82515      0.045          0.27853758     0.2795615      0.27857449    -2752.4421      528.46117      528.46117      528.46117      1.4758399e+08  2.4961531     -4680184.1     -4680184.1      1131.0544     -4679053       -2748.9522     -2759.0575     -2749.3164      6.1405175     -2.1098768      2.46523        14614.627    
     91000   380.56145      0.0455         0.277148       0.2784493      0.27769196    -2741.3085      528.71402      528.71402      528.71402      1.4779593e+08  2.4925735     -4672132.3     -4672132.3      1133.247      -4670999.1     -2735.2381     -2748.081      -2740.6066      6.1116454     -2.6123813      6.390374       14541.564    
     92000   380.90947      0.046          0.27622371     0.27724792     0.27671907    -2731.115       528.96687      528.96687      528.96687      1.4800808e+08  2.4890008     -4664094.1     -4664094.1      1134.2834     -4662959.8     -2726.1161     -2736.2242     -2731.0048      5.2917681     -3.7698821      9.7436498      14457.227    
     93000   380.13496      0.0465         0.27525277     0.27594        0.2753665     -2719.1686      529.21972      529.21972      529.21972      1.4822043e+08  2.4854349     -4656076       -4656076        1131.977      -4654944.1     -2716.5337     -2723.3161     -2717.656       5.7932949     -5.0897378      10.681752      14648.257    
     94000   379.71142      0.047          0.27373661     0.27422602     0.27325517    -2701.5965      529.47257      529.47257      529.47257      1.4843298e+08  2.4818758     -4648104.1     -4648104.1      1130.7158     -4646973.4     -2701.5702     -2706.4004     -2696.8189      6.7806089     -5.7872516      10.949918      14501.302    
     95000   380.83618      0.0475         0.27191433     0.27219816     0.27130945    -2682.5296      529.72543      529.72543      529.72543      1.4864574e+08  2.4783235     -4640190.9     -4640190.9      1134.0651     -4639056.8     -2683.5858     -2686.387      -2677.6161      6.4470244     -7.8104621      10.846468      14060.309    
     96000   382.32346      0.048          0.27045959     0.2704087      0.27034502    -2668.6843      529.97828      529.97828      529.97828      1.488587e+08   2.474778      -4632323.7     -4632323.7      1138.494      -4631185.2     -2669.2286     -2668.7264     -2668.0979      4.7835064     -9.9273735      8.8579874      14885.578    
     97000   382.65699      0.0485         0.26931835     0.2689678      0.26960172    -2657.7445      530.23113      530.23113      530.23113      1.4907186e+08  2.4712392     -4624492.1     -4624492.1      1139.4872     -4623352.6     -2657.9655     -2654.5058     -2660.7621      3.679725      -10.743203      6.314846       14768.482    
     98000   382.18493      0.049          0.26784049     0.26767598     0.26826729    -2644.2429      530.48398      530.48398      530.48398      1.4928523e+08  2.4677072     -4616690.8     -4616690.8      1138.0815     -4615552.7     -2643.3801     -2641.7565     -2647.5923      4.4168088     -8.9504025      5.4731566      14753.272    
     99000   381.95108      0.0495         0.26618088     0.26633843     0.26654653    -2628.7222      530.73684      530.73684      530.73684      1.4949879e+08  2.4641819     -4608919.1     -4608919.1      1137.3851     -4607781.7     -2627.0011     -2628.5559     -2630.6097      5.8357077     -7.4669179      6.4093874      14874.102    
    100000   382.08945      0.05           0.26475075     0.26464795     0.26505446    -2613.5477      530.98969      530.98969      530.98969      1.4971257e+08  2.4606633     -4601186.7     -4601186.7      1137.7971     -4600048.9     -2612.8868     -2611.8722     -2615.8841      4.1529305     -9.1078934      7.616159       14226.959    
    101000   382.44462      0.0505         0.26321095     0.26273945     0.26338352    -2596.7067      531.24254      531.24254      531.24254      1.4992655e+08  2.4571514     -4593503.9     -4593503.9      1138.8548     -4592365       -2597.6901     -2593.0367     -2599.3932      2.6379544     -10.969978      8.1593597      14734.573    
    102000   383.05638      0.051          0.2613563      0.26114379     0.26160366    -2579.5008      531.49539      531.49539      531.49539      1.5014073e+08  2.4536462     -4585872.6     -4585872.6      1140.6765     -4584731.9     -2579.3861     -2577.2888     -2581.8274      4.5352218     -8.8583977      8.3360003      14941.965    
    103000   383.36676      0.0515         0.25963672     0.25979098     0.26027863    -2565.0344      531.74824      531.74824      531.74824      1.5035511e+08  2.4501476     -4578288.2     -4578288.2      1141.6008     -4577146.6     -2562.4152     -2563.9377     -2568.7504      7.4676306     -6.2112929      8.0829349      14754.607    
    104000   382.51741      0.052          0.25814527     0.25846746     0.25902807    -2551.6598      532.0011       532.0011       532.0011       1.505697e+08   2.4466557     -4570745       -4570745        1139.0715     -4569606       -2547.6957     -2550.8755     -2556.4083      9.7180344     -6.123436       7.8753567      14733.198    
    105000   381.04841      0.0525         0.25652256     0.25681385     0.25712095    -2534.6077      532.25395      532.25395      532.25395      1.5078449e+08  2.4431705     -4563228.2     -4563228.2      1134.6971     -4562093.5     -2531.6808     -2534.5557     -2537.5865      10.557393     -9.3612024      7.8848162      14730.408    
    106000   380.05399      0.053          0.25484162     0.25473515     0.25514958    -2515.7541      532.5068       532.5068       532.5068       1.5099949e+08  2.4396918     -4555736.1     -4555736.1      1131.7359     -4554604.4     -2515.0912     -2514.0404     -2518.1306      7.5344008     -14.553885      8.0974446      14828.227    
    107000   379.73517      0.0535         0.25314352     0.25245272     0.25341316    -2496.9468      532.75965      532.75965      532.75965      1.5121469e+08  2.4362198     -4548300.3     -4548300.3      1130.7865     -4547169.5     -2498.3323     -2491.5147     -2500.9934      2.7803791     -17.016328      7.8496083      14791.421    
    108000   380.06796      0.054          0.25133192     0.2502826      0.25168482    -2478.1622      533.01251      533.01251      533.01251      1.514301e+08   2.4327543     -4540943.9     -4540943.9      1131.7775     -4539812.2     -2480.4532     -2470.0973     -2483.9361      1.165965      -13.570597      7.6927135      14691.567    
    109000   380.27041      0.0545         0.24946224     0.24885566     0.25003669    -2461.8952      533.26536      533.26536      533.26536      1.5164571e+08  2.4292954     -4533645.2     -4533645.2      1132.3803     -4532512.8     -2462.0009     -2456.0144     -2467.6703      4.6286749     -6.6544272      6.5639689      14714.347    
    110000   379.1884       0.055          0.24771173     0.24796188     0.24826163    -2447.3566      533.51821      533.51821      533.51821      1.5186152e+08  2.4258431     -4526376.8     -4526376.8      1129.1583     -4525247.6     -2444.7247     -2447.1935     -2450.1518      7.9682631     -3.095389       4.3159679      14745.503    
    111000   377.7425       0.0555         0.24599846     0.24644455     0.24618648    -2429.9021      533.77106      533.77106      533.77106      1.5207754e+08  2.4223973     -4519136.9     -4519136.9      1124.8527     -4518012.1     -2427.816      -2432.2186     -2429.6716      8.0577583     -5.8666931      3.2661772      14823.674    
    112000   376.9456       0.056          0.24442765     0.24425555     0.24441422    -2411.703       534.02391      534.02391      534.02391      1.5229376e+08  2.418958      -4511938.9     -4511938.9      1122.4796     -4510816.4     -2412.3133     -2410.6149     -2412.1808      6.3184032     -11.665285      4.7773932      14744.028    
    113000   376.53046      0.0565         0.2427171      0.24197758     0.24320022    -2394.588       534.27677      534.27677      534.27677      1.5251019e+08  2.4155253     -4504787.6     -4504787.6      1121.2434     -4503666.3     -2395.4316     -2388.133      -2400.1996      3.6283323     -13.818147      6.5059273      14699.73     
    114000   376.37143      0.057          0.24084564     0.24041495     0.2420876     -2379.6305      534.52962      534.52962      534.52962      1.5272683e+08  2.412099      -4497691.2     -4497691.2      1120.7698     -4496570.4     -2376.9617     -2372.7111     -2389.2188      1.3707602     -11.321718      6.3390968      14763.664    
    115000   376.33197      0.0575         0.23893918     0.2392244      0.24041076    -2363.9258      534.78247      534.78247      534.78247      1.5294366e+08  2.4086792     -4490644.8     -4490644.8      1120.6523     -4489524.2     -2358.1464     -2360.9613     -2372.6697      1.0475386     -10.174522      5.5322215      14895.367    
    116000   376.25424      0.058          0.23729698     0.23777004     0.2383936     -2347.1029      535.03532      535.03532      535.03532      1.5316071e+08  2.4052658     -4483631       -4483631        1120.4209     -4482510.6     -2341.9391     -2346.6079     -2352.7619      4.4841297     -11.5516        5.4803985      14714.4      
    117000   376.02734      0.0585         0.23616281     0.23637187     0.23691101    -2333.8949      535.28818      535.28818      535.28818      1.5337796e+08  2.4018589     -4476654.3     -4476654.3      1119.7452     -4475534.5     -2330.7457     -2332.809      -2338.1298      7.7934023     -12.29594       5.3674487      14678.526    
    118000   375.07768      0.059          0.23509388     0.23518898     0.23569576    -2322.4891      535.54103      535.54103      535.54103      1.5359541e+08  2.3984585     -4469722.2     -4469722.2      1116.9173     -4468605.3     -2320.1962     -2321.1348     -2326.1363      8.1991765     -9.8632444      5.3254674      14876.756    
    119000   373.92285      0.0595         0.23311619     0.23331781     0.23385569    -2303.774       535.79388      535.79388      535.79388      1.5381307e+08  2.3950644     -4462828.6     -4462828.6      1113.4784     -4461715.1     -2300.6779     -2302.6677     -2307.9763      6.9263727     -6.3872871      6.7415722      14544.961    
    120000   373.62993      0.06           0.23064148     0.23056862     0.2317343     -2279.6098      536.04673      536.04673      536.04673      1.5403094e+08  2.3916768     -4455981.1     -4455981.1      1112.6061     -4454868.5     -2276.2544     -2275.5353     -2287.0397      4.9050665     -5.503703       9.1891325      14526.161    
    121000   373.12509      0.0605         0.22893617     0.2279722      0.2303075     -2260.7644      536.29958      536.29958      536.29958      1.5424901e+08  2.3882955     -4449192.4     -4449192.4      1111.1028     -4448081.3     -2259.4243     -2249.9107     -2272.9583      4.362578      -7.2850818      9.3942529      14921.081    
    122000   371.56223      0.061          0.22804674     0.22626661     0.22917475    -2248.501       536.55244      536.55244      536.55244      1.5446729e+08  2.3849207     -4442450.6     -4442450.6      1106.4489     -4441344.2     -2250.6463     -2233.0778     -2261.779       4.4615485     -12.61751       6.343534       14705.043    
    123000   370.33012      0.0615         0.22675647     0.22535693     0.22783076    -2236.8424      536.80529      536.80529      536.80529      1.5468577e+08  2.3815521     -4435740.7     -4435740.7      1102.7799     -4434637.9     -2237.9123     -2224.1        -2248.5148      3.6389417     -17.596901      4.7747129      14786.567    
    124000   370.07824      0.062          0.22496561     0.22465539     0.22627751    -2223.5332      537.05814      537.05814      537.05814      1.5490446e+08  2.3781899     -4429060.3     -4429060.3      1102.0298     -4427958.3     -2220.2379     -2217.1763     -2233.1854      4.2762671     -17.282396      6.7400948      14837.676    
    125000   369.82903      0.0625         0.22332895     0.22359341     0.22416713    -2207.7128      537.31099      537.31099      537.31099      1.5512335e+08  2.3748341     -4422417.9     -4422417.9      1101.2877     -4421316.6     -2204.0853     -2206.6954     -2212.3576      6.8273558     -12.042991      9.2788757      14676.835    
    126000   369.21933      0.063          0.2219364      0.2219527      0.22168725    -2189.5759      537.56385      537.56385      537.56385      1.5534245e+08  2.3714845     -4415823.9     -4415823.9      1099.4721     -4414724.5     -2190.3419     -2190.5028     -2187.883       7.845486      -6.9715513      10.043873      14765.059    
    127000   368.2726       0.0635         0.22038843     0.21994048     0.21970982    -2171.3586      537.8167       537.8167       537.8167       1.5556176e+08  2.3681413     -4409284.3     -4409284.3      1096.6529     -4408187.6     -2175.0647     -2170.6437     -2168.3674      5.5788513     -6.2370665      9.5746262      14901.013    
    128000   366.74898      0.064          0.21861996     0.21812241     0.21876818    -2156.462       538.06955      538.06955      538.06955      1.5578127e+08  2.3648043     -4402781.2     -4402781.2      1092.1158     -4401689.1     -2157.6112     -2152.7009     -2159.074       2.1399161     -8.0505467      9.2273991      14849.123    
    129000   364.84357      0.0645         0.21671501     0.21686046     0.21809973    -2143.8447      538.3224       538.3224       538.3224       1.5600099e+08  2.3614736     -4396298.3     -4396298.3      1086.4418     -4395211.8     -2138.8109     -2140.2463     -2152.4769      0.89010422    -10.884375      8.0215096      14714.77     
    130000   363.21077      0.065          0.21496969     0.21545367     0.21687197    -2129.4361      538.57525      538.57525      538.57525      1.5622092e+08  2.3581491     -4389848.8     -4389848.8      1081.5797     -4388767.2     -2121.5859     -2126.3624     -2140.3599      1.924454      -15.398396      4.3196624      14698.473    
    131000   362.73413      0.0655         0.21364826     0.21344336     0.21507198    -2112.554       538.82811      538.82811      538.82811      1.5644105e+08  2.3548309     -4383460       -4383460        1080.1603     -4382379.9     -2108.5444     -2106.5222     -2122.5954      3.8641212     -19.172132      1.4412227      14635.238    
    132000   363.1058       0.066          0.21285423     0.21160954     0.21378935    -2099.6895      539.08096      539.08096      539.08096      1.5666139e+08  2.3515189     -4377113.9     -4377113.9      1081.2671     -4376032.7     -2100.7079     -2088.4237     -2109.9369      5.4326182     -18.595348      2.3829361      14689.864    
    133000   362.37966      0.0665         0.21246311     0.2106635      0.21316303    -2093.2302      539.33381      539.33381      539.33381      1.5688194e+08  2.3482131     -4370785.3     -4370785.3      1079.1048     -4369706.2     -2096.8479     -2079.087      -2103.7555      6.1326202     -13.950913      5.5778573      14909.05     
    134000   360.76778      0.067          0.21165128     0.20992583     0.212271      -2085.1982      539.58666      539.58666      539.58666      1.5710269e+08  2.3449135     -4364466.3     -4364466.3      1074.3048     -4363392       -2088.8358     -2071.8069     -2094.9519      5.6902886     -9.7752225      7.4303761      14497.664    
    135000   359.61692      0.0675         0.21042612     0.20889125     0.21044135    -2071.7451      539.83952      539.83952      539.83952      1.5732365e+08  2.3416201     -4358167.8     -4358167.8      1070.8778     -4357096.9     -2076.7443     -2061.5964     -2076.8947      5.8489232     -9.3859871      6.1259468      14524.797    
    136000   358.70872      0.068          0.20896492     0.20769742     0.20840617    -2056.3155      540.09237      540.09237      540.09237      1.5754482e+08  2.3383328     -4351904.2     -4351904.2      1068.1733     -4350836       -2062.3234     -2049.8142     -2056.809       6.7416417     -12.880576      4.4322091      14775.892    
    137000   357.5442       0.0685         0.20700287     0.2060434      0.20657864    -2038.4075      540.34522      540.34522      540.34522      1.5776619e+08  2.3350517     -4345690.2     -4345690.2      1064.7056     -4344625.5     -2042.9595     -2033.4903     -2038.7727      5.8993368     -15.526284      4.4303164      14602.528    
    138000   356.71891      0.069          0.2047213      0.20406187     0.20495372    -2019.0374      540.59807      540.59807      540.59807      1.5798777e+08  2.3317768     -4339531.3     -4339531.3      1062.248      -4338469       -2020.4422     -2013.9341     -2022.736       1.7542125     -13.805173      3.9047657      14536.406    
    139000   355.92713      0.0695         0.20287994     0.20242386     0.20398112    -2004.3916      540.85092      540.85092      540.85092      1.5820956e+08  2.3285079     -4333419.6     -4333419.6      1059.8902     -4332359.7     -2002.2693     -1997.7682     -2013.1371     -2.1904558     -11.632429      1.6014074      14635.286    
    140000   354.37493      0.07           0.20205003     0.20145664     0.20365664    -1997.412       541.10378      541.10378      541.10378      1.5843156e+08  2.3252452     -4327329.6     -4327329.6      1055.268      -4326274.3     -1994.0788     -1988.2225     -2009.9347     -3.5331198     -12.715564      2.0776421      14847.676    
    141000   352.62554      0.0705         0.20170315     0.20119416     0.20313645    -1993.6961      541.35663      541.35663      541.35663      1.5865376e+08  2.3219885     -4321245.2     -4321245.2      1050.0587     -4320195.1     -1990.6553     -1985.632      -2004.8009     -1.277195      -13.782571      7.5913012      14802.249    
    142000   351.97373      0.071          0.20123692     0.20095163     0.20173213    -1986.7446      541.60948      541.60948      541.60948      1.5887618e+08  2.318738      -4315169.8     -4315169.8      1048.1177     -4314121.6     -1986.054      -1983.2384     -1990.9413      4.0838652     -13.262158      12.449375      14833.726    
    143000   352.66086      0.0715         0.20048228     0.19996809     0.19988584    -1974.9526      541.86233      541.86233      541.86233      1.5909879e+08  2.3154935     -4309116.6     -4309116.6      1050.1638     -4308066.4     -1978.6063     -1973.5316     -1972.7199      8.0117282     -12.403946      11.206156      14836.342    
    144000   353.70983      0.072          0.19921475     0.19841374     0.19860469    -1961.4547      542.11519      542.11519      542.11519      1.5932162e+08  2.312255      -4303104       -4303104        1053.2875     -4302050.7     -1966.0967     -1958.1914     -1960.0759      6.7513987     -12.131081      4.7916466      14635.059    
    145000   353.90771      0.0725         0.19773891     0.19696114     0.19796492    -1949.7161      542.36804      542.36804      542.36804      1.5954466e+08  2.3090226     -4297135.6     -4297135.6      1053.8767     -4296081.7     -1951.5313     -1943.8553     -1953.7618      2.4276473     -12.341209     -0.81107486     14686.025    
    146000   352.4032       0.073          0.19671285     0.19570929     0.19723407    -1939.8181      542.62089      542.62089      542.62089      1.597679e+08   2.3057962     -4291185.1     -4291185.1      1049.3965     -4290135.7     -1941.4048     -1931.5005     -1946.5489     -1.3765023     -10.051741     -1.8276208      14710.035    
    147000   349.89951      0.0735         0.19584971     0.19439503     0.19606554    -1928.8108      542.87374      542.87374      542.87374      1.5999135e+08  2.3025758     -4285244.9     -4285244.9      1041.941      -4284202.9     -1932.8864     -1918.5298     -1935.0164     -3.8400526     -5.856161       1.9420697      14623.456    
    148000   347.86458      0.074          0.19472173     0.19308088     0.1946896     -1916.2504      543.12659      543.12659      543.12659      1.6021501e+08  2.2993614     -4279340.2     -4279340.2      1035.8813     -4278304.4     -1921.7541     -1905.5601     -1921.4369     -4.1752164     -4.5838367      8.0766744      14778.851    
    149000   346.72664      0.0745         0.19339811     0.19202585     0.19364621    -1904.9927      543.37945      543.37945      543.37945      1.6043888e+08  2.296153      -4273469.7     -4273469.7      1032.4927     -4272437.2     -1908.6909     -1895.1478     -1911.1395     -0.5668296     -7.2412302      14.039616      14658.145    
    150000   346.18089      0.075          0.19207609     0.19126016     0.19266384    -1894.893       543.6323       543.6323       543.6323       1.6066296e+08  2.2929506     -4267620       -4267620        1030.8676     -4266589.1     -1895.6436     -1887.5911     -1901.4443      4.8607596     -13.009164      14.705547      14140.61     
    151000   346.40195      0.0755         0.19095371     0.19060127     0.19151567    -1885.2559      543.88515      543.88515      543.88515      1.6088724e+08  2.2897541     -4261793.1     -4261793.1      1031.5259     -4260761.5     -1884.5666     -1881.0883     -1890.1128      6.5046495     -17.084236      8.3855564      14795.069    
    152000   346.62921      0.076          0.19027248     0.18990878     0.19063371    -1877.8352      544.138        544.138        544.138        1.6111174e+08  2.2865635     -4255995.8     -4255995.8      1032.2026     -4254963.6     -1877.8434     -1874.2539     -1881.4084      2.5823349     -17.031522      0.35337288     14778.138    
    153000   345.84843      0.0765         0.18981559     0.1890562      0.19017209    -1872.0089      544.39086      544.39086      544.39086      1.6133644e+08  2.2833789     -4250219.9     -4250219.9      1029.8776     -4249190       -1873.3343     -1865.8397     -1876.8526     -3.9259035     -15.122315     -2.815973       14658.094    
    154000   344.1465       0.077          0.18917088     0.18800659     0.18965334    -1864.7284      544.64371      544.64371      544.64371      1.6156135e+08  2.2802002     -4244451.7     -4244451.7      1024.8095     -4243426.9     -1866.9714     -1855.4808     -1871.733      -7.5152623     -12.29422      -0.34972702     14861.043    
    155000   342.24399      0.0775         0.18829324     0.18686981     0.18852484    -1854.389       544.89656      544.89656      544.89656      1.6178647e+08  2.2770274     -4238686.7     -4238686.7      1019.1442     -4237667.6     -1858.3098     -1844.2616     -1860.5955     -3.7243524     -9.5090288      5.1044418      14762.487    
    156000   341.26629      0.078          0.18719965     0.18575444     0.18691674    -1841.8318      545.14941      545.14941      545.14941      1.620118e+08   2.2738604     -4232940.9     -4232940.9      1016.2327     -4231924.7     -1847.5169     -1833.2538     -1844.7248      4.2541477     -6.0087838      9.6684044      14662.72     
    157000   341.41879      0.0785         0.18608598     0.18471686     0.18524324    -1829.2494      545.40227      545.40227      545.40227      1.6223734e+08  2.2706994     -4227236.6     -4227236.6      1016.6869     -4226219.9     -1836.5258     -1823.0137     -1828.2086      9.2764014     -3.3649693      10.440212      14644.347    
    158000   341.17928      0.079          0.18503939     0.18379379     0.18379214    -1817.9959      545.65512      545.65512      545.65512      1.6246309e+08  2.2675442     -4221575.1     -4221575.1      1015.9736     -4220559.1     -1826.1968     -1813.9036     -1813.8874      8.148355      -4.5422541      8.9344066      14903.128    
    159000   339.90583      0.0795         0.18389197     0.18285506     0.18272551    -1807.6241      545.90797      545.90797      545.90797      1.6268904e+08  2.2643948     -4215941.7     -4215941.7      1012.1815     -4214929.5     -1814.8726     -1804.6391     -1803.3606      2.2793924     -6.4213639      8.0144226      14648.737    
    160000   338.7863       0.08           0.18285274     0.18213243     0.18255326    -1801.2614      546.16082      546.16082      546.16082      1.6291521e+08  2.2612513     -4210322.5     -4210322.5      1008.8478     -4209313.7     -1804.6162     -1797.5073     -1801.6606     -2.9399116     -7.1526735      5.9858109      14549.458    
    161000   338.33025      0.0805         0.18205161     0.18170557     0.18297754    -1798.6174      546.41367      546.41367      546.41367      1.6314158e+08  2.2581135     -4204706.9     -4204706.9      1007.4897     -4203699.4     -1796.7097     -1793.2945     -1805.8479     -4.4746496     -8.4428212      0.79737372     14905.736    
    162000   338.13305      0.081          0.18139352     0.18122348     0.18280164    -1794.2878      546.66653      546.66653      546.66653      1.6336817e+08  2.2549816     -4199097.1     -4199097.1      1006.9025     -4198090.2     -1790.2149     -1788.5367     -1804.112      -2.8096242     -9.5332313     -3.0987634      14630.466    
    163000   338.41173      0.0815         0.1807048      0.18026175     0.18140064    -1784.2493      546.91938      546.91938      546.91938      1.6359497e+08  2.2518555     -4193506.9     -4193506.9      1007.7323     -4192499.2     -1783.4177     -1779.0451     -1790.2851      0.02164611    -8.5796474     -0.83293908     14612.755    
    164000   338.84684      0.082          0.18019472     0.17908502     0.17972557    -1773.1896      547.17223      547.17223      547.17223      1.6382197e+08  2.2487351     -4187948.6     -4187948.6      1009.028      -4186939.5     -1778.3836     -1767.4317     -1773.7535      3.0062177     -7.7745467      3.8306101      14862.116    
    165000   338.33635      0.0825         0.17962229     0.17816635     0.17861678    -1764.6366      547.42508      547.42508      547.42508      1.6404919e+08  2.2456205     -4182419.1     -4182419.1      1007.5079     -4181411.6     -1772.7342     -1758.3652     -1762.8105      4.8493231     -7.9410415      4.5378864      14584.288    
    166000   336.87272      0.083          0.17872946     0.17769272     0.17807454    -1758.3575      547.67794      547.67794      547.67794      1.6427661e+08  2.2425117     -4176904.4     -4176904.4      1003.1495     -4175901.3     -1763.9226     -1753.6908     -1757.4591      3.4457887     -7.7182804      2.4287844      14615.295    
    167000   335.59045      0.0835         0.17765969     0.1770428      0.17744696    -1750.6356      547.93079      547.93079      547.93079      1.6450425e+08  2.2394086     -4171398.2     -4171398.2      999.33105     -4170398.9     -1753.3648     -1747.2766     -1751.2653      1.43518       -8.3251036      2.7166062      14874.752    
    168000   334.99418      0.084          0.17686407     0.17599262     0.1768169     -1742.4906      548.18364      548.18364      548.18364      1.6473209e+08  2.2363112     -4165901.8     -4165901.8      997.55547     -4164904.3     -1745.5126     -1736.9121     -1745.0471      1.2998749     -9.3977266      5.120061       14713.761    
    169000   334.69736      0.0845         0.17643919     0.17515212     0.17641611    -1737.0093      548.43649      548.43649      548.43649      1.6496015e+08  2.2332195     -4160424.2     -4160424.2      996.6716      -4159427.5     -1741.3194     -1728.617      -1741.0916      2.1028753     -9.5833682      5.6262713      14115.367    
    170000   334.5637       0.085          0.17599902     0.17464381     0.17597262    -1732.4301      548.68934      548.68934      548.68934      1.6518841e+08  2.2301336     -4154968.6     -4154968.6      996.27356     -4153972.3     -1736.9753     -1723.6004     -1736.7147      0.29723944    -7.1493513      1.994304       14673.531    
    171000   334.52833      0.0855         0.17523838     0.17419419     0.17527396    -1726.1503      548.9422       548.9422       548.9422       1.6541689e+08  2.2270533     -4149525.5     -4149525.5      996.16823     -4148529.3     -1729.4683     -1719.163      -1729.8195     -1.801538      -6.0132114     -1.2612393      14949.805    
    172000   334.59534      0.086          0.1739583      0.17344939     0.17444201    -1716.752       549.19505      549.19505      549.19505      1.6564558e+08  2.2239786     -4144089.3     -4144089.3      996.36778     -4143093       -1716.8349     -1711.8124     -1721.6088     -1.0780881     -6.9584458      0.53503862     14638.49     
    173000   334.65595      0.0865         0.1726628      0.17274408     0.17373435    -1707.8419      549.4479       549.4479       549.4479       1.6587447e+08  2.2209097     -4138671.8     -4138671.8      996.54826     -4137675.3     -1704.0493     -1704.8515     -1714.6247      1.9688525     -6.6139379      4.7613999      14879.197    
    174000   334.01734      0.087          0.17197224     0.17234913     0.17300303    -1701.8649      549.70075      549.70075      549.70075      1.6610358e+08  2.2178463     -4133280.4     -4133280.4      994.64661     -4132285.7     -1697.234      -1700.9537     -1707.4071      3.3274293     -5.7821036      7.2133309      14609.137    
    175000   332.79623      0.0875         0.17171643     0.17181449     0.17203408    -1696.077       549.95361      549.95361      549.95361      1.663329e+08   2.2147887     -4127903.5     -4127903.5      991.01035     -4126912.4     -1694.7094     -1695.6772     -1697.8443      1.2792914     -7.1776777      7.3553224      14771.342    
    176000   332.0962       0.088          0.17139684     0.1708504      0.17099567    -1688.4379      550.20646      550.20646      550.20646      1.6656243e+08  2.2117366     -4122539.1     -4122539.1      988.92579     -4121550.1     -1691.5553     -1686.1624     -1687.596      -1.6297061     -9.3559244      5.56846        14658.437    
    177000   332.16938      0.0885         0.17085449     0.16965211     0.17008081    -1679.702       550.45931      550.45931      550.45931      1.6679217e+08  2.2086901     -4117198.1     -4117198.1      989.1437      -4116209       -1686.2027     -1674.3361     -1678.5671     -2.880866      -9.6690504      2.5883854      14777.025    
    178000   332.51823      0.089          0.17027307     0.168598       0.16960834    -1672.7672      550.71216      550.71216      550.71216      1.6702212e+08  2.2056492     -4111879.2     -4111879.2      990.18252     -4110889       -1680.4646     -1663.9329     -1673.9042     -1.8408535     -7.557076       1.2069451      14648.365    
    179000   332.54832      0.0895         0.16992523     0.16815426     0.16962429    -1670.2156      550.96501      550.96501      550.96501      1.6725229e+08  2.2026139     -4106568       -4106568        990.27211     -4105577.7     -1677.0317     -1659.5535     -1674.0616      0.19551142    -4.0052841      1.2941051      14621.619    
    180000   331.88772      0.09           0.16994331     0.16809961     0.16960269    -1670.0242      551.21787      551.21787      551.21787      1.6748266e+08  2.1995842     -4101255.5     -4101255.5      988.30496     -4100267.2     -1677.2101     -1659.0141     -1673.8484      1.5463814     -1.636882       1.1436642      14687.333    
    181000   331.02903      0.0905         0.16936105     0.16774321     0.16894115    -1664.76        551.47072      551.47072      551.47072      1.6771325e+08  2.19656       -4095941.5     -4095941.5      985.74791     -4094955.7     -1671.4637     -1655.4967     -1667.3195      2.5607442     -2.4079945      1.3022155      14777.395    
    182000   330.78537      0.091          0.16803758     0.1669647      0.16784445    -1654.2371      551.72357      551.72357      551.72357      1.6794405e+08  2.1935414     -4090641.6     -4090641.6      985.02236     -4089656.6     -1658.402      -1647.8134     -1656.4959      3.1076715     -4.8365676      2.9167841      14650.527    
    183000   330.9894       0.0915         0.16680872     0.16635533     0.16672593    -1644.5102      551.97642      551.97642      551.97642      1.6817506e+08  2.1905283     -4085371.8     -4085371.8      985.62992     -4084386.2     -1646.2741     -1641.7994     -1645.457       2.2380337     -6.9046324      3.7409678      14816.136    
    184000   330.98655      0.092          0.16615448     0.16612905     0.16575409    -1638.4164      552.22928      552.22928      552.22928      1.6840628e+08  2.1875207     -4080130.7     -4080130.7      985.62143     -4079145       -1639.8173     -1639.5663     -1635.8657      0.0021437993  -8.8128146      2.7381777      14800.759    
    185000   330.68358      0.0925         0.16580991     0.16572304     0.16507649    -1633.7181      552.48213      552.48213      552.48213      1.6863771e+08  2.1845186     -4074906.8     -4074906.8      984.71923     -4073922       -1636.4166     -1635.5593     -1629.1783     -2.0215567     -10.385958      1.8567244      14641.237    
    186000   330.48208      0.093          0.1653362      0.16473949     0.16469677    -1627.6748      552.73498      552.73498      552.73498      1.6886936e+08  2.181522      -4069685.9     -4069685.9      984.1192      -4068701.8     -1631.7414     -1625.8524     -1625.4308     -2.3560388     -10.703668      2.6316884      14882.564    
    187000   330.61887      0.0935         0.16488596     0.1635191      0.16463913    -1621.9893      552.98783      552.98783      552.98783      1.6910121e+08  2.1785309     -4064471.1     -4064471.1      984.52653     -4063486.6     -1627.2979     -1613.8081     -1624.8619     -1.294246      -9.5233615      3.7868157      14701.93     
    188000   331.00545      0.094          0.16431891     0.16258059     0.16435865    -1616.1137      553.24068      553.24068      553.24068      1.6933328e+08  2.1755452     -4059284.2     -4059284.2      985.67772     -4058298.5     -1621.7015     -1604.5457     -1622.0938     -0.082251015   -6.4027445      3.0028122      14625.262    
    189000   331.598        0.0945         0.16362977     0.16215712     0.16356076    -1609.8286      553.49354      553.49354      553.49354      1.6956556e+08  2.1725651     -4054120       -4054120        987.44223     -4053132.6     -1614.9002     -1600.3663     -1614.2192      1.2696154     -2.4277601      2.0499508      14918.331    
    190000   331.85688      0.095          0.16312026     0.16206806     0.16261518    -1604.7487      553.74639      553.74639      553.74639      1.6979806e+08  2.1695903     -4048961.5     -4048961.5      988.21313     -4047973.3     -1609.8718     -1599.4874     -1604.8871      2.8422992      0.71125124     2.2955682      14782.088    
    191000   331.25235      0.0955         0.16263602     0.16187649     0.16197593    -1600.4226      553.99924      553.99924      553.99924      1.7003077e+08  2.166621      -4043804.9     -4043804.9      986.41295     -4042818.5     -1605.0927     -1597.5968     -1598.5782      4.7871869      1.4213557      2.027783       14640.65     
    192000   330.34423      0.096          0.16202568     0.16126965     0.16148129    -1594.7911      554.25209      554.25209      554.25209      1.7026368e+08  2.1636571     -4038658       -4038658        983.7087      -4037674.3     -1599.0691     -1591.6076     -1593.6965      4.6873051     -0.64965529     0.60097185     14703.252    
    193000   329.62532      0.0965         0.16122851     0.16063746     0.16104973    -1588.6692      554.50495      554.50495      554.50495      1.7049682e+08  2.1606985     -4033529.3     -4033529.3      981.56793     -4032547.8     -1591.2017     -1585.3685     -1589.4372      1.0675617     -3.9223387      0.94568126     14794.529    
    194000   329.22994      0.097          0.16023622     0.16000426     0.16064176    -1581.9796      554.7578       554.7578       554.7578       1.7073016e+08  2.1577454     -4028415.3     -4028415.3      980.39054     -4027434.9     -1581.4085     -1579.1192     -1585.4109     -3.5083032     -6.6539193      3.8448527      14657.668    
    195000   328.97443      0.0975         0.15952139     0.15940811     0.16025835    -1576.4054      555.01065      555.01065      555.01065      1.7096372e+08  2.1547977     -4023309.7     -4023309.7      979.62967     -4022330.1     -1574.3537     -1573.2357     -1581.627      -3.3728011     -7.0661512      4.4122927      14578.879    
    196000   328.34535      0.098          0.15928868     0.15885434     0.1597281     -1572.0738      555.2635       555.2635       555.2635       1.7119749e+08  2.1518553     -4018217.3     -4018217.3      977.75638     -4017239.6     -1572.0571     -1567.7704     -1576.3938      1.4590378     -5.6774118      1.841101       14710.048    
    197000   327.93013      0.0985         0.15909818     0.15828654     0.15884419    -1566.6713      555.51635      555.51635      555.51635      1.7143147e+08  2.1489183     -4013139       -4013139        976.51992     -4012162.5     -1570.177      -1562.1667     -1567.6703      4.2586671     -3.4674894      1.0038782      14578.704    
    198000   327.97043      0.099          0.15867087     0.15757937     0.15796744    -1560.0549      555.76921      555.76921      555.76921      1.7166567e+08  2.1459866     -4008072.3     -4008072.3      976.63994     -4007095.7     -1565.9597     -1555.1874     -1559.0174      1.9390778     -2.4499035      3.6780167      14679.994    
    199000   327.63955      0.0995         0.15835813     0.15684712     0.15765269    -1555.5817      556.02206      556.02206      556.02206      1.7190007e+08  2.1430603     -4003020.5     -4003020.5      975.65463     -4002044.8     -1562.8732     -1547.9607     -1555.911      -1.4939562     -3.1220294      7.1276422      14693.591    
    200000   327.23045      0.1            0.15766143     0.15609766     0.15736217    -1549.8685      556.27491      556.27491      556.27491      1.721347e+08   2.1401392     -3997982.6     -3997982.6      974.4364      -3997008.2     -1555.9974     -1540.5641     -1553.0439     -3.1194815     -3.5827922      7.2954812      14489.207    
    201000   327.55053      0.1005         0.156717       0.15562634     0.15675013    -1543.1975      556.52776      556.52776      556.52776      1.7236953e+08  2.1372235     -3992954.2     -3992954.2      975.38953     -3991978.8     -1546.6766     -1535.9126     -1547.0035     -2.5265177     -3.8027218      4.2376084      14835.568    
    202000   328.12343      0.101          0.15607442     0.15548276     0.1559936     -1538.1225      556.78062      556.78062      556.78062      1.7260458e+08  2.1343131     -3987943.7     -3987943.7      977.09555     -3986966.6     -1540.3347     -1534.4955     -1539.5371     -0.15348694    -5.043865       1.1407275      14745.567    
    203000   328.42649      0.1015         0.15579275     0.15543307     0.15537474    -1534.9965      557.03347      557.03347      557.03347      1.7283984e+08  2.131408      -3982942.3     -3982942.3      977.998       -3981964.3     -1537.5549     -1534.0051     -1533.4295      2.8850438     -6.7315051     -0.61292141     14694.744    
    204000   328.47381      0.102          0.15564372     0.15527186     0.1551447     -1533.2191      557.28632      557.28632      557.28632      1.7307532e+08  2.1285081     -3977939       -3977939        978.13892     -3976960.9     -1536.0841     -1532.4142     -1531.1591      5.6697586     -7.3014854     -1.6256906      14674.395    
    205000   328.24004      0.1025         0.15520479     0.15464222     0.15520655    -1529.9072      557.53917      557.53917      557.53917      1.7331101e+08  2.1256135     -3972941.3     -3972941.3      977.4428      -3971963.8     -1531.7522     -1526.2        -1531.7695      7.3300489     -6.6564389     -1.6858357      14903.55     
    206000   327.75232      0.103          0.1545838      0.15374439     0.15476609    -1523.4617      557.79202      557.79202      557.79202      1.7354692e+08  2.1227241     -3967955.4     -3967955.4      975.99044     -3966979.5     -1525.6235     -1517.3391     -1527.4226      7.0066432     -3.8158996      0.75134281     14574.441    
    207000   327.31343      0.1035         0.15384027     0.15295121     0.15355646    -1514.427       558.04488      558.04488      558.04488      1.7378303e+08  2.11984       -3962985.8     -3962985.8      974.68349     -3962011.1     -1518.2854     -1509.5111     -1515.4845      5.1214116     -2.3315543      2.5441402      14755.273    
    208000   326.97195      0.104          0.15301031     0.15225285     0.15239437    -1505.5762      558.29773      558.29773      558.29773      1.7401937e+08  2.116961      -3958046.4     -3958046.4      973.66662     -3957072.8     -1510.0943     -1502.6188     -1504.0155      1.3997846     -3.9345893      2.5483334      14840.265    
    209000   326.76461      0.1045         0.15211325     0.15149909     0.1517177     -1497.9194      558.55058      558.55058      558.55058      1.7425591e+08  2.1140873     -3953133.7     -3953133.7      973.04922     -3952160.7     -1501.2411     -1495.1798     -1497.3373     -3.2623853     -6.4053151      2.2873851      14603.424    
    210000   326.79474      0.105          0.15173815     0.15108391     0.15166046    -1495.1313      558.80343      558.80343      558.80343      1.7449267e+08  2.1112188     -3948228.4     -3948228.4      973.13893     -3947255.3     -1497.5391     -1491.0823     -1496.7724     -4.8346446     -6.8445121      2.5796326      14769.986    
    211000   327.03474      0.1055         0.15177225     0.15092268     0.15170121    -1494.847       559.05629      559.05629      559.05629      1.7472965e+08  2.1083555     -3943329.3     -3943329.3      973.85361     -3942355.5     -1497.8756     -1489.491      -1497.1745     -2.1146072     -4.4743059      2.4854894      14727.442    
    212000   327.64679      0.106          0.15167302     0.15070249     0.15143265    -1492.9128      559.30914      559.30914      559.30914      1.7496684e+08  2.1054974     -3938427.1     -3938427.1      975.67619     -3937451.4     -1496.8963     -1487.318      -1494.524       0.59862881    -1.1560876      1.9607701      14487.604    
    213000   327.99022      0.1065         0.15160245     0.15041946     0.1509007     -1489.9995      559.56199      559.56199      559.56199      1.7520424e+08  2.1026444     -3933519       -3933519        976.69886     -3932542.3     -1496.1999     -1484.5246     -1489.2741      2.3233295      1.2363432      1.8330367      14513.472    
    214000   327.78897      0.107          0.15142518     0.14996963     0.15013005    -1485.4013      559.81484      559.81484      559.81484      1.7544186e+08  2.0997966     -3928620.2     -3928620.2      976.09958     -3927644.1     -1494.4503     -1480.0852     -1481.6684      3.8657444      0.74209016     2.3448379      14881.889    
    215000   327.68476      0.1075         0.15062203     0.14938953     0.14932528    -1478.2033      560.06769      560.06769      560.06769      1.7567969e+08  2.0969539     -3923743       -3923743        975.78927     -3922767.2     -1486.5238     -1474.36       -1473.7259      3.1291222     -1.9817908      3.32351        14670.391    
    216000   327.95592      0.108          0.14928065     0.14878411     0.14893357    -1470.5102      560.32055      560.32055      560.32055      1.7591774e+08  2.0941163     -3918887.7     -3918887.7      976.59673     -3917911.1     -1473.2854     -1468.385      -1469.8601      0.38574927    -4.7357011      3.6197079      14598.33     
    217000   327.92396      0.1085         0.14817903     0.14814406     0.14886361    -1464.5504      560.5734       560.5734       560.5734       1.7615601e+08  2.0912839     -3914052.3     -3914052.3      976.50156     -3913075.8     -1462.4134     -1462.0682     -1469.1696     -2.0755734     -5.9494993      1.9082541      14784.11     
[...]
   3496000   313.13995      1.748          0.00065775145  0.00069659495  0.00070767232 -6.7835142      1389.6759      1389.6759      1389.6759      2.6837407e+09  0.13726819    -240429.71     -240429.71      932.47729     -239497.23     -6.4915021     -6.8748577     -6.9841828     -0.073666675    0.1598444     -0.084653688    13326.424    
   3497000   313.56222      1.7485         0.00065716293  0.00069471721  0.00070175851 -6.7559459      1389.9287      1389.9287      1389.9287      2.6852059e+09  0.13719329    -240370.86     -240370.86      933.73474     -239437.13     -6.4856938     -6.8563258     -6.925818      -0.066260808    0.17255692    -0.087968967    13379.853    
   3498000   313.83117      1.749          0.00065741344  0.00069245505  0.00069619436 -6.7310235      1390.1816      1390.1816      1390.1816      2.6866716e+09  0.13711844    -240313.26     -240313.26      934.53565     -239378.73     -6.4881662     -6.834         -6.8709042     -0.043508665    0.1920963     -0.099746248    13543.194    
   3499000   313.91007      1.7495         0.00065798945  0.00068940847  0.00069472024 -6.7180464      1390.4344      1390.4344      1390.4344      2.6881378e+09  0.13704365    -240255.97     -240255.97      934.77057     -239321.2      -6.493851      -6.8039326     -6.8563557     -0.014004804    0.21230707    -0.12244427     13362.206    
   3500000   313.95109      1.75           0.00065813227  0.00068530084  0.00069737526 -6.7137375      1390.6873      1390.6873      1390.6873      2.6896046e+09  0.13696891    -240198.16     -240198.16      934.89273     -239263.26     -6.4952605     -6.7633935     -6.8825587      0.017956868    0.22757123    -0.14018042     13159.723    
   3501000   313.81741      1.7505         0.00065691032  0.00067971894  0.00069932025 -6.6977531      1390.9401      1390.9401      1390.9401      2.691072e+09   0.13689423    -240139.87     -240139.87      934.49467     -239205.37     -6.4832008     -6.7083044     -6.9017542      0.051912185    0.23775226    -0.13840433     13326.123    
   3502000   313.39474      1.751          0.00065470273  0.00067369577  0.00069856744 -6.6681995      1391.193       1391.193       1391.193       2.6925398e+09  0.1368196     -240081.22     -240081.22      933.23602     -239147.98     -6.4614136     -6.6488603     -6.8943246      0.079160477    0.23672481    -0.12303787     13454.665    
   3503000   312.95515      1.7515         0.0006526127   0.00066929507  0.00069682301 -6.6411079      1391.4458      1391.4458      1391.4458      2.6940082e+09  0.13674503    -240022.14     -240022.14      931.927       -239090.21     -6.4407865     -6.6054288     -6.8771084      0.091833309    0.22173275    -0.1071509      13322.171    
   3504000   312.77367      1.752          0.00065105628  0.00066750311  0.00069524107 -6.6248884      1391.6987      1391.6987      1391.6987      2.6954771e+09  0.1366705     -239962.82     -239962.82      931.38658     -239031.44     -6.4254259     -6.5877435     -6.8614959      0.09363395     0.19850454    -0.096281116    13320.414    
   3505000   312.78387      1.7525         0.00065012032  0.00066832351  0.00069367464 -6.6193551      1391.9515      1391.9515      1391.9515      2.6969466e+09  0.13659604    -239903.59     -239903.59      931.41697     -238972.17     -6.4161887     -6.5958402     -6.8460364      0.092102404    0.17560084    -0.090220302    13363.546    
   3506000   312.79396      1.753          0.0006495873   0.0006708697   0.00069280201 -6.6231072      1392.2044      1392.2044      1392.2044      2.6984166e+09  0.13652163    -239844.6      -239844.6       931.447       -238913.15     -6.4109282     -6.6209691     -6.8374242      0.090171948    0.160581      -0.086025702    13434.791    
   3507000   312.78753      1.7535         0.00064923564  0.0006749513   0.00069361751 -6.6380605      1392.4572      1392.4572      1392.4572      2.6998871e+09  0.13644727    -239785.3      -239785.3       931.42784     -238853.88     -6.4074576     -6.6612514     -6.8454726      0.084087605    0.15717492    -0.08012313     13302.199    
   3508000   312.89855      1.754          0.00064857726  0.00068009786  0.00069514908 -6.657864       1392.7101      1392.7101      1392.7101      2.7013582e+09  0.13637296    -239725.19     -239725.19      931.75845     -238793.43     -6.4009599     -6.712044      -6.860588       0.071968628    0.16484936    -0.072530427    13274.169    
   3509000   313.1512       1.7545         0.00064677782  0.00068379961  0.00069531733 -6.6646756      1392.9629      1392.9629      1392.9629      2.7028298e+09  0.13629871    -239664.67     -239664.67      932.51081     -238732.16     -6.3832008     -6.7485774     -6.8622485      0.060510026    0.17435971    -0.076102201    13198.446    
   3510000   313.39291      1.755          0.00064390432  0.00068414787  0.000693123   -6.6491494      1393.2158      1393.2158      1393.2158      2.7043019e+09  0.13622452    -239604.51     -239604.51      933.23058     -238671.28     -6.3548416     -6.7520145     -6.8405921      0.059891197    0.17545464    -0.1030476      13282.052    
   3511000   313.48367      1.7555         0.00064106119  0.00068155035  0.00068941234 -6.6190439      1393.4687      1393.4687      1393.4687      2.7057746e+09  0.13615037    -239544.99     -239544.99      933.50083     -238611.49     -6.326782      -6.726379      -6.8039707      0.077189954    0.17071502    -0.14203017     13148.046    
   3512000   313.49955      1.756          0.00063931217  0.00067866699  0.00068651902 -6.5942863      1393.7215      1393.7215      1393.7215      2.7072478e+09  0.13607629    -239485.91     -239485.91      933.54812     -238552.36     -6.3095206     -6.6979225     -6.775416       0.11052802     0.16853267    -0.16413164     13130.988    
   3513000   313.59999      1.7565         0.00063959527  0.00067745082  0.0006862406  -6.5903008      1393.9744      1393.9744      1393.9744      2.7087215e+09  0.13600225    -239427.38     -239427.38      933.84723     -238493.54     -6.3123145     -6.6859198     -6.7726681      0.14880755     0.17097606    -0.15561642     13167.072    
   3514000   313.82221      1.757          0.00064162416  0.00067849326  0.00068735794 -6.6040805      1394.2272      1394.2272      1394.2272      2.7101958e+09  0.13592827    -239369.85     -239369.85      934.50896     -238435.34     -6.3323382     -6.6962078     -6.7836955      0.17152261     0.17438308    -0.13219492     13258.241    
   3515000   314.08616      1.7575         0.00064365553  0.00067969774  0.00068782766 -6.6162708      1394.4801      1394.4801      1394.4801      2.7116706e+09  0.13585434    -239313.06     -239313.06      935.29495     -238377.77     -6.3523862     -6.7080951     -6.7883312      0.16756411     0.17975099    -0.10921461     13183.28     
   3516000   314.24843      1.758          0.00064431218  0.00067935191  0.00068716906 -6.6151268      1394.7329      1394.7329      1394.7329      2.7131459e+09  0.13578047    -239256.21     -239256.21      935.77816     -238320.43     -6.3588668     -6.7046821     -6.7818314      0.14002657     0.19001086    -0.096216623    13206.357    
   3517000   314.20535      1.7585         0.00064403244  0.00067867608  0.00068585261 -6.6076524      1394.9858      1394.9858      1394.9858      2.7146218e+09  0.13570665    -239199.05     -239199.05      935.64986     -238263.4      -6.356106      -6.6980122     -6.768839       0.10233129     0.20077109    -0.09455209     13217.481    
   3518000   314.0803       1.759          0.00064362927  0.00067989002  0.0006841421  -6.6046924      1395.2386      1395.2386      1395.2386      2.7160982e+09  0.13563288    -239142.05     -239142.05      935.27749     -238206.77     -6.352127      -6.7099928     -6.7519575      0.071305429    0.20437716    -0.094857444    13358.936    
   3519000   314.06568      1.7595         0.00064262617  0.00068316593  0.00068228372 -6.6060558      1395.4915      1395.4915      1395.4915      2.7175751e+09  0.13555917    -239085.32     -239085.32      935.23396     -238150.09     -6.3422272     -6.7423235     -6.7336168      0.058506415    0.19473642    -0.090942099    13265.292    
   3520000   314.13245      1.76           0.00064080852  0.00068679919  0.00068111537 -6.6081851      1395.7443      1395.7443      1395.7443      2.7190526e+09  0.13548551    -239028.92     -239028.92      935.4328      -238093.49     -6.3242884     -6.778181      -6.722086       0.059774518    0.16783448    -0.081997585    13194.084    
   3521000   314.16868      1.7605         0.00063938864  0.00069009014  0.0006816774  -6.6161894      1395.9972      1395.9972      1395.9972      2.7205306e+09  0.1354119     -238972.83     -238972.83      935.54068     -238037.29     -6.3102753     -6.8106602     -6.7276328      0.056828265    0.12835004    -0.071247457    13146.842    
   3522000   314.2536       1.761          0.00063925089  0.00069269858  0.00068394469 -6.6317762      1396.25        1396.25        1396.25        2.7220092e+09  0.13533835    -238917.07     -238917.07      935.79356     -237981.27     -6.3089158     -6.8364035     -6.7500093      0.042103102    0.093624146   -0.051615989    13167.731    
   3523000   314.3436       1.7615         0.0006396791   0.00069174652  0.00068548214 -6.6351107      1396.5029      1396.5029      1396.5029      2.7234883e+09  0.13526485    -238861.03     -238861.03      936.06157     -237924.96     -6.3131419     -6.8270073     -6.7651828      0.027868302    0.082719548   -0.021980248    13263.347    
   3524000   314.03963      1.762          0.00063964981  0.00068545024  0.00068406458 -6.6096377      1396.7557      1396.7557      1396.7557      2.7249679e+09  0.1351914     -238803.92     -238803.92      935.15639     -237868.77     -6.3128528     -6.7648679     -6.7511925      0.027731127    0.097378458    0.0006311745   13187.805    
   3525000   313.27743      1.7625         0.00063955624  0.00067919547  0.00068100433 -6.5786859      1397.0086      1397.0086      1397.0086      2.726448e+09   0.13511801    -238745.55     -238745.55      932.88668     -237812.66     -6.3119293     -6.7031382     -6.7209901      0.03290423     0.12890335     0.0093908619   13164.706    
   3526000   312.85326      1.763          0.00064011983  0.00067858881  0.00067886792 -6.571516       1397.2614      1397.2614      1397.2614      2.7279287e+09  0.13504467    -238686.72     -238686.72      931.6236      -237755.1      -6.3174915     -6.6971509     -6.6999055      0.029153331    0.16347152     0.015872384    13229.698    
   3527000   313.21872      1.7635         0.00064015514  0.00067985125  0.00067708389 -6.5699162      1397.5143      1397.5143      1397.5143      2.7294099e+09  0.13497138    -238629.2      -238629.2       932.71187     -237696.49     -6.31784       -6.7096102     -6.6822985      0.024625589    0.18807084     0.0068536298   13228.751    
   3528000   313.78373      1.764          0.00063820636  0.00067791557  0.0006738146  -6.5463822      1397.7671      1397.7671      1397.7671      2.7308917e+09  0.13489814    -238573.82     -238573.82      934.39438     -237639.42     -6.298607      -6.6905065     -6.650033       0.025198247    0.19080952    -0.023699176    13201.935    
   3529000   314.06446      1.7645         0.00063511168  0.00067499897  0.00066972467 -6.5131518      1398.02        1398.02        1398.02        2.732374e+09   0.13482496    -238519.1      -238519.1       935.23034     -237583.87     -6.2680649     -6.6617219     -6.6096686      0.022251641    0.17578095    -0.04573901     13260.337    
   3530000   314.20657      1.765          0.00063197764  0.0006731778   0.00066542209 -6.482696       1398.2728      1398.2728      1398.2728      2.7338568e+09  0.13475183    -238464.36     -238464.36      935.6535      -237528.71     -6.2371344     -6.6437484     -6.5672054      0.016865338    0.1560249     -0.046723633    13277.511    
   3531000   314.25315      1.7655         0.0006294404   0.00067102603  0.00066099526 -6.4527073      1398.5257      1398.5257      1398.5257      2.7353402e+09  0.13467876    -238410.94     -238410.94      935.79221     -237475.15     -6.2120938     -6.622512      -6.523516       0.018127491    0.1363916     -0.047166166    13354.743    
   3532000   314.16487      1.766          0.00062824115  0.00066931094  0.00065821036 -6.4339582      1398.7785      1398.7785      1398.7785      2.7368241e+09  0.13460573    -238358.85     -238358.85      935.52935     -237423.32     -6.2002581     -6.6055854     -6.4960312      0.026886786    0.12373393    -0.05437637     13246.322    
   3533000   314.0912       1.7665         0.00062791415  0.00066899314  0.00065813964 -6.4316043      1399.0314      1399.0314      1399.0314      2.7383086e+09  0.13453276    -238306.33     -238306.33      935.30995     -237371.02     -6.1970308     -6.602449      -6.4953332      0.038996178    0.12539632    -0.055586644    13234.931    
   3534000   314.06756      1.767          0.00062765305  0.00066924871  0.00066037918 -6.4389537      1399.2843      1399.2843      1399.2843      2.7397936e+09  0.13445985    -238252.92     -238252.92      935.23956     -237317.68     -6.194454      -6.6049713     -6.5174358      0.049176412    0.13395234    -0.050279854    13281.57     
   3535000   314.05362      1.7675         0.00062769693  0.00067060237  0.00066428796 -6.4564101      1399.5371      1399.5371      1399.5371      2.7412791e+09  0.13438698    -238199.69     -238199.69      935.19806     -237264.49     -6.1948871     -6.6183308     -6.5560124      0.048509768    0.13795478    -0.047611268    13279.465    
   3536000   314.22735      1.768          0.00062919886  0.00067431478  0.00066927019 -6.4899542      1399.79        1399.79        1399.79        2.7427651e+09  0.13431417    -238146.87     -238146.87      935.71538     -237211.16     -6.20971       -6.6549694     -6.6051832      0.041991168    0.13592621    -0.049812845    13215.777    
   3537000   314.52724      1.7685         0.00063202677  0.00067765794  0.00067363072 -6.5246005      1400.0428      1400.0428      1400.0428      2.7442517e+09  0.13424141    -238093.78     -238093.78      936.60841     -237157.18     -6.2376193     -6.6879639     -6.6482183      0.051975034    0.13468828    -0.054872328    13222.128    
   3538000   314.58796      1.769          0.00063552372  0.00067887737  0.00067535473 -6.5457877      1400.2957      1400.2957      1400.2957      2.7457389e+09  0.1341687     -238039.82     -238039.82      936.78923     -237103.03     -6.2721315     -6.6999988     -6.6652329      0.076566162    0.13407542    -0.060581321    13306.097    
   3539000   314.53443      1.7695         0.00063882878  0.00067998153  0.00067392125 -6.5555771      1400.5485      1400.5485      1400.5485      2.7472265e+09  0.13409605    -237985.55     -237985.55      936.62984     -237048.92     -6.3047498     -6.7108959     -6.6510856      0.088018445    0.12550336    -0.066801237    13347.612    
   3540000   314.57575      1.77           0.00064006349  0.00068006051  0.00067060731 -6.5489968      1400.8014      1400.8014      1400.8014      2.7487147e+09  0.13402345    -237931.31     -237931.31      936.75286     -236994.55     -6.3169355     -6.7116754     -6.6183796      0.088249329    0.1158491     -0.06906337     13300.301    
   3541000   314.39438      1.7705         0.00063811701  0.00067722029  0.00066779648 -6.5240029      1401.0542      1401.0542      1401.0542      2.7502035e+09  0.1339509     -237877.06     -237877.06      936.21277     -236940.85     -6.2977252     -6.6836446     -6.5906388      0.089480144    0.11451421    -0.066899211    13296.426    
   3542000   313.98892      1.771          0.00063414997  0.00067479111  0.00066827761 -6.5045437      1401.3071      1401.3071      1401.3071      2.7516928e+09  0.1338784     -237822.65     -237822.65      935.00539     -236887.64     -6.2585736     -6.6596705     -6.5953872      0.076904887    0.11565446    -0.074738877    13341.425    
   3543000   313.92988      1.7715         0.0006307085   0.0006741805   0.00067189717 -6.5031209      1401.5599      1401.5599      1401.5599      2.7531826e+09  0.13380595    -237768.43     -237768.43      934.82956     -236833.6      -6.224609      -6.6536443     -6.6311095      0.044813294    0.11400124    -0.09729091     13332.175    
   3544000   314.27777      1.772          0.00063009616  0.00067321652  0.00067626675 -6.51231        1401.8128      1401.8128      1401.8128      2.7546729e+09  0.13373356    -237715.41     -237715.41      935.86552     -236779.54     -6.2185656     -6.6441304     -6.6742339      0.018258099    0.11134293    -0.12637188     13307.571    
   3545000   314.68796      1.7725         0.0006340635   0.00067245669  0.00067998518 -6.5350945      1402.0656      1402.0656      1402.0656      2.7561638e+09  0.13366122    -237663.36     -237663.36      937.087       -236726.27     -6.2577202     -6.6366316     -6.7109319      0.012921851    0.11069574    -0.1580839      13259.928    
   3546000   315.03919      1.773          0.00064123913  0.00067335368  0.00068248576 -6.5698777      1402.3185      1402.3185      1402.3185      2.7576553e+09  0.13358893    -237611.06     -237611.06      938.13292     -236672.93     -6.3285382     -6.6454841     -6.7356108      0.021807125    0.11370968    -0.18248253     13301.321    
   3547000   315.37007      1.7735         0.00064739103  0.00067492197  0.0006829192  -6.5967011      1402.5713      1402.5713      1402.5713      2.7591472e+09  0.1335167     -237558.44     -237558.44      939.11822     -236619.32     -6.3892527     -6.660962      -6.7398885      0.036454284    0.12745767    -0.17785857     13311.598    
   3548000   315.40073      1.774          0.00064924423  0.00067453834  0.00068057588 -6.5938266      1402.8242      1402.8242      1402.8242      2.7606397e+09  0.13344451    -237505.66     -237505.66      939.2095      -236566.45     -6.4075424     -6.6571759     -6.7167617      0.055108089    0.14461554    -0.16352217     13300.238    
   3549000   314.86345      1.7745         0.00064680898  0.0006723046   0.00067649592 -6.5650448      1403.077       1403.077       1403.077       2.7621328e+09  0.13337238    -237452.55     -237452.55      937.60958     -236514.94     -6.3835083     -6.6351305     -6.6764957      0.0693211      0.15257465    -0.16431765     13304.27     
   3550000   314.3242       1.775          0.00064242277  0.00067160452  0.00067319251 -6.5374449      1403.3299      1403.3299      1403.3299      2.7636264e+09  0.1333003     -237398.96     -237398.96      936.00379     -236462.95     -6.3402198     -6.6282213     -6.6438935      0.06771733     0.15000355    -0.16055021     13151.087    
   3551000   314.30106      1.7755         0.00063817913  0.00067044962  0.00067067316 -6.5113971      1403.5827      1403.5827      1403.5827      2.7651205e+09  0.13322827    -237345.48     -237345.48      935.9349      -236409.55     -6.2983383     -6.6168233     -6.6190295      0.060634045    0.14102976    -0.15200952     13356.994    
   3552000   314.32577      1.776          0.00063517024  0.00066657816  0.00066787594 -6.4795603      1403.8356      1403.8356      1403.8356      2.7666151e+09  0.13315629    -237293.13     -237293.13      936.00848     -236357.12     -6.2686429     -6.578615      -6.591423       0.065762687    0.13668606    -0.15681033     13287.773    
   3553000   314.03386      1.7765         0.00063376729  0.00066358443  0.00066534757 -6.4567787      1404.0884      1404.0884      1404.0884      2.7681103e+09  0.13308437    -237241.18     -237241.18      935.1392      -236306.04     -6.2547969     -6.5490691     -6.56647     