LAMMPS (23 Jun 2022 - Update 1)
OMP_NUM_THREADS environment is not set. Defaulting to 1 thread. (src/comm.cpp:98)
  using 1 OpenMP thread(s) per MPI task
###

# Read restart info
read_restart ${read_res}
read_restart ./trial8/0100/equpmf70.res
Reading restart file ...
  restart file = 23 Jun 2022, LAMMPS = 23 Jun 2022
  restoring atom style atomic from restart
  orthogonal box = (1613.5044 1613.5044 1613.5044) to (2386.4956 2386.4956 2386.4956)
  1 by 2 by 2 MPI processor grid
  restoring pair style table from restart
  1000 atoms
  read_restart CPU = 0.038 seconds

# Settings
pair_style table/pgn spline 10941
pair_coeff 1 1 N20e.txt DE_GNP 308 72.9   # 1.35 * r
pair_coeff 2 2 N100e.txt DE_GNP 473.9 111.78
WARNING: 20 of 10941 force values in table DE_GNP are inconsistent with -dE/dr.
WARNING:  Should only be flagged at inflection points (src/pair_table_pgn.cpp:478)
pair_coeff 1 2 mixed_potentiale.txt DE_GNP 391.2 92.95
WARNING: 1564 of 10941 force values in table DE_GNP are inconsistent with -dE/dr.
WARNING:  Should only be flagged at inflection points (src/pair_table_pgn.cpp:478)

# Neighbor list
neighbor 2.0 bin
neigh_modify delay 0 every 1 check no once yes

# Temperature
variable T equal ${Temp}
variable T equal 300

# Deformation
reset_timestep 0
variable tmp equal "lx"
variable L0 equal ${tmp}
variable L0 equal 772.991211252345
variable strain equal "(lx - v_L0)/v_L0"
variable stp equal "step"
variable tmpe equal "temp"
variable p1 equal "v_strain"
variable p2 equal "-pxx*1.01325/10000"
variable p3 equal "-pyy*1.01325/10000"
variable p4 equal "-pzz*1.01325/10000"
variable p5 equal "lx"
variable p6 equal "ly"
variable p7 equal "lz"
variable p8 equal "press"
variable p9 equal "epair"
variable p10 equal "etotal"

# Thermo
thermo_style custom step temp v_p1 v_p2 v_p3 v_p4 press lx ly lz vol density epair pe ke etotal pxx pyy pzz pxy pxz pyz spcpu
thermo ${ts_save}
thermo 1000

# Dump
# dump 1 all custom 2000 ./${N20}${N100}/tensile/trajectory/trajectory_${usic}_${trial}_*.tensile.custom id type x y z ix iy iz
# dump_modify 1 sort id
dump 2 all cfg 50000 ./trial${trial}/${N20}${N100}/tensile/trajectory/dumpten.tens_${usic}_${trial}_*.cfg mass type xs ys zs fx fy fz
dump 2 all cfg 50000 ./trial8/${N20}${N100}/tensile/trajectory/dumpten.tens_${usic}_${trial}_*.cfg mass type xs ys zs fx fy fz
dump 2 all cfg 50000 ./trial8/0${N100}/tensile/trajectory/dumpten.tens_${usic}_${trial}_*.cfg mass type xs ys zs fx fy fz
dump 2 all cfg 50000 ./trial8/0100/tensile/trajectory/dumpten.tens_${usic}_${trial}_*.cfg mass type xs ys zs fx fy fz
dump 2 all cfg 50000 ./trial8/0100/tensile/trajectory/dumpten.tens_1_${trial}_*.cfg mass type xs ys zs fx fy fz
dump 2 all cfg 50000 ./trial8/0100/tensile/trajectory/dumpten.tens_1_8_*.cfg mass type xs ys zs fx fy fz
dump_modify 2 element N20 N100

fix 1 all nvt temp ${T} ${T} 100
fix 1 all nvt temp 300 ${T} 100
fix 1 all nvt temp 300 300 100
fix 2 all deform 1 x erate ${strain_rate} y erate ${strain_rate} z erate ${strain_rate} units box
fix 2 all deform 1 x erate 5e-6 y erate ${strain_rate} z erate ${strain_rate} units box
fix 2 all deform 1 x erate 5e-6 y erate 5e-6 z erate ${strain_rate} units box
fix 2 all deform 1 x erate 5e-6 y erate 5e-6 z erate 5e-6 units box
fix             def1 all print ${ts_save} "${p1} ${p2} ${p3} ${p4}" file ./tensile/${trial}/tensile${N20}${N100}_${usic}_${trial}.txt screen no
fix             def1 all print 1000 "${p1} ${p2} ${p3} ${p4}" file ./tensile/${trial}/tensile${N20}${N100}_${usic}_${trial}.txt screen no
fix             def1 all print 1000 "${p1} ${p2} ${p3} ${p4}" file ./tensile/8/tensile${N20}${N100}_${usic}_${trial}.txt screen no
fix             def1 all print 1000 "${p1} ${p2} ${p3} ${p4}" file ./tensile/8/tensile0${N100}_${usic}_${trial}.txt screen no
fix             def1 all print 1000 "${p1} ${p2} ${p3} ${p4}" file ./tensile/8/tensile0100_${usic}_${trial}.txt screen no
fix             def1 all print 1000 "${p1} ${p2} ${p3} ${p4}" file ./tensile/8/tensile0100_1_${trial}.txt screen no
fix             def1 all print 1000 "${p1} ${p2} ${p3} ${p4}" file ./tensile/8/tensile0100_1_8.txt screen no

timestep       		${ts}
timestep       		0.1
run				${steps_tensile}
run				6000000
Generated 0 of 1 mixed pair_coeff terms from geometric mixing rule
Unused restart file global fix info:
  fix style: npt, fix ID: 5
Neighbor list info ...
  update every 1 steps, delay 0 steps, check no
  max neighbors/atom: 2000, page size: 100000
  master list distance cutoff = 113.78
  ghost atom cutoff = 113.78
  binsize = 56.89, bins = 14 14 14
  1 neighbor lists, perpetual/occasional/extra = 1 0 0
  (1) pair table/pgn, perpetual
      attributes: half, newton on
      pair build: half/bin/atomonly/newton
      stencil: half/bin/3d
      bin: standard
Per MPI rank memory allocation (min/avg/max) = 3.84 | 3.84 | 3.84 Mbytes
   Step          Temp           v_p1           v_p2           v_p3           v_p4          Press            Lx             Ly             Lz           Volume        Density         E_pair         PotEng         KinEng         TotEng          Pxx            Pyy            Pzz            Pxy            Pxz            Pyz           S/CPU     
         0   305.29327      2.9414781e-16 -0.0014239885  -0.0042045813  -0.0068634113   41.095423      772.99121      772.99121      772.99121      4.6187416e+08  1.5173659     -58667207      -58667207       909.11124     -58666298       14.053674      41.495992      67.736603      20.957951      32.472887      27.624711      0            
      1000   332.95778      0.0005         0.0068039114   0.0039784548   0.0014734282  -40.318429      773.37771      773.37771      773.37771      4.6256732e+08  1.5150921     -58667350      -58667350       991.4914      -58666359      -67.149385     -39.264296     -14.541606      20.113937      32.158566      26.778678      20085.939    
      2000   346.86253      0.001          0.014656425    0.011889539    0.0094844424  -118.53082      773.7642       773.7642       773.7642       4.6326117e+08  1.5128229     -58666694      -58666694       1032.8974     -58665661      -144.64766     -117.34063     -93.604169      19.785167      32.253422      26.073859      21088.549    
      3000   347.61573      0.0015         0.022132501    0.019346046    0.017099497   -192.70678      774.1507       774.1507       774.1507       4.6395572e+08  1.5105582     -58665270      -58665270       1035.1403     -58664235      -218.4308      -190.93063     -168.75892      20.21121       32.400849      25.117504      20804.561    
      4000   344.40373      0.002          0.029495664    0.026573145    0.024561663   -265.25363      774.53719      774.53719      774.53719      4.6465095e+08  1.508298      -58663101      -58663101       1025.5755     -58662076      -291.09957     -262.25655     -242.40477      20.974761      32.393362      23.934295      21056.032    
      5000   340.59635      0.0025         0.036846221    0.033802849    0.031954226   -337.5386       774.92369      774.92369      774.92369      4.6534689e+08  1.5060423     -58660192      -58660192       1014.2378     -58659178      -363.64392     -333.60818     -315.36369      20.953522      32.029382      23.305967      21400.625    
      6000   337.86994      0.003          0.044125348    0.041036665    0.039276817   -409.37192      775.31018      775.31018      775.31018      4.6604351e+08  1.5037912     -58656548      -58656548       1006.119      -58655542      -435.48333     -405.00039     -387.63204      20.259996      31.537348      23.344546      21573.777    
      7000   336.75086      0.0035         0.051283631    0.048183693    0.046603085   -480.53429      775.69668      775.69668      775.69668      4.6674083e+08  1.5015445     -58652188      -58652188       1002.7866     -58651185      -506.13009     -475.53608     -459.93669      19.832181      31.24961       23.295179      21766.481    
      8000   337.01725      0.004          0.058284523    0.055208247    0.053827086   -550.43953      776.08318      776.08318      776.08318      4.6743885e+08  1.4993022     -58647123      -58647123       1003.5798     -58646119      -575.22352     -544.86304     -531.23203      19.760786      31.112469      22.452512      21330.978    
      9000   338.26561      0.0045         0.06517275     0.062134163    0.060862219   -619.02831      776.46967      776.46967      776.46967      4.6813756e+08  1.4970645     -58641352      -58641352       1007.2972     -58640345      -643.20503     -613.21651     -600.6634       19.625688      31.062216      21.040796      21560.031    
     10000   340.29855      0.005          0.071959141    0.068880377    0.067768031   -686.26548      776.85617      776.85617      776.85617      4.6883697e+08  1.4948312     -58634890      -58634890       1013.351      -58633877      -710.18151     -679.79646     -668.81847      19.487538      31.153787      20.108271      21284.312    
     11000   343.09999      0.0055         0.078637375    0.075401111    0.07450817    -751.86004      777.24266      777.24266      777.24266      4.6953708e+08  1.4926023     -58627753      -58627753       1021.6932     -58626732      -776.09055     -744.15111     -735.33847      19.569738      31.19449       19.818935      21900.552    
     12000   346.46934      0.006          0.085232637    0.081838474    0.081115522   -816.47054      777.62916      777.62916      777.62916      4.7023788e+08  1.4903778     -58619950      -58619950       1031.7265     -58618918      -841.18073     -807.68294     -800.54796      19.609879      31.03899       19.726428      21185.674    
     13000   349.96746      0.0065         0.091636352    0.088217746    0.087625826   -879.94053      778.01565      778.01565      778.01565      4.7093938e+08  1.4881578     -58611495      -58611495       1042.1433     -58610453      -904.38048     -870.64147     -864.79966      19.465157      30.939921      19.642416      22108.909    
     14000   353.31646      0.007          0.097775023    0.094405172    0.093925688   -941.21517      778.40215      778.40215      778.40215      4.7164157e+08  1.4859422     -58602408      -58602408       1052.1161     -58601356      -964.96445     -931.70661     -926.97447      19.507633      30.704902      19.075181      21672.211    
     15000   356.66539      0.0075         0.10371393     0.10037726     0.099973704   -1000.2957      778.78865      778.78865      778.78865      4.7234447e+08  1.483731      -58592707      -58592707       1062.0886     -58591645      -1023.5769     -990.64658     -986.66374      19.491259      30.279648      17.816647      21884.164    
     16000   360.20891      0.008          0.10963041     0.10628055     0.10590375    -1058.6881      779.17514      779.17514      779.17514      4.7304806e+08  1.4815241     -58582400      -58582400       1072.6406     -58581327      -1081.968      -1048.9075     -1045.1887      19.108392      30.080663      16.481829      21751.883    
     17000   363.68713      0.0085         0.11561158     0.11219614     0.11194143    -1117.6878      779.56164      779.56164      779.56164      4.7375235e+08  1.4793217     -58571485      -58571485       1082.9982     -58570402      -1140.9976     -1107.2899     -1104.776       18.840093      30.1077        15.905344      21793.278    
     18000   366.76852      0.009          0.12151591     0.1180124      0.11804201    -1176.3149      779.94813      779.94813      779.94813      4.7445734e+08  1.4771236     -58559975      -58559975       1092.174      -58558883      -1199.2688     -1164.6918     -1164.984       18.465735      30.377236      15.741671      21486.85     
     19000   369.55113      0.0095         0.12723336     0.12364449     0.1239325     -1233.0302      780.33463      780.33463      780.33463      4.7516302e+08  1.4749298     -58547883      -58547883       1100.4602     -58546783      -1255.6956     -1220.2763     -1223.1186      17.587726      30.429997      14.991021      21900.36     
     20000   372.2514       0.01           0.13282429     0.12917746     0.12956802    -1288.1644      780.72112      780.72112      780.72112      4.7586941e+08  1.4727404     -58535213      -58535213       1108.5011     -58534105      -1310.8739     -1274.8824     -1278.7369      17.211589      30.008594      13.93993       21562.822    
     21000   374.95394      0.0105         0.13828911     0.13461177     0.13503296    -1341.998       781.10762      781.10762      781.10762      4.765765e+08   1.4705553     -58521974      -58521974       1116.5488     -58520858      -1364.8074     -1328.5149     -1332.6717      17.895394      29.487306      13.406407      21789.923    
     22000   377.59905      0.011          0.14362006     0.13988927     0.14037823    -1394.4817      781.49411      781.49411      781.49411      4.7728429e+08  1.4683746     -58508181      -58508181       1124.4255     -58507056      -1417.4198     -1380.5998     -1385.4254      18.528824      29.384732      13.228206      21827.446    
     23000   380.04765      0.0115         0.1488358      0.14504924     0.14565168    -1445.9634      781.88061      781.88061      781.88061      4.7799277e+08  1.4661981     -58493848      -58493848       1131.717      -58492716      -1468.8951     -1431.5247     -1437.4703      18.141384      29.744098      12.63513       21821.28     
     24000   382.18012      0.012          0.1539145      0.15011726     0.15077944    -1496.2125      782.26711      782.26711      782.26711      4.7870196e+08  1.464026      -58478985      -58478985       1138.0671     -58477847      -1519.018      -1481.5421     -1488.0774      17.192637      29.953108      11.637121      22119.087    
     25000   384.06513      0.0125         0.15880505     0.15501925     0.15576547    -1544.8302      782.6536       782.6536       782.6536       4.7941185e+08  1.4618581     -58463606      -58463606       1143.6804     -58462462      -1567.284      -1529.9211     -1537.2857      16.650768      29.579876      10.837028      21580.037    
     26000   385.8677       0.013          0.16355718     0.15979766     0.16067999    -1592.3508      783.0401       783.0401       783.0401       4.8012244e+08  1.4596946     -58447727      -58447727       1149.0481     -58446578      -1614.1838     -1577.0803     -1585.7882      16.485773      29.042352      10.668966      22084.302    
     27000   387.52816      0.0135         0.16824588     0.16459225     0.16551992    -1639.4705      783.42659      783.42659      783.42659      4.8083373e+08  1.4575352     -58431349      -58431349       1153.9927     -58430195      -1660.4577     -1624.3992     -1633.5546      16.392368      29.116447      10.403186      21522.149    
     28000   388.91112      0.014          0.17292103     0.16938299     0.17027037    -1686.2387      783.81309      783.81309      783.81309      4.8154573e+08  1.4553802     -58414466      -58414466       1158.1109     -58413308      -1706.5979     -1671.6802     -1680.4379      16.393404      29.370382      9.7925543      22110.456    
     29000   390.18275      0.0145         0.17758007     0.17400228     0.17492829    -1732.0854      784.19958      784.19958      784.19958      4.8225842e+08  1.4532294     -58397094      -58397094       1161.8976     -58395932      -1752.5791     -1717.269      -1726.408       16.216899      28.707776      9.2813296      21730.839    
     30000   391.72749      0.015          0.18213445     0.17840296     0.17945827    -1776.4477      784.58608      784.58608      784.58608      4.8297182e+08  1.4510828     -58379255      -58379255       1166.4976     -58378089      -1797.5273     -1760.7004     -1771.1154      16.084902      27.552559      8.4836268      21867.082    
     31000   393.61195      0.0155         0.18656925     0.182762       0.18385524    -1819.8421      784.97258      784.97258      784.97258      4.8368593e+08  1.4489405     -58360955      -58360955       1172.1092     -58359783      -1841.2954     -1803.7207     -1814.5101      16.029345      27.364787      7.6079298      21727.907    
     32000   395.43831      0.016          0.19083915     0.18713213     0.18816309    -1862.4373      785.35907      785.35907      785.35907      4.8440073e+08  1.4468023     -58342193      -58342193       1177.5478     -58341015      -1883.436      -1846.8505     -1857.0253      16.272688      28.318049      7.028844       21858.305    
     33000   396.88467      0.0165         0.19488704     0.19133005     0.19239161    -1903.4746      785.74557      785.74557      785.74557      4.8511624e+08  1.4446684     -58322980      -58322980       1181.8548     -58321798      -1923.3856     -1888.2808     -1898.7576      16.620929      28.915902      6.7292191      21835.503    
     34000   398.03364      0.017          0.19877248     0.19527097     0.19651942    -1942.8008      786.13206      786.13206      786.13206      4.8583246e+08  1.4425387     -58303334      -58303334       1185.2762     -58302149      -1961.7319     -1927.1746     -1939.4959      16.364764      28.459433      6.3645206      21752.995    
     35000   399.16683      0.0175         0.20266633     0.1991886      0.20054658    -1981.7469      786.51856      786.51856      786.51856      4.8654938e+08  1.4404131     -58283268      -58283268       1188.6506     -58282079      -2000.1611     -1965.8386     -1979.2409      15.823345      27.659979      6.0299418      22183.856    
     36000   400.34783      0.018          0.20663549     0.20316772     0.2045061     -2020.9205      786.90505      786.90505      786.90505      4.87267e+08    1.4382918     -58262785      -58262785       1192.1675     -58261593      -2039.3337     -2005.1095     -2018.3183      15.445639      27.461811      5.6848877      21815.932    
     37000   401.40142      0.0185         0.21054057     0.20709493     0.20840079    -2059.4993      787.29155      787.29155      787.29155      4.8798533e+08  1.4361745     -58241879      -58241879       1195.3049     -58240684      -2077.8739     -2043.868      -2056.7559      15.130067      27.508548      4.9869541      21719.925    
     38000   402.30433      0.019          0.21420028     0.21085439     0.21218635    -2096.36        787.67804      787.67804      787.67804      4.8870437e+08  1.4340615     -58220559      -58220559       1197.9936     -58219361      -2113.9924     -2080.971      -2094.1165      14.740012      26.993054      4.2706016      21742.637    
     39000   403.36404      0.0195         0.21761032     0.21434486     0.21579216    -2130.9231      788.06454      788.06454      788.06454      4.8942411e+08  1.4319526     -58198855      -58198855       1201.1492     -58197653      -2147.6469     -2115.4193     -2129.703       14.774513      26.471817      3.85919        22177.31     
     40000   404.69186      0.02           0.22094456     0.21769562     0.21928332    -2164.4         788.45104      788.45104      788.45104      4.9014456e+08  1.4298478     -58176780      -58176780       1205.1032     -58175575      -2180.5532     -2148.4887     -2164.1581      15.221437      26.469388      3.3214919      21749.748    
     41000   406.01669      0.0205         0.22434734     0.22111622     0.22270443    -2198.1018      788.83753      788.83753      788.83753      4.9086571e+08  1.4277471     -58154334      -58154334       1209.0484     -58153125      -2214.1361     -2182.2474     -2197.9218      15.254757      26.710033      2.4166945      21783.903    
     42000   407.13227      0.021          0.22772813     0.22453724     0.22604594    -2231.4707      789.22403      789.22403      789.22403      4.9158757e+08  1.4256506     -58131523      -58131523       1212.3704     -58130310      -2247.5019     -2216.0103     -2230.9         14.651395      26.551472      1.8847593      21772.66     
     43000   408.13581      0.0215         0.23094562     0.22777276     0.22930125    -2263.4086      789.61052      789.61052      789.61052      4.9231014e+08  1.4235581     -58108355      -58108355       1215.3588     -58107140      -2279.2561     -2247.9423     -2263.0274      13.979332      25.805115      1.863027       21800.624    
     44000   409.18125      0.022          0.2340257      0.23086969     0.23249455    -2294.2345      789.99702      789.99702      789.99702      4.9303342e+08  1.4214698     -58084837      -58084837       1218.4719     -58083619      -2309.6541     -2278.5067     -2294.5428      13.763772      25.15841       1.7889552      21806.111    
     45000   410.07762      0.0225         0.23705554     0.23399081     0.23562369    -2324.7637      790.38351      790.38351      790.38351      4.937574e+08   1.4193855     -58060976      -58060976       1221.1411     -58059755      -2339.5563     -2309.3097     -2325.425       13.837312      24.710573      1.5396774      21812.418    
     46000   410.76217      0.023          0.24003204     0.23703471     0.23861164    -2354.3988      790.77001      790.77001      790.77001      4.9448209e+08  1.4173053     -58036781      -58036781       1223.1796     -58035558      -2368.932      -2339.3507     -2354.9138      13.722212      24.472989      1.1410782      21773.177    
     47000   411.58661      0.0235         0.24282785     0.23988688     0.2414281     -2382.2447      791.1565       791.1565       791.1565       4.952075e+08   1.4152292     -58012267      -58012267       1225.6347     -58011042      -2396.5245     -2367.4994     -2382.7101      13.10082       24.521822      0.46015679     21901.784    
     48000   412.65714      0.024          0.24544799     0.24256786     0.24417887    -2408.7334      791.543        791.543        791.543        4.9593361e+08  1.4131571     -57987451      -57987451       1228.8225     -57986222      -2422.3833     -2393.9587     -2409.8581      12.20948       24.480395     -0.21208972     21668.5      
     49000   413.63982      0.0245         0.24801633     0.24525905     0.24691337    -2435.0316      791.9295       791.9295       791.9295       4.9666043e+08  1.4110891     -57962332      -57962332       1231.7488     -57961100      -2447.7308     -2420.5186     -2436.8455      12.002419      24.088667     -0.22052735     21781.151    
     50000   414.24413      0.025          0.25062698     0.24806929     0.24963174    -2461.8078      792.31599      792.31599      792.31599      4.9738796e+08  1.4090251     -57936900      -57936900       1233.5483     -57935667      -2473.496      -2448.2536     -2463.6737      12.529212      23.238232      0.062303437    20440.521    
     51000   414.61977      0.0255         0.2532771      0.25072291     0.25224514    -2487.8531      792.70249      792.70249      792.70249      4.981162e+08   1.4069651     -57911165      -57911165       1234.6669     -57909931      -2499.6506     -2474.4427     -2489.466       12.733275      22.678106     -0.014468227    21734.007    
     52000   415.21156      0.026          0.25579392     0.25307162     0.25466475    -2511.8193      793.08898      793.08898      793.08898      4.9884515e+08  1.4049092     -57885152      -57885152       1236.4291     -57883916      -2524.4897     -2497.6227     -2513.3457      12.167329      22.959408     -0.56855773     21780.651    
     53000   416.02928      0.0265         0.25803708     0.25530234     0.25695278    -2534.0643      793.47548      793.47548      793.47548      4.9957481e+08  1.4028572     -57858885      -57858885       1238.8641     -57857646      -2546.628      -2519.6382     -2535.9268      11.546153      23.255933     -1.5158778      21119.666    
     54000   416.8302       0.027          0.26013233     0.25754603     0.25923338    -2555.8409      793.86197      793.86197      793.86197      5.0030518e+08  1.4008092     -57832363      -57832363       1241.2491     -57831122      -2567.3065     -2541.7817     -2558.4346      11.957089      22.768524     -2.3429628      21545.357    
     55000   417.51957      0.0275         0.26225428     0.25980304     0.26159018    -2577.9998      794.24847      794.24847      794.24847      5.0103626e+08  1.3987652     -57805575      -57805575       1243.302      -57804332      -2588.2485     -2564.0567     -2581.6943      12.698605      21.822023     -2.584127       22007.881    
     56000   418.10308      0.028          0.26435366     0.26197029     0.26386527    -2599.5204      794.63497      794.63497      794.63497      5.0176806e+08  1.3967252     -57778529      -57778529       1245.0396     -57777284      -2608.9677     -2585.4458     -2604.1477      12.233512      21.34098      -2.2942045      21483.556    
     57000   418.67877      0.0285         0.26633722     0.26401658     0.26585939    -2619.3378      795.02146      795.02146      795.02146      5.0250057e+08  1.3946892     -57751243      -57751243       1246.7539     -57749996      -2628.544      -2605.6411     -2623.8282      11.237339      21.500317     -1.8569655      22176.021    
     58000   419.21476      0.029          0.26820821     0.26593351     0.26765891    -2637.719       795.40796      795.40796      795.40796      5.0323379e+08  1.3926571     -57723738      -57723738       1248.35       -57722489      -2647.0092     -2624.5597     -2641.5881      11.022994      21.255378     -1.5347463      21461.119    
     59000   419.7233       0.0295         0.27001065     0.26773448     0.26943984    -2655.4321      795.79445      795.79445      795.79445      5.0396772e+08  1.390629      -57696020      -57696020       1249.8643     -57694770      -2664.7979     -2642.3338     -2659.1644      11.098013      20.010323     -1.685805       22035.093    
     60000   420.28732      0.03           0.27176279     0.26945848     0.27123487    -2672.7729      796.18095      796.18095      796.18095      5.0470237e+08  1.3886048     -57668086      -57668086       1251.5439     -57666835      -2682.0902     -2659.3484     -2676.88        10.79656       18.933639     -2.4861448      21585.054    
     61000   420.86882      0.0305         0.27345478     0.27111956     0.27293153    -2689.3852      796.56744      796.56744      796.56744      5.0543773e+08  1.3865845     -57639943      -57639943       1253.2755     -57638689      -2698.7888     -2675.742      -2693.6248      10.303012      19.060902     -3.4514609      22074.194    
     62000   421.37153      0.031          0.27504575     0.27274081     0.27448122    -2705.0507      796.95394      796.95394      796.95394      5.061738e+08   1.3845681     -57611601      -57611601       1254.7725     -57610347      -2714.4905     -2691.7425     -2708.919       10.127875      19.591212     -3.7790507      21454.18     
     63000   421.78331      0.0315         0.27655468     0.2743049      0.27595577    -2720.011       797.34043      797.34043      797.34043      5.0691059e+08  1.3825557     -57583073      -57583073       1255.9987     -57581817      -2729.3824     -2707.1789     -2723.4717      10.784016      19.450203     -3.6528782      22123.28     
     64000   422.16948      0.032          0.27795915     0.2757487      0.27739906    -2734.1291      797.72693      797.72693      797.72693      5.0764809e+08  1.3805471     -57554366      -57554366       1257.1486     -57553109      -2743.2435     -2721.4281     -2737.7159      11.613629      18.502424     -3.8551155      21800.319    
     65000   422.51735      0.0325         0.27924834     0.2770313      0.27879277    -2747.1747      798.11343      798.11343      798.11343      5.0838631e+08  1.3785424     -57525489      -57525489       1258.1845     -57524230      -2755.9668     -2734.0864     -2751.4708      11.739989      17.80322      -4.1143359      21891.692    
     66000   422.81865      0.033          0.28046053     0.2781901      0.28007073    -2759.1787      798.49992      798.49992      798.49992      5.0912525e+08  1.3765417     -57496450      -57496450       1259.0817     -57495191      -2767.9302     -2745.5229     -2764.0832      10.906184      17.478896     -3.903962       21727.371    
     67000   423.18143      0.0335         0.28158441     0.27937383     0.28122171    -2770.5566      798.88642      798.88642      798.88642      5.098649e+08   1.3745447     -57467261      -57467261       1260.162      -57466001      -2779.0221     -2757.2053     -2775.4424      9.8196324      16.797029     -3.4892773      21938.156    
     68000   423.6726       0.034          0.28262564     0.28059051     0.2822936     -2781.5108      799.27291      799.27291      799.27291      5.1060526e+08  1.3725517     -57437934      -57437934       1261.6247     -57436672      -2789.2982     -2769.213      -2786.0212      9.0785009      16.220917     -3.7556672      22184.01     
     69000   424.23095      0.0345         0.28362824     0.2817088      0.28327533    -2791.7176      799.65941      799.65941      799.65941      5.1134634e+08  1.3705625     -57408467      -57408467       1263.2873     -57407204      -2799.193      -2780.2497     -2795.7101      9.0410496      16.282934     -4.6486302      21672.167    
     70000   424.66136      0.035          0.28459684     0.28263247     0.28417552    -2800.9041      800.0459       800.0459       800.0459       5.1208814e+08  1.3685771     -57378864      -57378864       1264.569      -57377599      -2808.7524     -2789.3656     -2804.5943      9.8530664      16.344567     -5.4239152      21995.797    
     71000   424.81683      0.0355         0.28543427     0.28340104     0.28509189    -2809.2021      800.4324       800.4324       800.4324       5.1283066e+08  1.3665956     -57349140      -57349140       1265.032      -57347875      -2817.0173     -2796.9508     -2813.6382      10.945261      15.835348     -5.7338555      21534.913    
     72000   424.80209      0.036          0.28615985     0.28411798     0.28592513    -2816.6887      800.81889      800.81889      800.81889      5.1357389e+08  1.3646179     -57319310      -57319310       1264.9881     -57318045      -2824.1782     -2804.0264     -2821.8616      10.951478      15.258332     -5.3352233      22178.533    
     73000   424.90344      0.0365         0.28681599     0.28484965     0.28654419    -2823.2908      801.20539      801.20539      801.20539      5.1431784e+08  1.362644      -57289378      -57289378       1265.2899     -57288113      -2830.6537     -2811.2474     -2827.9713      9.85506        15.327987     -4.8749319      21209.131    
     74000   425.14277      0.037          0.28743227     0.28562117     0.28708112    -2829.6227      801.59189      801.59189      801.59189      5.1506251e+08  1.3606739     -57259344      -57259344       1266.0026     -57258078      -2836.7359     -2818.8618     -2833.2703      9.2170944      15.354491     -4.9031757      22197.998    
     75000   425.28172      0.0375         0.28803742     0.28635106     0.28768949    -2836.016       801.97838      801.97838      801.97838      5.1580789e+08  1.3587076     -57229210      -57229210       1266.4163     -57227944      -2842.7083     -2826.0653     -2839.2745      9.2524205      14.787273     -4.9992921      21487.346    
     76000   425.25231      0.038          0.28860544     0.28686572     0.28834437    -2841.7322      802.36488      802.36488      802.36488      5.16554e+08    1.3567451     -57198981      -57198981       1266.3288     -57197715      -2848.3143     -2831.1446     -2845.7377      9.2957221      14.174469     -5.0792368      22066.518    
     77000   425.1534       0.0385         0.28902551     0.28711999     0.28884901    -2845.6107      802.75137      802.75137      802.75137      5.1730082e+08  1.3547864     -57168677      -57168677       1266.0342     -57167411      -2852.46       -2833.654      -2850.7181      9.4670553      13.912346     -5.4631178      21716.45     
     78000   425.22805      0.039          0.28921232     0.28728792     0.28903299    -2847.3829      803.13787      803.13787      803.13787      5.1804837e+08  1.3528314     -57138318      -57138318       1266.2565     -57137051      -2854.3037     -2835.3113     -2852.5338      9.8929197      14.224221     -5.9444701      21801.274    
     79000   425.45853      0.0395         0.28936101     0.28756417     0.28908895    -2848.965       803.52436      803.52436      803.52436      5.1879663e+08  1.3508802     -57107912      -57107912       1266.9429     -57106645      -2855.7711     -2838.0377     -2853.0861      9.9525082      14.289216     -6.0162916      21833.041    
     80000   425.54865      0.04           0.28964022     0.28785419     0.28927783    -2851.459       803.91086      803.91086      803.91086      5.1954562e+08  1.3489328     -57077454      -57077454       1267.2112     -57076187      -2858.5268     -2840.9        -2854.9502      9.395392       13.7482       -5.4967154      21762.076    
     81000   425.34676      0.0405         0.28988834     0.2880473      0.28952744    -2853.7316      804.29736      804.29736      804.29736      5.2029532e+08  1.3469891     -57046943      -57046943       1266.61       -57045676      -2860.9754     -2842.8058     -2857.4136      9.0482832      13.366012     -5.307787       22069.286    
     82000   425.01299      0.041          0.28991111     0.28814128     0.28961618    -2854.4077      804.68385      804.68385      804.68385      5.2104575e+08  1.3450491     -57016392      -57016392       1265.6161     -57015126      -2861.2002     -2843.7333     -2858.2894      9.4911154      13.310574     -5.9364453      21369.504    
     83000   424.64454      0.0415         0.28976254     0.2881549      0.28948711    -2853.5391      805.07035      805.07035      805.07035      5.217969e+08   1.3431128     -56985816      -56985816       1264.5189     -56984552      -2859.7339     -2843.8678     -2857.0156      9.5609863      13.228811     -6.2770433      22030.725    
     84000   424.17838      0.042          0.28961877     0.28811496     0.28928515    -2852.2704      805.45684      805.45684      805.45684      5.2254876e+08  1.3411803     -56955214      -56955214       1263.1308     -56953951      -2858.3151     -2843.4736     -2855.0224      8.9496937      13.133869     -5.9330845      21825.573    
     85000   423.70544      0.0425         0.28954247     0.28796715     0.28915409    -2851.1019      805.84334      805.84334      805.84334      5.2330135e+08  1.3392515     -56924588      -56924588       1261.7224     -56923326      -2857.562      -2842.0148     -2853.729       8.5140823      13.104802     -5.8748598      22157.424    
     86000   423.31293      0.043          0.28943011     0.28774778     0.28904381    -2849.6478      806.22983      806.22983      806.22983      5.2405467e+08  1.3373263     -56893951      -56893951       1260.5536     -56892690      -2856.4531     -2839.8498     -2852.6406      8.3134886      12.830036     -6.3428801      21967.67     
     87000   422.97781      0.0435         0.28917341     0.28758032     0.28884496    -2847.5983      806.61633      806.61633      806.61633      5.248087e+08   1.3354049     -56863312      -56863312       1259.5557     -56862052      -2853.9196     -2838.1971     -2850.6781      8.4021924      12.339912     -7.0966802      22188.81     
     88000   422.57738      0.044          0.28881869     0.28740199     0.28854422    -2844.8553      807.00282      807.00282      807.00282      5.2556346e+08  1.3334871     -56832671      -56832671       1258.3633     -56831413      -2850.4188     -2836.4371     -2847.71        8.4923051      11.788116     -7.4302437      21823.156    
     89000   422.04314      0.0445         0.28834012     0.28710007     0.28811117    -2840.8631      807.38932      807.38932      807.38932      5.2631894e+08  1.331573      -56802035      -56802035       1256.7724     -56800778      -2845.6957     -2833.4574     -2843.4362      8.5381153      11.344868     -7.1693628      21780.058    
     90000   421.29239      0.045          0.28780225     0.28665953     0.28760235    -2835.9705      807.77582      807.77582      807.77582      5.2707515e+08  1.3296626     -56771411      -56771411       1254.5368     -56770156      -2840.3873     -2829.1096     -2838.4145      7.9321652      11.586632     -6.947033       21779.37     
     91000   420.22786      0.0455         0.28731633     0.28614993     0.28704438    -2830.8599      808.16231      808.16231      808.16231      5.2783208e+08  1.3277558     -56740808      -56740808       1251.3668     -56739557      -2835.5917     -2824.0803     -2832.9078      6.6981411      11.763151     -7.1575821      21905.214    
     92000   419.13209      0.046          0.28680647     0.28558742     0.28635868    -2825.0763      808.54881      808.54881      808.54881      5.2858973e+08  1.3258527     -56710237      -56710237       1248.1038     -56708989      -2830.5598     -2818.5287     -2826.1405      6.5148881      11.421449     -7.6393178      21717.504    
     93000   418.41333      0.0465         0.2860756      0.28496236     0.28557834    -2818.0485      808.9353       808.9353       808.9353       5.2934811e+08  1.3239532     -56679711      -56679711       1245.9635     -56678465      -2823.3467     -2812.3599     -2818.439       7.1064376      11.321835     -7.8838622      21906.767    
     94000   418.01779      0.047          0.2851842      0.2843771      0.28486965    -2810.8593      809.3218       809.3218       809.3218       5.3010721e+08  1.3220573     -56649230      -56649230       1244.7856     -56647985      -2814.5492     -2806.5838     -2811.4448      6.491408       11.096463     -7.7367984      22099.635    
     95000   417.36757      0.0475         0.2844173      0.28378039     0.28421977    -2804.2354      809.70829      809.70829      809.70829      5.3086704e+08  1.320165      -56618793      -56618793       1242.8494     -56617550      -2806.9805     -2800.6947     -2805.031       4.7916822      10.405973     -7.7186253      21579.898    
     96000   416.33444      0.048          0.28372373     0.28298738     0.28342309    -2796.724       810.09479      810.09479      810.09479      5.316276e+08   1.3182764     -56588405      -56588405       1239.7729     -56587165      -2800.1355     -2792.8682     -2797.1684      3.7204996      9.9710483     -7.9576659      22158.331    
     97000   415.29595      0.0485         0.28287899     0.28207557     0.28240884    -2787.6088      810.48128      810.48128      810.48128      5.3238888e+08  1.3163914     -56558079      -56558079       1236.6804     -56556843      -2791.7986     -2783.8694     -2787.1585      4.0736608      10.33764      -8.0357784      21399.447    
     98000   414.38774      0.049          0.28178224     0.28118886     0.28130864    -2777.4644      810.86778      810.86778      810.86778      5.3315088e+08  1.3145099     -56527830      -56527830       1233.9759     -56526596      -2780.9745     -2775.1183     -2776.3004      4.8034102      10.785085     -8.2151986      22024.095    
     99000   413.46447      0.0495         0.28061659     0.2803437      0.28031975    -2767.5962      811.25428      811.25428      811.25428      5.3391362e+08  1.312632      -56497655      -56497655       1231.2266     -56496424      -2769.4704     -2766.7772     -2766.5409      4.3080466      10.573091     -8.5575199      21761.552    
    100000   412.26643      0.05           0.27962578     0.27946022     0.27941202    -2758.444       811.64077      811.64077      811.64077      5.3467708e+08  1.3107577     -56467552      -56467552       1227.659      -56466324      -2759.6919     -2758.058      -2757.5822      2.8913001      10.170279     -8.7316305      20387.947    
    101000   410.85514      0.0505         0.2786699      0.27854453     0.27838311    -2748.9022      812.02727      812.02727      812.02727      5.3544127e+08  1.308887      -56437527      -56437527       1223.4565     -56436303      -2750.2581     -2749.0208     -2747.4277      1.5161343      9.9176129     -8.63675        21660.11     
    102000   409.70308      0.051          0.27749884     0.27757938     0.2771559     -2737.8374      812.41376      812.41376      812.41376      5.3620618e+08  1.3070198     -56407586      -56407586       1220.0258     -56406366      -2738.7006     -2739.4954     -2735.3161      0.79329233     9.649568      -8.1102663      21640.827    
    103000   408.97178      0.0515         0.27617331     0.27647841     0.27590016    -2725.7238      812.80026      812.80026      812.80026      5.3697183e+08  1.3051562     -56377736      -56377736       1217.8481     -56376519      -2725.6186     -2728.6298     -2722.9229      0.90500811     9.4882039     -7.7625875      21704.873    
    104000   408.26835      0.052          0.27489619     0.27524707     0.27472626    -2713.6097      813.18675      813.18675      813.18675      5.377382e+08   1.3032961     -56347986      -56347986       1215.7534     -56346771      -2713.0144     -2716.4774     -2711.3374      1.09621        9.4896544     -7.8799707      21767.193    
    105000   407.1397       0.0525         0.2736664      0.27404833     0.27357882    -2701.8457      813.57325      813.57325      813.57325      5.385053e+08   1.3014396     -56318341      -56318341       1212.3925     -56317128      -2700.8774     -2704.6468     -2700.013       0.89477052     9.565653      -7.8031808      22105.877    
    106000   405.6277       0.053          0.27234733     0.27291089     0.27230738    -2689.5817      813.95975      813.95975      813.95975      5.3927313e+08  1.2995866     -56288804      -56288804       1207.89       -56287596      -2687.8592     -2693.421      -2687.4649      0.61473777     9.5294908     -7.5125673      21542.183    
    107000   404.04956      0.0535         0.27095767     0.27169407     0.27085309    -2676.2228      814.34624      814.34624      814.34624      5.4004169e+08  1.2977371     -56259380      -56259380       1203.1906     -56258177      -2674.1443     -2681.412      -2673.1121      0.30132753     9.6174856     -7.3734334      21705.492    
    108000   402.60246      0.054          0.26954291     0.27035683     0.26937321    -2662.301       814.73274      814.73274      814.73274      5.4081098e+08  1.2958911     -56230074      -56230074       1198.8814     -56228875      -2660.1816     -2668.2144     -2658.5069     -0.39832497     9.9876084     -7.2604317      21821.065    
    109000   401.39521      0.0545         0.26810244     0.26894514     0.26801412    -2648.4471      815.11923      815.11923      815.11923      5.41581e+08    1.2940486     -56200886      -56200886       1195.2864     -56199691      -2645.9654     -2654.2821     -2645.0937     -1.4568516      10.204262     -6.9185154      22003.01     
    110000   400.34607      0.055          0.26669815     0.26758706     0.26672977    -2635.1344      815.50573      815.50573      815.50573      5.4235175e+08  1.2922095     -56171815      -56171815       1192.1622     -56170622      -2632.1061     -2640.879      -2632.4182     -2.1920387      10.416786     -6.6002016      21418.091    
    111000   399.2394       0.0555         0.26529754     0.26631922     0.26537916    -2621.9127      815.89222      815.89222      815.89222      5.4312323e+08  1.290374      -56142865      -56142865       1188.8667     -56141676      -2618.2832     -2628.3664     -2619.0886     -2.1260216      10.511997     -6.4535083      22131.347    
    112000   398.02736      0.056          0.26384568     0.26500294     0.26390938    -2607.9711      816.27872      816.27872      816.27872      5.4389545e+08  1.288542      -56114045      -56114045       1185.2575     -56112860      -2603.9544     -2615.3757     -2604.583      -1.9678216      10.123717     -6.3827457      22228.96     
    113000   396.71702      0.0565         0.26240066     0.26354504     0.26231515    -2593.1766      816.66521      816.66521      816.66521      5.4466839e+08  1.2867134     -56085363      -56085363       1181.3555     -56084181      -2589.6932     -2600.9873     -2588.8493     -2.6345751      9.7033298     -6.3625978      21536.354    
    114000   395.29804      0.057          0.2609382      0.26200356     0.26061099    -2577.6881      817.05171      817.05171      817.05171      5.4544207e+08  1.2848883     -56056815      -56056815       1177.1301     -56055638      -2575.2598     -2585.7741     -2572.0305     -3.9116001      9.75539       -6.266384       22081.081    
    115000   393.84622      0.0575         0.25938821     0.26043628     0.25896325    -2562.0125      817.43821      817.43821      817.43821      5.4621648e+08  1.2830666     -56028399      -56028399       1172.8068     -56027226      -2559.9626     -2570.3063     -2555.7685     -4.74287        10.238694     -6.0602697      21806.778    
    116000   392.42579      0.058          0.25782452     0.25891251     0.257472      -2546.9497      817.8247       817.8247       817.8247       5.4699162e+08  1.2812484     -56000116      -56000116       1168.577      -55998948      -2544.5302     -2555.2678     -2541.0511     -4.824513       10.993668     -5.8615479      21877.13     
    117000   391.04548      0.0585         0.25631359     0.25739585     0.25603572    -2532.2647      818.2112       818.2112       818.2112       5.4776749e+08  1.2794336     -55971972      -55971972       1164.4667     -55970807      -2529.6184     -2540.2995     -2526.8761     -4.9050442      11.614108     -5.7879264      21903.241    
    118000   389.71441      0.059          0.25476943     0.2558214      0.25451128    -2516.9903      818.59769      818.59769      818.59769      5.485441e+08   1.2776222     -55943977      -55943977       1160.503      -55942816      -2514.3788     -2524.7609     -2511.8311     -5.4779851      11.65876      -5.5141811      21921.176    
    119000   388.4788       0.0595         0.25313886     0.2541767      0.25280633    -2500.6066      818.98419      818.98419      818.98419      5.4932144e+08  1.2758142     -55916138      -55916138       1156.8235     -55914981      -2498.2863     -2508.529      -2495.0044     -6.1069243      11.543379     -4.6978319      21771.834    
    120000   387.31784      0.06           0.25146268     0.25248482     0.25100655    -2483.6057      819.37068      819.37068      819.37068      5.5009952e+08  1.2740097     -55888453      -55888453       1153.3664     -55887299      -2481.7437     -2491.8314     -2477.2421     -6.0690124      11.694042     -4.1678832      21691.836    
    121000   386.08551      0.0605         0.24981383     0.25078677     0.24930645    -2467.0024      819.75718      819.75718      819.75718      5.5087833e+08  1.2722085     -55860917      -55860917       1149.6967     -55859767      -2465.4708     -2475.073      -2460.4634     -5.7528106      11.900192     -4.5006449      21888.201    
    122000   384.57037      0.061          0.24819824     0.24912461     0.24775175    -2451.1048      820.14368      820.14368      820.14368      5.5165787e+08  1.2704108     -55833535      -55833535       1145.1849     -55832390      -2449.5261     -2458.6688     -2445.1196     -6.1313614      11.962088     -4.9577093      21777.973    
    123000   382.85571      0.0615         0.24659523     0.24747543     0.24618445    -2435.25        820.53017      820.53017      820.53017      5.5243815e+08  1.2686164     -55806306      -55806306       1140.0789     -55805166      -2433.7057     -2442.3926     -2429.6516     -7.0769154      11.709686     -4.5976996      21671.031    
    124000   381.34283      0.062          0.24496952     0.24578402     0.24448967    -2418.7621      820.91667      820.91667      820.91667      5.5321917e+08  1.2668254     -55779230      -55779230       1135.5738     -55778094      -2417.6612     -2425.6997     -2412.9255     -7.7377558      11.544004     -3.773617       19922.358    
    125000   380.22535      0.0625         0.2432555      0.24404751     0.24267535    -2401.4421      821.30316      821.30316      821.30316      5.5400092e+08  1.2650378     -55752316      -55752316       1132.2462     -55751184      -2400.7451     -2408.5616     -2395.0195     -7.5937403      11.554633     -3.3757234      21220.357    
    126000   379.29834      0.063          0.24150539     0.24229077     0.2408852     -2384.0163      821.68966      821.68966      821.68966      5.5478341e+08  1.2632536     -55725571      -55725571       1129.4857     -55724442      -2383.4729     -2391.224      -2377.3521     -6.7962503      11.539012     -3.2860914      21279.499    
    127000   378.20177      0.0635         0.23985335     0.24059875     0.23925488    -2367.6519      822.07615      822.07615      822.07615      5.5556663e+08  1.2614727     -55698988      -55698988       1126.2203     -55697861      -2367.1685     -2374.5251     -2361.2621     -6.4841976      11.478776     -3.1894271      22045.761    
    128000   376.75894      0.064          0.23822859     0.23895444     0.23770743    -2351.8067      822.46265      822.46265      822.46265      5.5635059e+08  1.2596951     -55672561      -55672561       1121.9238     -55671439      -2351.1333     -2358.297      -2345.9899     -7.220302       11.331888     -2.3762261      21922.079    
    129000   375.16622      0.0645         0.2364543      0.23723522     0.23602999    -2334.7956      822.84914      822.84914      822.84914      5.5713529e+08  1.2579209     -55646292      -55646292       1117.1809     -55645175      -2333.6225     -2341.3296     -2329.4349     -8.0180055      11.159164     -1.3725686      22233.446    
    130000   373.71492      0.065          0.23461237     0.23541992     0.23420745    -2316.7686      823.23564      823.23564      823.23564      5.5792072e+08  1.25615       -55620192      -55620192       1112.8592     -55619080      -2315.4441     -2323.414      -2311.4479     -8.3758301      10.840734     -1.5865655      21987.896    
    131000   372.41375      0.0655         0.23289782     0.23365119     0.23240887    -2299.3926      823.62214      823.62214      823.62214      5.5870689e+08  1.2543824     -55594267      -55594267       1108.9846     -55593158      -2298.5228     -2305.9579     -2293.6972     -8.4341198      10.566797     -2.5840301      22070.854    
    132000   371.19275      0.066          0.23131016     0.23195032     0.23074149    -2283.089       824.00863      824.00863      824.00863      5.5949381e+08  1.2526182     -55568501      -55568501       1105.3486     -55567396      -2282.8538     -2289.1717     -2277.2415     -8.3690966      10.69018      -2.6546946      21674.084    
    133000   370.11183      0.0665         0.229743       0.23025325     0.22916822    -2267.1748      824.39513      824.39513      824.39513      5.6028145e+08  1.2508572     -55542885      -55542885       1102.1298     -55541783      -2267.3871     -2272.4229     -2261.7145     -8.2686991      10.869976     -1.3520345      22229.153    
    134000   369.12939      0.067          0.22810086     0.22850761     0.22755617    -2250.7267      824.78162      824.78162      824.78162      5.6106984e+08  1.2490996     -55517430      -55517430       1099.2043     -55516331      -2251.1805     -2255.1948     -2245.8048     -8.070941       10.611159      0.044344688    22035.162    
    135000   368.11268      0.0675         0.22635692     0.22681727     0.22584648    -2233.8043      825.16812      825.16812      825.16812      5.6185897e+08  1.2473452     -55492143      -55492143       1096.1767     -55491047      -2233.9691     -2238.5125     -2228.9315     -8.1205373      9.9808288      0.31766215     21892.43     
    136000   367.08053      0.068          0.22458963     0.22518683     0.22409194    -2216.8547      825.55461      825.55461      825.55461      5.6264884e+08  1.2455942     -55467027      -55467027       1093.1031     -55465934      -2216.5273     -2222.4212     -2211.6155     -8.3786017      9.6458882     -0.011519701    22205.949    
    137000   366.15574      0.0685         0.22289382     0.22348739     0.22239684    -2200.1087      825.94111      825.94111      825.94111      5.6343945e+08  1.2438464     -55442080      -55442080       1090.3493     -55440990      -2199.791      -2205.649      -2194.8862     -8.4839062      9.7684402     -0.014955403    22034.406    
    138000   365.22444      0.069          0.22128263     0.22172593     0.22081751    -2183.818       826.3276       826.3276       826.3276       5.6423079e+08  1.2421019     -55417289      -55417289       1087.576      -55416202      -2183.8898     -2188.2648     -2179.2994     -8.2310102      9.8638278      0.23011914     21752.912    
    139000   364.01196      0.0695         0.21975785     0.22009721     0.21932265    -2168.5261      826.7141       826.7141       826.7141       5.6502288e+08  1.2403606     -55392644      -55392644       1083.9654     -55391560      -2168.8413     -2172.1906     -2164.5463     -7.7722891      9.4139722      0.46434744     21882.815    
    140000   362.64554      0.07           0.21819086     0.21858247     0.21775543    -2153.2322      827.1006       827.1006       827.1006       5.6581571e+08  1.2386226     -55368153      -55368153       1079.8965     -55367073      -2153.3764     -2157.2412     -2149.079      -7.6309217      8.3963786      0.39679891     21896.835    
    141000   361.5848       0.0705         0.21652464     0.21704404     0.21604879    -2137.0753      827.48709      827.48709      827.48709      5.6660928e+08  1.2368878     -55343822      -55343822       1076.7378     -55342745      -2136.9321     -2142.0582     -2132.2358     -7.8964441      7.6550315     -0.082354925    21811.08     
    142000   360.89015      0.071          0.21484933     0.21550775     0.21435606    -2120.9413      827.87359      827.87359      827.87359      5.6740359e+08  1.2351563     -55319652      -55319652       1074.6692     -55318578      -2120.398      -2126.8961     -2115.5298     -8.0958771      7.8588274     -0.15317632     22224.688    
    143000   360.09691      0.0715         0.21329334     0.21399602     0.21279236    -2105.7052      828.26008      828.26008      828.26008      5.6819865e+08  1.233428      -55295636      -55295636       1072.3071     -55294564      -2105.0416     -2111.9765     -2100.0973     -7.8339782      8.4292547      0.49998375     21401.785    
    144000   358.94827      0.072          0.21188469     0.2124835      0.21135653    -2091.3717      828.64658      828.64658      828.64658      5.6899444e+08  1.2317029     -55271761      -55271761       1068.8867     -55270692      -2091.1393     -2097.0491     -2085.9267     -7.4282487      8.3378608      1.0382051      22226.95     
    145000   357.73422      0.0725         0.21047715     0.21099535     0.20995105    -2077.222       829.03307      829.03307      829.03307      5.6979098e+08  1.2299811     -55248027      -55248027       1065.2714     -55246962      -2077.248      -2082.3622     -2072.0558     -7.381679       7.373759       1.0999371      22009.997    
    146000   356.73179      0.073          0.208989       0.20958679     0.20853741    -2063.0421      829.41957      829.41957      829.41957      5.7058826e+08  1.2282624     -55224434      -55224434       1062.2864     -55223371      -2062.5611     -2068.4608     -2058.1043     -7.8836015      6.5349889      1.1118872      21671.449    
    147000   355.89803      0.0735         0.20748644     0.20818305     0.20711545    -2048.8031      829.80607      829.80607      829.80607      5.7138629e+08  1.226547      -55200979      -55200979       1059.8036     -55199919      -2047.7319     -2054.607      -2044.0705     -8.3893268      6.6242022      1.1965315      22108.462    
    148000   355.07564      0.074          0.2060285      0.20673029     0.20563205    -2034.3477      830.19256      830.19256      830.19256      5.7218506e+08  1.2248347     -55177662      -55177662       1057.3546     -55176605      -2033.3433     -2040.2694     -2029.4306     -8.4012195      7.1693847      1.3256267      21764.36     
    149000   354.06822      0.0745         0.20463553     0.20531872     0.20416181    -2020.2848      830.57906      830.57906      830.57906      5.7298457e+08  1.2231256     -55154481      -55154481       1054.3547     -55153426      -2019.5957     -2026.3382     -2014.9204     -8.1080205      7.3189394      1.3388031      21818.154    
    150000   352.83727      0.075          0.20329124     0.20404305     0.20277448    -2007.1018      830.96555      830.96555      830.96555      5.7378483e+08  1.2214197     -55131435      -55131435       1050.6891     -55130384      -2006.3285     -2013.7484     -2001.2285     -8.0128437      6.9126983      1.381834       20737.603    
    151000   351.46082      0.0755         0.20196786     0.20283203     0.20146694    -1994.4628      831.35205      831.35205      831.35205      5.7458583e+08  1.219717      -55108519      -55108519       1046.5903     -55107472      -1993.2678     -2001.7965     -1988.3241     -8.2879645      6.6878778      1.4243809      22206.703    
    152000   350.12008      0.076          0.2006164      0.20156547     0.2001758     -1981.6027      831.73854      831.73854      831.73854      5.7538758e+08  1.2180175     -55085726      -55085726       1042.5978     -55084683      -1979.93       -1989.2965     -1975.5815     -8.892297       7.0028917      1.3407297      21508.817    
    153000   349.01441      0.0765         0.19924027     0.20021698     0.19882637    -1968.2001      832.12504      832.12504      832.12504      5.7619007e+08  1.216321      -55063054      -55063054       1039.3053     -55062015      -1966.3486     -1975.988      -1962.2637     -9.6848151      7.0969215      1.3782686      22186.264    
    154000   348.07204      0.077          0.19799334     0.19885494     0.19755278    -1955.4275      832.51153      832.51153      832.51153      5.7699331e+08  1.2146278     -55040499      -55040499       1036.4991     -55039462      -1954.0423     -1962.5457     -1949.6943     -9.9915797      6.5918694      2.0909639      21978.865    
    155000   347.05704      0.0775         0.19695562     0.19756864     0.19646101    -1944.1904      832.89803      832.89803      832.89803      5.777973e+08   1.2129377     -55018057      -55018057       1033.4766     -55017024      -1943.8009     -1949.8509     -1938.9194     -9.3693887      5.8260934      2.9989282      22240.917    
    156000   346.01451      0.078          0.19595286     0.19642498     0.19538672    -1933.5951      833.28453      833.28453      833.28453      5.7860203e+08  1.2112507     -54995723      -54995723       1030.3721     -54994693      -1933.9043     -1938.5639     -1928.317      -8.6303348      5.5789359      2.9749884      21960.932    
    157000   345.02676      0.0785         0.19480918     0.19542289     0.19419425    -1922.6131      833.67102      833.67102      833.67102      5.7940751e+08  1.2095669     -54973497      -54973497       1027.4308     -54972470      -1922.6172     -1928.674      -1916.5482     -8.4486428      5.9265174      2.0370038      22151.18     
    158000   343.94607      0.079          0.19351509     0.19439381     0.19291909    -1910.7755      834.05752      834.05752      834.05752      5.8021373e+08  1.2078861     -54951385      -54951385       1024.2127     -54950361      -1909.8454     -1918.5177     -1903.9633     -8.797338       6.2770111      1.5194315      21777.943    
    159000   342.65905      0.0795         0.1921991      0.19320554     0.19168551    -1898.479       834.44401      834.44401      834.44401      5.810207e+08   1.2062085     -54929384      -54929384       1020.3802     -54928364      -1896.8576     -1906.7904     -1891.7889     -9.3193185      6.1401724      1.7495878      21632.874    
    160000   341.39835      0.08           0.19110287     0.19197252     0.19058957    -1887.211       834.83051      834.83051      834.83051      5.8182843e+08  1.204534      -54907489      -54907489       1016.626      -54906472      -1886.0386     -1894.6215     -1880.9728     -9.5632501      5.6728737      2.4637731      21717.945    
    161000   340.42154      0.0805         0.19022447     0.19087014     0.1895981     -1877.433       835.217        835.217        835.217        5.8263689e+08  1.2028626     -54885688      -54885688       1013.7172     -54884674      -1877.3696     -1883.7418     -1871.1877     -9.4196266      5.3982845      3.3776109      21813.865    
    162000   339.66934      0.081          0.18941477     0.18994386     0.18866779    -1868.6616      835.6035       835.6035       835.6035       5.8344611e+08  1.2011942     -54863969      -54863969       1011.4773     -54862958      -1869.3784     -1874.6001     -1862.0063     -8.7826693      5.5621179      3.9147493      21811.579    
    163000   338.79345      0.0815         0.18848066     0.18910332     0.18772798    -1859.7318      835.98999      835.98999      835.98999      5.8425608e+08  1.199529      -54842338      -54842338       1008.8691     -54841329      -1860.1595     -1866.3046     -1852.7311     -7.7515577      5.9536859      3.4373424      21772.263    
    164000   337.68849      0.082          0.18735409     0.18820633     0.18670663    -1849.7148      836.37649      836.37649      836.37649      5.8506679e+08  1.1978668     -54820808      -54820808       1005.5787     -54819803      -1849.0411     -1857.4521     -1842.6512     -7.2165873      6.1439191      2.2711259      21829.912    
    165000   336.6406       0.0825         0.18619162     0.18719708     0.18562087    -1838.9985      836.76299      836.76299      836.76299      5.8587826e+08  1.1962077     -54799381      -54799381       1002.4582     -54798378      -1837.5684     -1847.4915     -1831.9355     -7.6781161      5.9668738      1.9714218      21887.84     
    166000   335.80916      0.083          0.18516121     0.18613117     0.18457707    -1828.6683      837.14948      837.14948      837.14948      5.8669048e+08  1.1945517     -54778041      -54778041       999.98234     -54777041      -1827.3991     -1836.9718     -1821.634      -8.5020378      5.7156092      2.9966372      21901.301    
    167000   335.07305      0.0835         0.18431475     0.1851497      0.18368904    -1819.7335      837.53598      837.53598      837.53598      5.8750344e+08  1.1928987     -54756773      -54756773       997.79033     -54755775      -1819.0452     -1827.2855     -1812.8699     -8.7083516      5.7033125      4.0714407      21855.319    
    168000   334.2435       0.084          0.18363465     0.18437717     0.18296909    -1812.5862      837.92247      837.92247      837.92247      5.8831716e+08  1.1912488     -54735574      -54735574       995.32007     -54734578      -1812.333      -1819.6612     -1805.7645     -8.0845006      6.0308124      3.905796       21861.621    
    169000   333.36403      0.0845         0.18299049     0.18369439     0.18219652    -1805.6794      838.30897      838.30897      838.30897      5.8913163e+08  1.1896019     -54714450      -54714450       992.70115     -54713457      -1805.9758     -1812.9227     -1798.1398     -7.130898       6.3746624      3.0379518      21861.62     
    170000   332.55638      0.085          0.18221797     0.18293093     0.18128824    -1797.6385      838.69546      838.69546      838.69546      5.8994684e+08  1.1879581     -54693401      -54693401       990.2961      -54692410      -1798.3516     -1805.3879     -1789.1759     -6.3681392      6.526304       2.855466       22230.275    
    171000   331.87266      0.0855         0.18127976     0.18203436     0.18035037    -1788.5171      839.08196      839.08196      839.08196      5.9076282e+08  1.1863172     -54672432      -54672432       988.26011     -54671443      -1789.0922     -1796.5395     -1779.9198     -6.4535003      6.7273988      3.0557485      21781.54     
    172000   331.30357      0.086          0.1802754      0.18113557     0.17950394    -1779.4717      839.46846      839.46846      839.46846      5.9157954e+08  1.1846794     -54651540      -54651540       986.56547     -54650554      -1779.1798     -1787.6691     -1771.5661     -7.2476694      6.7835637      2.8516897      21904.283    
    173000   330.66271      0.0865         0.17939323     0.1803762      0.17878299    -1771.6997      839.85495      839.85495      839.85495      5.9239701e+08  1.1830446     -54630715      -54630715       984.65709     -54629730      -1770.4735     -1780.1747     -1764.4509     -7.5874409      6.5088168      2.4686949      21738.265    
    174000   329.80543      0.087          0.17867922     0.17964614     0.17812839    -1764.7956      840.24145      840.24145      840.24145      5.9321524e+08  1.1814129     -54609947      -54609947       982.10426     -54608965      -1763.4268     -1772.9696     -1757.9905     -6.9148173      6.0576981      2.6234962      21958.868    
    175000   328.91034      0.0875         0.1780342      0.17888238     0.17746808    -1757.9889      840.62794      840.62794      840.62794      5.9403422e+08  1.1797841     -54589243      -54589243       979.43883     -54588264      -1757.061      -1765.4318     -1751.4738     -6.0394701      5.9034178      3.2113699      22200.732    
    176000   328.24745      0.088          0.1774005      0.17814924     0.17675741    -1751.1544      841.01444      841.01444      841.01444      5.9485396e+08  1.1781583     -54568611      -54568611       977.46486     -54567634      -1750.8068     -1758.1963     -1744.46       -5.6871687      6.1632199      3.2990918      21226.819    
    177000   327.8342       0.0885         0.17675744     0.17751526     0.17599263    -1744.4373      841.40093      841.40093      841.40093      5.9567444e+08  1.1765355     -54548044      -54548044       976.23428     -54547068      -1744.4603     -1751.9394     -1736.9122     -5.8964816      6.6896349      2.760333       22206.334    
    178000   327.48485      0.089          0.1760452      0.17692627     0.17522155    -1737.6199      841.78743      841.78743      841.78743      5.9649569e+08  1.1749156     -54527528      -54527528       975.19397     -54526553      -1737.431      -1746.1265     -1729.3023     -6.1185894      7.2582539      2.0433153      21770.975    
    179000   327.01978      0.0895         0.17534674     0.17627646     0.17456475    -1731.0238      842.17392      842.17392      842.17392      5.9731768e+08  1.1732988     -54507060      -54507060       973.80906     -54506086      -1730.5377     -1739.7134     -1722.8201     -5.9200846      7.4669712      1.8853692      22173.209    
    180000   326.44473      0.09           0.17473831     0.17554506     0.17398697    -1724.7153      842.56042      842.56042      842.56042      5.9814043e+08  1.1716849     -54486648      -54486648       972.09667     -54485676      -1724.533      -1732.495      -1717.1179     -5.4902716      7.1926383      2.3493612      21585.665    
    181000   325.99118      0.0905         0.17418325     0.17479786     0.17335873    -1718.3645      842.94692      842.94692      842.94692      5.9896394e+08  1.170074      -54466293      -54466293       970.74608     -54465323      -1719.0551     -1725.1207     -1710.9176     -5.0902267      6.7685352      2.9671715      22208.783    
    182000   325.66359      0.091          0.17362715     0.1741451      0.17274053    -1712.3539      843.33341      843.33341      843.33341      5.997882e+08   1.168466      -54445995      -54445995       969.77055     -54445025      -1713.5667     -1718.6785     -1704.8165     -4.7219441      6.5580536      2.9917651      22053.255    
    183000   325.31779      0.0915         0.17300021     0.17357299     0.17215674    -1706.4888      843.71991      843.71991      843.71991      6.0061322e+08  1.1668609     -54425751      -54425751       968.74082     -54424782      -1707.3793     -1713.0322     -1699.0549     -4.3304999      6.7829824      2.4167038      21980.941    
    184000   324.87966      0.092          0.17234658     0.17299902     0.17156901    -1700.5168      844.1064       844.1064       844.1064       6.01439e+08    1.1652588     -54405555      -54405555       967.43614     -54404588      -1700.9285     -1707.3676     -1693.2544     -4.377624       7.1104112      1.8872981      22039.577    
    185000   324.44318      0.0925         0.17176709     0.17243214     0.17096644    -1694.7633      844.4929       844.4929       844.4929       6.0226553e+08  1.1636597     -54385404      -54385404       966.13639     -54384438      -1695.2094     -1701.7729     -1687.3075     -4.7484688      7.3099868      1.9990962      21419.296    
    186000   324.08852      0.093          0.17125126     0.171942       0.17040842    -1689.6182      844.87939      844.87939      844.87939      6.0309281e+08  1.1620634     -54365294      -54365294       965.08028     -54364329      -1690.1186     -1696.9356     -1681.8003     -4.7157472      7.7041676      2.5910971      22095.51     
    187000   323.7593       0.0935         0.17075464     0.17149401     0.16993025    -1684.9376      845.26589      845.26589      845.26589      6.0392086e+08  1.1604701     -54345226      -54345226       964.09992     -54344262      -1685.2173     -1692.5142     -1677.0812     -4.2856375      8.1093763      2.8891486      21943.256    
    188000   323.47439      0.094          0.17016622     0.17094823     0.16941774    -1679.5203      845.65239      845.65239      845.65239      6.0474966e+08  1.1588797     -54325206      -54325206       963.2515      -54324243      -1679.41       -1687.1279     -1672.023      -3.7885211      8.0688936      2.6058139      21808.959    
    189000   323.34916      0.0945         0.1695024      0.17026903     0.16873996    -1672.8724      846.03888      846.03888      846.03888      6.0557922e+08  1.1572922     -54305234      -54305234       962.8786      -54304271      -1672.8587     -1680.4247     -1665.334      -3.6027376      7.6236571      1.9357881      21215.731    
    190000   323.24396      0.095          0.16893799     0.16962988     0.16802252    -1666.5528      846.42538      846.42538      846.42538      6.0640954e+08  1.1557076     -54285313      -54285313       962.5653      -54284350      -1667.2883     -1674.1168     -1658.2533     -4.2025601      7.0203504      1.5268802      21151.589    
    191000   323.01737      0.0955         0.16848005     0.16913556     0.16749077    -1661.6708      846.81187      846.81187      846.81187      6.0724062e+08  1.1541259     -54265440      -54265440       961.89055     -54264478      -1662.7689     -1669.2382     -1653.0054     -4.8429821      6.9352052      1.9475611      21339.985    
    192000   322.80274      0.096          0.16799263     0.16869936     0.16714752    -1657.5031      847.19837      847.19837      847.19837      6.0807245e+08  1.152547      -54245609      -54245609       961.25144     -54244648      -1657.9583     -1664.9332     -1649.6178     -4.5535327      7.4020387      2.5880275      21413.601    
    193000   322.64083      0.0965         0.16746239     0.16819208     0.16678355    -1652.8926      847.58486      847.58486      847.58486      6.0890505e+08  1.1509711     -54225817      -54225817       960.7693      -54224856      -1652.7253     -1659.9268     -1646.0257     -3.7096471      7.8611167      2.8917976      21009.723    
    194000   322.30465      0.097          0.16698966     0.16761346     0.16625596    -1647.6982      847.97136      847.97136      847.97136      6.0973841e+08  1.149398      -54206064      -54206064       959.76821     -54205104      -1648.0598     -1654.2162     -1640.8187     -2.9874978      7.8616521      2.8904648      21435.747    
    195000   321.78767      0.0975         0.16657992     0.1670759      0.16561408    -1642.4703      848.35785      848.35785      848.35785      6.1057252e+08  1.1478278     -54186348      -54186348       958.22873     -54185390      -1644.016      -1648.911      -1634.4838     -2.8511204      7.4488674      2.383312       21431.446    
    196000   321.43799      0.098          0.16610837     0.16660974     0.16503334    -1637.475       848.74435      848.74435      848.74435      6.114074e+08   1.1462604     -54166666      -54166666       957.18744     -54165709      -1639.3622     -1644.3103     -1628.7525     -3.3800927      7.2989057      1.7397256      21209.105    
    197000   321.38764      0.0985         0.16556343     0.16615569     0.16461091    -1632.7988      849.13085      849.13085      849.13085      6.1224303e+08  1.1446959     -54147019      -54147019       957.0375      -54146062      -1633.984      -1639.8291     -1624.5834     -4.0248678      7.4269422      1.484126       21225.149    
    198000   321.49568      0.099          0.16506735     0.1657098      0.16423127    -1628.4511      849.51734      849.51734      849.51734      6.1307943e+08  1.1431343     -54127414      -54127414       957.35925     -54126457      -1629.0881     -1635.4286     -1620.8366     -4.1970323      7.4673096      2.029005       21281.982    
    199000   321.5955       0.0995         0.1646329      0.16526955     0.16375174    -1623.996       849.90384      849.90384      849.90384      6.1391659e+08  1.1415755     -54107854      -54107854       957.65649     -54106896      -1624.8004     -1631.0837     -1616.104      -4.1353455      7.5680325      2.9164802      21421.433    
    200000   321.60183      0.1            0.16418212     0.16478674     0.16318497    -1619.0602      850.29033      850.29033      850.29033      6.1475451e+08  1.1400195     -54088336      -54088336       957.67533     -54087378      -1620.3515     -1626.3186     -1610.5104     -4.0273111      7.8275324      3.0681553      20357.782    
    201000   321.45515      0.1005         0.16364606     0.16423089     0.16263864    -1613.6708      850.67683      850.67683      850.67683      6.1559319e+08  1.1384663     -54068859      -54068859       957.23853     -54067902      -1615.061      -1620.8329     -1605.1186     -3.7127421      8.1310039      2.1161984      21462.913    
    202000   321.14732      0.101          0.16312824     0.16367416     0.16220793    -1608.7189      851.06332      851.06332      851.06332      6.1643264e+08  1.136916      -54049421      -54049421       956.32187     -54048464      -1609.9506     -1615.3384     -1600.8678     -3.303136       8.0679817      1.2509914      21199.425    
    203000   320.84053      0.1015         0.16270868     0.16325964     0.16186311    -1604.8406      851.44982      851.44982      851.44982      6.1727285e+08  1.1353684     -54030012      -54030012       955.40832     -54029056      -1605.8098     -1611.2473     -1597.4647     -3.0657121      7.884497       1.3804306      21298.39     
    204000   320.73405      0.102          0.16232781     0.16296234     0.16152744    -1601.5054      851.83631      851.83631      851.83631      6.1811382e+08  1.1338237     -54010627      -54010627       955.09122     -54009672      -1602.0509     -1608.3132     -1594.1519     -3.1831429      7.9269819      2.024695       21231.001    
    205000   320.88636      0.1025         0.1619496      0.16265405     0.16113952    -1597.9708      852.22281      852.22281      852.22281      6.1895555e+08  1.1322818     -53991272      -53991272       955.54479     -53990316      -1598.3183     -1605.2707     -1590.3234     -3.3964522      8.0849571      2.4634211      21432.285    
    206000   321.06837      0.103          0.16159133     0.16224844     0.16064456    -1593.8296      852.60931      852.60931      852.60931      6.1979805e+08  1.1307427     -53971949      -53971949       956.08678     -53970993      -1594.7825     -1601.2676     -1585.4386     -3.2891165      8.335515       2.6721281      21137.302    
    207000   321.03339      0.1035         0.16121253     0.16173845     0.16012672    -1589.2021      852.9958       852.9958       852.9958       6.2064131e+08  1.1292064     -53952659      -53952659       955.9826      -53951703      -1591.044      -1596.2344     -1580.3279     -3.2164698      8.4600264      2.8451608      21386.241    
    208000   320.84793      0.104          0.16072528     0.16118652     0.15965586    -1584.2344      853.3823       853.3823       853.3823       6.2148534e+08  1.1276728     -53933408      -53933408       955.43034     -53932453      -1586.2352     -1590.7872     -1575.6808     -3.4902066      8.1651472      2.7153548      21072.217    
    209000   320.64476      0.1045         0.16016231     0.16067636     0.15921132    -1579.2417      853.76879      853.76879      853.76879      6.2233013e+08  1.126142      -53914204      -53914204       954.82535     -53913249      -1580.6791     -1585.7524     -1571.2936     -3.8371162      7.6784821      2.1329384      21565.112    
    210000   320.46359      0.105          0.15966994     0.16027947     0.15879404    -1574.9435      854.15529      854.15529      854.15529      6.2317569e+08  1.124614      -53895039      -53895039       954.28586     -53894085      -1575.8198     -1581.8354     -1567.1753     -3.8353605      7.1498968      1.7429759      21459.419    
    211000   320.32324      0.1055         0.15927977     0.15996339     0.15838729    -1571.282       854.54178      854.54178      854.54178      6.2402201e+08  1.1230888     -53875898      -53875898       953.86792     -53874944      -1571.9691     -1578.7159     -1563.161      -3.5660502      7.2198023      1.8309017      21122.595    
    212000   320.20627      0.106          0.15893699     0.15963782     0.15801555    -1567.8604      854.92828      854.92828      854.92828      6.248691e+08   1.1215663     -53856778      -53856778       953.51959     -53855824      -1568.5861     -1575.5028     -1559.4923     -3.4628833      8.0377574      2.1029433      21403.327    
    213000   320.21718      0.1065         0.1585481      0.1591965      0.15764721    -1563.9175      855.31478      855.31478      855.31478      6.2571695e+08  1.1200465     -53837690      -53837690       953.55209     -53836737      -1564.7481     -1571.1473     -1555.857      -3.4171997      8.7565717      2.3766822      21184.027    
    214000   320.39658      0.107          0.15815029     0.15870759     0.15729669    -1559.8473      855.70127      855.70127      855.70127      6.2656558e+08  1.1185296     -53818638      -53818638       954.0863      -53817684      -1560.8221     -1566.3222     -1552.3976     -3.3290008      8.8272273      2.5030244      21476.027    
    215000   320.49661      0.1075         0.15780868     0.15826093     0.1569345     -1556.0625      856.08777      856.08777      856.08777      6.2741496e+08  1.1170153     -53799619      -53799619       954.38418     -53798665      -1557.4506     -1561.9139     -1548.8231     -3.3744589      8.3155924      2.3922577      21265.024    
    216000   320.42621      0.108          0.15744512     0.15783697     0.15649375    -1552.0218      856.47426      856.47426      856.47426      6.2826512e+08  1.1155038     -53780630      -53780630       954.17455     -53779676      -1553.8625     -1557.7298     -1544.4732     -3.6683234      7.8523891      2.3020328      21467.415    
    217000   320.31297      0.1085         0.15701369     0.15748275     0.15600925    -1547.8434      856.86076      856.86076      856.86076      6.2911604e+08  1.113995      -53761668      -53761668       953.83732     -53760714      -1549.6046     -1554.2339     -1539.6916     -4.2830281      7.8828603      2.2877372      21235.391    
[...]
   4694000   328.70136      2.347          0.0043713061   0.0043636237   0.0043724538  -43.11994       2587.2016      2587.2016      2587.2016      1.7317724e+10  0.040469067   -5957575.9     -5957575.9      978.81652     -5956597       -43.141437     -43.065618     -43.152764      0.16289683     0.04830652    -0.0084014328   20856.356    
   4695000   328.67725      2.3475         0.0043673607   0.004360149    0.0043695499  -43.085976      2587.5881      2587.5881      2587.5881      1.7325486e+10  0.040450935   -5952882.9     -5952882.9      978.74473     -5951904.2     -43.102498     -43.031324     -43.124104      0.1657619      0.050659871   -0.0061663504   20663.629    
   4696000   328.66848      2.348          0.0043642325   0.0043574584   0.0043671209  -43.058843      2587.9746      2587.9746      2587.9746      1.7333251e+10  0.040432815   -5948191.8     -5948191.8      978.71861     -5947213.1     -43.071626     -43.004771     -43.100132      0.17042486     0.050477113   -0.0048948323   20843.364    
   4697000   328.66634      2.3485         0.0043617115   0.0043544116   0.0043642009  -43.03092       2588.3611      2588.3611      2588.3611      1.7341018e+10  0.040414705   -5943502.2     -5943502.2      978.71223     -5942523.5     -43.046746     -42.974702     -43.071314      0.17308783     0.048816687   -0.0047848931   20643.906    
   4698000   328.66959      2.349          0.0043587479   0.0043499962   0.0043604549  -42.994322      2588.7476      2588.7476      2588.7476      1.7348787e+10  0.040396606   -5938814.6     -5938814.6      978.72193     -5937835.9     -43.017498     -42.931125     -43.034344      0.17241425     0.045249587   -0.0073455082   20812.912    
   4699000   328.6834       2.3495         0.0043545584   0.0043447876   0.0043560396  -42.948879      2589.1341      2589.1341      2589.1341      1.7356558e+10  0.040378518   -5934130.4     -5934130.4      978.76303     -5933151.6     -42.97615      -42.879719     -42.990768      0.17227854     0.039879747   -0.007922196    20600.458    
   4700000   328.7065       2.35           0.0043497211   0.0043402237   0.0043517749  -42.903922      2589.5206      2589.5206      2589.5206      1.7364332e+10  0.040360441   -5929450.2     -5929450.2      978.83183     -5928471.4     -42.92841      -42.834678     -42.948679      0.17371129     0.036750223   -0.0060225568   20099.604    
   4701000   328.72136      2.3505         0.0043450529   0.0043366324   0.00434796    -42.864201      2589.9071      2589.9071      2589.9071      1.7372109e+10  0.040342375   -5924773.4     -5924773.4      978.87608     -5923794.6     -42.882338     -42.799234     -42.911029      0.17382064     0.037831109   -0.0048920342   20733.602    
   4702000   328.72435      2.351          0.0043409263   0.004333121    0.004344034   -42.826158      2590.2935      2590.2935      2590.2935      1.7379887e+10  0.040324319   -5920099.5     -5920099.5      978.88498     -5919120.6     -42.841611     -42.764579     -42.872282      0.17583547     0.039889186   -0.0046026981   20866.171    
   4703000   328.72427      2.3515         0.0043374281   0.0043296562   0.0043403924  -42.791271      2590.68        2590.68        2590.68        1.7387668e+10  0.040306274   -5915428.4     -5915428.4      978.88473     -5914449.6     -42.807087     -42.730385     -42.836342      0.17712335     0.040961181   -0.0043827465   20895.569    
   4704000   328.73127      2.352          0.0043347279   0.0043262502   0.0043370033  -42.760034      2591.0665      2591.0665      2591.0665      1.7395451e+10  0.04028824    -5910759.6     -5910759.6      978.90558     -5909780.7     -42.780438     -42.69677      -42.802895      0.17687451     0.041633014   -0.0082467706   20593.298    
   4705000   328.75777      2.3525         0.0043318896   0.0043229169   0.004333541   -42.728341      2591.453       2591.453       2591.453       1.7403237e+10  0.040270217   -5906093       -5906093        978.98449     -5905114       -42.752426     -42.663873     -42.768725      0.17856067     0.042810521   -0.01246681     20849.476    
   4706000   328.79913      2.353          0.0043283511   0.0043200228   0.0043302705  -42.69642       2591.8395      2591.8395      2591.8395      1.7411025e+10  0.040252204   -5901428.6     -5901428.6      979.10765     -5900449.5     -42.717504     -42.63531      -42.736447      0.17941465     0.045240481   -0.011053829    20591.282    
   4707000   328.83692      2.3535         0.0043245248   0.0043170532   0.0043274083  -42.664648      2592.226       2592.226       2592.226       1.7418815e+10  0.040234202   -5896766.5     -5896766.5      979.22019     -5895787.3     -42.679742     -42.606003     -42.708199      0.17819147     0.049037614   -0.0074177034   20861.62     
   4708000   328.85954      2.354          0.0043207775   0.0043133653   0.0043245679  -42.630843      2592.6125      2592.6125      2592.6125      1.7426607e+10  0.040216211   -5892106.7     -5892106.7      979.28757     -5891127.4     -42.642758     -42.569606     -42.680166      0.17731956     0.05089421    -0.0086617985   20750.946    
   4709000   328.87328      2.3545         0.0043163155   0.0043088557   0.0043206684  -42.588501      2592.999       2592.999       2592.999       1.7434402e+10  0.04019823    -5887449.6     -5887449.6      979.32848     -5886470.3     -42.598722     -42.525099     -42.641682      0.17681093     0.049118701   -0.014168174    20857.49     
   4710000   328.89049      2.355          0.0043112403   0.0043041346   0.0043159137  -42.540632      2593.3855      2593.3855      2593.3855      1.7442199e+10  0.040180261   -5882796.6     -5882796.6      979.37972     -5881817.2     -42.548633     -42.478505     -42.594757      0.17450682     0.045856856   -0.020900173    20570.251    
   4711000   328.8951       2.3555         0.0043065023   0.0043001014   0.0043113184  -42.49666       2593.772       2593.772       2593.772       1.7449999e+10  0.040162302   -5878147.5     -5878147.5      979.39344     -5877168.1     -42.501873     -42.438701     -42.549404      0.17120985     0.040741218   -0.023448353    20859.854    
   4712000   328.88198      2.356          0.0043016264   0.0042958722   0.0043073037  -42.453499      2594.1585      2594.1585      2594.1585      1.74578e+10    0.040144353   -5873501.8     -5873501.8      979.35438     -5872522.4     -42.453752     -42.396962     -42.509782      0.16691373     0.037621043   -0.024078926    20662.117    
   4713000   328.86861      2.3565         0.0042970877   0.0042919227   0.0043039439  -42.414522      2594.545       2594.545       2594.545       1.7465605e+10  0.040126416   -5868859.5     -5868859.5      979.31456     -5867880.2     -42.408959     -42.357984     -42.476624      0.16373757     0.040868001   -0.02367142     20962.733    
   4714000   328.85495      2.357          0.0042932996   0.0042886102   0.0043003399  -42.379307      2594.9315      2594.9315      2594.9315      1.7473411e+10  0.040108489   -5864219.8     -5864219.8      979.27388     -5863240.5     -42.371573     -42.325292     -42.441055      0.16483097     0.050031332   -0.024531051    20481.91     
   4715000   328.84336      2.3575         0.0042899956   0.0042850477   0.0042960283  -42.342533      2595.318       2595.318       2595.318       1.748122e+10   0.040090573   -5859582.7     -5859582.7      979.23938     -5858603.4     -42.338965     -42.290132     -42.398503      0.1677561      0.059402238   -0.029495298    20894.437    
   4716000   328.83458      2.358          0.0042871329   0.0042811257   0.0042918895  -42.306598      2595.7045      2595.7045      2595.7045      1.7489031e+10  0.040072667   -5854948.4     -5854948.4      979.21322     -5853969.2     -42.310712     -42.251426     -42.357656      0.16918709     0.063153929   -0.034048177    20607.051    
   4717000   328.83033      2.3585         0.0042839726   0.0042772816   0.0042879409  -42.270565      2596.091       2596.091       2596.091       1.7496844e+10  0.040054772   -5850316.6     -5850316.6      979.20057     -5849337.4     -42.279523     -42.213487     -42.318686      0.16801575     0.060093725   -0.036799045    20866.785    
   4718000   328.84291      2.359          0.0042801447   0.0042732231   0.0042842348  -42.232429      2596.4775      2596.4775      2596.4775      1.750466e+10   0.040036888   -5845687.9     -5845687.9      979.23803     -5844708.6     -42.241744     -42.173433     -42.282111      0.16525697     0.058005738   -0.035751086    20632.792    
   4719000   328.86635      2.3595         0.0042762651   0.0042690163   0.004280643   -42.194011      2596.864       2596.864       2596.864       1.7512478e+10  0.040019014   -5841062       -5841062        979.30784     -5840082.7     -42.203455     -42.131915     -42.246662      0.16047154     0.058731192   -0.033365643    20836.32     
   4720000   328.88677      2.36           0.0042722944   0.004265024    0.004276809   -42.155202      2597.2505      2597.2505      2597.2505      1.7520298e+10  0.040001151   -5836439.3     -5836439.3      979.36863     -5835459.9     -42.164268     -42.092515     -42.208823      0.15735444     0.057704549   -0.032207771    20628.564    
   4721000   328.88596      2.3605         0.0042681149   0.004261208    0.0042726806  -42.115317      2597.637       2597.637       2597.637       1.7528121e+10  0.039983299   -5831819.4     -5831819.4      979.36624     -5830840.1     -42.123019     -42.054853     -42.168079      0.15749552     0.054187976   -0.03032297     20819.553    
   4722000   328.86785      2.361          0.0042629326   0.0042570922   0.0042685     -42.070976      2598.0235      2598.0235      2598.0235      1.7535946e+10  0.039965457   -5827202.9     -5827202.9      979.31229     -5826223.6     -42.071874     -42.014233     -42.12682       0.15893824     0.051348907   -0.029561354    20595.005    
   4723000   328.8497       2.3615         0.0042573678   0.004252786    0.0042647343  -42.026114      2598.41        2598.41        2598.41        1.7543774e+10  0.039947626   -5822590.3     -5822590.3      979.25826     -5821611.1     -42.016953     -41.971734     -42.089655      0.16174827     0.050813778   -0.030814244    20832.072    
   4724000   328.83103      2.362          0.0042531595   0.0042489508   0.0042613202  -41.988422      2598.7965      2598.7965      2598.7965      1.7551603e+10  0.039929806   -5817981.1     -5817981.1      979.20264     -5817001.8     -41.975421     -41.933884     -42.05596       0.16570206     0.053131643   -0.031037927    20656.785    
   4725000   328.80089      2.3625         0.0042504044   0.0042453556   0.0042581065  -41.956959      2599.1829      2599.1829      2599.1829      1.7559435e+10  0.039911996   -5813374.1     -5813374.1      979.1129      -5812395       -41.94823      -41.898403     -42.024244      0.16626722     0.056299429   -0.031948209    20971.826    
   4726000   328.7684       2.363          0.0042475418   0.0042413951   0.0042549853  -41.924244      2599.5694      2599.5694      2599.5694      1.756727e+10   0.039894197   -5808769.2     -5808769.2      979.01615     -5807790.2     -41.919978     -41.859315     -41.99344       0.16213518     0.056637214   -0.033929731    20550.887    
   4727000   328.75413      2.3635         0.0042443525   0.0042377286   0.0042520976  -41.892191      2599.9559      2599.9559      2599.9559      1.7575106e+10  0.039876408   -5804166.7     -5804166.7      978.97366     -5803187.7     -41.888502     -41.823129     -41.964941      0.15759131     0.054985935   -0.038000749    20982.129    
   4728000   328.75616      2.364          0.0042413205   0.0042347623   0.0042493827  -41.863526      2600.3424      2600.3424      2600.3424      1.7582945e+10  0.03985863    -5799566.3     -5799566.3      978.9797      -5798587.3     -41.858578     -41.793855     -41.938146      0.15455263     0.055714328   -0.043762816    20990.297    
   4729000   328.77453      2.3645         0.0042380616   0.0042320306   0.0042459529  -41.832536      2600.7289      2600.7289      2600.7289      1.7590787e+10  0.039840862   -5794967.7     -5794967.7      979.03439     -5793988.7     -41.826416     -41.766895     -41.904297      0.15368907     0.058614169   -0.047100869    20726.101    
   4730000   328.80528      2.365          0.0042346706   0.0042290133   0.0042418415  -41.797929      2601.1154      2601.1154      2601.1154      1.7598631e+10  0.039823105   -5790371.6     -5790371.6      979.12599     -5789392.4     -41.79295      -41.737116     -41.86372       0.15559865     0.059933581   -0.046341107    20839.18     
   4731000   328.81872      2.3655         0.0042309275   0.0042254459   0.0042376282  -41.760018      2601.5019      2601.5019      2601.5019      1.7606477e+10  0.039805359   -5785778.2     -5785778.2      979.16599     -5784799       -41.756008     -41.701908     -41.822139      0.1573923      0.057906104   -0.041243586    20653.944    
   4732000   328.80672      2.366          0.0042270716   0.0042217165   0.0042334431  -41.721297      2601.8884      2601.8884      2601.8884      1.7614325e+10  0.039787623   -5781187.9     -5781187.9      979.13026     -5780208.8     -41.717953     -41.665103     -41.780835      0.1592658      0.056300125   -0.033961169    20919.109    
   4733000   328.7872       2.3665         0.0042238959   0.0042184408   0.0042297584  -41.687951      2602.2749      2602.2749      2602.2749      1.7622176e+10  0.039769897   -5776600.3     -5776600.3      979.07214     -5775621.3     -41.686611     -41.632774     -41.744469      0.15924611     0.056742846   -0.028974178    20658.416    
   4734000   328.77512      2.367          0.004220813    0.0042151571   0.0042267482  -41.657105      2602.6614      2602.6614      2602.6614      1.7630029e+10  0.039752182   -5772014.9     -5772014.9      979.03618     -5771035.9     -41.656186     -41.600366     -41.714762      0.15679242     0.057006106   -0.029953955    20944.152    
   4735000   328.78538      2.3675         0.0042171171   0.0042115844   0.0042243423  -41.625278      2603.0479      2603.0479      2603.0479      1.7637884e+10  0.039734478   -5767431.7     -5767431.7      979.06673     -5766452.6     -41.61971      -41.565106     -41.691017      0.15622006     0.055621433   -0.032848521    20651.908    
   4736000   328.81053      2.368          0.0042135032   0.0042081545   0.0042218221  -41.593815      2603.4344      2603.4344      2603.4344      1.7645742e+10  0.039716784   -5762850.7     -5762850.7      979.14161     -5761871.6     -41.584044     -41.531256     -41.666144      0.15549187     0.054501144   -0.033644805    18176.899    
   4737000   328.83546      2.3685         0.0042096782   0.0042049185   0.0042182425  -41.558809      2603.8209      2603.8209      2603.8209      1.7653602e+10  0.039699101   -5758272.2     -5758272.2      979.21586     -5757292.9     -41.546293     -41.499319     -41.630816      0.15272706     0.051947033   -0.033536237    20376.942    
   4738000   328.8505       2.369          0.0042058551   0.0042019675   0.0042137665  -41.5218        2604.2074      2604.2074      2604.2074      1.7661464e+10  0.039681428   -5753696.4     -5753696.4      979.26062     -5752717.1     -41.508562     -41.470195     -41.586642      0.15165388     0.048641877   -0.035055188    20843.162    
   4739000   328.8548       2.3695         0.004202017    0.004199108    0.0042096339  -41.486171      2604.5939      2604.5939      2604.5939      1.7669329e+10  0.039663766   -5749123.5     -5749123.5      979.27344     -5748144.2     -41.470683     -41.441973     -41.545856      0.14889429     0.046032066   -0.033828585    20265.771    
   4740000   328.85594      2.37           0.0041982439   0.0041957541   0.0042058322  -41.450219      2604.9804      2604.9804      2604.9804      1.7677196e+10  0.039646114   -5744553.3     -5744553.3      979.27682     -5743574       -41.433446     -41.408874     -41.508337      0.14678369     0.044853348   -0.03049797     20835.981    
   4741000   328.85779      2.3705         0.0041946618   0.0041919281   0.0042021076  -41.413595      2605.3669      2605.3669      2605.3669      1.7685065e+10  0.039628472   -5739985.8     -5739985.8      979.28234     -5739006.5     -41.398093     -41.371113     -41.471578      0.14943358     0.046005648   -0.031447824    20678.301    
   4742000   328.86626      2.371          0.0041905823   0.004187513    0.0041985557  -41.373965      2605.7534      2605.7534      2605.7534      1.7692937e+10  0.039610841   -5735421.2     -5735421.2      979.30756     -5734441.9     -41.357832     -41.32754      -41.436523      0.15243882     0.045942361   -0.034577985    20720.244    
   4743000   328.88096      2.3715         0.0041868131   0.0041826531   0.0041946887  -41.332856      2606.1399      2606.1399      2606.1399      1.7700811e+10  0.039593221   -5730860.1     -5730860.1      979.35134     -5729880.7     -41.320632     -41.279577     -41.398358      0.15445393     0.045920801   -0.037302205    20456.245    
   4744000   328.89287      2.372          0.0041836136   0.004178369    0.0041907342  -41.295228      2606.5264      2606.5264      2606.5264      1.7708687e+10  0.039575611   -5726302.1     -5726302.1      979.38679     -5725322.7     -41.289056     -41.237296     -41.359331      0.15527695     0.046813863   -0.040586757    20612.878    
   4745000   328.89715      2.3725         0.0041803676   0.0041745257   0.0041867928  -41.258939      2606.9129      2606.9129      2606.9129      1.7716566e+10  0.039558011   -5721746.9     -5721746.9      979.39956     -5720767.5     -41.25702      -41.199365     -41.320433      0.15433203     0.047843662   -0.044050728    20507.263    
   4746000   328.8937       2.373          0.0041767143   0.0041707385   0.0041828199  -41.221392      2607.2994      2607.2994      2607.2994      1.7724447e+10  0.039540422   -5717194.6     -5717194.6      979.38928     -5716215.3     -41.220965     -41.161989     -41.281223      0.15363923     0.048634627   -0.048428448    20488.518    
   4747000   328.8864       2.3735         0.0041725495   0.0041670347   0.0041789318  -41.182716      2607.6859      2607.6859      2607.6859      1.773233e+10   0.039522843   -5712645.3     -5712645.3      979.36753     -5711665.9     -41.179862     -41.125435     -41.24285       0.15291555     0.048705894   -0.050969669    20283.36     
   4748000   328.88256      2.374          0.0041681176   0.0041632334   0.0041752399  -41.143485      2608.0723      2608.0723      2608.0723      1.7740216e+10  0.039505275   -5708099       -5708099        979.3561      -5707119.6     -41.136122     -41.087919     -41.206414      0.15009792     0.051324157   -0.050647212    20906.596    
   4749000   328.88442      2.3745         0.0041635189   0.0041595701   0.0041716319  -41.104436      2608.4588      2608.4588      2608.4588      1.7748104e+10  0.039487717   -5703555.9     -5703555.9      979.36165     -5702576.5     -41.090737     -41.051765     -41.170805      0.14558169     0.053270554   -0.048869363    20221.468    
   4750000   328.8788       2.375          0.0041592643   0.004156393    0.0041680772  -41.068293      2608.8453      2608.8453      2608.8453      1.7755994e+10  0.03947017    -5699015.7     -5699015.7      979.34491     -5698036.4     -41.048748     -41.020409     -41.135724      0.14187923     0.053068523   -0.047675922    20118.065    
   4751000   328.86568      2.3755         0.0041554446   0.0041530532   0.0041641647  -41.03187       2609.2318      2609.2318      2609.2318      1.7763887e+10  0.039