LAMMPS (23 Jun 2022 - Update 1)
OMP_NUM_THREADS environment is not set. Defaulting to 1 thread. (src/comm.cpp:98)
  using 1 OpenMP thread(s) per MPI task
###

# Read restart info
read_restart ${read_res}
read_restart ./trial8/3070/equpmf70.res
Reading restart file ...
  restart file = 23 Jun 2022, LAMMPS = 23 Jun 2022
  restoring atom style atomic from restart
  orthogonal box = (1645.1919 1645.1919 1645.1919) to (2354.8081 2354.8081 2354.8081)
  1 by 2 by 2 MPI processor grid
  restoring pair style table from restart
  1000 atoms
  read_restart CPU = 0.017 seconds

# Settings
pair_style table/pgn spline 10941
pair_coeff 1 1 N20e.txt DE_GNP 308 72.9   # 1.35 * r
pair_coeff 2 2 N100e.txt DE_GNP 473.9 111.78
WARNING: 20 of 10941 force values in table DE_GNP are inconsistent with -dE/dr.
WARNING:  Should only be flagged at inflection points (src/pair_table_pgn.cpp:478)
pair_coeff 1 2 mixed_potentiale.txt DE_GNP 391.2 92.95
WARNING: 1564 of 10941 force values in table DE_GNP are inconsistent with -dE/dr.
WARNING:  Should only be flagged at inflection points (src/pair_table_pgn.cpp:478)

# Neighbor list
neighbor 2.0 bin
neigh_modify delay 0 every 1 check no once yes

# Temperature
variable T equal ${Temp}
variable T equal 300

# Deformation
reset_timestep 0
variable tmp equal "lx"
variable L0 equal ${tmp}
variable L0 equal 709.616104972044
variable strain equal "(lx - v_L0)/v_L0"
variable stp equal "step"
variable tmpe equal "temp"
variable p1 equal "v_strain"
variable p2 equal "-pxx*1.01325/10000"
variable p3 equal "-pyy*1.01325/10000"
variable p4 equal "-pzz*1.01325/10000"
variable p5 equal "lx"
variable p6 equal "ly"
variable p7 equal "lz"
variable p8 equal "press"
variable p9 equal "epair"
variable p10 equal "etotal"

# Thermo
thermo_style custom step temp v_p1 v_p2 v_p3 v_p4 press lx ly lz vol density epair pe ke etotal pxx pyy pzz pxy pxz pyz spcpu
thermo ${ts_save}
thermo 1000

# Dump
# dump 1 all custom 2000 ./${N20}${N100}/tensile/trajectory/trajectory_${usic}_${trial}_*.tensile.custom id type x y z ix iy iz
# dump_modify 1 sort id
dump 2 all cfg 50000 ./trial${trial}/${N20}${N100}/tensile/trajectory/dumpten.tens_${usic}_${trial}_*.cfg mass type xs ys zs fx fy fz
dump 2 all cfg 50000 ./trial8/${N20}${N100}/tensile/trajectory/dumpten.tens_${usic}_${trial}_*.cfg mass type xs ys zs fx fy fz
dump 2 all cfg 50000 ./trial8/30${N100}/tensile/trajectory/dumpten.tens_${usic}_${trial}_*.cfg mass type xs ys zs fx fy fz
dump 2 all cfg 50000 ./trial8/3070/tensile/trajectory/dumpten.tens_${usic}_${trial}_*.cfg mass type xs ys zs fx fy fz
dump 2 all cfg 50000 ./trial8/3070/tensile/trajectory/dumpten.tens_1_${trial}_*.cfg mass type xs ys zs fx fy fz
dump 2 all cfg 50000 ./trial8/3070/tensile/trajectory/dumpten.tens_1_8_*.cfg mass type xs ys zs fx fy fz
dump_modify 2 element N20 N100

fix 1 all nvt temp ${T} ${T} 100
fix 1 all nvt temp 300 ${T} 100
fix 1 all nvt temp 300 300 100
fix 2 all deform 1 x erate ${strain_rate} y erate ${strain_rate} z erate ${strain_rate} units box
fix 2 all deform 1 x erate 5e-6 y erate ${strain_rate} z erate ${strain_rate} units box
fix 2 all deform 1 x erate 5e-6 y erate 5e-6 z erate ${strain_rate} units box
fix 2 all deform 1 x erate 5e-6 y erate 5e-6 z erate 5e-6 units box
fix             def1 all print ${ts_save} "${p1} ${p2} ${p3} ${p4}" file ./tensile/${trial}/tensile${N20}${N100}_${usic}_${trial}.txt screen no
fix             def1 all print 1000 "${p1} ${p2} ${p3} ${p4}" file ./tensile/${trial}/tensile${N20}${N100}_${usic}_${trial}.txt screen no
fix             def1 all print 1000 "${p1} ${p2} ${p3} ${p4}" file ./tensile/8/tensile${N20}${N100}_${usic}_${trial}.txt screen no
fix             def1 all print 1000 "${p1} ${p2} ${p3} ${p4}" file ./tensile/8/tensile30${N100}_${usic}_${trial}.txt screen no
fix             def1 all print 1000 "${p1} ${p2} ${p3} ${p4}" file ./tensile/8/tensile3070_${usic}_${trial}.txt screen no
fix             def1 all print 1000 "${p1} ${p2} ${p3} ${p4}" file ./tensile/8/tensile3070_1_${trial}.txt screen no
fix             def1 all print 1000 "${p1} ${p2} ${p3} ${p4}" file ./tensile/8/tensile3070_1_8.txt screen no

timestep       		${ts}
timestep       		0.1
run				${steps_tensile}
run				6000000
Generated 0 of 1 mixed pair_coeff terms from geometric mixing rule
Unused restart file global fix info:
  fix style: npt, fix ID: 5
Neighbor list info ...
  update every 1 steps, delay 0 steps, check no
  max neighbors/atom: 2000, page size: 100000
  master list distance cutoff = 113.78
  ghost atom cutoff = 113.78
  binsize = 56.89, bins = 13 13 13
  1 neighbor lists, perpetual/occasional/extra = 1 0 0
  (1) pair table/pgn, perpetual
      attributes: half, newton on
      pair build: half/bin/atomonly/newton
      stencil: half/bin/3d
      bin: standard
Per MPI rank memory allocation (min/avg/max) = 3.848 | 3.848 | 3.848 Mbytes
   Step          Temp           v_p1           v_p2           v_p3           v_p4          Press            Lx             Ly             Lz           Volume        Density         E_pair         PotEng         KinEng         TotEng          Pxx            Pyy            Pzz            Pxy            Pxz            Pyz           S/CPU     
         0   306.13652      3.2041786e-16  0.010826142    0.0022339885   0.009174485   -73.146199      709.6161       709.6161       709.6161       3.5733075e+08  1.6821954     -40174196      -40174196       911.62229     -40173284      -106.84572     -22.047752     -90.545127      30.785537      49.79226       48.698598      0            
      1000   366.06149      0.0005         0.018743979    0.010397264    0.016999559   -151.79144      709.97091      709.97091      709.97091      3.5786701e+08  1.6796746     -40173574      -40173574       1090.0686     -40172484      -184.98869     -102.61302     -167.7726       30.479924      48.902789      47.159198      13997.052    
      2000   445.93518      0.001          0.02614018     0.017919056    0.024292415   -224.85945      710.32572      710.32572      710.32572      3.5840381e+08  1.6771589     -40172561      -40172561       1327.9188     -40171233      -257.98352     -176.84733     -239.7475       30.391247      48.268949      46.821825      14190.054    
      3000   503.92559      0.0015         0.033133551    0.02502499     0.031161972   -293.84164      710.68053      710.68053      710.68053      3.5894115e+08  1.6746482     -40171125      -40171125       1500.6043     -40169625      -327.00272     -246.97745     -307.54475      30.038394      47.15351       46.332284      13746.306    
      4000   531.01788      0.002          0.040167564    0.032126495    0.038035476   -362.95595      711.03534      711.03534      711.03534      3.5947902e+08  1.6721425     -40169218      -40169218       1581.2806     -40167636      -396.42303     -317.06386     -375.38096      29.234824      45.703602      45.213931      13230.166    
      5000   533.35073      0.0025         0.047191882    0.039234075    0.045040675   -432.49159      711.39015      711.39015      711.39015      3.6001744e+08  1.6696418     -40166791      -40166791       1588.2274     -40165203      -465.74766     -387.21021     -444.5169       28.871969      44.811877      43.735604      14300.818    
      6000   521.80818      0.003          0.054017161    0.046352483    0.051900541   -500.92996      711.74495      711.74495      711.74495      3.6055638e+08  1.667146      -40163822      -40163822       1553.8557     -40162268      -533.10793     -457.46344     -512.21852      28.627041      44.044046      42.135614      16902.635    
      7000   504.97924      0.0035         0.060672363    0.053518617    0.05853432    -568.22206      712.09976      712.09976      712.09976      3.6109587e+08  1.6646553     -40160308      -40160308       1503.7419     -40158804      -598.78966     -528.18768     -577.68883      28.057569      43.155721      40.715729      16831.169    
      8000   487.43033      0.004          0.067347569    0.060626239    0.0650993     -635.16114      712.45457      712.45457      712.45457      3.6163589e+08  1.6621695     -40156253      -40156253       1451.4843     -40154801      -664.66883     -598.33446     -642.48014      27.460525      42.732814      39.495762      16889.699    
      9000   470.79067      0.0045         0.074076506    0.067441505    0.071677997   -701.36034      712.80938      712.80938      712.80938      3.6217645e+08  1.6596886     -40151643      -40151643       1401.9342     -40150241      -731.07828     -665.59591     -707.40683      27.114577      42.744901      38.679001      16864.79     
     10000   455.62886      0.005          0.080620186    0.073948064    0.078033285   -765.19956      713.16419      713.16419      713.16419      3.6271756e+08  1.6572127     -40146478      -40146478       1356.7849     -40145121      -795.65937     -729.81065     -770.12865      26.457759      42.298462      38.369309      16759.554    
     11000   442.33007      0.0055         0.086806429    0.08025837     0.084026798   -826.02713      713.51899      713.51899      713.51899      3.6325919e+08  1.6547417     -40140783      -40140783       1317.1834     -40139466      -856.71285     -792.08852     -829.28002      26.334439      40.903146      37.869846      16955.468    
     12000   431.13409      0.006          0.092752485    0.086374475    0.089883957   -884.97711      713.8738       713.8738       713.8738       3.6380137e+08  1.6522756     -40134584      -40134584       1283.8437     -40133300      -915.39586     -852.44979     -887.08568      27.122952      39.263133      36.402678      15781.537    
     13000   421.92674      0.0065         0.098638737    0.092362587    0.095764732   -943.38697      714.22861      714.22861      714.22861      3.6434409e+08  1.6498145     -40127900      -40127900       1256.4258     -40126644      -973.48864     -911.54786     -945.12442      27.117907      38.550188      34.879515      15926.977    
     14000   414.40527      0.007          0.10450026     0.098348481    0.10164238    -1001.6979      714.58342      714.58342      714.58342      3.6488735e+08  1.6473582     -40120745      -40120745       1234.0281     -40119511      -1031.3373     -970.62405     -1003.1323      26.096277      38.23002       33.67796       15958.546    
     15000   408.00335      0.0075         0.1103251      0.10435454     0.10742358    -1059.6372      714.93823      714.93823      714.93823      3.6543114e+08  1.6449067     -40113116      -40113116       1214.9643     -40111901      -1088.824      -1029.8992     -1060.1883      25.215728      37.586658      32.659889      16375.655    
     16000   402.58336      0.008          0.11595852     0.11031107     0.1131044     -1116.4536      715.29303      715.29303      715.29303      3.6597548e+08  1.6424602     -40105004      -40105004       1198.8245     -40103805      -1144.4217     -1088.6857     -1116.2536      24.827703      36.404763      31.750842      16244.152    
     17000   398.52513      0.0085         0.12150966     0.11607512     0.11869306    -1172.0629      715.64784      715.64784      715.64784      3.6652035e+08  1.6400185     -40096420      -40096420       1186.7398     -40095233      -1199.2071     -1145.5723     -1171.4094      24.528997      35.11204       30.474106      16300.078    
     18000   395.35449      0.009          0.12702876     0.12161147     0.12417492    -1226.4665      716.00265      716.00265      716.00265      3.6706577e+08  1.6375816     -40087376      -40087376       1177.2982     -40086199      -1253.6764     -1200.2119     -1225.5111      23.804245      34.799861      28.663569      16298.544    
     19000   392.35633      0.0095         0.13238658     0.12705706     0.12941403    -1279.2423      716.35746      716.35746      716.35746      3.6761173e+08  1.6351495     -40077888      -40077888       1168.3702     -40076720      -1306.554      -1253.9557     -1277.2172      23.071736      34.779474      27.348668      16819.444    
     20000   389.73329      0.01           0.13751702     0.13239618     0.13431753    -1329.8157      716.71227      716.71227      716.71227      3.6815823e+08  1.6327223     -40067985      -40067985       1160.5592     -40066824      -1357.1875     -1306.6487     -1325.6109      22.796805      34.153552      27.304237      16787.065    
     21000   388.11094      0.0105         0.1423334      0.1374961      0.13903513    -1377.9575      717.06707      717.06707      717.06707      3.6870527e+08  1.6302999     -40057688      -40057688       1155.7281     -40056532      -1404.7215     -1356.981      -1372.1701      22.780029      33.10797       26.876277      16837.865    
     22000   387.44277      0.011          0.14705684     0.14243215     0.1438768     -1425.6626      717.42188      717.42188      717.42188      3.6925285e+08  1.6278822     -40046995      -40046995       1153.7384     -40045841      -1451.3382     -1405.696      -1419.9537      22.561756      32.321693      25.633707      16777.698    
     23000   386.9484       0.0115         0.15195446     0.1474579      0.14873881    -1474.3027      717.77669      717.77669      717.77669      3.6980097e+08  1.6254693     -40035891      -40035891       1152.2663     -40034739      -1499.6739     -1455.2963     -1467.9379      21.370877      31.854563      25.199926      16810.734    
     24000   386.45378      0.012          0.1569227      0.15245097     0.15347443    -1522.6519      718.1315       718.1315       718.1315       3.7034964e+08  1.6230612     -40024382      -40024382       1150.7934     -40023231      -1548.7066     -1504.5741     -1514.6749      20.363565      31.210831      25.38056       16933.412    
     25000   386.39334      0.0125         0.16173559     0.15717623     0.15807088    -1569.1511      718.48631      718.48631      718.48631      3.7089885e+08  1.6206579     -40012486      -40012486       1150.6134     -40011336      -1596.2062     -1551.2088     -1560.0383      20.43666       30.384845      25.598585      16895.824    
     26000   386.82726      0.013          0.16627698     0.16176622     0.16245218    -1613.6043      718.84111      718.84111      718.84111      3.714486e+08   1.6182593     -40000223      -40000223       1151.9055     -39999071      -1641.0262     -1596.5084     -1603.2784      20.35379       29.404693      24.708823      16753.979    
     27000   387.54023      0.0135         0.17060783     0.16634567     0.16670678    -1656.9135      719.19592      719.19592      719.19592      3.7199889e+08  1.6158654     -39987604      -39987604       1154.0286     -39986450      -1683.7684     -1641.7041     -1645.268       20.45839       28.163493      22.166798      16949.721    
     28000   388.13971      0.014          0.17486476     0.17088057     0.1710574     -1700.1488      719.55073      719.55073      719.55073      3.7254973e+08  1.6134763     -39974629      -39974629       1155.8138     -39973473      -1725.781      -1686.4601     -1688.2053      21.330233      26.738871      19.771718      16887.846    
     29000   388.70657      0.0145         0.17893953     0.17521164     0.17528329    -1741.7039      719.90554      719.90554      719.90554      3.7310111e+08  1.6110918     -39961301      -39961301       1157.5018     -39960143      -1765.9958     -1729.2044     -1729.9116      21.929145      26.049487      19.343346      16740.512    
     30000   390.05041      0.015          0.1828696      0.17929014     0.1790935     -1780.5847      720.26035      720.26035      720.26035      3.7365304e+08  1.6087121     -39947636      -39947636       1161.5035     -39946474      -1804.7826     -1769.4561     -1767.5154      21.989824      25.915106      20.275457      16937.324    
     31000   391.93505      0.0155         0.18687228     0.18329934     0.1828214     -1819.2056      720.61515      720.61515      720.61515      3.7420551e+08  1.606337      -39933647      -39933647       1167.1156     -39932480      -1844.286      -1809.0238     -1804.3069      21.379741      25.832326      20.675447      17040.975    
     32000   393.40244      0.016          0.19091523     0.18734185     0.18667291    -1858.4752      720.96996      720.96996      720.96996      3.7475852e+08  1.6039666     -39919337      -39919337       1171.4853     -39918165      -1884.1869     -1848.9203     -1842.3184      20.34503       26.086639      19.915264      16919.681    
     33000   394.5463       0.0165         0.19477222     0.19127683     0.19049961    -1896.6976      721.32477      721.32477      721.32477      3.7531208e+08  1.6016009     -39904709      -39904709       1174.8915     -39903534      -1922.2523     -1887.7556     -1880.085       19.009256      26.231878      18.279805      17035.171    
     34000   396.14974      0.017          0.19842672     0.19509669     0.19424155    -1933.5964      721.67958      721.67958      721.67958      3.7586618e+08  1.5992398     -39889774      -39889774       1179.6663     -39888594      -1958.3194     -1925.4546     -1917.015       18.131489      24.996957      16.904678      16866.845    
     35000   398.03426      0.0175         0.20194857     0.19887967     0.19786525    -1969.5485      722.03439      722.03439      722.03439      3.7642083e+08  1.5968833     -39874535      -39874535       1185.2781     -39873350      -1993.0774     -1962.7898     -1952.7782      19.017279      23.346167      15.790424      16933.196    
     36000   399.64175      0.018          0.20532599     0.20259262     0.20128018    -2004.1082      722.38919      722.38919      722.38919      3.7697602e+08  1.5945315     -39858995      -39858995       1190.0649     -39857805      -2026.41       -1999.4337     -1986.481       20.280511      22.545795      14.822283      17014.294    
     37000   400.98984      0.0185         0.20865788     0.20602724     0.20444434    -2036.7776      722.744        722.744        722.744        3.7753176e+08  1.5921843     -39843175      -39843175       1194.0793     -39841981      -2059.2932     -2033.3308     -2017.7088      20.031922      22.218153      14.59555       16744.101    
     38000   402.72062      0.019          0.21193405     0.20920647     0.2075543     -2068.2451      723.09881      723.09881      723.09881      3.7808804e+08  1.5898417     -39827089      -39827089       1199.2332     -39825889      -2091.6265     -2064.7073     -2048.4016      18.904721      22.091573      14.737411      16882.621    
     39000   404.78921      0.0195         0.21520983     0.21254877     0.21087619    -2100.9451      723.45362      723.45362      723.45362      3.7864487e+08  1.5875037     -39810735      -39810735       1205.3932     -39809529      -2123.9559     -2097.6933     -2081.1862      18.459178      22.048893      14.413384      17088.325    
     40000   406.52583      0.02           0.21848663     0.21604251     0.21421428    -2134.1999      723.80843      723.80843      723.80843      3.7920225e+08  1.5851703     -39794103      -39794103       1210.5645     -39792893      -2156.2954     -2132.1738     -2114.1306      18.376118      21.641214      13.043354      16892.042    
     41000   408.03509      0.0205         0.2215573      0.21930552     0.21724029    -2164.9909      724.16324      724.16324      724.16324      3.7976017e+08  1.5828415     -39777199      -39777199       1215.0588     -39775984      -2186.6005     -2164.3772     -2143.995       17.941921      20.968922      11.938004      17044.905    
     42000   409.79212      0.021          0.22444976     0.22227808     0.22010583    -2193.7122      724.51804      724.51804      724.51804      3.8031864e+08  1.5805172     -39760042      -39760042       1220.291      -39758822      -2215.1469     -2193.7141     -2172.2757      17.808875      20.42998       12.492672      16916.054    
     43000   411.83812      0.0215         0.22733321     0.22509938     0.22306976    -2222.2299      724.87285      724.87285      724.87285      3.8087766e+08  1.5781974     -39742647      -39742647       1226.3836     -39741421      -2243.6044     -2221.5581     -2201.5274      17.645423      19.959637      13.284165      17003.064    
     44000   413.6751       0.022          0.23017287     0.22791458     0.22596543    -2250.359       725.22766      725.22766      725.22766      3.8143723e+08  1.5758822     -39725011      -39725011       1231.8538     -39723779      -2271.6296     -2249.342      -2230.1054      16.953676      18.592964      13.101843      16942.478    
     45000   414.92134      0.0225         0.23284835     0.23079026     0.22848384    -2276.9058      725.58247      725.58247      725.58247      3.8199734e+08  1.5735715     -39707135      -39707135       1235.5649     -39705900      -2298.0346     -2277.7228     -2254.9601      16.132161      17.236517      12.359023      16986.652    
     46000   415.90077      0.023          0.23525222     0.23349068     0.23080456    -2301.3322      725.93728      725.93728      725.93728      3.82558e+08    1.5712654     -39689037      -39689037       1238.4815     -39687799      -2321.7589     -2304.3738     -2277.8639      16.511239      16.555057      11.493181      16767.93     
     47000   417.27913      0.0235         0.23753373     0.23601167     0.23326308    -2325.2191      726.29208      726.29208      726.29208      3.8311921e+08  1.5689637     -39670730      -39670730       1242.586      -39669488      -2344.2757     -2329.2541     -2302.1276      17.107808      16.126641      10.268423      16835.195    
     48000   418.93064      0.024          0.24004128     0.23866575     0.23590586    -2350.8936      726.64689      726.64689      726.64689      3.8368097e+08  1.5666666     -39652209      -39652209       1247.5039     -39650961      -2369.0232     -2355.4478     -2328.2098      17.220408      15.838861      9.1456919      16914.972    
     49000   420.56859      0.0245         0.2427866      0.24138848     0.23839613    -2377.0745      727.0017       727.0017       727.0017       3.8424328e+08  1.5643739     -39633467      -39633467       1252.3814     -39632214      -2396.1175     -2382.3191     -2352.7869      16.861238      15.696888      8.6404772      17009.352    
     50000   422.05544      0.025          0.24527456     0.2438399      0.24067024    -2400.805       727.35651      727.35651      727.35651      3.8480613e+08  1.5620857     -39614512      -39614512       1256.809      -39613255      -2420.6717     -2406.5128     -2375.2306      16.042411      16.113761      8.160012       13126.383    
     51000   423.22122      0.0255         0.24734187     0.24589598     0.2427717     -2421.2831      727.71132      727.71132      727.71132      3.8536954e+08  1.5598019     -39595362      -39595362       1260.2805     -39594102      -2441.0744     -2426.8046     -2395.9704      15.627774      16.116584      7.9910922      16985.441    
     52000   424.32233      0.026          0.24911105     0.24783157     0.24471789    -2439.8734      728.06612      728.06612      728.06612      3.859335e+08   1.5575226     -39576037      -39576037       1263.5594     -39574773      -2458.5349     -2445.9075     -2415.1778      15.528327      14.193191      8.4218949      16903.364    
     53000   425.65263      0.0265         0.25094776     0.24993001     0.24676367    -2459.5491      728.42093      728.42093      728.42093      3.86498e+08    1.5552477     -39556534      -39556534       1267.5208     -39555267      -2476.6619     -2466.6174     -2435.3681      14.838483      11.650145      8.4742718      16129.317    
     54000   426.87864      0.027          0.2530149      0.25219909     0.24899958    -2481.1698      728.77574      728.77574      728.77574      3.8706306e+08  1.5529773     -39536842      -39536842       1271.1717     -39535571      -2497.0629     -2489.0115     -2457.4348      13.977475      10.453613      8.3586         16990.134    
     55000   427.92525      0.0275         0.25507953     0.25436634     0.25108603    -2501.9554      729.13055      729.13055      729.13055      3.8762866e+08  1.5507113     -39516967      -39516967       1274.2883     -39515693      -2517.4392     -2510.4006     -2478.0265      13.892296      10.622576      7.9248308      16937.661    
     56000   428.99866      0.028          0.2570457      0.25623456     0.25278116    -2520.1462      729.48536      729.48536      729.48536      3.8819482e+08  1.5484497     -39496925      -39496925       1277.4848     -39495648      -2536.8439     -2528.8385     -2494.7561      14.117619      11.504488      6.8561245      16895.872    
     57000   430.09034      0.0285         0.25894755     0.25787859     0.25439975    -2537.1359      729.84016      729.84016      729.84016      3.8876153e+08  1.5461925     -39476728      -39476728       1280.7356     -39475447      -2555.6136     -2545.0638     -2510.7303      14.019711      11.509775      5.9247319      17016.259    
     58000   431.24923      0.029          0.26068458     0.25944351     0.25615155    -2553.7615      730.19497      730.19497      730.19497      3.8932879e+08  1.5439396     -39456374      -39456374       1284.1866     -39455089      -2572.7568     -2560.5083     -2528.0193      13.119289      9.9387811      6.3956374      16910.792    
     59000   432.19281      0.0295         0.26218        0.26114073     0.25787447    -2569.9324      730.54978      730.54978      730.54978      3.898966e+08   1.5416912     -39435864      -39435864       1286.9964     -39434577      -2587.5155     -2577.2587     -2545.0232      11.738058      8.165913       6.7652566      16910.747    
     60000   432.68593      0.03           0.26349421     0.26283812     0.25930009    -2584.5297      730.90459      730.90459      730.90459      3.9046496e+08  1.5394471     -39415208      -39415208       1288.4648     -39413920      -2600.4856     -2594.0106     -2559.0929      11.428099      7.0805563      6.3549683      16927.154    
     61000   433.29343      0.0305         0.2647864      0.26429118     0.26058723    -2597.7953      731.2594       731.2594       731.2594       3.9103387e+08  1.5372074     -39394420      -39394420       1290.2738     -39393129      -2613.2386     -2608.3512     -2571.796       11.956944      6.8442736      5.9814898      17046.882    
     62000   434.00931      0.031          0.26605794     0.26558226     0.2620264     -2610.9601      731.6142       731.6142       731.6142       3.9160334e+08  1.534972      -39373507      -39373507       1292.4056     -39372214      -2625.7877     -2621.0931     -2585.9995      12.161475      6.4529858      5.21962        16764.592    
     63000   434.48709      0.0315         0.26741308     0.26690676     0.26348646    -2624.5787      731.96901      731.96901      731.96901      3.9217336e+08  1.5327409     -39352465      -39352465       1293.8284     -39351171      -2639.1619     -2634.1649     -2600.4091      12.374121      5.1286712      4.104885       16871.278    
     64000   434.94723      0.032          0.26880377     0.26824593     0.26474398    -2637.6961      732.32382      732.32382      732.32382      3.9274393e+08  1.5305142     -39331296      -39331296       1295.1986     -39330001      -2652.8869     -2647.3815     -2612.82        12.30553       3.9907656      4.1199815      16890.719    
     65000   435.8036       0.0325         0.26998054     0.26939975     0.26584764    -2648.9939      732.67863      732.67863      732.67863      3.9331506e+08  1.5282917     -39310012      -39310012       1297.7487     -39308715      -2664.5007     -2658.7688     -2623.7122      11.912911      3.8607976      5.1894288      16987.228    
     66000   436.78453      0.033          0.27101662     0.27051955     0.26695041    -2659.714       733.03344      733.03344      733.03344      3.9388673e+08  1.5260736     -39288620      -39288620       1300.6697     -39287319      -2674.7261     -2669.8203     -2634.5957      11.573242      3.1349307      5.8498391      16997.477    
     67000   437.3478       0.0335         0.27199419     0.27166954     0.26803941    -2670.2957      733.38824      733.38824      733.38824      3.9445897e+08  1.5238598     -39267116      -39267116       1302.3471     -39265814      -2684.374      -2681.1699     -2645.3433      11.057113      0.89182004     6.1743721      16912.607    
     68000   437.64798      0.034          0.2729105      0.27274684     0.26895545    -2679.8677      733.74305      733.74305      733.74305      3.9503175e+08  1.5216502     -39245511      -39245511       1303.2409     -39244208      -2693.4173     -2691.802      -2654.3839      10.764896     -0.76990972     6.0378775      16913.637    
     69000   438.14245      0.0345         0.27379682     0.27368439     0.26979023    -2688.614       734.09786      734.09786      734.09786      3.9560509e+08  1.5194449     -39223817      -39223817       1304.7134     -39222513      -2702.1646     -2701.0549     -2662.6226      10.361451     -0.87891398     4.9613896      16998.548    
     70000   438.94335      0.035          0.2746525      0.27451736     0.27071264    -2697.2037      734.45267      734.45267      734.45267      3.9617899e+08  1.5172439     -39202035      -39202035       1307.0983     -39200728      -2710.6094     -2709.2757     -2671.726       9.4806001     -0.39995627     4.5176976      14431.572    
     71000   439.67026      0.0355         0.27541224     0.27517374     0.27157746    -2704.7074      734.80748      734.80748      734.80748      3.9675344e+08  1.5150471     -39180168      -39180168       1309.263      -39178859      -2718.1075     -2715.7536     -2680.2612      9.4828953     -0.59473999     5.188886       15820.348    
     72000   440.04606      0.036          0.27589768     0.27560066     0.27210873    -2709.4566      735.16228      735.16228      735.16228      3.9732844e+08  1.5128546     -39158232      -39158232       1310.382      -39156922      -2722.8984     -2719.967      -2685.5044      10.046983     -1.7244976      5.0546796      16784.654    
     73000   439.99615      0.0365         0.27623823     0.27613516     0.27252782    -2713.714       735.51709      735.51709      735.51709      3.97904e+08    1.5106662     -39136237      -39136237       1310.2334     -39134927      -2726.2594     -2725.2422     -2689.6405      9.3475897     -2.7561498      4.2549938      16958.219    
     74000   439.42615      0.037          0.27671809     0.27681254     0.27305388    -2719.2516      735.8719       735.8719       735.8719       3.9848012e+08  1.5084821     -39114180      -39114180       1308.536      -39112872      -2730.9952     -2731.9273     -2694.8323      8.2304138     -3.447944       3.8714841      16909.052    
     75000   438.91238      0.0375         0.2772424      0.27737177     0.27356799    -2724.5075      736.22671      736.22671      736.22671      3.9905679e+08  1.5063023     -39092051      -39092051       1307.0061     -39090744      -2736.1697     -2737.4465     -2699.9062      8.1921425     -4.1641807      3.9926483      16887.136    
     76000   439.1558       0.038          0.2776269      0.27785846     0.27402185    -2728.8665      736.58152      736.58152      736.58152      3.9963402e+08  1.5041266     -39069857      -39069857       1307.731      -39068549      -2739.9645     -2742.2497     -2704.3854      8.8932209     -5.8363797      3.9366231      17025.993    
     77000   439.84859      0.0385         0.27786677     0.27839691     0.27446366    -2732.8805      736.93633      736.93633      736.93633      4.002118e+08   1.5019551     -39047619      -39047619       1309.794      -39046309      -2742.3318     -2747.5639     -2708.7457      9.2936735     -7.677136       2.9072142      16930.308    
     78000   440.42179      0.039          0.27809663     0.27883359     0.27493401    -2736.6206      737.29113      737.29113      737.29113      4.0079014e+08  1.4997877     -39025339      -39025339       1311.5009     -39024027      -2744.6004     -2751.8736     -2713.3877      8.8900812     -7.636195       2.3106053      16984.575    
     79000   440.76639      0.0395         0.27844177     0.27914253     0.27542439    -2740.3855      737.64594      737.64594      737.64594      4.0136904e+08  1.4976246     -39003008      -39003008       1312.527      -39001695      -2748.0066     -2754.9226     -2718.2274      8.7031682     -6.3624131      2.5127711      16812.742    
     80000   440.71233      0.04           0.27881857     0.27932843     0.27580265    -2743.481       738.00075      738.00075      738.00075      4.019485e+08   1.4954656     -38980622      -38980622       1312.3661     -38979310      -2751.7253     -2756.7572     -2721.9605      9.0029471     -6.4934689      2.2416391      16850.279    
     81000   440.43812      0.0405         0.2789549      0.27948816     0.27591942    -2744.8392      738.35556      738.35556      738.35556      4.0252851e+08  1.4933107     -38958188      -38958188       1311.5495     -38956876      -2753.0708     -2758.3337     -2723.1129      8.5538157     -7.319022       1.5188112      16925.232    
     82000   439.92994      0.041          0.27880993     0.27962657     0.27583776    -2744.5489      738.71037      738.71037      738.71037      4.0310908e+08  1.49116       -38935727      -38935727       1310.0362     -38934417      -2751.64       -2759.6997     -2722.307       6.8233799     -7.1809342      1.4738286      16936.706    
     83000   439.33712      0.0415         0.27853964     0.27969644     0.27570834    -2743.4638      739.06517      739.06517      739.06517      4.0369021e+08  1.4890134     -38913256      -38913256       1308.2709     -38911947      -2748.9725     -2760.3893     -2721.0297      5.6394836     -7.1850064      1.7448921      16907.803    
     84000   438.65802      0.042          0.27825824     0.27965983     0.27561727    -2742.1181      739.41998      739.41998      739.41998      4.0427189e+08  1.486871      -38890773      -38890773       1306.2487     -38889467      -2746.1953     -2760.028      -2720.131       6.0815974     -8.2504954      1.2020387      16846.744    
     85000   438.14519      0.0425         0.27800649     0.27942293     0.27547921    -2740.0564      739.77479      739.77479      739.77479      4.0485414e+08  1.4847326     -38868276      -38868276       1304.7216     -38866971      -2743.7107     -2757.6899     -2718.7684      6.7827883     -9.6494572      0.62133181     16934.098    
     86000   437.92968      0.043          0.27781281     0.2790507      0.27531622    -2737.6585      740.1296       740.1296       740.1296       4.0543694e+08  1.4825984     -38845774      -38845774       1304.0798     -38844470      -2741.7992     -2754.0163     -2717.1598      7.1890428     -10.538029      0.17366832     16881.507    
     87000   437.7728       0.0435         0.2775207      0.27872249     0.2752334     -2735.3453      740.48441      740.48441      740.48441      4.060203e+08   1.4804682     -38823277      -38823277       1303.6126     -38821973      -2738.9164     -2750.7771     -2716.3425      7.2407793     -10.012148     -0.67460152     16710.758    
     88000   437.31891      0.044          0.27708296     0.27852386     0.2751685     -2733.0383      740.83921      740.83921      740.83921      4.0660422e+08  1.4783421     -38800786      -38800786       1302.261      -38799484      -2734.5962     -2748.8168     -2715.7019      6.8989079     -8.9218326     -0.97896144     16969.888    
     89000   436.60547      0.0445         0.27660197     0.27838468     0.27493644    -2730.2347      741.19402      741.19402      741.19402      4.0718871e+08  1.4762201     -38778295      -38778295       1300.1365     -38776995      -2729.8492     -2747.4432     -2713.4117      5.8632938     -8.4631904     -0.43216401     16855.389    
     90000   435.96173      0.045          0.27608194     0.27807616     0.27445415    -2725.9224      741.54883      741.54883      741.54883      4.0777375e+08  1.4741021     -38755801      -38755801       1298.2196     -38754503      -2724.7169     -2744.3983     -2708.6519      5.3004542     -9.3542538     -0.31158503     16853.643    
     91000   435.63511      0.0455         0.27548793     0.27757229     0.27381962    -2720.2232      741.90364      741.90364      741.90364      4.0835935e+08  1.4719882     -38733319      -38733319       1297.247      -38732022      -2718.8545     -2739.4255     -2702.3896      5.3931735     -10.630061     -0.90067145     16996.23     
     92000   435.31104      0.046          0.2749207      0.27695249     0.27321119    -2714.3166      742.25845      742.25845      742.25845      4.0894551e+08  1.4698783     -38710867      -38710867       1296.2819     -38709570      -2713.2563     -2733.3086     -2696.3848      5.3657522     -10.99103      -1.9391052      16878.667    
     93000   434.56886      0.0465         0.27434964     0.27628272     0.27272434    -2708.6329      742.61325      742.61325      742.61325      4.0953223e+08  1.4677725     -38688448      -38688448       1294.0719     -38687154      -2707.6204     -2726.6985     -2691.5799      4.8370684     -10.923038     -3.3139594      16866.266    
     94000   433.5297       0.047          0.27356465     0.27559227     0.27229882    -2702.3793      742.96806      742.96806      742.96806      4.1011952e+08  1.4656707     -38666059      -38666059       1290.9774     -38664768      -2699.8731     -2719.8842     -2687.3804      4.0880263     -10.937205     -3.4804705      16963.134    
     95000   432.25149      0.0475         0.2726887      0.27495368     0.27180684    -2695.7783      743.32287      743.32287      743.32287      4.1070736e+08  1.4635729     -38643700      -38643700       1287.1711     -38642413      -2691.2282     -2713.5819     -2682.5249      3.2629392     -10.91953      -2.4504578      16859.164    
     96000   430.89451      0.048          0.2717837      0.27415458     0.27108549    -2687.7992      743.67768      743.67768      743.67768      4.1129577e+08  1.4614791     -38621377      -38621377       1283.1303     -38620094      -2682.2966     -2705.6953     -2675.4057      2.7434949     -10.898179     -1.7151634      16772.901    
     97000   429.78721      0.0485         0.27085375     0.27314945     0.27026385    -2678.7303      744.03249      744.03249      744.03249      4.1188473e+08  1.4593892     -38599098      -38599098       1279.8329     -38597819      -2673.1187     -2695.7755     -2667.2968      2.152742      -11.252352     -2.7689746      16984.172    
     98000   428.81249      0.049          0.27000502     0.27221293     0.26944717    -2670.1706      744.38729      744.38729      744.38729      4.1247426e+08  1.4573034     -38576867      -38576867       1276.9304     -38575590      -2664.7424     -2686.5327     -2659.2369      1.9187272     -12.536709     -5.1126075      16896.126    
     99000   428.05458      0.0495         0.26905121     0.27135574     0.2684316     -2660.872       744.7421       744.7421       744.7421       4.1306435e+08  1.4552215     -38554688      -38554688       1274.6735     -38553413      -2655.329      -2678.073      -2649.2139      2.3338189     -13.63677      -6.1846086      16833.826    
    100000   427.54555      0.05           0.2679465      0.27052263     0.26730011    -2650.7747      745.09691      745.09691      745.09691      4.1365501e+08  1.4531436     -38532574      -38532574       1273.1576     -38531301      -2644.4264     -2669.8508     -2638.0469      2.8447405     -14.048432     -5.3444593      16485.067    
    101000   426.77847      0.0505         0.26678735     0.26953875     0.26632773    -2640.5258      745.45172      745.45172      745.45172      4.1424623e+08  1.4510697     -38510534      -38510534       1270.8734     -38509264      -2632.9864     -2660.1406     -2628.4503      2.438395      -14.26791      -3.513462       16770.547    
    102000   425.53334      0.051          0.26553726     0.26826903     0.26545701    -2629.3718      745.80653      745.80653      745.80653      4.1483801e+08  1.4489997     -38488564      -38488564       1267.1656     -38487297      -2620.649      -2647.6095     -2619.857       1.9379049     -14.78822      -2.1821836      16813.607    
    103000   424.02009      0.0515         0.2642118      0.26694804     0.26447866    -2617.4472      746.16133      746.16133      746.16133      4.1543035e+08  1.4469336     -38466656      -38466656       1262.6594     -38465393      -2607.5678     -2634.5723     -2610.2015      1.9951011     -14.83842      -2.3694281      16907.743    
    104000   422.477        0.052          0.26299453     0.26562953     0.26324854    -2605.0583      746.51614      746.51614      746.51614      4.1602326e+08  1.4448715     -38444814      -38444814       1258.0644     -38443556      -2595.5542     -2621.5596     -2598.0611      1.8818484     -14.586337     -4.3883765      16943.663    
    105000   421.18157      0.0525         0.26183152     0.26431519     0.2619484     -2592.6313      746.87095      746.87095      746.87095      4.1661673e+08  1.4428133     -38423057      -38423057       1254.2068     -38421803      -2584.0762     -2608.5881     -2585.2297      1.0487822     -14.702666     -7.4811182      16954.836    
    106000   420.21196      0.053          0.26057497     0.26297069     0.26071685    -2580.0231      747.22576      747.22576      747.22576      4.1721076e+08  1.440759      -38401399      -38401399       1251.3195     -38400148      -2571.675      -2595.3189     -2573.0753     -0.25640142    -15.228879     -9.5600103      16886.76     
    107000   419.29977      0.0535         0.25912446     0.26166235     0.25955454    -2567.1234      747.58057      747.58057      747.58057      4.1780536e+08  1.4387085     -38379836      -38379836       1248.6031     -38378587      -2557.3596     -2582.4066     -2561.6041     -1.1599194     -15.619605     -9.2610687      16942.071    
    108000   418.21592      0.054          0.25751252     0.26037948     0.25831424    -2553.52        747.93537      747.93537      747.93537      4.1840053e+08  1.436662      -38358358      -38358358       1245.3756     -38357112      -2541.451      -2569.7457     -2549.3633     -1.3592953     -16.652576     -7.3396477      16968.229    
    109000   417.09791      0.0545         0.25589177     0.25897259     0.2569164     -2538.9613      748.29018      748.29018      748.29018      4.1899626e+08  1.4346194     -38336961      -38336961       1242.0463     -38335719      -2525.4554     -2555.8607     -2535.5677     -0.92981276    -17.842497     -6.1075843      16898.353    
    110000   415.80327      0.055          0.25449726     0.25740159     0.25558482    -2524.825       748.64499      748.64499      748.64499      4.1959255e+08  1.4325806     -38315661      -38315661       1238.1911     -38314422      -2511.6927     -2540.3561     -2522.426      -0.10387968    -17.671988     -6.9129345      17003.495    
    111000   414.31715      0.0555         0.25320001     0.25574548     0.25437672    -2511.1348      748.9998       748.9998       748.9998       4.2018941e+08  1.4305457     -38294465      -38294465       1233.7657     -38293231      -2498.8898     -2524.0116     -2510.503       0.49051158    -16.374467     -9.4785584      16892.982    
    112000   412.90653      0.056          0.25183043     0.25412594     0.25312256    -2497.1755      749.35461      749.35461      749.35461      4.2078684e+08  1.4285146     -38273373      -38273373       1229.5652     -38272143      -2485.3731     -2508.028      -2498.1255      0.35487912    -16.156325     -11.309353      16871.956    
    113000   411.98945      0.0565         0.25035447     0.25259582     0.25165882    -2482.4709      749.70941      749.70941      749.70941      4.2138483e+08  1.4264874     -38252386      -38252386       1226.8342     -38251159      -2470.8065     -2492.9269     -2483.6794     -0.0040283847  -17.457928     -11.334633      16884.983    
    114000   411.14072      0.057          0.24876445     0.25114041     0.25001509    -2467.0448      750.06422      750.06422      750.06422      4.2198339e+08  1.424464      -38231505      -38231505       1224.3069     -38230280      -2455.1142     -2478.5632     -2467.4571      0.031784327   -17.772323     -10.717658      17007.608    
    115000   409.46355      0.0575         0.24707945     0.24977814     0.24836397    -2451.5883      750.41903      750.41903      750.41903      4.2258251e+08  1.4224444     -38210726      -38210726       1219.3125     -38209506      -2438.4846     -2465.1186     -2451.1618     -0.24604011    -16.355377     -10.624029      16911.618    
    116000   406.78619      0.058          0.24548231     0.24831614     0.24683922    -2436.5085      750.77384      750.77384      750.77384      4.231822e+08   1.4204287     -38190044      -38190044       1211.3398     -38188832      -2422.722      -2450.6898     -2436.1137     -0.99253849    -15.45169      -11.488351      17006.048    
    117000   404.34465      0.0585         0.24399798     0.24658347     0.24536306    -2421.0692      751.12865      751.12865      751.12865      4.2378246e+08  1.4184168     -38169467      -38169467       1204.0693     -38168263      -2408.0728     -2433.5896     -2421.5451     -0.90106345    -16.244155     -12.536979      16909.592    
    118000   403.3025       0.059          0.24245862     0.24464134     0.24388273    -2404.7461      751.48346      751.48346      751.48346      4.2438329e+08  1.4164086     -38149011      -38149011       1200.966      -38147810      -2392.8805     -2414.4223     -2406.9354      0.3124651     -18.009188     -12.924933      17006.551    
    119000   403.14036      0.0595         0.24078495     0.24281601     0.2424263     -2388.444       751.83826      751.83826      751.83826      4.2498468e+08  1.4144043     -38128684      -38128684       1200.4832     -38127484      -2376.3627     -2396.4077     -2392.5616      1.7480453     -19.137292     -12.469499      16870.746    
    120000   402.38191      0.06           0.23912888     0.24127426     0.24092236    -2372.9764      752.19307      752.19307      752.19307      4.2558664e+08  1.4124037     -38108478      -38108478       1198.2246     -38107280      -2360.0186     -2381.1918     -2377.7188      2.5574385     -19.200212     -12.224537      16985.499    
    121000   400.75643      0.0605         0.23754076     0.23972756     0.23932884    -2357.4214      752.54788      752.54788      752.54788      4.2618917e+08  1.4104069     -38088377      -38088377       1193.3842     -38087184      -2344.345      -2365.927      -2361.992       2.0856445     -18.634564     -12.696173      16964.408    
    122000   398.9742       0.061          0.23592704     0.23807601     0.23762402    -2341.071       752.90269      752.90269      752.90269      4.2679227e+08  1.4084139     -38068387      -38068387       1188.077      -38067199      -2328.4189     -2349.6275     -2345.1667      0.61799025    -17.315373     -13.131016      16877.126    
    123000   397.52302      0.0615         0.23422311     0.23643132     0.23590233    -2324.391       753.2575       753.2575       753.2575       4.2739593e+08  1.4064246     -38048516      -38048516       1183.7557     -38047333      -2311.6024     -2333.3957     -2328.175      -0.83983706    -16.423783     -13.145483      16984.531    
    124000   396.21046      0.062          0.23257475     0.23473811     0.23428316    -2308.0714      753.6123       753.6123       753.6123       4.2800017e+08  1.404439      -38028769      -38028769       1179.8471     -38027589      -2295.3343     -2316.685      -2312.1951     -1.1727745     -16.659821     -13.348485      16990.701    
    125000   394.79571      0.0625         0.23091788     0.23279148     0.23266756    -2290.9019      753.96711      753.96711      753.96711      4.2860497e+08  1.4024572     -38009144      -38009144       1175.6342     -38007969      -2278.9823     -2297.4733     -2296.2503     -0.71366106    -17.159299     -14.403569      16967.752    
    126000   393.40902      0.063          0.22923204     0.23083946     0.23102103    -2273.5177      754.32192      754.32192      754.32192      4.2921035e+08  1.4004792     -37989644      -37989644       1171.5049     -37988473      -2262.3444     -2278.2084     -2280.0003     -0.068367526   -17.432283     -15.040182      16862.921    
    127000   392.40061      0.0635         0.22743687     0.22907925     0.22933277    -2256.2674      754.67673      754.67673      754.67673      4.2981629e+08  1.3985048     -37970274      -37970274       1168.502      -37969105      -2244.6274     -2260.8364     -2263.3385      0.65874161    -17.049033     -14.665051      17021.523    
    128000   391.53282      0.064          0.22563585     0.22757414     0.22770128    -2240.0239      755.03154      755.03154      755.03154      4.3042281e+08  1.3965341     -37951029      -37951029       1165.9179     -37949864      -2226.8527     -2245.9821     -2247.2369      0.90678775    -16.573442     -14.052926      16871.174    
    129000   390.08595      0.0645         0.22396728     0.22617661     0.22612262    -2224.7439      755.38634      755.38634      755.38634      4.3102989e+08  1.3945672     -37931905      -37931905       1161.6094     -37930744      -2210.3852     -2232.1896     -2231.6567      0.9614694     -16.604778     -13.972164      16749.537    
    130000   388.31745      0.065          0.2224646      0.22449671     0.22451689    -2208.9915      755.74115      755.74115      755.74115      4.3163754e+08  1.3926039     -37912903      -37912903       1156.343      -37911746      -2195.5549     -2215.6103     -2215.8094      0.90265393    -16.381422     -14.60247       16960.34     
    131000   386.68541      0.0655         0.22095873     0.22263243     0.22291835    -2192.6458      756.09596      756.09596      756.09596      4.3224577e+08  1.3906444     -37894021      -37894021       1151.4831     -37892869      -2180.6932     -2197.2112     -2200.033       0.10988678    -16.054669     -15.21082       16959.062    
    132000   385.22339      0.066          0.21926597     0.22089696     0.22134717    -2176.199       756.45077      756.45077      756.45077      4.3285457e+08  1.3886885     -37875250      -37875250       1147.1295     -37874102      -2163.9868     -2180.0835     -2184.5268     -0.8077514     -15.724705     -15.154827      16880.438    
    133000   384.02081      0.0665         0.21758848     0.21939192     0.21985251    -2160.8122      756.80558      756.80558      756.80558      4.3346394e+08  1.3867362     -37856583      -37856583       1143.5484     -37855439      -2147.4313     -2165.2299     -2169.7755     -0.31577004    -15.158711     -14.766668      16968.623    
    134000   382.88225      0.067          0.21606757     0.21802257     0.21841331    -2146.5694      757.16038      757.16038      757.16038      4.3407388e+08  1.3847877     -37838026      -37838026       1140.158      -37836885      -2132.4211     -2151.7155     -2155.5718      0.44594203    -15.201589     -14.349016      16901.473    
    135000   381.58071      0.0675         0.21464957     0.21649512     0.2169024     -2131.9092      757.51519      757.51519      757.51519      4.3468439e+08  1.3828427     -37819582      -37819582       1136.2822     -37818446      -2118.4266     -2136.6407     -2140.6602      0.69419027    -15.040731     -14.355808      17003.746    
    136000   380.00368      0.068          0.2132661      0.2148004      0.21528688    -2116.468       757.87         757.87         757.87         4.3529547e+08  1.3809014     -37801263      -37801263       1131.5861     -37800131      -2104.7727     -2119.9151     -2124.7163      0.68034514    -13.965264     -15.03317       16809.066    
    137000   378.17578      0.0685         0.21170559     0.21298919     0.21357028    -2099.7288      758.22481      758.22481      758.22481      4.3590713e+08  1.3789638     -37783065      -37783065       1126.1429     -37781939      -2089.3717     -2102.0398     -2107.7748      0.33423061    -13.1769       -15.065905      16856.085    
    138000   376.45316      0.069          0.20993986     0.21122911     0.21174567    -2082.1273      758.57962      758.57962      758.57962      4.3651936e+08  1.3770298     -37764987      -37764987       1121.0132     -37763866      -2071.9453     -2084.6693     -2089.7673     -0.11233959    -12.606763     -14.388266      16847.767    
    139000   375.1417       0.0695         0.20818889     0.20977486     0.21009825    -2066.1633      758.93442      758.93442      758.93442      4.3713216e+08  1.3750993     -37747029      -37747029       1117.1079     -37745912      -2054.6645     -2070.3169     -2073.5086     -0.54509458    -12.249461     -14.046512      16848.956    
    140000   373.98866      0.07           0.2067041      0.20866991     0.20889296    -2053.6786      759.28923      759.28923      759.28923      4.3774553e+08  1.3731725     -37729176      -37729176       1113.6744     -37728062      -2040.0109     -2059.4119     -2061.6132     -0.39704879    -12.705395     -14.471354      16873.409    
    141000   372.74107      0.0705         0.20548771     0.20760533     0.20788818    -2042.8694      759.64404      759.64404      759.64404      4.3835948e+08  1.3712493     -37711408      -37711408       1109.9593     -37710298      -2028.006      -2048.9053     -2051.6968      0.026172781   -13.960954     -15.050146      16872.885    
    142000   371.59334      0.071          0.20432538     0.20614438     0.20669659    -2030.3194      759.99885      759.99885      759.99885      4.38974e+08    1.3693297     -37693725      -37693725       1106.5415     -37692619      -2016.5348     -2034.4868     -2039.9367      0.00012733827 -14.743245     -15.2205        16949.525    
    143000   370.6155       0.0715         0.20299987     0.20437538     0.20516822    -2015.1114      760.35366      760.35366      760.35366      4.395891e+08   1.3674137     -37676143      -37676143       1103.6297     -37675039      -2003.453      -2017.0282     -2024.8529     -0.46639324    -13.374488     -15.324346      16851.362    
    144000   369.57387      0.072          0.20149494     0.20276888     0.2034698     -1999.2882      760.70846      760.70846      760.70846      4.4020477e+08  1.3655012     -37658678      -37658678       1100.5279     -37657577      -1988.6005     -2001.1733     -2008.0908     -0.48873329    -11.462635     -15.022566      16964.88     
    145000   368.14254      0.0725         0.20002291     0.2015412      0.20187185    -1985.1499      761.06327      761.06327      761.06327      4.4082102e+08  1.3635923     -37641325      -37641325       1096.2656     -37640229      -1974.0726     -1989.057      -1992.3202     -0.52416123    -10.499005     -13.932933      16832.315    
    146000   366.41873      0.073          0.19877574     0.20046716     0.20052085    -1973.0693      761.41808      761.41808      761.41808      4.4143784e+08  1.361687      -37624069      -37624069       1091.1324     -37622978      -1961.764      -1978.457      -1978.9869     -1.1140794     -10.773524     -12.698398      16426.494    
    147000   364.82101      0.0735         0.19761096     0.19918507     0.19934623    -1961.1555      761.77289      761.77289      761.77289      4.4205523e+08  1.3597852     -37606900      -37606900       1086.3747     -37605813      -1950.2685     -1965.8038     -1967.3943     -1.7304498     -11.876725     -12.398037      16956.587    
    148000   363.45767      0.074          0.19622846     0.1976653      0.19817378    -1947.7508      762.1277       762.1277       762.1277       4.426732e+08   1.3578869     -37589818      -37589818       1082.3149     -37588736      -1936.6243     -1950.8049     -1955.8232     -2.1028732     -12.492284     -12.678881      16830.111    
    149000   362.32739      0.0745         0.19475065     0.19620135     0.19697798    -1934.1392      762.4825       762.4825       762.4825       4.4329175e+08  1.3559922     -37572830      -37572830       1078.9491     -37571751      -1922.0394     -1936.3568     -1944.0215     -1.5229957     -11.93474      -12.62547       16983.998    
    150000   361.23241      0.075          0.19357245     0.19508827     0.19581224    -1922.7665      762.83731      762.83731      762.83731      4.4391087e+08  1.354101      -37555935      -37555935       1075.6884     -37554859      -1910.4115     -1925.3716     -1932.5165     -0.074695588   -10.602636     -12.475781      13293.341    
    151000   359.82097      0.0755         0.19263337     0.19409674     0.19462064    -1912.4953      763.19212      763.19212      763.19212      4.4453057e+08  1.3522133     -37539127      -37539127       1071.4854     -37538055      -1901.1435     -1915.5859     -1920.7564      0.77200362    -9.5735845     -13.03976       16854.522    
    152000   358.50134      0.076          0.1916429      0.19288265     0.19342641    -1901.3141      763.54693      763.54693      763.54693      4.4515085e+08  1.3503291     -37522394      -37522394       1067.5558     -37521327      -1891.3684     -1903.6037     -1908.9702      0.19284284    -9.7822263     -13.250484      16893.811    
    153000   357.53688      0.0765         0.19042901     0.19150199     0.19216856    -1888.6407      763.90174      763.90174      763.90174      4.457717e+08   1.3484484     -37505747      -37505747       1064.6838     -37504682      -1879.3882     -1889.9777     -1896.5562     -1.1718454     -10.482167     -11.984479      16968.496    
    154000   356.58001      0.077          0.18918313     0.19026329     0.19090958    -1876.3253      764.25655      764.25655      764.25655      4.4639313e+08  1.3465712     -37489184      -37489184       1061.8344     -37488122      -1867.0923     -1877.7526     -1884.1311     -2.2784664     -10.835609     -10.31193       16890.413    
    155000   355.07441      0.0775         0.18819948     0.18930177     0.18988495    -1866.5554      764.61135      764.61135      764.61135      4.4701513e+08  1.3446975     -37472699      -37472699       1057.351      -37471641      -1857.3844     -1868.2632     -1874.0187     -2.5059439     -10.31192      -10.040837      16997.917    
    156000   353.4212       0.078          0.18732191     0.18837895     0.18887926    -1857.3242      764.96616      764.96616      764.96616      4.4763772e+08  1.3428273     -37456285      -37456285       1052.428      -37455232      -1848.7235     -1859.1557     -1864.0934     -2.3420205     -9.4164114     -11.160248      16818.757    
    157000   352.19337      0.0785         0.18631174     0.18730841     0.18781277    -1846.9707      765.32097      765.32097      765.32097      4.4826088e+08  1.3409605     -37439942      -37439942       1048.7717     -37438893      -1838.7539     -1848.5903     -1853.568      -2.3379896     -8.6741288     -12.289358      17005.82     
    158000   351.5087       0.079          0.18513867     0.1861524      0.18676457    -1835.8603      765.67578      765.67578      765.67578      4.4888462e+08  1.3390972     -37423675      -37423675       1046.7329     -37422628      -1827.1766     -1837.1813     -1843.223      -1.9463839     -8.3272841     -12.134516      16865.086    
    159000   351.05009      0.0795         0.18399124     0.18512484     0.1857334     -1825.3129      766.03059      766.03059      766.03059      4.4950894e+08  1.3372374     -37407482      -37407482       1045.3672     -37406436      -1815.8524     -1827.0401     -1833.0462     -1.039054      -8.7229201     -10.450301      16863.307    
    160000   350.17033      0.08           0.1831196      0.1843287      0.18474629    -1816.579       766.38539      766.38539      766.38539      4.5013383e+08  1.3353809     -37391352      -37391352       1042.7474     -37390309      -1807.2499     -1819.1828     -1823.3041     -0.92140787    -9.4875778     -8.5276068      16972.954    
    161000   348.64403      0.0805         0.18237237     0.18351065     0.18380427    -1808.3305      766.7402       766.7402       766.7402       4.5075931e+08  1.333528      -37375283      -37375283       1038.2024     -37374245      -1799.8753     -1811.1093     -1814.0071     -1.6788999     -9.7532685     -7.622422       16887.595    
    162000   347.25734      0.081          0.18150539     0.18244468     0.18282346    -1798.7451      767.09501      767.09501      767.09501      4.5138536e+08  1.3316784     -37359283      -37359283       1034.073      -37358249      -1791.319      -1800.589      -1804.3272     -2.2828556     -9.4842765     -7.8019221      16983.628    
    163000   346.3768       0.0815         0.18064262     0.18125423     0.18187135    -1788.8583      767.44982      767.44982      767.44982      4.52012e+08    1.3298323     -37343352      -37343352       1031.4509     -37342320      -1782.8041     -1788.8401     -1794.9307     -2.0571027     -9.1470271     -8.8103061      16760.754    
    164000   345.5492       0.082          0.17985901     0.18019359     0.18099835    -1779.9192      767.80463      767.80463      767.80463      4.5263921e+08  1.3279896     -37327482      -37327482       1028.9865     -37326454      -1775.0705     -1778.3724     -1786.3148     -1.3421259     -8.8146596     -9.2668978      16721.729    
    165000   344.6749       0.0825         0.17900631     0.1793735      0.18016116    -1771.662       768.15943      768.15943      768.15943      4.53267e+08    1.3261502     -37311666      -37311666       1026.383      -37310639      -1766.6549     -1770.2788     -1778.0524     -1.0939289     -8.0590541     -8.382315       16960.953    
    166000   343.94629      0.083          0.17811948     0.17870947     0.17936241    -1763.9324      768.51424      768.51424      768.51424      4.5389538e+08  1.3243143     -37295906      -37295906       1024.2133     -37294882      -1757.9026     -1763.7253     -1770.1694     -1.5244682     -7.3280589     -7.1674886      16964.378    
    167000   343.4918       0.0835         0.17735136     0.17810137     0.17856398    -1756.7784      768.86905      768.86905      768.86905      4.5452433e+08  1.3224818     -37280202      -37280202       1022.8599     -37279179      -1750.3218     -1757.7238     -1762.2895     -1.9919992     -7.4384003     -6.861878       16840.785    
    168000   343.01439      0.084          0.17671691     0.17738555     0.17790964    -1750.1837      769.22386      769.22386      769.22386      4.5515387e+08  1.3206526     -37264543      -37264543       1021.4383     -37263521      -1744.0603     -1750.6592     -1755.8316     -2.0689457     -8.4929805     -7.5805083      16968.442    
    169000   342.2297       0.0845         0.17600184     0.1765216      0.17721412    -1742.7011      769.57867      769.57867      769.57867      4.5578398e+08  1.3188268     -37248926      -37248926       1019.1016     -37247907      -1737.0031     -1742.1328     -1748.9674     -1.8540685     -9.1087939     -8.388451       16880.796    
    170000   341.17195      0.085          0.17506982     0.17566017     0.17627494    -1733.7114      769.93347      769.93347      769.93347      4.5641468e+08  1.3170044     -37233369      -37233369       1015.9518     -37232353      -1727.8047     -1733.6311     -1739.6984     -1.4987424     -8.6393305     -8.6614073      16552.888    
    171000   340.28588      0.0855         0.17414094     0.17497296     0.17517811    -1724.7866      770.28828      770.28828      770.28828      4.5704596e+08  1.3151853     -37217876      -37217876       1013.3133     -37216863      -1718.6375     -1726.8488     -1728.8735     -1.0060289     -8.0029532     -7.8942769      16808.643    
    172000   339.82299      0.086          0.17348167     0.17432968     0.17429048    -1717.5815      770.64309      770.64309      770.64309      4.5767782e+08  1.3133696     -37202439      -37202439       1011.9348     -37201427      -1712.131      -1720.5002     -1720.1133     -0.99678149    -7.9081911     -6.6094681      16820.626    
    173000   339.2994       0.0865         0.17301432     0.17359268     0.17373651    -1711.797       770.9979       770.9979       770.9979       4.5831026e+08  1.3115572     -37187041      -37187041       1010.3757     -37186031      -1707.5185     -1713.2265     -1714.646      -2.0204983     -8.1289805     -5.8887792      16899.462    
    174000   338.41134      0.087          0.17246569     0.17275768     0.17334021    -1705.9415      771.35271      771.35271      771.35271      4.5894329e+08  1.3097482     -37171678      -37171678       1007.7312     -37170670      -1702.104      -1704.9858     -1710.7349     -2.5474626     -8.161683      -5.5850612      16842.67     
    175000   337.61853      0.0875         0.17177816     0.1720282      0.1727481     -1699.332       771.70751      771.70751      771.70751      4.595769e+08   1.3079425     -37156359      -37156359       1005.3703     -37155353      -1695.3187     -1697.7863     -1704.8912     -2.2156487     -7.8380718     -5.4877617      16863.888    
    176000   337.35825      0.088          0.17105586     0.17146747     0.17193829    -1692.4471      772.06232      772.06232      772.06232      4.6021109e+08  1.3061401     -37141087      -37141087       1004.5953     -37140083      -1688.1901     -1692.2524     -1696.899      -1.6510798     -7.5364277     -5.3834481      16924.203    
    177000   337.30194      0.0885         0.17036959     0.17093792     0.17127773    -1686.2743      772.41713      772.41713      772.41713      4.6084586e+08  1.304341      -37125857      -37125857       1004.4276     -37124852      -1681.4171     -1687.0261     -1690.3798     -1.069683      -7.6800594     -5.0425116      16822.338    
    178000   336.90436      0.089          0.16970614     0.17032937     0.17077515    -1680.4364      772.77194      772.77194      772.77194      4.6148122e+08  1.3025452     -37110660      -37110660       1003.2437     -37109657      -1674.8694     -1681.0202     -1685.4197     -0.64989906    -7.7764545     -5.0017907      16940.353    
    179000   336.30148      0.0895         0.16905429     0.16964217     0.17018113    -1674.0771      773.12675      773.12675      773.12675      4.6211716e+08  1.3007527     -37095505      -37095505       1001.4484     -37094503      -1668.4361     -1674.238      -1679.5571     -0.87327118    -7.079936      -5.6415708      16942.257    
    180000   335.90401      0.09           0.16844161     0.16898721     0.16945984    -1667.534       773.48155      773.48155      773.48155      4.6275368e+08  1.2989635     -37080399      -37080399       1000.2648     -37079399      -1662.3894     -1667.7741     -1672.4386     -1.1198848     -6.7180873     -6.4416188      16814.301    
    181000   335.53833      0.0905         0.16791907     0.16837545     0.16884209    -1661.7703      773.83636      773.83636      773.83636      4.6339079e+08  1.2971776     -37065338      -37065338       999.17585     -37064339      -1657.2324     -1661.7365     -1666.3419     -1.0502894     -7.1587754     -6.4678396      16851.165    
    182000   334.94973      0.091          0.16737843     0.16771755     0.16825555    -1655.8978      774.19117      774.19117      774.19117      4.6402849e+08  1.2953949     -37050310      -37050310       997.42309     -37049312      -1651.8967     -1655.2435     -1660.5532     -0.85358304    -7.9113216     -5.5001548      16973.21     
    183000   334.4832       0.0915         0.16673423     0.16708127     0.16760944    -1649.5598      774.54598      774.54598      774.54598      4.6466676e+08  1.2936155     -37035313      -37035313       996.03384     -37034317      -1645.539      -1648.9639     -1654.1766     -0.2225141     -8.3920135     -4.2384521      16841.458    
    184000   334.3332       0.092          0.16616204     0.1666393      0.16700602    -1644.2384      774.90079      774.90079      774.90079      4.6530563e+08  1.2918394     -37020352      -37020352       995.58717     -37019356      -1639.8918     -1644.602      -1648.2213      0.18642909    -8.1064699     -3.7337481      16925.756    
    185000   333.8857       0.0925         0.16572603     0.16633849     0.16655509    -1640.331       775.25559      775.25559      775.25559      4.6594508e+08  1.2900665     -37005417      -37005417       994.25459     -37004423      -1635.5888     -1641.6332     -1643.7709     -0.24022979    -7.7142815     -4.2589432      16777.837    
    186000   333.05366      0.093          0.16523027     0.16587221     0.16610475    -1635.6846      775.6104       775.6104       775.6104       4.6658511e+08  1.2882969     -36990513      -36990513       991.77694     -36989521      -1630.6959     -1637.0314     -1639.3264     -0.71855185    -7.4623385     -4.8223734      16702.409    
    187000   332.61376      0.0935         0.16455328     0.16511516     0.16545008    -1628.8133      775.96521      775.96521      775.96521      4.6722573e+08  1.2865305     -36975656      -36975656       990.46698     -36974666      -1624.0146     -1629.5599     -1632.8654     -0.54019898    -7.2242616     -4.8549255      16907.148    
    188000   332.59841      0.094          0.16390305     0.16430925     0.16471292    -1621.5979      776.32002      776.32002      776.32002      4.6786694e+08  1.2847673     -36960845      -36960845       990.42126     -36959855      -1617.5974     -1621.6062     -1625.5902     -0.51004395    -7.1651452     -5.1201887      16661.311    
    189000   332.39606      0.0945         0.16337716     0.1636635      0.16412993    -1615.8256      776.67483      776.67483      776.67483      4.6850873e+08  1.2830074     -36946070      -36946070       989.8187      -36945080      -1612.4072     -1615.2332     -1619.8365     -1.0034026     -7.2258003     -5.0212271      16809.962    
    190000   332.06124      0.095          0.16294753     0.16320927     0.16373168    -1611.6078      777.02963      777.02963      777.02963      4.6915111e+08  1.2812506     -36931323      -36931323       988.82168     -36930334      -1608.1671     -1610.7503     -1615.906      -0.99986647    -7.4922081     -3.8751528      16949.788    
    191000   331.74436      0.0955         0.16252556     0.16290743     0.16340599    -1608.1552      777.38444      777.38444      777.38444      4.6979408e+08  1.2794971     -36916600      -36916600       987.87807     -36915612      -1604.0026     -1607.7713     -1612.6918      0.24412022    -7.7130553     -2.6368845      16675.941    
    192000   331.66204      0.096          0.16201012     0.16255198     0.16292622    -1603.7119      777.73925      777.73925      777.73925      4.7043763e+08  1.2777467     -36901902      -36901902       987.63293     -36900914      -1598.9155     -1604.2633     -1607.9567      1.0667139     -7.6251273     -2.5305581      16942.008    
    193000   331.62502      0.0965         0.1614649      0.16201214     0.16235939    -1598.2776      778.09406      778.09406      778.09406      4.7108177e+08  1.2759996     -36887240      -36887240       987.52267     -36886252      -1593.5346     -1598.9355     -1602.3626      0.38678462    -7.629521      -3.4698065      16192.155    
    194000   331.36091      0.097          0.16098932     0.16141604     0.16180248    -1592.9199      778.44887      778.44887      778.44887      4.717265e+08   1.2742556     -36872613      -36872613       986.7362      -36871626      -1588.841      -1593.0524     -1596.8663     -0.56398823    -7.5278071     -4.5201734      16927.604    
    195000   330.99495      0.0975         0.16064403     0.16094243     0.16130574    -1588.5918      778.80368      778.80368      778.80368      4.7237182e+08  1.2725148     -36858012      -36858012       985.64643     -36857027      -1585.4333     -1588.3783     -1591.9638     -0.54744504    -7.2083846     -4.7828598      16889.137    
    196000   330.67539      0.098          0.16036409     0.1605253      0.16090724    -1584.9877      779.15848      779.15848      779.15848      4.7301772e+08  1.2707772     -36843430      -36843430       984.69484     -36842445      -1582.6705     -1584.2615     -1588.031       0.2987394     -7.0957188     -4.0498013      16827.012    
    197000   330.45736      0.0985         0.15992721     0.16005483     0.16044868    -1580.4942      779.51329      779.51329      779.51329      4.7366421e+08  1.2690428     -36828870      -36828870       984.0456      -36827886      -1578.3588     -1579.6184     -1583.5054      0.99031537    -6.7986006     -2.5986174      16868.332    
    198000   330.25151      0.099          0.1592954      0.1594942      0.15990961    -1574.7979      779.8681       779.8681       779.8681       4.743113e+08   1.2673115     -36814345      -36814345       983.43261     -36813362      -1572.1233     -1574.0854     -1578.1851      0.84377386    -6.5683888     -1.6922039      16903.901    
    199000   329.91219      0.0995         0.15858974     0.15896209     0.15937255    -1568.9592      780.22291      780.22291      780.22291      4.7495897e+08  1.2655833     -36799861      -36799861       982.42217     -36798879      -1565.159      -1568.8338     -1572.8848      0.64685158    -6.4123815     -2.04963        16856.993    
    200000   329.57131      0.1            0.15801939     0.15853875     0.1589352     -1564.2514      780.57772      780.57772      780.57772      4.7560723e+08  1.2638583     -36785408      -36785408       981.40707     -36784427      -1559.5301     -1564.6558     -1568.5684      0.69176196    -6.3534572     -2.6105222      16246.185    
    201000   329.32401      0.1005         0.15762313     0.15810513     0.15852958    -1560.187       780.93252      780.93252      780.93252      4.7625608e+08  1.2621364     -36770985      -36770985       980.67068     -36770005      -1555.6193     -1560.3763     -1564.5653      0.64128546    -6.8145287     -2.9708552      16857.092    
    202000   329.1088       0.101          0.15728335     0.15767707     0.15809451    -1556.2297      781.28733      781.28733      781.28733      4.7690552e+08  1.2604177     -36756591      -36756591       980.0298      -36755611      -1552.266      -1556.1517     -1560.2715      0.37160645    -7.6467404     -3.6047296      16853.204    
    203000   328.94915      0.1015         0.15703472     0.15730813     0.15770335    -1552.9112      781.64214      781.64214      781.64214      4.7755555e+08  1.258702      -36742216      -36742216       979.5544      -36741236      -1549.8122     -1552.5105     -1556.4111      0.54844213    -8.0488752     -3.7100891      16921.593    
    204000   329.13151      0.102          0.15671567     0.15696958     0.15736908    -1549.6483      781.99695      781.99695      781.99695      4.7820617e+08  1.2569895     -36727851      -36727851       980.09745     -36726870      -1546.6634     -1549.1693     -1553.1121      0.84960133    -7.3725552     -3.3044061      16872.838    
    205000   329.34416      0.1025         0.15614379     0.15661559     0.15701636    -1545.442       782.35176      782.35176      782.35176      4.7885738e+08  1.2552801     -36713502      -36713502       980.73067     -36712521      -1541.0194     -1545.6757     -1549.631       0.84480306    -6.0672614     -2.975757       16989.496    
    206000   329.16119      0.103          0.15553894     0.15616867     0.15659011    -1540.5797      782.70656      782.70656      782.70656      4.7950918e+08  1.2535738     -36699181      -36699181       980.18582     -36698200      -1535.05       -1541.2649     -1545.4242      0.55618585    -5.6563618     -3.2414133      16842.524    
    207000   328.66348      0.1035         0.15508513     0.15562705     0.15600992    -1535.3963      783.06137      783.06137      783.06137      4.8016158e+08  1.2518706     -36684900      -36684900       978.70372     -36683922      -1530.5713     -1535.9195     -1539.6982      0.038457661   -6.2678222     -3.5374032      17000.887    
    208000   328.47599      0.104          0.15464364     0.15505431     0.1553668     -1529.9441      783.41618      783.41618      783.41618      4.8081456e+08  1.2501704     -36670663      -36670663       978.14541     -36669685      -1526.214      -1530.2671     -1533.3511     -0.21932729    -6.6135272     -3.2640484      16959.605    
    209000   328.5453       0.1045         0.15412134     0.15456571     0.15487165    -1524.9896      783.77099      783.77099      783.77099      4.8146814e+08  1.2484734     -36656459      -36656459       978.35179     -36655481      -1521.0593     -1525.445      -1528.4643      0.20462236    -6.2921037     -2.9666201      16870.863    
    210000   328.43853      0.105          0.15366408     0.15413537     0.15453822    -1520.9727      784.1258       784.1258       784.1258       4.8212231e+08  1.2467794     -36642275      -36642275       978.03385     -36641297      -1516.5466     -1521.1978     -1525.1737      0.88165003    -6.0903511     -3.1903192      16973.081    
    211000   328.38656      0.1055         0.15337234     0.15371586     0.15424625    -1517.6723      784.4806       784.4806       784.4806       4.8277707e+08  1.2450884     -36628105      -36628105       977.87909     -36627127      -1513.6673     -1517.0576     -1522.2922      1.2242717     -6.315129      -2.8640932      16848.935    
    212000   328.50004      0.106          0.15319041     0.15344332     0.15393954    -1515.1682      784.83541      784.83541      784.83541      4.8343242e+08  1.2434006     -36613961      -36613961       978.21702     -36612983      -1511.8718     -1514.3678     -1519.2651      1.4139759     -6.6432881     -1.8266211      16850.972    
    213000   328.36977      0.1065         0.15293649     0.15326205     0.15352828    -1512.3836      785.19022      785.19022      785.19022      4.8408837e+08  1.2417157     -36599837      -36599837       977.8291      -36598859      -1509.3658     -1512.5789     -1515.2063      1.157101      -6.9395328     -1.8273012      16910.901    
    214000   328.02618      0.107          0.15245777     0.15290913     0.15305984    -1508.1067      785.54503      785.54503      785.54503      4.847449e+08   1.240034      -36585730      -36585730       976.80594     -36584753      -1504.6412     -1509.0958     -1510.5832      0.51961986    -7.7226093     -2.9473972      16771.105    
    215000   327.90051      0.1075         0.15191871     0.15236665     0.15269562    -1503.3506      785.89984      785.89984      785.89984      4.8540204e+08  1.2383552     -36571643      -36571643       976.43173     -36570666      -1499.3211     -1503.742      -1506.9886      0.39366281    -8.0821357     -3.7709349      16948.703    
    216000   327.87924      0.108          0.15159031     0.15194464     0.15242078    -1499.9777      786.25464      786.25464      786.25464      4.8605976e+08  1.2366795     -36557575      -36557575       976.36839     -36556599      -1496.08       -1499.577      -1504.2762      1.0322806     -7.3302042     -3.7487018      16827.049    
    217000   327.91603      0.1085         0.15131347     0.15166464     0.15201968    -1496.8264      786.60945      786.60945      786.60945      4.8671808e+08  1.2350068     -36543532      -36543532       976.47795     -36542555      -1493.3478     -1496.8137     -1500.3176      1.3502178     -5.7135943     -2.9165168      16936.994    
[...]
   3192000   323.54394      1.596          0.011732615    0.011697794    0.011668457   -115.46629      1842.1634      1842.1634      1842.1634      6.2515032e+09  0.096152898   -10816697      -10816697       963.45861     -10815734      -115.79191     -115.44825     -115.15871      0.43462639     0.058431846    0.54294643     15568.208    
   3193000   323.53661      1.5965         0.011724033    0.011690662    0.011661927   -115.39312      1842.5182      1842.5182      1842.5182      6.255116e+09   0.096097361   -10810766      -10810766       963.43678     -10809803      -115.70721     -115.37787     -115.09428      0.44002318     0.059153848    0.52833618     15580.937    
   3194000   323.53671      1.597          0.011717083    0.011684468    0.011656022   -115.33045      1842.873       1842.873       1842.873       6.2587303e+09  0.096041867   -10804836      -10804836       963.43709     -10803873      -115.63862     -115.31673     -115.03599      0.44783862     0.066500845    0.51619319     15533.319    
   3195000   323.54102      1.5975         0.011709207    0.011677207    0.011649542   -115.25933      1843.2278      1843.2278      1843.2278      6.262346e+09   0.095986415   -10798907      -10798907       963.44991     -10797944      -115.56089     -115.24508     -114.97204      0.44692106     0.076683088    0.50114553     15534.076    
   3196000   323.56314      1.598          0.011699766    0.011668174    0.011641615   -115.17248      1843.5826      1843.5826      1843.5826      6.2659631e+09  0.095931007   -10792981      -10792981       963.51578     -10792017      -115.46771     -115.15592     -114.89381      0.43719214     0.085278558    0.48572688     15543.735    
   3197000   323.60136      1.5985         0.011690437    0.011660836    0.011634019   -115.09266      1843.9374      1843.9374      1843.9374      6.2695815e+09  0.095875641   -10787056      -10787056       963.62958     -10786092      -115.37564     -115.0835      -114.81884      0.43234678     0.093482128    0.48188448     15558.958    
   3198000   323.62166      1.599          0.011682508    0.011655362    0.011626908   -115.02518      1844.2923      1844.2923      1844.2923      6.2732014e+09  0.095820317   -10781133      -10781133       963.69003     -10780169      -115.29739     -115.02948     -114.74866      0.43688377     0.10156132     0.49539302     15508.913    
   3199000   323.58921      1.5995         0.011675204    0.011648459    0.011618109   -114.94949      1844.6471      1844.6471      1844.6471      6.2768226e+09  0.095765036   -10775211      -10775211       963.5934      -10774247      -115.22531     -114.96135     -114.66182      0.44911408     0.10645186     0.51834592     15573.676    
   3200000   323.50071      1.6            0.011666318    0.011638666    0.011606266   -114.84908      1845.0019      1845.0019      1845.0019      6.2804453e+09  0.095709798   -10769291      -10769291       963.32989     -10768328      -115.1376      -114.86471     -114.54494      0.46809629     0.10016381     0.53384693     15165.692    
   3201000   323.38989      1.6005         0.011655301    0.011626505    0.011591663   -114.72479      1845.3567      1845.3567      1845.3567      6.2840693e+09  0.095654602   -10763375      -10763375       962.99987     -10762412      -115.02888     -114.74469     -114.40082      0.48352591     0.083726842    0.53137114     15507.901    
   3202000   323.29517      1.601          0.011644033    0.011615878    0.01157662    -114.60328      1845.7115      1845.7115      1845.7115      6.2876947e+09  0.095599448   -10757463      -10757463       962.7178      -10756500      -114.91767     -114.6398      -114.25236      0.48502786     0.066237849    0.51438038     15498.914    
   3203000   323.24307      1.6015         0.011634743    0.011609223    0.011564495   -114.51093      1846.0663      1846.0663      1846.0663      6.2913215e+09  0.095544337   -10751554      -10751554       962.56266     -10750591      -114.82598     -114.57413     -114.13269      0.47229611     0.060790813    0.495721       15464.202    
   3204000   323.24088      1.602          0.011627982    0.011605683    0.011556813   -114.45177      1846.4211      1846.4211      1846.4211      6.2949497e+09  0.095489268   -10745646      -10745646       962.55613     -10744684      -114.75926     -114.53918     -114.05688      0.45588485     0.068972399    0.48402023     15443.845    
   3205000   323.29048      1.6025         0.011621121    0.011602289    0.011552703   -114.40452      1846.7759      1846.7759      1846.7759      6.2985793e+09  0.095434242   -10739739      -10739739       962.70385     -10738777      -114.69155     -114.50569     -114.01631      0.45210155     0.077605072    0.48718508     15423.501    
   3206000   323.38782      1.603          0.01161341     0.011596378    0.011549713   -114.34987      1847.1307      1847.1307      1847.1307      6.3022103e+09  0.095379258   -10733833      -10733833       962.99372     -10732870      -114.61544     -114.44735     -113.9868       0.46178183     0.077503406    0.50662914     15413.592    
   3207000   323.4984       1.6035         0.011607313    0.011587784    0.011546033   -114.28943      1847.4855      1847.4855      1847.4855      6.3058427e+09  0.095324316   -10727928      -10727928       963.32301     -10726964      -114.55527     -114.36254     -113.95049      0.47481011     0.067098117    0.53093859     15154.59     
   3208000   323.55233      1.604          0.011603182    0.011579088    0.011540322   -114.22845      1847.8403      1847.8403      1847.8403      6.3094765e+09  0.095269416   -10722023      -10722023       963.4836      -10721060      -114.5145      -114.27671     -113.89413      0.48517541     0.052311395    0.53711049     15451.007    
   3209000   323.53788      1.6045         0.01159748     0.011570486    0.011531057   -114.15091      1848.1951      1848.1951      1848.1951      6.3131117e+09  0.095214558   -10716120      -10716120       963.44057     -10715156      -114.45823     -114.19182     -113.80268      0.5018437      0.05045145     0.51416593     15329.796    
   3210000   323.51129      1.605          0.011587862    0.011561169    0.011520688   -114.05451      1848.55        1848.55        1848.55        6.3167483e+09  0.095159743   -10710219      -10710219       963.36136     -10709255      -114.3633      -114.09987     -113.70035      0.51764209     0.060456761    0.4805405      15501.356    
   3211000   323.51198      1.6055         0.011577497    0.011551356    0.011512562   -113.9614       1848.9048      1848.9048      1848.9048      6.3203863e+09  0.095104969   -10704321      -10704321       963.36343     -10703358      -114.26101     -114.00302     -113.62015      0.51602794     0.068593785    0.46427374     15429.653    
   3212000   323.52925      1.606          0.011569411    0.011541917    0.01150687    -113.88502      1849.2596      1849.2596      1849.2596      6.3240257e+09  0.095050238   -10698425      -10698425       963.41486     -10697462      -114.18121     -113.90987     -113.56398      0.50235882     0.066857355    0.46304283     15403.395    
   3213000   323.55205      1.6065         0.011563031    0.011531549    0.011500604   -113.80931      1849.6144      1849.6144      1849.6144      6.3276664e+09  0.094995548   -10692531      -10692531       963.48276     -10691567      -114.11825     -113.80754     -113.50213      0.49634559     0.061640169    0.46580502     15457.219    
   3214000   323.58464      1.607          0.01155707     0.011520346    0.011491679   -113.72348      1849.9692      1849.9692      1849.9692      6.3313086e+09  0.094940901   -10686639      -10686639       963.57981     -10685675      -114.05941     -113.69697     -113.41405      0.49720513     0.063860793    0.46551771     15482.639    
   3215000   323.615        1.6075         0.011550572    0.011511021    0.011482056   -113.63977      1850.324       1850.324       1850.324       6.3349522e+09  0.094886295   -10680749      -10680749       963.67022     -10679785      -113.99528     -113.60495     -113.31908      0.49494056     0.074054591    0.46385341     15481.71     
   3216000   323.61508      1.608          0.011543287    0.011504065    0.011475391   -113.571        1850.6788      1850.6788      1850.6788      6.3385972e+09  0.094831732   -10674861      -10674861       963.67044     -10673897      -113.92339     -113.5363      -113.25331      0.47999007     0.086027683    0.46551552     15369.709    
   3217000   323.55953      1.6085         0.011534612    0.01149705     0.011471093   -113.50524      1851.0336      1851.0336      1851.0336      6.3422435e+09  0.09477721    -10668973      -10668973       963.50503     -10668010      -113.83777     -113.46706     -113.21088      0.45458688     0.0944893      0.47820271     15436.159    
   3218000   323.47917      1.609          0.011523172    0.011487998    0.011465412   -113.41914      1851.3884      1851.3884      1851.3884      6.3458913e+09  0.09472273    -10663088      -10663088       963.26574     -10662124      -113.72487     -113.37772     -113.15482      0.4390068      0.099592077    0.49229502     15451.382    
   3219000   323.43169      1.6095         0.011511641    0.011480817    0.011456719   -113.32898      1851.7432      1851.7432      1851.7432      6.3495404e+09  0.094668291   -10657205      -10657205       963.12435     -10656242      -113.61107     -113.30685     -113.06903      0.45274287     0.10377304     0.48760826     15436.463    
   3220000   323.44367      1.61           0.011503673    0.011475545    0.011447345   -113.25459      1852.098       1852.098       1852.098       6.353191e+09   0.094613895   -10651324      -10651324       963.16002     -10650361      -113.53242     -113.25483     -112.97652      0.48117476     0.10483609     0.4652946      15354.25     
   3221000   323.4858       1.6105         0.011498279    0.011468514    0.011439884   -113.18917      1852.4528      1852.4528      1852.4528      6.356843e+09   0.09455954    -10645444      -10645444       963.28546     -10644481      -113.47919     -113.18543     -112.90288      0.5039355      0.096303032    0.44567298     15367.215    
   3222000   323.51987      1.611          0.011492445    0.011458618    0.011433982   -113.118        1852.8077      1852.8077      1852.8077      6.3604963e+09  0.094505226   -10639566      -10639566       963.38693     -10638603      -113.42161     -113.08777     -112.84463      0.51575474     0.074868289    0.44132699     15344.402    
   3223000   323.55008      1.6115         0.011485857    0.011447823    0.011427411   -113.0392       1853.1625      1853.1625      1853.1625      6.3641511e+09  0.094450955   -10633690      -10633690       963.47689     -10632726      -113.35659     -112.98123     -112.77977      0.51815688     0.052988748    0.4462579      15470.626    
   3224000   323.58513      1.612          0.011478139    0.011438441    0.0114187     -112.95429      1853.5173      1853.5173      1853.5173      6.3678072e+09  0.094396724   -10627815      -10627815       963.58125     -10626852      -113.28042     -112.88864     -112.69381      0.51586844     0.046411394    0.4515007      15534.69     
   3225000   323.61905      1.6125         0.011469215    0.011431569    0.011407726   -112.86622      1853.8721      1853.8721      1853.8721      6.3714648e+09  0.094342536   -10621943      -10621943       963.68227     -10620980      -113.19235     -112.82081     -112.5855       0.51195236     0.051277165    0.4565313      15561.976    
   3226000   323.64844      1.613          0.011461379    0.011426636    0.011396086   -112.78592      1854.2269      1854.2269      1854.2269      6.3751237e+09  0.094288388   -10616074      -10616074       963.7698      -10615110      -113.11501     -112.77213     -112.47063      0.5019638      0.059347802    0.46527599     15502.394    
   3227000   323.67201      1.6135         0.011454445    0.01142149     0.011385744   -112.71216      1854.5817      1854.5817      1854.5817      6.3787841e+09  0.094234283   -10610206      -10610206       963.83997     -10609242      -113.04659     -112.72134     -112.36856      0.48618153     0.07288312     0.47597327     15568.88     
   3228000   323.69129      1.614          0.011446447    0.011414162    0.011376663   -112.63187      1854.9365      1854.9365      1854.9365      6.3824459e+09  0.094180218   -10604340      -10604340       963.89738     -10603377      -112.96765     -112.64902     -112.27893      0.47916563     0.082590256    0.48867884     15529.327    
   3229000   323.71856      1.6145         0.011437582    0.01140486     0.011368797   -112.54623      1855.2913      1855.2913      1855.2913      6.386109e+09   0.094126195   -10598477      -10598477       963.9786      -10597513      -112.88016     -112.55722     -112.2013       0.49394978     0.084656778    0.49790895     15528.773    
   3230000   323.73952      1.615          0.011428708    0.01139637     0.011362544   -112.46853      1855.6461      1855.6461      1855.6461      6.3897736e+09  0.094072213   -10592616      -10592616       964.04101     -10591651      -112.79257     -112.47342     -112.13959      0.5191792      0.080912014    0.50653962     15546.533    
   3231000   323.71648      1.6155         0.0114193      0.01138981     0.011356433   -112.3959       1856.0009      1856.0009      1856.0009      6.3934395e+09  0.094018273   -10586756      -10586756       963.97239     -10585792      -112.69973     -112.40868     -112.07928      0.52772473     0.076825433    0.51279716     15417.154    
   3232000   323.64158      1.616          0.011408945    0.01138286     0.011349579   -112.31642      1856.3557      1856.3557      1856.3557      6.3971069e+09  0.093964374   -10580897      -10580897       963.74935     -10579933      -112.59753     -112.34009     -112.01164      0.51172529     0.073861482    0.50962038     15508.963    
   3233000   323.53696      1.6165         0.011398825    0.011374409    0.011341843   -112.22988      1856.7105      1856.7105      1856.7105      6.4007757e+09  0.093910516   -10575041      -10575041       963.43781     -10574077      -112.49766     -112.25669     -111.93529      0.48897154     0.072717414    0.50515025     15521.28     
   3234000   323.4189       1.617          0.011390641    0.011364883    0.011332983   -112.14247      1857.0653      1857.0653      1857.0653      6.4044459e+09  0.093856699   -10569186      -10569186       963.08626     -10568223      -112.41689     -112.16267     -111.84785      0.4766095      0.071753046    0.50082441     15507.801    
   3235000   323.32697      1.6175         0.011384426    0.011353421    0.011322232   -112.04895      1857.4202      1857.4202      1857.4202      6.4081174e+09  0.093802923   -10563334      -10563334       962.81252     -10562371      -112.35555     -112.04956     -111.74174      0.47430193     0.064221752    0.49938277     15508.749    
   3236000   323.28698      1.618          0.011379316    0.011341593    0.011310455   -111.95448      1857.775       1857.775       1857.775       6.4117904e+09  0.093749188   -10557485      -10557485       962.69343     -10556522      -112.30512     -111.93282     -111.62551      0.48335973     0.057481741    0.51238877     15577.955    
   3237000   323.28608      1.6185         0.011373056    0.011333416    0.011300671   -111.8748       1858.1298      1858.1298      1858.1298      6.4154648e+09  0.093695494   -10551638      -10551638       962.69075     -10550675      -112.24334     -111.85211     -111.52895      0.49740831     0.066587381    0.52589732     15518.065    
   3238000   323.29604      1.619          0.011364226    0.011327678    0.011293559   -111.80348      1858.4846      1858.4846      1858.4846      6.4191406e+09  0.093641842   -10545793      -10545793       962.7204      -10544830      -112.15619     -111.79549     -111.45876      0.51391233     0.084395032    0.51532494     15544.09     
   3239000   323.32889      1.6195         0.011352875    0.011321399    0.011285896   -111.72027      1858.8394      1858.8394      1858.8394      6.4228177e+09  0.09358823    -10539949      -10539949       962.81823     -10538987      -112.04416     -111.73352     -111.38313      0.52966575     0.09635074     0.48784056     15534.728    
   3240000   323.39516      1.62           0.011341316    0.011315281    0.011277317   -111.6339       1859.1942      1859.1942      1859.1942      6.4264963e+09  0.093534659   -10534109      -10534109       963.01556     -10533146      -111.93009     -111.67314     -111.29846      0.53416717     0.096659809    0.47042207     15512.214    
   3241000   323.46674      1.6205         0.011331567    0.011309719    0.011268917   -111.5559       1859.549       1859.549       1859.549       6.4301763e+09  0.093481129   -10528270      -10528270       963.2287      -10527307      -111.83388     -111.61825     -111.21556      0.52295015     0.086899041    0.46976363     15514.635    
   3242000   323.49834      1.621          0.011324332    0.011302546    0.011260192   -111.47979      1859.9038      1859.9038      1859.9038      6.4338577e+09  0.09342764    -10522433      -10522433       963.32281     -10521470      -111.76247     -111.54745     -111.12946      0.50610874     0.079453588    0.47870649     15498.031    
   3243000   323.48292      1.6215         0.011317619    0.011291694    0.011251343   -111.3929       1860.2586      1860.2586      1860.2586      6.4375405e+09  0.093374192   -10516599      -10516599       963.2769      -10515635      -111.69621     -111.44035     -111.04212      0.48656799     0.080858181    0.48869126     15508.59     
   3244000   323.46131      1.622          0.011309746    0.011279209    0.011243411   -111.29983      1860.6134      1860.6134      1860.6134      6.4412247e+09  0.093320784   -10510766      -10510766       963.21254     -10509803      -111.61851     -111.31714     -110.96384      0.45940784     0.077432803    0.4894924      15552.204    
   3245000   323.46044      1.6225         0.011303212    0.011269028    0.011238141   -111.22751      1860.9682      1860.9682      1860.9682      6.4449104e+09  0.093267417   -10504937      -10504937       963.20995     -10503973      -111.55403     -111.21666     -110.91183      0.44047644     0.066340643    0.4849391      15547.635    
   3246000   323.47977      1.623          0.01129777     0.011261388    0.011234835   -111.17359      1861.323       1861.323       1861.323       6.4485974e+09  0.093214091   -10499108      -10499108       963.26751     -10498145      -111.50032     -111.14126     -110.8792       0.44188871     0.057472271    0.47906248     15553.898    
   3247000   323.51704      1.6235         0.011290156    0.011254446    0.011230923   -111.11284      1861.6779      1861.6779      1861.6779      6.4522858e+09  0.093160806   -10493280      -10493280       963.37851     -10492316      -111.42518     -111.07274     -110.8406       0.4579258      0.059814506    0.47189286     15475.748    
   3248000   323.55101      1.624          0.011279995    0.011247226    0.011224787   -111.03548      1862.0327      1862.0327      1862.0327      6.4559756e+09  0.093107561   -10487453      -10487453       963.47966     -10486490      -111.3249      -111.00149     -110.78003      0.47454534     0.076398168    0.46865055     15498.727    
   3249000   323.55168      1.6245         0.01126908     0.011240578    0.011216265   -110.94966      1862.3875      1862.3875      1862.3875      6.4596669e+09  0.093054357   -10481629      -10481629       963.48166     -10480665      -111.21717     -110.93588     -110.69593      0.47701577     0.090803508    0.46970815     15366.866    
ERROR on proc 0: Pair distance > table outer cutoff: ijtype 2 1 dist 308.0000532192387 (src/pair_table_pgn.cpp:138)
Last command: run				${steps_tensile}
