LAMMPS (23 Jun 2022 - Update 1)
OMP_NUM_THREADS environment is not set. Defaulting to 1 thread. (src/comm.cpp:98)
  using 1 OpenMP thread(s) per MPI task
###

# Read restart info
read_restart ${read_res}
read_restart ./trial8/1090/equpmf70.res
Reading restart file ...
  restart file = 23 Jun 2022, LAMMPS = 23 Jun 2022
  restoring atom style atomic from restart
  orthogonal box = (1623.719 1623.719 1623.719) to (2376.281 2376.281 2376.281)
  1 by 2 by 2 MPI processor grid
  restoring pair style table from restart
  1000 atoms
  read_restart CPU = 0.028 seconds

# Settings
pair_style table/pgn spline 10941
pair_coeff 1 1 N20e.txt DE_GNP 308 72.9   # 1.35 * r
pair_coeff 2 2 N100e.txt DE_GNP 473.9 111.78
WARNING: 20 of 10941 force values in table DE_GNP are inconsistent with -dE/dr.
WARNING:  Should only be flagged at inflection points (src/pair_table_pgn.cpp:478)
pair_coeff 1 2 mixed_potentiale.txt DE_GNP 391.2 92.95
WARNING: 1564 of 10941 force values in table DE_GNP are inconsistent with -dE/dr.
WARNING:  Should only be flagged at inflection points (src/pair_table_pgn.cpp:478)

# Neighbor list
neighbor 2.0 bin
neigh_modify delay 0 every 1 check no once yes

# Temperature
variable T equal ${Temp}
variable T equal 300

# Deformation
reset_timestep 0
variable tmp equal "lx"
variable L0 equal ${tmp}
variable L0 equal 752.562060046813
variable strain equal "(lx - v_L0)/v_L0"
variable stp equal "step"
variable tmpe equal "temp"
variable p1 equal "v_strain"
variable p2 equal "-pxx*1.01325/10000"
variable p3 equal "-pyy*1.01325/10000"
variable p4 equal "-pzz*1.01325/10000"
variable p5 equal "lx"
variable p6 equal "ly"
variable p7 equal "lz"
variable p8 equal "press"
variable p9 equal "epair"
variable p10 equal "etotal"

# Thermo
thermo_style custom step temp v_p1 v_p2 v_p3 v_p4 press lx ly lz vol density epair pe ke etotal pxx pyy pzz pxy pxz pyz spcpu
thermo ${ts_save}
thermo 1000

# Dump
# dump 1 all custom 2000 ./${N20}${N100}/tensile/trajectory/trajectory_${usic}_${trial}_*.tensile.custom id type x y z ix iy iz
# dump_modify 1 sort id
dump 2 all cfg 50000 ./trial${trial}/${N20}${N100}/tensile/trajectory/dumpten.tens_${usic}_${trial}_*.cfg mass type xs ys zs fx fy fz
dump 2 all cfg 50000 ./trial8/${N20}${N100}/tensile/trajectory/dumpten.tens_${usic}_${trial}_*.cfg mass type xs ys zs fx fy fz
dump 2 all cfg 50000 ./trial8/10${N100}/tensile/trajectory/dumpten.tens_${usic}_${trial}_*.cfg mass type xs ys zs fx fy fz
dump 2 all cfg 50000 ./trial8/1090/tensile/trajectory/dumpten.tens_${usic}_${trial}_*.cfg mass type xs ys zs fx fy fz
dump 2 all cfg 50000 ./trial8/1090/tensile/trajectory/dumpten.tens_1_${trial}_*.cfg mass type xs ys zs fx fy fz
dump 2 all cfg 50000 ./trial8/1090/tensile/trajectory/dumpten.tens_1_8_*.cfg mass type xs ys zs fx fy fz
dump_modify 2 element N20 N100

fix 1 all nvt temp ${T} ${T} 100
fix 1 all nvt temp 300 ${T} 100
fix 1 all nvt temp 300 300 100
fix 2 all deform 1 x erate ${strain_rate} y erate ${strain_rate} z erate ${strain_rate} units box
fix 2 all deform 1 x erate 5e-6 y erate ${strain_rate} z erate ${strain_rate} units box
fix 2 all deform 1 x erate 5e-6 y erate 5e-6 z erate ${strain_rate} units box
fix 2 all deform 1 x erate 5e-6 y erate 5e-6 z erate 5e-6 units box
fix             def1 all print ${ts_save} "${p1} ${p2} ${p3} ${p4}" file ./tensile/${trial}/tensile${N20}${N100}_${usic}_${trial}.txt screen no
fix             def1 all print 1000 "${p1} ${p2} ${p3} ${p4}" file ./tensile/${trial}/tensile${N20}${N100}_${usic}_${trial}.txt screen no
fix             def1 all print 1000 "${p1} ${p2} ${p3} ${p4}" file ./tensile/8/tensile${N20}${N100}_${usic}_${trial}.txt screen no
fix             def1 all print 1000 "${p1} ${p2} ${p3} ${p4}" file ./tensile/8/tensile10${N100}_${usic}_${trial}.txt screen no
fix             def1 all print 1000 "${p1} ${p2} ${p3} ${p4}" file ./tensile/8/tensile1090_${usic}_${trial}.txt screen no
fix             def1 all print 1000 "${p1} ${p2} ${p3} ${p4}" file ./tensile/8/tensile1090_1_${trial}.txt screen no
fix             def1 all print 1000 "${p1} ${p2} ${p3} ${p4}" file ./tensile/8/tensile1090_1_8.txt screen no

timestep       		${ts}
timestep       		0.1
run				${steps_tensile}
run				6000000
Generated 0 of 1 mixed pair_coeff terms from geometric mixing rule
Unused restart file global fix info:
  fix style: npt, fix ID: 5
Neighbor list info ...
  update every 1 steps, delay 0 steps, check no
  max neighbors/atom: 2000, page size: 100000
  master list distance cutoff = 113.78
  ghost atom cutoff = 113.78
  binsize = 56.89, bins = 14 14 14
  1 neighbor lists, perpetual/occasional/extra = 1 0 0
  (1) pair table/pgn, perpetual
      attributes: half, newton on
      pair build: half/bin/atomonly/newton
      stencil: half/bin/3d
      bin: standard
Per MPI rank memory allocation (min/avg/max) = 3.84 | 3.84 | 3.84 Mbytes
   Step          Temp           v_p1           v_p2           v_p3           v_p4          Press            Lx             Ly             Lz           Volume        Density         E_pair         PotEng         KinEng         TotEng          Pxx            Pyy            Pzz            Pxy            Pxz            Pyz           S/CPU     
         0   305.03399     -6.0426558e-16  0.0034157384  -0.0053656001  -0.0024056778   14.328611      752.56206      752.56206      752.56206      4.2621326e+08  1.5663241     -52381223      -52381223       908.33913     -52380315      -33.710717      52.954356      23.742194     -6.0977073     -40.162009      52.060262      0            
      1000   345.68497      0.0005         0.011303948    0.0027189265   0.0056675256  -64.776381      752.93834      752.93834      752.93834      4.268529e+08   1.563977      -52381178      -52381178       1029.3908     -52380149      -111.5613      -26.833718     -55.934128     -5.7364691     -38.784932      51.099318      19345.977    
      2000   386.93084      0.001          0.018865773    0.010513455    0.013372616   -140.64263      753.31462      753.31462      753.31462      4.2749318e+08  1.5616346     -52380493      -52380493       1152.214      -52379341      -186.1907      -103.75974     -131.97746     -6.6369014     -37.709439      49.981344      20907.518    
      3000   413.97359      0.0015         0.02622342     0.018097745    0.020764831   -214.11628      753.6909       753.6909       753.6909       4.281341e+08   1.5592968     -52379169      -52379169       1232.7427     -52377937      -258.80504     -178.61086     -204.93295     -7.6366046     -36.818628      48.530708      20472.931    
      4000   427.68405      0.002          0.033593158    0.025555499    0.027997991   -286.69018      754.06718      754.06718      754.06718      4.2877566e+08  1.5569637     -52377203      -52377203       1273.5701     -52375929      -331.53869     -252.21316     -276.31868     -7.7151315     -35.539339      47.317428      21364.301    
      5000   430.96708      0.0025         0.040959176    0.032873009    0.035246956   -358.84248      754.44347      754.44347      754.44347      4.2941786e+08  1.5546352     -52374583      -52374583       1283.3464     -52373299      -404.23564     -324.43138     -347.86041     -7.242779      -34.037276      46.090762      21527.51     
      6000   427.77277      0.003          0.048083766    0.040032217    0.042504987   -429.70958      754.81975      754.81975      754.81975      4.300607e+08   1.5523114     -52371298      -52371298       1273.8342     -52370024      -474.54988     -395.08726     -419.49161     -6.6532818     -32.249143      44.768308      21884.939    
      7000   421.49537      0.0035         0.054909015    0.047066118    0.049706142   -498.9926       755.19603      755.19603      755.19603      4.3070418e+08  1.5499922     -52367352      -52367352       1255.1412     -52366097      -541.90984     -464.50647     -490.56148     -6.4160925     -30.88086       43.876291      21686.957    
      8000   414.23876      0.004          0.061667502    0.054068567    0.056775219   -567.51801      755.57231      755.57231      755.57231      4.3134831e+08  1.5476776     -52362757      -52362757       1233.5323     -52361524      -608.61093     -533.61527     -560.32784     -6.9160388     -30.711038      42.912009      21818.223    
      9000   406.99031      0.0045         0.068458078    0.061048667    0.063587848   -635.23182      755.94859      755.94859      755.94859      4.3199307e+08  1.5453677     -52357518      -52357518       1211.9476     -52356306      -675.6287      -602.5035      -627.56327     -7.3770072     -30.840373      41.921757      21476.892    
     10000   400.38082      0.005          0.07513353     0.067912175    0.070201257   -701.52796      756.32487      756.32487      756.32487      4.3263848e+08  1.5430623     -52351630      -52351630       1192.2657     -52350438      -741.51028     -670.24105     -692.83254     -7.0677491     -29.837501      40.949365      21993.664    
     11000   394.81835      0.0055         0.081636094    0.074587267    0.076754165   -766.43647      756.70115      756.70115      756.70115      4.3328453e+08  1.5407615     -52345107      -52345107       1175.7016     -52343932      -805.68561     -736.1191      -757.50472     -6.8177326     -27.867424      39.431724      21850.616    
     12000   390.17635      0.006          0.088001653    0.081088245    0.083277076   -830.2228       757.07743      757.07743      757.07743      4.3393122e+08  1.5384653     -52337975      -52337975       1161.8786     -52336813      -868.50879     -800.27876     -821.88084     -7.322584      -26.565864      37.996291      21652.11     
     13000   386.10633      0.0065         0.094207268    0.087394286    0.089643184   -892.32581      757.45371      757.45371      757.45371      4.3457856e+08  1.5361736     -52330248      -52330248       1149.7587     -52329098      -929.75345     -862.51454     -884.70944     -7.7588268     -25.81083       37.304285      22027.684    
     14000   382.53512      0.007          0.10022701     0.093572575    0.095698062   -952.37321      757.82999      757.82999      757.82999      4.3522654e+08  1.5338865     -52321931      -52321931       1139.1243     -52320792      -989.16368     -923.48951     -944.46644     -7.4438462     -24.334745      37.021062      21429.629    
     15000   379.47718      0.0075         0.1061114      0.099684981    0.10159549    -1011.2406      758.20628      758.20628      758.20628      4.3587516e+08  1.5316039     -52313031      -52313031       1130.0183     -52311901      -1047.2381     -983.81427     -1002.6695     -7.0801248     -22.582105      36.253855      22040.96     
     16000   377.10442      0.008          0.11190278     0.10566266     0.10747436    -1069.2978      758.58256      758.58256      758.58256      4.3652443e+08  1.5293259     -52303558      -52303558       1122.9526     -52302435      -1104.3945     -1042.8094     -1060.6895     -6.7326477     -21.643393      34.640921      21726.957    
     17000   375.61112      0.0085         0.11769782     0.11152451     0.11337512    -1127.058       758.95884      758.95884      758.95884      4.3717434e+08  1.5270524     -52293521      -52293521       1118.5058     -52292402      -1161.5872     -1100.6613     -1118.9255     -6.027608      -21.511383      33.069609      22022.975    
     18000   374.83058      0.009          0.12342459     0.11730017     0.1191931     -1184.0377      759.33512      759.33512      759.33512      4.378249e+08   1.5247834     -52282933      -52282933       1116.1815     -52281817      -1218.106      -1157.6627     -1176.3444     -5.8576534     -21.182219      32.009687      21247.337    
     19000   374.66887      0.0095         0.12894774     0.12285755     0.12470512    -1238.6229      759.7114       759.7114       759.7114       4.384761e+08   1.5225188     -52271815      -52271815       1115.6999     -52270699      -1272.6153     -1212.5097     -1230.7439     -6.2039141     -20.409822      31.099874      22115.797    
     20000   375.11422      0.01           0.13421666     0.12827366     0.13005523    -1291.3744      760.08768      760.08768      760.08768      4.3912795e+08  1.5202588     -52260183      -52260183       1117.0261     -52259066      -1324.6154     -1265.9626     -1283.5454     -6.3311563     -19.550079      30.172577      21431.946    
     21000   375.86004      0.0105         0.13944482     0.13373624     0.13546712    -1344.348       760.46396      760.46396      760.46396      4.3978044e+08  1.5180032     -52248041      -52248041       1119.247      -52246921      -1376.2134     -1319.8741     -1336.9565     -6.3027425     -18.597619      29.208486      22028.976    
     22000   376.64419      0.011          0.14468746     0.13918801     0.14083355    -1397.1841      760.84024      760.84024      760.84024      4.4043358e+08  1.5157521     -52235383      -52235383       1121.5821     -52234261      -1427.9543     -1373.6789     -1389.9191     -6.5186841     -17.62658       28.357228      21945.358    
     23000   377.57722      0.0115         0.14979453     0.14445486     0.14599013    -1448.2754      761.21652      761.21652      761.21652      4.4108737e+08  1.5135054     -52222218      -52222218       1124.3605     -52221093      -1478.3571     -1425.6586     -1440.8106     -6.5512745     -16.644228      27.719462      21780.742    
     24000   378.81337      0.012          0.15470102     0.14945476     0.1509034     -1497.0283      761.5928       761.5928       761.5928       4.417418e+08   1.5112632     -52208574      -52208574       1128.0415     -52207445      -1526.7803     -1475.0038     -1489.3007     -6.0498982     -15.868211      27.04575       22001.134    
     25000   380.35646      0.0125         0.15944813     0.15429329     0.1557237     -1544.4202      761.96909      761.96909      761.96909      4.4239688e+08  1.5090254     -52194467      -52194467       1132.6366     -52193335      -1573.6307     -1522.7564     -1536.8734     -5.1344926     -15.050818      26.244028      21520.036    
     26000   381.73269      0.013          0.16420143     0.15916489     0.16066049    -1592.3244      762.34537      762.34537      762.34537      4.4305261e+08  1.506792      -52179894      -52179894       1136.7348     -52178758      -1620.5421     -1570.8353     -1585.5958     -4.5191485     -14.037949      25.638482      21927.842    
     27000   382.78332      0.0135         0.16890537     0.16397688     0.16550029    -1639.5511      762.72165      762.72165      762.72165      4.4370898e+08  1.504563      -52164854      -52164854       1139.8634     -52163714      -1666.9663     -1618.326      -1633.3609     -5.2727153     -13.543638      25.095894      21652.912    
     28000   384.06504      0.014          0.17337846     0.16856665     0.17004875    -1684.3289      763.09793      763.09793      763.09793      4.44366e+08    1.5023384     -52149366      -52149366       1143.6801     -52148222      -1711.1123     -1663.6235     -1678.2507     -6.2658404     -13.798937      24.527534      21861.452    
     29000   385.62955      0.0145         0.17764316     0.17305605     0.17434562    -1727.2632      763.47421      763.47421      763.47421      4.4502367e+08  1.5001182     -52133449      -52133449       1148.339      -52132301      -1753.2016     -1707.9304     -1720.6574     -5.8308121     -13.612771      23.980941      21646.477    
     30000   387.43477      0.015          0.18189        0.17756502     0.17860737    -1770.0876      763.85049      763.85049      763.85049      4.4568199e+08  1.4979024     -52117107      -52117107       1153.7146     -52115953      -1795.1147     -1752.4305     -1762.7177     -5.0504822     -12.291898      23.209857      21863.76     
     31000   389.33048      0.0155         0.1861396      0.18198329     0.18303079    -1813.1546      764.22677      764.22677      764.22677      4.4634096e+08  1.4956909     -52100343      -52100343       1159.3597     -52099184      -1837.055      -1796.0355     -1806.3734     -4.8795193     -10.887818      22.004655      21805.19     
     32000   391.16712      0.016          0.19020901     0.18619645     0.18740391    -1854.7886      764.60305      764.60305      764.60305      4.4700058e+08  1.4934838     -52083163      -52083163       1164.8289     -52081998      -1877.217      -1837.6161     -1849.5328     -4.8586055     -10.232632      20.99947       22218.128    
     33000   392.91231      0.0165         0.19408779     0.19027971     0.1915326     -1894.564       764.97933      764.97933      764.97933      4.4766084e+08  1.491281      -52065581      -52065581       1170.0258     -52064411      -1915.4975     -1877.9147     -1890.2798     -5.1326453     -10.062507      20.821534      21952.46     
     34000   394.50744      0.017          0.197963       0.19431001     0.19542859    -1933.388       765.35562      765.35562      765.35562      4.4832176e+08  1.4890826     -52047609      -52047609       1174.7758     -52046435      -1953.7429     -1917.6907     -1928.7302     -5.4909663     -9.7027822      21.345877      21737.298    
     35000   395.97167      0.0175         0.2018297      0.19826569     0.1991736     -1971.4417      765.7319       765.7319       765.7319       4.4898333e+08  1.4868885     -52029258      -52029258       1179.136      -52028078      -1991.9043     -1956.7302     -1965.6906     -5.7025267     -9.1126321      21.231576      21881.064    
     36000   397.41319      0.018          0.20557772     0.20209606     0.20288754    -2008.5906      766.10818      766.10818      766.10818      4.4964554e+08  1.4846986     -52010533      -52010533       1183.4286     -52009349      -2028.8943     -1994.533      -2002.3444     -5.5183908     -8.2010914      19.752072      21622.372    
     37000   398.95636      0.0185         0.20916082     0.20579691     0.20660616    -2044.7862      766.48446      766.48446      766.48446      4.5030841e+08  1.4825131     -51991443      -51991443       1188.0239     -51990255      -2064.2568     -2031.0576     -2039.0443     -5.0697287     -7.3075306      18.692688      21940.152    
     38000   400.47343      0.019          0.2125757      0.20940438     0.21023138    -2079.814       766.86074      766.86074      766.86074      4.5097193e+08  1.4803319     -51971998      -51971998       1192.5415     -51970806      -2097.9591     -2066.6606     -2074.8224     -5.0375604     -6.9396456      18.70225       21588.986    
     39000   401.80336      0.0195         0.2158847      0.21294011     0.21370005    -2113.7425      767.23702      767.23702      767.23702      4.516361e+08   1.4781549     -51952204      -51952204       1196.5018     -51951008      -2130.6163     -2101.5555     -2109.0556     -5.5143103     -6.7974591      18.794721      21969.025    
     40000   403.00199      0.02           0.21924523     0.21638831     0.21707753    -2147.2525      767.6133       767.6133       767.6133       4.5230092e+08  1.4759822     -51932068      -51932068       1200.0711     -51930868      -2163.7822     -2135.5865     -2142.3886     -5.8346391     -6.3254795      17.969828      21484.701    
     41000   404.14902      0.0205         0.2225536      0.21969803     0.2203844     -2179.9031      767.98958      767.98958      767.98958      4.529664e+08   1.4738138     -51911596      -51911596       1203.4868     -51910393      -2196.4333     -2168.251      -2175.0249     -5.5822348     -5.5259362      17.039764      21534.43     
     42000   405.44465      0.021          0.22568923     0.22286345     0.22359084    -2211.1803      768.36586      768.36586      768.36586      4.5363253e+08  1.4716496     -51890794      -51890794       1207.3449     -51889587      -2227.3795     -2199.4912     -2206.6701     -4.9385735     -4.9818893      17.29902       21312.14     
     43000   406.83638      0.0215         0.22875166     0.22594826     0.22676577    -2241.8478      768.74214      768.74214      768.74214      4.5429931e+08  1.4694896     -51869675      -51869675       1211.4893     -51868464      -2257.6034     -2229.936      -2238.0042     -4.3461418     -4.7950244      17.548376      21619.36     
     44000   408.1018       0.022          0.2317451      0.22894786     0.22993583    -2271.9921      769.11843      769.11843      769.11843      4.5496674e+08  1.4673339     -51848257      -51848257       1215.2575     -51847042      -2287.1463     -2259.5397     -2269.2902     -4.013896      -4.7509652      17.32954       21448.076    
     45000   409.34735      0.0225         0.23462853     0.23194065     0.2329388     -2301.2023      769.49471      769.49471      769.49471      4.5563482e+08  1.4651824     -51826540      -51826540       1218.9665     -51825321      -2315.6035     -2289.0762     -2298.9272     -4.2860972     -4.5421365      17.233955      21620.434    
     46000   410.56955      0.023          0.23746895     0.23499742     0.23573859    -2329.8132      769.87099      769.87099      769.87099      4.5630356e+08  1.4630351     -51804515      -51804515       1222.606      -51803293      -2343.6363     -2319.2442     -2326.5589     -4.8976661     -4.0555348      16.643326      21746.943    
     47000   411.42643      0.0235         0.24028914     0.23801235     0.23849917    -2358.0908      770.24727      770.24727      770.24727      4.5697296e+08  1.460892      -51782189      -51782189       1225.1576     -51780964      -2371.4694     -2348.9993     -2353.8038     -4.9085038     -3.6319621      15.554393      21343.851    
     48000   411.94164      0.024          0.24300644     0.24075979     0.24128781    -2385.2423      770.62355      770.62355      770.62355      4.5764301e+08  1.458753      -51759576      -51759576       1226.6919     -51758349      -2398.2871     -2376.1143     -2381.3256     -4.315952      -2.9325294      14.831926      21730.347    
     49000   412.65722      0.0245         0.24553967     0.24326779     0.24388772    -2410.3797      770.99983      770.99983      770.99983      4.5831371e+08  1.4566183     -51736695      -51736695       1228.8227     -51735467      -2423.2882     -2400.8664     -2406.9847     -3.9460326     -1.6983783      15.185694      21438.213    
     50000   413.79507      0.025          0.24786727     0.24568721     0.24628145    -2433.871       771.37611      771.37611      771.37611      4.5898507e+08  1.4544877     -51713567      -51713567       1232.2111     -51712335      -2446.2597     -2424.7443     -2430.6089     -3.6557811     -0.61338806     15.679598      18536.854    
     51000   415.20071      0.0255         0.25012697     0.24803658     0.24861253    -2456.7023      771.75239      771.75239      771.75239      4.5965708e+08  1.4523612     -51690192      -51690192       1236.3968     -51688956      -2468.5612     -2447.9307     -2453.6149     -3.2790068     -0.66892837     15.650211      21160.618    
     52000   416.50102      0.026          0.25249052     0.25036242     0.25094718    -2479.8096      772.12867      772.12867      772.12867      4.6032975e+08  1.4502389     -51666567      -51666567       1240.2689     -51665327      -2491.8876     -2470.885      -2476.6561     -3.4625297     -1.1187903      15.095666      22020.074    
     53000   417.41105      0.0265         0.25483879     0.25270538     0.2532786     -2502.9123      772.50495      772.50495      772.50495      4.6100307e+08  1.4481208     -51642697      -51642697       1242.9788     -51641454      -2515.0633     -2494.0082     -2499.6655     -4.0580687     -0.32938265     14.192579      20884.465    
     54000   418.02107      0.027          0.25702854     0.25497428     0.25557483    -2525.1341      772.88124      772.88124      772.88124      4.6167705e+08  1.4460067     -51618591      -51618591       1244.7954     -51617346      -2536.6744     -2516.4005     -2522.3274     -4.967905       1.3395938      13.36399       22010.067    
     55000   418.59484      0.0275         0.25904654     0.25710963     0.25770063    -2545.7909      773.25752      773.25752      773.25752      4.6235169e+08  1.4438968     -51594258      -51594258       1246.5039     -51593011      -2556.5906     -2537.4748     -2543.3075     -5.8230486      2.2735746      12.816679      21621.307    
     56000   419.35032      0.028          0.26085733     0.25909779     0.25961311    -2564.5801      773.6338       773.6338       773.6338       4.6302699e+08  1.441791      -51569711      -51569711       1248.7536     -51568462      -2574.4617     -2557.0963     -2562.1822     -5.8193503      2.2391845      12.936305      21961.621    
     57000   420.22586      0.0285         0.26264362     0.26101531     0.2614696     -2582.872       774.01008      774.01008      774.01008      4.6370294e+08  1.4396892     -51544960      -51544960       1251.3609     -51543709      -2592.091      -2576.0209     -2580.5043     -5.1993293      1.8819879      13.658507      21609.053    
     58000   421.00899      0.029          0.26457756     0.26292224     0.26332004    -2601.595       774.38636      774.38636      774.38636      4.6437955e+08  1.4375916     -51520003      -51520003       1253.6929     -51518750      -2611.1775     -2594.8408     -2598.7667     -4.6135977      2.3171195      14.045618      21997.008    
     59000   421.62366      0.0295         0.26654079     0.26480202     0.26513149    -2620.1967      774.76264      774.76264      774.76264      4.6505681e+08  1.435498      -51494840      -51494840       1255.5233     -51493584      -2630.5531     -2613.3927     -2616.6443     -4.51177        3.2204987      13.594615      21663.875    
     60000   422.18043      0.03           0.26825142     0.26651451     0.26682326    -2637.0234      775.13892      775.13892      775.13892      4.6573474e+08  1.4334085     -51469483      -51469483       1257.1812     -51468226      -2647.4357     -2630.2937     -2633.3409     -4.8154627      3.4808899      12.493945      22041.921    
     61000   422.97192      0.0305         0.26968207     0.26804394     0.26839168    -2651.921       775.5152       775.5152       775.5152       4.6641332e+08  1.431323      -51443951      -51443951       1259.5382     -51442692      -2661.5551     -2645.388      -2648.82       -5.1995654      3.5609924      11.813718      21926.177    
     62000   423.66726      0.031          0.27104686     0.26954051     0.26990975    -2666.3282      775.89148      775.89148      775.89148      4.6709257e+08  1.4292416     -51418256      -51418256       1261.6088     -51416994      -2675.0246     -2660.158      -2663.8021     -5.5619085      3.9616557      11.96684       21831.631    
     63000   423.90033      0.0315         0.27249378     0.27102853     0.27134488    -2680.7046      776.26776      776.26776      776.26776      4.6777247e+08  1.4271642     -51392394      -51392394       1262.3028     -51391131      -2689.3045     -2674.8436     -2677.9658     -5.5408953      4.5936473      12.22554       21902.891    
     64000   423.89033      0.032          0.27403543     0.27250823     0.27273744    -2695.2253      776.64405      776.64405      776.64405      4.6845303e+08  1.4250908     -51366365      -51366365       1262.273      -51365103      -2704.5194     -2689.4472     -2691.7093     -5.48324        5.3459083      12.178529      21792.896    
     65000   423.88254      0.0325         0.27558847     0.27397127     0.27419078    -2709.9285      777.02033      777.02033      777.02033      4.6913425e+08  1.4230215     -51340171      -51340171       1262.2498     -51338908      -2719.8467     -2703.8863     -2706.0526     -5.5124532      6.1115452      11.934771      21998.175    
     66000   424.08944      0.033          0.27692316     0.27530282     0.27553504    -2723.122       777.39661      777.39661      777.39661      4.6981613e+08  1.4209562     -51313811      -51313811       1262.8659     -51312548      -2733.0191     -2717.0276     -2719.3194     -5.2350857      6.3485718      12.142415      21741.43     
     67000   424.70728      0.0335         0.27794545     0.27649989     0.27663566    -2734.0439      777.77289      777.77289      777.77289      4.7049867e+08  1.4188948     -51287310      -51287310       1264.7057     -51286045      -2743.1083     -2728.8417     -2730.1817     -4.9432202      6.3637542      12.775667      22120.985    
     68000   425.38051      0.034          0.27878504     0.27762986     0.27757135    -2743.6015      778.14917      778.14917      778.14917      4.7118187e+08  1.4168374     -51260692      -51260692       1266.7105     -51259425      -2751.3944     -2739.9937     -2739.4162     -5.0812552      6.9871569      12.359754      21612.585    
     69000   425.6419       0.0345         0.27962729     0.27868848     0.27842984    -2752.679       778.52545      778.52545      778.52545      4.7186574e+08  1.4147841     -51233957      -51233957       1267.4889     -51232689      -2759.7068     -2750.4414     -2747.8888     -5.3231592      7.5410218      10.803296      22097.529    
     70000   425.63377      0.035          0.28050836     0.27958886     0.27929791    -2761.3953      778.90173      778.90173      778.90173      4.7255026e+08  1.4127346     -51207100      -51207100       1267.4647     -51205832      -2768.4023     -2759.3275     -2756.456      -5.0906984      7.5615961      9.9763112      21829.659    
     71000   425.59313      0.0355         0.28144524     0.28044154     0.28024711    -2770.4051      779.27801      779.27801      779.27801      4.7323545e+08  1.4106892     -51180127      -51180127       1267.3437     -51178860      -2777.6485     -2767.7428     -2765.8239     -4.8875489      7.6771396      9.6897497      21853.287    
     72000   425.18134      0.036          0.28236231     0.2813111      0.28114783    -2779.2458      779.65429      779.65429      779.65429      4.739213e+08   1.4086477     -51153045      -51153045       1266.1174     -51151779      -2786.6993     -2776.3247     -2774.7134     -5.0486665      8.2370978      9.4176515      22037.73     
     73000   424.6255       0.0365         0.28314584     0.28215632     0.28193183    -2787.1831      780.03058      780.03058      780.03058      4.7460781e+08  1.4066101     -51125854      -51125854       1264.4622     -51124589      -2794.4322     -2784.6663     -2782.4509     -5.4309865      9.1343984      9.6338441      21660.352    
     74000   424.55858      0.037          0.28373062     0.2829259      0.28264105    -2793.9718      780.40686      780.40686      780.40686      4.7529498e+08  1.4045764     -51098565      -51098565       1264.263      -51097301      -2800.2035     -2792.2615     -2789.4503     -5.2612184      9.7303982      10.131247      22121.614    
     75000   424.99752      0.0375         0.28414726     0.2835838      0.28319129    -2799.3169      780.78314      780.78314      780.78314      4.7598282e+08  1.4025467     -51071191      -51071191       1265.5701     -51069926      -2804.3155     -2798.7545     -2794.8807     -5.0214608      9.6828316      9.9441187      21663.831    
     76000   425.28944      0.038          0.28450184     0.28412439     0.28358763    -2803.5656      781.15942      781.15942      781.15942      4.7667132e+08  1.4005209     -51043740      -51043740       1266.4393     -51042474      -2807.8148     -2804.0897     -2798.7923     -5.0951767      9.9039613      9.0532678      22002.935    
     77000   425.29991      0.0385         0.28481939     0.28451992     0.28391768    -2806.9972      781.5357       781.5357       781.5357       4.7736048e+08  1.3984989     -51016227      -51016227       1266.4705     -51014960      -2810.9488     -2807.9932     -2802.0496     -5.0462986      10.714884      8.3855103      21622.128    
     78000   425.16309      0.039          0.28518369     0.28484756     0.28425824    -2810.3939      781.91198      781.91198      781.91198      4.7805031e+08  1.3964809     -50988658      -50988658       1266.0631     -50987392      -2814.5442     -2811.2269     -2805.4107     -4.6825823      11.436452      8.0968573      22034.45     
     79000   424.77905      0.0395         0.28554356     0.28520942     0.284596      -2813.8794      782.28826      782.28826      782.28826      4.787408e+08   1.3944667     -50961030      -50961030       1264.9195     -50959765      -2818.0958     -2814.7982     -2808.7442     -4.287422       11.685395      7.5364888      21649.053    
     80000   424.1357       0.04           0.28577998     0.28563367     0.28488923    -2817.0174      782.66454      782.66454      782.66454      4.7943196e+08  1.3924565     -50933335      -50933335       1263.0037     -50932072      -2820.4291     -2818.9852     -2811.6381     -3.9802321      11.804331      7.0877452      21992.627    
     81000   423.65999      0.0405         0.28580478     0.28596148     0.28510568    -2818.8895      783.04082      783.04082      783.04082      4.8012378e+08  1.39045       -50905586      -50905586       1261.5871     -50904325      -2820.6739     -2822.2204     -2813.7743     -3.8002566      12.067434      6.9359521      21809.465    
     82000   423.76787      0.041          0.2857355      0.28605665     0.28515708    -2819.1438      783.4171       783.4171       783.4171       4.8081626e+08  1.3884475     -50877808      -50877808       1261.9083     -50876546      -2819.9902     -2823.1597     -2814.2816     -3.472296       12.366799      6.8222326      21933.054    
     83000   423.96681      0.0415         0.2857778      0.28609497     0.28512156    -2819.2921      783.79339      783.79339      783.79339      4.8150941e+08  1.3864487     -50850002      -50850002       1262.5008     -50848739      -2820.4076     -2823.5378     -2813.931      -3.4965259      12.604954      6.5557675      21738.465    
     84000   423.57749      0.042          0.28589976     0.28610067     0.28511819    -2819.701       784.16967      784.16967      784.16967      4.8220323e+08  1.3844539     -50822163      -50822163       1261.3414     -50820902      -2821.6113     -2823.594      -2813.8977     -3.7734245      12.783061      6.0790445      21984.073    
     85000   422.82174      0.0425         0.28587633     0.28597799     0.28501812    -2818.8911      784.54595      784.54595      784.54595      4.8289772e+08  1.3824628     -50794303      -50794303       1259.0909     -50793044      -2821.38       -2822.3834     -2812.9101     -4.1259806      12.893948      5.90579        22086.33     
     86000   422.10093      0.043          0.28560772     0.28572268     0.28471266    -2816.1627      784.92223      784.92223      784.92223      4.8359287e+08  1.3804755     -50766433      -50766433       1256.9445     -50765176      -2818.729      -2819.8636     -2809.8955     -4.1237639      13.075579      5.9139633      21783.94     
     87000   421.42651      0.0435         0.28518676     0.28547466     0.28438005    -2812.8677      785.29851      785.29851      785.29851      4.8428868e+08  1.3784921     -50738557      -50738557       1254.9362     -50737303      -2814.5744     -2817.4159     -2806.6128     -3.5416874      13.298374      5.5007342      22019.394    
     88000   420.75919      0.044          0.28472984     0.28527022     0.2841902     -2810.0675      785.67479      785.67479      785.67479      4.8498517e+08  1.3765125     -50710685      -50710685       1252.949      -50709432      -2810.065      -2815.3982     -2804.7392     -2.811844       13.650482      4.6676955      21690.895    
     89000   420.21953      0.0445         0.28427454     0.28496016     0.2839927     -2806.8999      786.05107      786.05107      786.05107      4.8568232e+08  1.3745366     -50682818      -50682818       1251.342      -50681566      -2805.5716     -2812.3381     -2802.79       -1.8740423      13.799773      3.9512852      21855.988    
     90000   419.84092      0.045          0.28384375     0.28451247     0.28356923    -2802.6168      786.42735      786.42735      786.42735      4.8638014e+08  1.3725645     -50654956      -50654956       1250.2146     -50653706      -2801.32       -2807.9198     -2798.6107     -0.53234386     13.18704       4.1615081      21582.552    
     91000   419.3509       0.0455         0.28341235     0.28399274     0.28294717    -2797.4414      786.80363      786.80363      786.80363      4.8707862e+08  1.3705962     -50627118      -50627118       1248.7554     -50625869      -2797.0625     -2802.7904     -2792.4714     -0.057721985    12.31616       4.6390643      21972.127    
     92000   418.5457       0.046          0.28294171     0.28339379     0.28223489    -2791.5795      787.17991      787.17991      787.17991      4.8777778e+08  1.3686317     -50599313      -50599313       1246.3576     -50598067      -2792.4176     -2796.8792     -2785.4418     -0.767503       12.240362      4.5771622      21662.486    
     93000   417.67035      0.0465         0.28238507     0.28282418     0.2815912     -2785.7569      787.5562       787.5562       787.5562       4.884776e+08   1.3666709     -50571538      -50571538       1243.751      -50570295      -2786.924      -2791.2577     -2779.0891     -1.2822815      12.964311      4.1113767      22021.328    
     94000   417.00253      0.047          0.28166827     0.28221645     0.28099799    -2779.448       787.93248      787.93248      787.93248      4.891781e+08   1.3647138     -50543795      -50543795       1241.7623     -50542553      -2779.8497     -2785.2598     -2773.2345     -1.0514075      13.254358      3.4214197      21722.293    
     95000   416.631        0.0475         0.28077449     0.28154436     0.28027985    -2771.9342      788.30876      788.30876      788.30876      4.8987926e+08  1.3627605     -50516090      -50516090       1240.656      -50514850      -2771.0288     -2778.6268     -2766.147      -0.78490966     13.091285      2.7434211      21887.866    
     96000   416.1545       0.048          0.2798837      0.28083659     0.27951154    -2764.1478      788.68504      788.68504      788.68504      4.9058109e+08  1.3608109     -50488439      -50488439       1239.237      -50487199      -2762.2374     -2771.6416     -2758.5644     -0.7854251      12.89081       2.4033023      21987.147    
     97000   415.19         0.0485         0.27903721     0.28005804     0.27875601    -2756.3163      789.06132      789.06132      789.06132      4.912836e+08   1.3588651     -50460847      -50460847       1236.3649     -50459611      -2753.8831     -2763.9579     -2751.1079     -0.91203293     12.566175      2.6202931      21488.611    
     98000   414.03928      0.049          0.27819254     0.27916692     0.27792832    -2747.8831      789.4376       789.4376       789.4376       4.9198677e+08  1.3569229     -50433311      -50433311       1232.9383     -50432078      -2745.5469     -2755.1632     -2742.9393     -0.41230072     12.117212      3.0317233      21722.938    
     99000   413.15088      0.0495         0.27732249     0.27823426     0.27695904    -2738.764       789.81388      789.81388      789.81388      4.9269061e+08  1.3549845     -50405828      -50405828       1230.2928     -50404597      -2736.9602     -2745.9586     -2733.3732      0.53809348     11.411692      3.3185679      21410.492    
    100000   412.49496      0.05           0.27633706     0.27735168     0.2758982     -2729.1288      790.19016      790.19016      790.19016      4.9339513e+08  1.3530497     -50378410      -50378410       1228.3396     -50377181      -2727.2347     -2737.2483     -2722.9035      0.97171444     10.800054      3.0551454      20935.251    
    101000   411.6972       0.0505         0.27522801     0.27641721     0.27487343    -2719.035       790.56644      790.56644      790.56644      4.9410031e+08  1.3511186     -50351067      -50351067       1225.9639     -50349841      -2716.2893     -2728.0258     -2712.7899      0.97008217     10.666026      2.5613583      18495.389    
    102000   410.67375      0.051          0.27411565     0.27536621     0.27382742    -2708.4769      790.94273      790.94273      790.94273      4.9480617e+08  1.3491912     -50323800      -50323800       1222.9163     -50322577      -2705.3111     -2717.6532     -2702.4665      0.8130781      10.936747      1.9153968      20144.861    
    103000   409.74521      0.0515         0.27300073     0.27428102     0.2727001     -2697.5305      791.31901      791.31901      791.31901      4.955127e+08   1.3472674     -50296618      -50296618       1220.1513     -50295398      -2694.3077     -2706.9432     -2691.3407      0.96695461     11.17396       1.5098297      21047.646    
    104000   408.94348      0.052          0.27180179     0.27317561     0.27151322    -2686.0453      791.69529      791.69529      791.69529      4.962199e+08   1.3453473     -50269523      -50269523       1217.7638     -50268305      -2682.4751     -2696.0337     -2679.6271      1.4933992      10.979763      1.4131174      21616.527    
    105000   407.8974       0.0525         0.27047695     0.27195486     0.27026064    -2673.5503      792.07157      792.07157      792.07157      4.9692778e+08  1.3434309     -50242517      -50242517       1214.6488     -50241302      -2669.4        -2683.9858     -2667.2652      1.8797767      10.622566      1.590304       21073.786    
    106000   406.44032      0.053          0.26906159     0.27067502     0.26903642    -2660.6564      792.44785      792.44785      792.44785      4.9763632e+08  1.3415181     -50215608      -50215608       1210.3099     -50214397      -2655.4315     -2671.3547     -2655.183       1.9253246      10.637141      1.7664499      21587.966    
    107000   405.06443      0.0535         0.26773908     0.26939177     0.26783831    -2648.1427      792.82413      792.82413      792.82413      4.9834554e+08  1.3396089     -50188806      -50188806       1206.2127     -50187600      -2642.3793     -2658.6901     -2643.3586      1.9848741      10.861237      1.9547629      21157.284    
    108000   404.1752       0.054          0.26659599     0.26809749     0.26661148    -2636.0884      793.20041      793.20041      793.20041      4.9905544e+08  1.3377033     -50162106      -50162106       1203.5647     -50160903      -2631.0978     -2645.9165     -2631.2507      2.0906771      10.305291      1.6860863      21563.336    
    109000   403.43964      0.0545         0.26538724     0.26675607     0.26528983    -2623.351       793.57669      793.57669      793.57669      4.9976601e+08  1.3358014     -50135507      -50135507       1201.3744     -50134306      -2619.1684     -2632.6777     -2618.207       2.2568265      8.6105969      0.65452115     21256.063    
    110000   402.72879      0.055          0.26383464     0.26531209     0.26382027    -2608.6586      793.95297      793.95297      793.95297      5.0047725e+08  1.333903      -50109021      -50109021       1199.2576     -50107822      -2603.8455     -2618.4267     -2603.7036      2.57316        7.7385213      0.059775213    21626.461    
    111000   401.79708      0.0555         0.26216445     0.26386472     0.26238701    -2593.6876      794.32925      794.32925      794.32925      5.0118916e+08  1.3320083     -50082657      -50082657       1196.4831     -50081460      -2587.3619     -2604.1423     -2589.5585      2.6100036      8.5752121      0.65173269     21452.758    
    112000   400.26009      0.056          0.26066543     0.26252657     0.26108448    -2580.069       794.70554      794.70554      794.70554      5.0190175e+08  1.3301171     -50056408      -50056408       1191.9062     -50055216      -2572.5678     -2590.9358     -2576.7035      2.5140801      9.8479735      1.4660368      21680.284    
    113000   398.61662      0.0565         0.25924278     0.26115637     0.25969112    -2566.2975      795.08182      795.08182      795.08182      5.0261502e+08  1.3282295     -50030276      -50030276       1187.0122     -50029089      -2558.5274     -2577.413      -2562.9521      2.4326447      9.8829085      1.4031646      21583.059    
    114000   397.46953      0.057          0.25765946     0.25962339     0.25809327    -2550.7891      795.4581       795.4581       795.4581       5.0332896e+08  1.3263455     -50004272      -50004272       1183.5964     -50003088      -2542.9011     -2562.2837     -2547.1826      2.2710533      9.1399412      0.75040905     21136.896    
    115000   396.65679      0.0575         0.25597165     0.2580516      0.25645374    -2534.6722      795.83438      795.83438      795.83438      5.0404358e+08  1.3244651     -49978405      -49978405       1181.1762     -49977223      -2526.2438     -2546.7713     -2531.0016      2.1295195      8.9418139      0.23098996     21418.204    
    116000   395.81344      0.058          0.25433746     0.2565394      0.2549238     -2519.2883      796.21066      796.21066      796.21066      5.0475887e+08  1.3225882     -49952671      -49952671       1178.6648     -49951492      -2510.1156     -2531.847      -2515.9023      2.1404162      8.6118599     -0.083020358    21472.146    
    117000   394.62651      0.0585         0.25290348     0.25511955     0.25344699    -2505.0416      796.58694      796.58694      796.58694      5.0547484e+08  1.3207148     -49927056      -49927056       1175.1304     -49925881      -2495.9633     -2517.8342     -2501.3273      2.0639348      8.0316627     -0.26482028     21480.698    
    118000   393.14473      0.059          0.25155798     0.25365033     0.25191181    -2490.7315      796.96322      796.96322      796.96322      5.0619149e+08  1.318845      -49901557      -49901557       1170.7179     -49900386      -2482.6842     -2503.3341     -2486.1763      2.0667867      7.6454822     -0.029241276    21434.92     
    119000   391.694        0.0595         0.24996205     0.25196545     0.25031038    -2474.6702      797.3395       797.3395       797.3395       5.0690881e+08  1.3169787     -49876198      -49876198       1166.3979     -49875032      -2466.9336     -2486.7057     -2470.3714      2.3223818      7.4044937      0.21752969     21327.027    
    120000   390.37567      0.06           0.24809628     0.25006459     0.24868619    -2456.9358      797.71578      797.71578      797.71578      5.0762682e+08  1.315116      -49850995      -49850995       1162.4721     -49849833      -2448.5199     -2467.9456     -2454.3418      2.3943677      7.7411802      0.073598863    21352.544    
    121000   388.88043      0.0605         0.24625609     0.2482688      0.24698601    -2439.3812      798.09206      798.09206      798.09206      5.0834549e+08  1.3132567     -49825940      -49825940       1158.0195     -49824782      -2430.3587     -2450.2225     -2437.5624      2.2551272      8.4612242     -0.29193747     21417.431    
    122000   387.20901      0.061          0.24455859     0.24673465     0.24520559    -2422.8928      798.46835      798.46835      798.46835      5.0906485e+08  1.3114009     -49801025      -49801025       1153.0423     -49799872      -2413.6057     -2435.0817     -2419.991       1.9507966      8.6628421     -0.61519732     21061.172    
    123000   385.71968      0.0615         0.24298964     0.24523898     0.24355546    -2407.3824      798.84463      798.84463      798.84463      5.0978489e+08  1.3095487     -49776249      -49776249       1148.6073     -49775101      -2398.1213     -2420.3205     -2403.7055      1.5467011      8.2190914     -0.7600452      21190.495    
    124000   384.4813       0.062          0.24145448     0.24360427     0.24203727    -2391.96        799.22091      799.22091      799.22091      5.105056e+08   1.3076999     -49751615      -49751615       1144.9196     -49750470      -2382.9705     -2404.1873     -2388.7221      1.3444643      7.6037674     -1.366332       21089.783    
    125000   383.52583      0.0625         0.23980602     0.24178777     0.24039765    -2375.1671      799.59719      799.59719      799.59719      5.1122699e+08  1.3058546     -49727127      -49727127       1142.0744     -49725985      -2366.7014     -2386.2597     -2372.5403      1.5944693      7.0761061     -2.2408295      21441.984    
    126000   382.55608      0.063          0.23803555     0.239874       0.23857174    -2357.0402      799.97347      799.97347      799.97347      5.1194906e+08  1.3040128     -49702796      -49702796       1139.1867     -49701656      -2349.2282     -2367.3723     -2354.52        1.6762032      6.8376767     -2.4698618      21071.259    
    127000   381.28009      0.0635         0.23623236     0.23798301     0.23670436    -2338.7441      800.34975      800.34975      800.34975      5.1267182e+08  1.3021744     -49678620      -49678620       1135.387      -49677485      -2331.4322     -2348.7097     -2336.0904      0.805669       6.9461563     -2.7327577      21315.255    
    128000   379.77201      0.064          0.23448731     0.23629397     0.23492916    -2321.6068      800.72603      800.72603      800.72603      5.1339525e+08  1.3003395     -49654596      -49654596       1130.8962     -49653466      -2314.2098     -2332.0401     -2318.5706      0.047130224    6.9711302     -3.3522857      21293.696    
    129000   378.25649      0.0645         0.23280776     0.23476188     0.23322965    -2305.4504      801.10231      801.10231      801.10231      5.1411936e+08  1.298508      -49630722      -49630722       1126.3832     -49629596      -2297.6339     -2316.9196     -2301.7977      0.48841911     7.0158798     -3.5848618      20798.947    
    130000   376.93513      0.065          0.23116199     0.23314063     0.23149644    -2289.0009      801.47859      801.47859      801.47859      5.1484415e+08  1.29668       -49607001      -49607001       1122.4485     -49605879      -2281.3915     -2300.9191     -2284.6922      1.3797551      6.9251347     -3.3621938      21149.926    
    131000   375.88931      0.0655         0.2295159      0.23132307     0.22970357    -2271.7083      801.85487      801.85487      801.85487      5.1556962e+08  1.2948554     -49583437      -49583437       1119.3342     -49582318      -2265.1458     -2282.9812     -2266.9979      1.4605078      6.2819808     -3.3351322      21151.914    
    132000   374.86849      0.066          0.22783455     0.22945135     0.2279658     -2254.3028      802.23116      802.23116      802.23116      5.1629578e+08  1.2930342     -49560027      -49560027       1116.2943     -49558911      -2248.5522     -2264.5088     -2249.8476      0.15131706     5.9508951     -4.2324661      21216.552    
    133000   373.52266      0.0665         0.22611767     0.22770691     0.2263658     -2237.6524      802.60744      802.60744      802.60744      5.1702261e+08  1.2912165     -49536764      -49536764       1112.2867     -49535652      -2231.6079     -2247.2924     -2234.0568     -1.3753219      6.2017322     -5.4800913      21046.746    
    134000   371.93072      0.067          0.22443915     0.22608369     0.22479036    -2221.6077      802.98372      802.98372      802.98372      5.1775013e+08  1.2894021     -49513644      -49513644       1107.5462     -49512536      -2215.0422     -2231.2726     -2218.5084     -1.7133409      6.3684345     -6.235908       21316.316    
    135000   370.48181      0.0675         0.22281782     0.22444431     0.22307997    -2205.2541      803.36         803.36         803.36         5.1847833e+08  1.2875912     -49490671      -49490671       1103.2316     -49489568      -2199.0409     -2215.0931     -2201.6281     -0.53084818     5.9695761     -6.567557       20880.265    
    136000   369.33133      0.068          0.22128205     0.22272474     0.22128391    -2188.6362      803.73628      803.73628      803.73628      5.1920721e+08  1.2857836     -49467850      -49467850       1099.8056     -49466750      -2183.884      -2198.1223     -2183.9024      0.78136936     5.06492       -6.9881832      21275.911    
    137000   368.33443      0.0685         0.21977865     0.22091422     0.21955815    -2172.057       804.11256      804.11256      804.11256      5.1993678e+08  1.2839794     -49445181      -49445181       1096.837      -49444084      -2169.0466     -2180.2538     -2166.8705      0.65162927     4.4888016     -6.8681988      21002.336    
    138000   367.23749      0.069          0.21825237     0.21911796     0.21794586    -2155.8227      804.48884      804.48884      804.48884      5.2066703e+08  1.2821786     -49422658      -49422658       1093.5705     -49421564      -2153.9834     -2162.5261     -2150.9584     -1.1981405      4.7748284     -6.7235996      21000.65     
    139000   366.0601       0.0695         0.21666092     0.21748423     0.21636167    -2140.0011      804.86512      804.86512      804.86512      5.2139796e+08  1.2803812     -49400280      -49400280       1090.0645     -49399190      -2138.277      -2146.4025     -2135.3237     -2.9285205      5.3108371     -7.4398367      21171.419    
    140000   364.89656      0.07           0.21501519     0.21594369     0.21473477    -2124.1669      805.2414       805.2414       805.2414       5.2212957e+08  1.2785871     -49378048      -49378048       1086.5996     -49376962      -2122.0349     -2131.1985     -2119.2674     -3.1020804      5.3231776     -8.5727613      21267.075    
    141000   363.74115      0.0705         0.21341443     0.2143741      0.213134      -2108.4712      805.61769      805.61769      805.61769      5.2286187e+08  1.2767963     -49355953      -49355953       1083.159      -49354870      -2106.2367     -2115.7078     -2103.4691     -1.8875798      4.5858652     -9.3620013      21111.371    
    142000   362.44265      0.071          0.21196617     0.21281353     0.21167432    -2093.771       805.99397      805.99397      805.99397      5.2359486e+08  1.2750089     -49333989      -49333989       1079.2923     -49332910      -2091.9435     -2100.3063     -2089.0631     -0.7110765      4.0985541     -9.3580694      21227.408    
    143000   361.01613      0.0715         0.21060623     0.21130371     0.2101799     -2079.4139      806.37025      806.37025      806.37025      5.2432853e+08  1.2732249     -49312155      -49312155       1075.0444     -49311080      -2078.5218     -2085.4055     -2074.3144     -0.91524511     3.6493059     -9.2978258      21213.118    
    144000   359.78646      0.072          0.20920546     0.20979378     0.20851183    -2064.3509      806.74653      806.74653      806.74653      5.2506288e+08  1.2714441     -49290459      -49290459       1071.3826     -49289388      -2064.6973     -2070.5037     -2057.8517     -1.4318521      2.9959081     -10.259046      20930.292    
    145000   358.8244       0.0725         0.20770365     0.20829267     0.20687788    -2049.0968      807.12281      807.12281      807.12281      5.2579792e+08  1.2696667     -49268905      -49268905       1068.5178     -49267837      -2049.8757     -2055.6888     -2041.7259     -1.5616428      2.572848      -11.665395      20985.51     
    146000   357.67822      0.073          0.20620078     0.20681134     0.2054292     -2034.5138      807.49909      807.49909      807.49909      5.2653364e+08  1.2678926     -49247486      -49247486       1065.1047     -49246421      -2035.0434     -2041.0693     -2027.4286     -1.6531733      2.6824632     -11.822005      21364.702    
    147000   356.37887      0.0735         0.20474741     0.20526556     0.20402812    -2020.0381      807.87537      807.87537      807.87537      5.2727005e+08  1.2661218     -49226192      -49226192       1061.2354     -49225130      -2020.6999     -2025.8135     -2013.6009     -1.6464459      2.9233561     -10.497849      21520.059    
    148000   355.14122      0.074          0.20334969     0.20375624     0.20263375    -2005.8876      808.25165      808.25165      808.25165      5.2800715e+08  1.2643543     -49205018      -49205018       1057.5499     -49203960      -2006.9054     -2010.9177     -1999.8396     -1.4519466      2.8733307     -9.6594968      21456.979    
    149000   353.99758      0.0745         0.20202784     0.20239777     0.20126218    -1992.5579      808.62793      808.62793      808.62793      5.2874493e+08  1.2625901     -49183969      -49183969       1054.1443     -49182915      -1993.8598     -1997.5107     -1986.3033     -1.3543785      2.9586233     -9.8684641      21370.87     
    150000   352.97934      0.075          0.20070734     0.20110595     0.19986039    -1979.3525      809.00421      809.00421      809.00421      5.294834e+08   1.2608292     -49163047      -49163047       1051.1122     -49161996      -1980.8275     -1984.7614     -1972.4687     -1.8206379      3.3018716     -10.299497      19141.925    
    151000   351.97952      0.0755         0.1993509      0.19978208     0.19847436    -1965.9753      809.3805       809.3805       809.3805       5.3022256e+08  1.2590715     -49142245      -49142245       1048.1349     -49141197      -1967.4404     -1971.6958     -1958.7897     -2.6508634      3.2921205     -10.600796      21563.206    
    152000   350.75971      0.076          0.19808352     0.19844617     0.1971808     -1953.1556      809.75678      809.75678      809.75678      5.3096241e+08  1.2573171     -49121557      -49121557       1044.5025     -49120513      -1954.9323     -1958.5114     -1946.0232     -2.5230127      2.6809417     -10.687256      21477.201    
    153000   349.27657      0.0765         0.19691171     0.19711296     0.19591164    -1940.7396      810.13306      810.13306      810.13306      5.3170294e+08  1.255566      -49100980      -49100980       1040.086      -49099940      -1943.3675     -1945.3536     -1933.4976     -1.5996304      2.0880973     -10.403749      21185.594    
    154000   347.93937      0.077          0.19572672     0.19578254     0.19459347    -1928.1281      810.50934      810.50934      810.50934      5.3244416e+08  1.2538181     -49080504      -49080504       1036.104      -49079468      -1931.6726     -1932.2234     -1920.4883     -1.0595963      1.9489208     -9.3298396      21209.982    
    155000   346.99951      0.0775         0.1945576      0.19452757     0.19329354    -1915.877       810.88562      810.88562      810.88562      5.3318607e+08  1.2520734     -49060134      -49060134       1033.3053     -49059101      -1920.1342     -1919.8378     -1907.6589     -1.2673993      1.9350315     -8.3835808      21343.975    
    156000   346.22445      0.078          0.19349331     0.19341656     0.19209587    -1904.7808      811.2619       811.2619       811.2619       5.3392867e+08  1.250332      -49039875      -49039875       1030.9973     -49038844      -1909.6305     -1908.873      -1895.8388     -1.6721688      2.0850031     -8.7362854      21045.865    
    157000   345.26706      0.0785         0.19247246     0.19235009     0.19105197    -1894.4799      811.63818      811.63818      811.63818      5.3467196e+08  1.2485939     -49019716      -49019716       1028.1463     -49018688      -1899.5555     -1898.3478     -1885.5363     -1.5094673      1.8943671     -9.8702023      20472.708    
    158000   344.28492      0.079          0.19133954     0.19117459     0.19004295    -1883.5664      812.01446      812.01446      812.01446      5.3541594e+08  1.2468589     -48999651      -48999651       1025.2217     -48998626      -1888.3745     -1886.7465     -1875.5781     -1.1761241      1.2666782     -10.262025      20804.449    
    159000   343.7177       0.0795         0.19013213     0.18993325     0.18894337    -1871.8932      812.39074      812.39074      812.39074      5.361606e+08   1.2451271     -48979685      -48979685       1023.5326     -48978661      -1876.4582     -1874.4955     -1864.7261     -1.3556934      1.0518029     -9.2224466      21256.629    
    160000   343.13428      0.08           0.18907926     0.18879142     0.18783263    -1861.0192      812.76702      812.76702      812.76702      5.3690596e+08  1.2433986     -48959813      -48959813       1021.7953     -48958791      -1866.0672     -1863.2264     -1853.7639     -2.10873        1.5559288     -8.030727       21332.334    
    161000   341.9307       0.0805         0.18826547     0.1877861      0.18686883    -1851.8642      813.14331      813.14331      813.14331      5.3765201e+08  1.2416733     -48940017      -48940017       1018.2113     -48938999      -1858.0357     -1853.3048     -1844.252      -2.4078084      2.0979263     -7.8577023      21663.784    
    162000   340.40143      0.081          0.1874703      0.18685411     0.18596957    -1843.2239      813.51959      813.51959      813.51959      5.3839875e+08  1.2399511     -48920295      -48920295       1013.6573     -48919281      -1850.188      -1844.1066     -1835.377      -2.1419046      2.1707402     -8.1827188      21808.449    
    163000   339.32432      0.0815         0.18648521     0.18588195     0.18488884    -1833.2297      813.89587      813.89587      813.89587      5.3914618e+08  1.2382321     -48900661      -48900661       1010.4499     -48899651      -1840.4659     -1834.5122     -1824.711      -1.9738714      1.7242089     -8.075615       21887.665    
    164000   338.50295      0.082          0.18540054     0.1849287      0.18378812    -1822.9044      814.27215      814.27215      814.27215      5.398943e+08   1.2365163     -48881123      -48881123       1008.004      -48880115      -1829.7611     -1825.1043     -1813.8477     -1.8094993      0.92614032    -7.5528129      21946.578    
    165000   337.41915      0.0825         0.18438531     0.18403527     0.18283674    -1813.4956      814.64843      814.64843      814.64843      5.4064311e+08  1.2348037     -48861665      -48861665       1004.7766     -48860660      -1819.7415     -1816.2869     -1804.4583     -1.7076132      0.20026624    -6.8011465      21663.979    
    166000   336.58053      0.083          0.18349175     0.1831182      0.18200014    -1804.7869      815.02471      815.02471      815.02471      5.4139262e+08  1.2330942     -48842274      -48842274       1002.2793     -48841272      -1810.9227     -1807.2361     -1796.2018     -1.3779572      0.18851731    -6.2166816      21996.337    
    167000   336.36123      0.0835         0.18271232     0.18219596     0.1812189     -1796.6188      815.40099      815.40099      815.40099      5.4214282e+08  1.2313879     -48822950      -48822950       1001.6263     -48821948      -1803.2304     -1798.1343     -1788.4915     -1.2262645      0.70161512    -5.9830998      21753.061    
    168000   336.18132      0.084          0.18202313     0.18134946     0.18044466    -1789.0196      815.77727      815.77727      815.77727      5.4289371e+08  1.2296848     -48803693      -48803693       1001.0906     -48802692      -1796.4286     -1789.7801     -1780.8503     -1.5865883      1.2794703     -5.452929       22135.84     
    169000   335.56806      0.0845         0.1812809      0.18057616     0.17967975    -1781.5176      816.15355      816.15355      816.15355      5.4364529e+08  1.2279847     -48784504      -48784504       999.26438     -48783505      -1789.1034     -1782.1481     -1773.3013     -1.8132207      1.9225042     -4.774343       21814.29     
    170000   334.65859      0.085          0.18042892     0.17982587     0.17888593    -1773.6351      816.52984      816.52984      816.52984      5.4439757e+08  1.2262879     -48765387      -48765387       996.55614     -48764391      -1780.695      -1774.7433     -1765.4669     -1.3861846      2.1378056     -4.5384465      21811.088    
    171000   333.86584      0.0855         0.17950613     0.17900732     0.17805305    -1765.1666      816.90612      816.90612      816.90612      5.4515054e+08  1.2245941     -48746343      -48746343       994.19545     -48745349      -1771.5878     -1766.6649     -1757.247      -0.40890062     1.4123076     -5.1622375      21857.199    
    172000   333.33963      0.086          0.17864201     0.17816275     0.17728422    -1757.0162      817.2824       817.2824       817.2824       5.459042e+08   1.2229034     -48727360      -48727360       992.62848     -48726368      -1763.0596     -1758.3297     -1749.6592     -0.007142753    0.2775189     -5.7281609      21964.28     
    173000   332.75534      0.0865         0.17798809     0.17739267     0.17664841    -1750.2399      817.65868      817.65868      817.65868      5.4665856e+08  1.2212159     -48708422      -48708422       990.88858     -48707431      -1756.6059     -1750.7295     -1743.3843     -0.45315281     0.019474724   -5.2125543      21450.536    
    174000   331.89951      0.087          0.17743588     0.17667774     0.17600083    -1743.941       818.03496      818.03496      818.03496      5.4741361e+08  1.2195315     -48689532      -48689532       988.34008     -48688544      -1751.156      -1743.6737     -1736.9931     -1.2309847      0.64648801    -4.0463372      22117.588    
    175000   330.99363      0.0875         0.17676675     0.17600353     0.17525471    -1737.0672      818.41124      818.41124      818.41124      5.4816936e+08  1.2178501     -48670705      -48670705       985.64251     -48669719      -1744.5522     -1737.0198     -1729.6295     -1.5372162      0.93314008    -3.7089181      21863.413    
    176000   330.31313      0.088          0.17601322     0.17538473     0.17450937    -1730.1006      818.78752      818.78752      818.78752      5.489258e+08   1.2161719     -48651941      -48651941       983.61609     -48650958      -1737.1154     -1730.9127     -1722.2736     -0.95673078     0.64460354    -4.2757992      21650.703    
    177000   329.88722      0.0885         0.17533745     0.17476401     0.17383909    -1723.6304      819.1638       819.1638       819.1638       5.4968294e+08  1.2144967     -48633229      -48633229       982.34781     -48632247      -1730.4461     -1724.7867     -1715.6584     -0.088136301    0.55942353    -4.3696852      21891.683    
    178000   329.57845      0.089          0.1747095      0.17408462     0.17322015    -1717.2934      819.54008      819.54008      819.54008      5.5044078e+08  1.2128246     -48614559      -48614559       981.42836     -48613577      -1724.2487     -1718.0816     -1709.55        0.17285294     0.53941239    -3.5057865      21735.604    
    179000   329.27771      0.0895         0.1740242      0.17337099     0.17262116    -1710.7207      819.91636      819.91636      819.91636      5.5119931e+08  1.2111556     -48595934      -48595934       980.5328      -48594953      -1717.4853     -1711.0386     -1703.6383     -0.60328479     0.25203666    -3.0307151      22064.825    
    180000   328.91127      0.09           0.17331588     0.17268307     0.17202058    -1704.1518      820.29265      820.29265      820.29265      5.5195854e+08  1.2094896     -48577363      -48577363       979.4416      -48576383      -1710.4948     -1704.2494     -1697.7111     -1.649537      -0.21220606    -3.490861       21825.945    
    181000   328.43874      0.0905         0.17274627     0.17211062     0.17139621    -1698.3406      820.66893      820.66893      820.66893      5.5271846e+08  1.2078267     -48558848      -48558848       978.03449     -48557870      -1704.8731     -1698.5997     -1691.549      -1.9876242     -0.43974379    -4.0053985      22075.592    
    182000   327.79479      0.091          0.17224519     0.17165096     0.1707636     -1693.099       821.04521      821.04521      821.04521      5.5347908e+08  1.2061669     -48540380      -48540380       976.11691     -48539404      -1699.9279     -1694.0633     -1685.3057     -1.3971782     -0.23936826    -4.0268587      21699.482    
    183000   327.199        0.0915         0.17161304     0.17107094     0.17010446    -1686.9428      821.42149      821.42149      821.42149      5.542404e+08   1.20451       -48521955      -48521955       974.34276     -48520981      -1693.689      -1688.3389     -1678.8005     -0.39614333     0.2452899     -3.4050144      22110.514    
    184000   326.97671      0.092          0.17089855     0.17030638     0.1695168     -1680.1439      821.79777      821.79777      821.79777      5.5500242e+08  1.2028562     -48503578      -48503578       973.68081     -48502605      -1686.6375     -1680.7933     -1673.0007     -0.021971059    0.8049508     -2.6049331      21825.633    
    185000   326.8953       0.0925         0.17030393     0.16961251     0.1690628     -1674.4115      822.17405      822.17405      822.17405      5.5576513e+08  1.2012055     -48485253      -48485253       973.43838     -48484280      -1680.7691     -1673.9454     -1668.5201     -0.75894035     1.1164396     -2.3380155      21899.894    
    186000   326.75851      0.093          0.1698044      0.16914198     0.16859085    -1669.6677      822.55033      822.55033      822.55033      5.5652855e+08  1.1995577     -48466966      -48466966       973.03104     -48465993      -1675.8392     -1669.3016     -1663.8623     -1.9921552      1.1069073     -2.3642778      22052.905    
    187000   326.73733      0.0935         0.16926997     0.16878991     0.16801221    -1664.8478      822.92661      822.92661      822.92661      5.5729266e+08  1.197913      -48448715      -48448715       972.96799     -48447742      -1670.5647     -1665.8269     -1658.1516     -2.314527       0.38196331    -2.2158783      21641.744    
    188000   326.36748      0.094          0.16873583     0.1683483      0.16744243    -1659.7633      823.30289      823.30289      823.30289      5.5805747e+08  1.1962713     -48430501      -48430501       971.86661     -48429529      -1665.2932     -1661.4685     -1652.5283     -1.2258623     -0.65814526    -2.0257787      22044.997    
    189000   325.56264      0.0945         0.16828538     0.16779231     0.16692362    -1654.7456      823.67917      823.67917      823.67917      5.5882298e+08  1.1946326     -48412325      -48412325       969.46995     -48411355      -1660.8476     -1655.9813     -1647.408      -0.15560441    -0.90292885    -2.0760621      21844.066    
    190000   325.00989      0.095          0.16784953     0.16717795     0.16642151    -1649.6389      824.05546      824.05546      824.05546      5.5958919e+08  1.1929968     -48394188      -48394188       967.82396     -48393220      -1656.546      -1649.9181     -1642.4526     -0.40007665    -0.40769246    -2.2458347      21908.244    
    191000   325.02159      0.0955         0.16733601     0.1665204      0.16587642    -1643.9932      824.43174      824.43174      824.43174      5.603561e+08   1.1913641     -48376086      -48376086       967.8588      -48375118      -1651.478      -1643.4285     -1637.073      -1.2265976      0.13926431    -2.1547408      21864.07     
    192000   325.14124      0.096          0.16673267     0.16598529     0.16537098    -1638.5852      824.80802      824.80802      824.80802      5.6112371e+08  1.1897343     -48358020      -48358020       968.21508     -48357052      -1645.5235     -1638.1474     -1632.0846     -1.4254689      0.52921115    -1.9086549      22081.223    
    193000   325.01912      0.0965         0.16616557     0.16562053     0.16493914    -1634.099       825.1843       825.1843       825.1843       5.6189202e+08  1.1881075     -48339997      -48339997       967.85145     -48339029      -1639.9266     -1634.5475     -1627.8228     -0.52794375     0.51906492    -1.7858089      21823.89     
    194000   324.84804      0.097          0.16574466     0.16528834     0.16449498    -1630.1603      825.56058      825.56058      825.56058      5.6266104e+08  1.1864837     -48322012      -48322012       967.34199     -48321045      -1635.7726     -1631.2691     -1623.4393      0.1122937      0.24998945    -1.9646297      22101.289    
    195000   324.7302       0.0975         0.16536259     0.16490169     0.16407504    -1626.25        825.93686      825.93686      825.93686      5.6343075e+08  1.1848628     -48304055      -48304055       966.99108     -48303088      -1632.0019     -1627.4532     -1619.2948     -0.2793642     -0.27598639    -2.3309823      21595.695    
    196000   324.5645       0.098          0.16487534     0.1643706      0.16365685    -1621.5241      826.31314      826.31314      826.31314      5.6420117e+08  1.1832448     -48286122      -48286122       966.49765     -48285156      -1627.1931     -1622.2117     -1615.1675     -0.9411265     -0.77761377    -2.3241887      22017.96     
    197000   324.37266      0.0985         0.1642735      0.16375048     0.16316488    -1615.8857      826.68942      826.68942      826.68942      5.6497228e+08  1.1816299     -48268227      -48268227       965.92638     -48267261      -1621.2533     -1616.0916     -1610.3121     -1.3849236     -0.50930242    -1.8103769      22124.842    
    198000   324.23653      0.099          0.16372344     0.16321002     0.1625926     -1610.4156      827.0657       827.0657       827.0657       5.657441e+08   1.1800178     -48250379      -48250379       965.52103     -48249414      -1615.8248     -1610.7577     -1604.6642     -1.7889377      0.16535502    -1.6038307      21663.172    
    199000   324.04041      0.0995         0.16328804     0.16280461     0.162021      -1605.769       827.44199      827.44199      827.44199      5.6651663e+08  1.1784087     -48232573      -48232573       964.937       -48231608      -1611.5276     -1606.7566     -1599.0229     -1.824821       0.5610549     -1.9266058      22016.766    
    200000   323.75002      0.1            0.16291772     0.16243275     0.16155943    -1601.809       827.81827      827.81827      827.81827      5.6728985e+08  1.1768025     -48214796      -48214796       964.07226     -48213831      -1607.8728     -1603.0866     -1594.4676     -1.2706421      0.52751621    -1.6090972      20701.803    
    201000   323.52114      0.1005         0.16249427     0.16201197     0.1611174     -1597.5776      828.19455      828.19455      828.19455      5.6806378e+08  1.1751992     -48197045      -48197045       963.39072     -48196082      -1603.6937     -1598.9338     -1590.1051     -0.63584485     0.20099124    -0.48970948     21864.179    
    202000   323.46632      0.101          0.16199754     0.16158756     0.16066487    -1593.0586      828.57083      828.57083      828.57083      5.6883841e+08  1.1735989     -48179327      -48179327       963.22748     -48178364      -1598.7914     -1594.7453     -1585.639      -0.60320608     0.12959276     0.046622278    21704.921    
    203000   323.38762      0.1015         0.1614872      0.16114793     0.16027011    -1588.6347      828.94711      828.94711      828.94711      5.6961375e+08  1.1720014     -48161648      -48161648       962.99311     -48160685      -1593.7547     -1590.4065     -1581.743      -1.1035305      0.26789684    -0.67643323     21890.955    
    204000   323.36408      0.102          0.16101478     0.16066808     0.15991201    -1584.324       829.32339      829.32339      829.32339      5.7038979e+08  1.1704069     -48144002      -48144002       962.92301     -48143039      -1589.0924     -1585.6707     -1578.2088     -1.2941205      0.21802569    -1.5624157      21817.056    
    205000   323.47081      0.1025         0.16060812     0.16021778     0.15952364    -1580.2271      829.69967      829.69967      829.69967      5.7116654e+08  1.1688152     -48126382      -48126382       963.24083     -48125419      -1585.0789     -1581.2265     -1574.376      -0.95686997    -0.15499541    -1.9906895      21883.646    
    206000   323.58051      0.103          0.16021102     0.15984067     0.15905076    -1576.1245      830.07595      830.07595      830.07595      5.7194398e+08  1.1672264     -48108781      -48108781       963.5675      -48107817      -1581.1599     -1577.5047     -1569.709      -0.59181206    -0.28898689    -2.1161264      21748.026    
    207000   323.6722       0.1035         0.1598518      0.15952758     0.15860245    -1572.4379      830.45223      830.45223      830.45223      5.7272214e+08  1.1656405     -48091208      -48091208       963.84055     -48090244      -1577.6146     -1574.4148     -1565.2845     -0.7522957     -0.032838192   -1.9283742      22060.051    
    208000   323.67547      0.104          0.15948285     0.15914772     0.15822812    -1568.7431      830.82851      830.82851      830.82851      5.73501e+08    1.1640575     -48073672      -48073672       963.85027     -48072709      -1573.9733     -1570.6659     -1561.5902     -1.1302708      0.22729976    -1.2667954      21414.7      
    209000   323.57197      0.1045         0.15905084     0.15865605     0.15782897    -1564.3914      831.2048       831.2048       831.2048       5.7428057e+08  1.1624773     -48056169      -48056169       963.54206     -48055206      -1569.7098     -1565.8135     -1557.6508     -0.99341466     0.35126909    -0.67026508     21908.603    
    210000   323.28303      0.105          0.1585867      0.15815159     0.15735275    -1559.6383      831.58108      831.58108      831.58108      5.7506084e+08  1.1609        -48038697      -48038697       962.68166     -48037735      -1565.129      -1560.8349     -1552.9509     -0.39580877     0.058706339   -0.93098952     21869.68     
    211000   322.84049      0.1055         0.15808794     0.15764352     0.15684045    -1554.6407      831.95736      831.95736      831.95736      5.7584182e+08  1.1593255     -48021262      -48021262       961.36384     -48020301      -1560.2066     -1555.8205     -1547.8949     -0.53968269    -0.2821196     -1.307849       21697.086    
    212000   322.6371       0.106          0.15763951     0.15722302     0.15642397    -1550.412       832.33364      832.33364      832.33364      5.766235e+08   1.1577539     -48003860      -48003860       960.75818     -48002899      -1555.781      -1551.6705     -1543.7846     -1.596919      -0.32511349    -0.89062849     22028.24     
    213000   322.67972      0.1065         0.1572765      0.1569083      0.15610945    -1547.1478      832.70992      832.70992      832.70992      5.774059e+08   1.1561852     -47986479      -47986479       960.8851      -47985518      -1552.1984     -1548.5645     -1540.6805     -2.2583451     -0.11105404    -0.082041114    21664        
    214000   322.83387      0.107          0.15695432     0.15661635     0.15575513    -1543.9618      833.0862       833.0862       833.0862       5.78189e+08    1.1546192     -47969116      -47969116       961.34412     -47968154      -1549.0187     -1545.6832     -1537.1837     -2.0025206     -0.12581068     0.0014153037   22041.495    
    215000   323.10008      0.1075         0.15663278     0.15622537     0.15527034    -1540.023       833.46248      833.46248      833.46248      5.789728e+08   1.1530561     -47951785      -47951785       962.13686     -47950823      -1545.8453     -1541.8246     -1532.3991     -1.144703      -0.24979043    -0.9323946      21753.995    
    216000   323.36173      0.108          0.15620542     0.15570657     0.15478206    -1535.3041      833.83876      833.83876      833.83876      5.7975732e+08  1.1514958     -47934493      -47934493       962.91603     -47933530      -1541.6277     -1536.7044     -1527.5802     -0.35574691    -0.13277886    -1.7277779      21752.057    
    217000   323.44779      0.1085         0.15573495     0.15523008     0.1543669     -1530.823       834.21504      834.21504      834.21504      5.8054254e+08  1.1499383     -47917231      -47917231       963.17228     -47916268      -1536.9845     -1532.0017     -1523.4829     -0.42632844    -0.34405408    -1.7741875      21691.007    
[...]
   3256000   321.8937       1.628          0.012616401    0.012552447    0.012482322   -123.86272      1977.7331      1977.7331      1977.7331      7.735761e+09   0.086298959   -13942906      -13942906       958.54446     -13941948      -124.5142      -123.88302     -123.19094     -0.27778094    -0.080699578    0.15779507     21074.602    
   3257000   321.86676      1.6285         0.012607452    0.01254277     0.012474505   -123.77573      1978.1094      1978.1094      1978.1094      7.7401772e+09  0.086249721   -13935071      -13935071       958.46425     -13934113      -124.42588     -123.78752     -123.11379     -0.30969603    -0.067360045    0.16867544     21002.28     
   3258000   321.8286       1.629          0.012598262    0.012533658    0.012467297   -123.69181      1978.4857      1978.4857      1978.4857      7.7445951e+09  0.08620052    -13927238      -13927238       958.35062     -13926280      -124.33518     -123.69759     -123.04265     -0.34795296    -0.07166012     0.18017551     20839.82     
   3259000   321.80782      1.6295         0.012588485    0.012524997    0.01245904    -123.60399      1978.8619      1978.8619      1978.8619      7.7490147e+09  0.086151356   -13919408      -13919408       958.28872     -13918449      -124.23868     -123.61211     -122.96117     -0.37165721    -0.086220115    0.18996516     21026.033    
   3260000   321.83038      1.63           0.012578238    0.012517234    0.012449092   -123.51201      1979.2382      1979.2382      1979.2382      7.753436e+09   0.086102229   -13911580      -13911580       958.35591     -13910622      -124.13756     -123.5355      -122.86299     -0.36872256    -0.096546157    0.19717367     20648.499    
   3261000   321.89218      1.6305         0.012567653    0.012509859    0.012439297   -123.42071      1979.6145      1979.6145      1979.6145      7.7578589e+09  0.08605314    -13903756      -13903756       958.53994     -13902797      -124.03309     -123.46271     -122.76631     -0.35022497    -0.098811346    0.19995771     21006.954    
   3262000   321.96809      1.631          0.01255733     0.012501983    0.012432078   -123.33709      1979.9908      1979.9908      1979.9908      7.7622836e+09  0.086004089   -13895934      -13895934       958.766       -13894975      -123.93121     -123.38498     -122.69507     -0.33979138    -0.096160062    0.1961032      20747.784    
   3263000   322.03579      1.6315         0.012549288    0.012493814    0.012426035   -123.26388      1980.3671      1980.3671      1980.3671      7.7667099e+09  0.085955074   -13888115      -13888115       958.96758     -13887156      -123.85184     -123.30436     -122.63543     -0.34674665    -0.094581554    0.1891019      21035.336    
   3264000   322.06906      1.632          0.012543732    0.012485806    0.012418848   -123.19561      1980.7433      1980.7433      1980.7433      7.7711379e+09  0.085906097   -13880297      -13880297       959.06667     -13879338      -123.79701     -123.22533     -122.5645      -0.3476851     -0.10234745     0.18178458     20724.039    
   3265000   322.06559      1.6325         0.012538629    0.012477213    0.012410414   -123.12281      1981.1196      1981.1196      1981.1196      7.7755676e+09  0.085857157   -13872480      -13872480       959.05634     -13871521      -123.74665     -123.14052     -122.48126     -0.3374299     -0.11875557     0.17178085     21015.126    
   3266000   322.05771      1.633          0.012531483    0.012468551    0.012401041   -123.03997      1981.4959      1981.4959      1981.4959      7.7799989e+09  0.085808254   -13864666      -13864666       959.03285     -13863707      -123.67612     -123.05503     -122.38876     -0.32294283    -0.13006288     0.1558185      20815.579    
   3267000   322.07036      1.6335         0.012521892    0.012460537    0.012391359   -122.9502       1981.8722      1981.8722      1981.8722      7.784432e+09   0.085759388   -13856854      -13856854       959.07052     -13855895      -123.58146     -122.97593     -122.29321     -0.30255455    -0.13272099     0.14824249     21146.203    
   3268000   322.09704      1.634          0.012511111    0.012452397    0.012382544   -122.85896      1982.2485      1982.2485      1982.2485      7.7888667e+09  0.08571056    -13849045      -13849045       959.14999     -13848086      -123.47507     -122.8956      -122.20621     -0.28031781    -0.12872775     0.15971419     20596.085    
   3269000   322.12672      1.6345         0.012499788    0.012443178    0.012374276   -122.76418      1982.6247      1982.6247      1982.6247      7.7933031e+09  0.085661768   -13841240      -13841240       959.23837     -13840280      -123.36331     -122.80462     -122.12461     -0.26776252    -0.11921189     0.17685889     21080.941    
   3270000   322.14884      1.635          0.012489819    0.01243476     0.01236501    -122.67321      1983.001       1983.001       1983.001       7.7977412e+09  0.085613013   -13833437      -13833437       959.30422     -13832478      -123.26493     -122.72154     -122.03317     -0.26598646    -0.10653449     0.18124874     20795.787    
   3271000   322.14758      1.6355         0.012482808    0.01242755     0.012354452   -122.59169      1983.3773      1983.3773      1983.3773      7.802181e+09   0.085564296   -13825637      -13825637       959.30047     -13824678      -123.19573     -122.65038     -121.92896     -0.27078824    -0.10028251     0.1684173      21054.845    
   3272000   322.12541      1.636          0.01247716     0.012419456    0.012344239   -122.51289      1983.7536      1983.7536      1983.7536      7.8066225e+09  0.085515615   -13817839      -13817839       959.23448     -13816880      -123.13999     -122.5705      -121.82817     -0.28661914    -0.1063908      0.15535323     20800.772    
   3273000   322.11856      1.6365         0.012470812    0.012409232    0.012335835   -122.43072      1984.1299      1984.1299      1984.1299      7.8110656e+09  0.085466971   -13810044      -13810044       959.21408     -13809084      -123.07734     -122.4696      -121.74523     -0.31233776    -0.1073708      0.1528834      21001.558    
   3274000   322.13465      1.637          0.012463857    0.012398407    0.012328164   -122.347        1984.5062      1984.5062      1984.5062      7.8155105e+09  0.085418365   -13802250      -13802250       959.26197     -13801291      -123.0087      -122.36277     -121.66952     -0.32970148    -0.094203728    0.15625803     20873.226    
   3275000   322.13944      1.6375         0.012455954    0.012388095    0.012319889   -122.25985      1984.8824      1984.8824      1984.8824      7.819957e+09   0.085369795   -13794460      -13794460       959.27625     -13793500      -122.93071     -122.26099     -121.58785     -0.33341922    -0.082542527    0.15338889     20848.884    
   3276000   322.10997      1.638          0.012446547    0.012377929    0.01231155    -122.16803      1985.2587      1985.2587      1985.2587      7.8244052e+09  0.085321262   -13786672      -13786672       959.18847     -13785712      -122.83787     -122.16067     -121.50555     -0.3313848     -0.088623845    0.14536325     20845.448    
   3277000   322.05151      1.6385         0.012434512    0.012368102    0.012303694   -122.07026      1985.635       1985.635       1985.635       7.8288551e+09  0.085272765   -13778887      -13778887       959.01439     -13777928      -122.71909     -122.06367     -121.42802     -0.32822262    -0.11208013     0.13986301     21098.486    
   3278000   321.9896       1.639          0.01242207     0.012359843    0.012295625   -121.97562      1986.0113      1986.0113      1986.0113      7.8333067e+09  0.085224306   -13771105      -13771105       958.83004     -13770146      -122.5963      -121.98216     -121.34839     -0.33238971    -0.13074886     0.14107629     20490.412    
   3279000   321.95303      1.6395         0.012412724    0.012353639    0.012287125   -121.8965       1986.3876      1986.3876      1986.3876      7.83776e+09    0.085175883   -13763326      -13763326       958.72114     -13762367      -122.50406     -121.92094     -121.26449     -0.33889488    -0.12853504     0.14988409     21107.995    
   3280000   321.96308      1.64           0.012406602    0.012347562    0.012278778   -121.82891      1986.7638      1986.7638      1986.7638      7.8422149e+09  0.085127496   -13755549      -13755549       958.75107     -13754590      -122.44365     -121.86096     -121.18212     -0.33903233    -0.11106232     0.16052783     21062.364    
   3281000   321.9949       1.6405         0.012399953    0.012338006    0.012270815   -121.7494       1987.1401      1987.1401      1987.1401      7.8466716e+09  0.085079147   -13747773      -13747773       958.84584     -13746814      -122.37803     -121.76666     -121.10353     -0.33202285    -0.093173322    0.16896307     20625.428    
   3282000   322.02426      1.641          0.012389582    0.012323661    0.012261608   -121.6378       1987.5164      1987.5164      1987.5164      7.8511299e+09  0.085030834   -13740000      -13740000       958.93326     -13739041      -122.27566     -121.62508     -121.01266     -0.32183558    -0.088684769    0.17433712     21073.11     
   3283000   322.02765      1.6415         0.012377341    0.0123089      0.01225189    -121.517        1987.8927      1987.8927      1987.8927      7.8555899e+09  0.084982558   -13732233      -13732233       958.94337     -13731274      -122.15486     -121.4794      -120.91675     -0.31124477    -0.099915796    0.17480742     20778.38     
   3284000   321.98563      1.642          0.012366305    0.012298045    0.012243713   -121.41809      1988.269       1988.269       1988.269       7.8600516e+09  0.084934318   -13724469      -13724469       958.81822     -13723510      -122.04595     -121.37227     -120.83606     -0.3086739     -0.11182249     0.16776583     20939.034    
   3285000   321.92574      1.6425         0.012357747    0.01229248     0.012237247   -121.35035      1988.6452      1988.6452      1988.6452      7.864515e+09   0.084886114   -13716708      -13716708       958.63988     -13715750      -121.96148     -121.31734     -120.77224     -0.31808122    -0.1082773      0.16135278     20768.989    
   3286000   321.89627      1.643          0.01235079     0.012290561    0.012230288   -121.29826      1989.0215      1989.0215      1989.0215      7.8689801e+09  0.084837947   -13708948      -13708948       958.55212     -13707989      -121.89282     -121.29841     -120.70356     -0.33045515    -0.097328099    0.16683752     21068.1      
   3287000   321.93277      1.6435         0.012343527    0.012288219    0.012221507   -121.23777      1989.3978      1989.3978      1989.3978      7.8734469e+09  0.084789817   -13701188      -13701188       958.66082     -13700229      -121.82114     -121.27529     -120.6169      -0.33744187    -0.097209181    0.17122364     20592.86     
   3288000   322.01289      1.644          0.012336325    0.012281949    0.012211485   -121.16049      1989.7741      1989.7741      1989.7741      7.8779154e+09  0.084741723   -13693430      -13693430       958.89941     -13692471      -121.75006     -121.21341     -120.51798     -0.33257307    -0.10322407     0.16187902     21023.604    
   3289000   322.0754       1.6445         0.012328626    0.012271025    0.012200499   -121.06308      1990.1504      1990.1504      1990.1504      7.8823855e+09  0.084693665   -13685674      -13685674       959.08554     -13684715      -121.67408     -121.1056      -120.40956     -0.31896494    -0.10500212     0.15248195     20684.875    
   3290000   322.08962      1.645          0.01231871     0.012258102    0.012188998   -120.95011      1990.5266      1990.5266      1990.5266      7.8868574e+09  0.084645644   -13677923      -13677923       959.1279      -13676964      -121.57622     -120.97806     -120.29606     -0.31448146    -0.10700664     0.15913641     20924.046    
   3291000   322.06567      1.6455         0.012307859    0.012245801    0.012177801   -120.83712      1990.9029      1990.9029      1990.9029      7.8913309e+09  0.084597659   -13670176      -13670176       959.05657     -13669217      -121.46913     -120.85666     -120.18555     -0.33050715    -0.10892362     0.17584508     20779.067    
   3292000   322.03545      1.646          0.012298329    0.012236656    0.012167816   -120.74283      1991.2792      1991.2792      1991.2792      7.8958062e+09  0.08454971    -13662433      -13662433       958.96657     -13661474      -121.37507     -120.76641     -120.087       -0.34777324    -0.1086634      0.19347826     21018.13     
   3293000   322.01043      1.6465         0.012291535    0.012230348    0.012160542   -120.6758       1991.6555      1991.6555      1991.6555      7.9002831e+09  0.084501797   -13654692      -13654692       958.89207     -13653733      -121.30802     -120.70415     -120.01522     -0.34420081    -0.10587414     0.20120477     20701.762    
   3294000   321.99244      1.647          0.012285744    0.012225728    0.012155846   -120.6261       1992.0318      1992.0318      1992.0318      7.9047617e+09  0.084453921   -13646952      -13646952       958.83849     -13645993      -121.25086     -120.65855     -119.96887     -0.32468548    -0.10696856     0.18879692     21035.801    
   3295000   321.99396      1.6475         0.012279375    0.012221602    0.012151323   -120.57669      1992.4081      1992.4081      1992.4081      7.909242e+09   0.084406081   -13639212      -13639212       958.84303     -13638253      -121.188       -120.61783     -119.92424     -0.30848253    -0.10911279     0.16054506     20823.035    
   3296000   322.01823      1.648          0.012272308    0.012215562    0.012143988   -120.50944      1992.7843      1992.7843      1992.7843      7.913724e+09   0.084358277   -13631473      -13631473       958.9153      -13630514      -121.11826     -120.55823     -119.85184     -0.30608567    -0.11553786     0.13178717     21060.846    
   3297000   322.03637      1.6485         0.012263196    0.012205276    0.012133626   -120.41154      1993.1606      1993.1606      1993.1606      7.9182077e+09  0.084310509   -13623736      -13623736       958.96933     -13622777      -121.02834     -120.45671     -119.74958     -0.31604336    -0.12527851     0.12091379     20797.376    
   3298000   322.03175      1.649          0.012251095    0.01219166     0.012122509   -120.29036      1993.5369      1993.5369      1993.5369      7.9226931e+09  0.084262777   -13616003      -13616003       958.95556     -13615044      -120.90891     -120.32233     -119.63986     -0.32534875    -0.12974285     0.12203098     21117.429    
   3299000   322.02069      1.6495         0.012239049    0.012176828    0.012112207   -120.16805      1993.9132      1993.9132      1993.9132      7.9271802e+09  0.084215081   -13608276      -13608276       958.92262     -13607317      -120.79002     -120.17594     -119.53819     -0.32639043    -0.12592315     0.12344703     20548.19     
   3300000   322.01188      1.65           0.01222946     0.012164449    0.012103829   -120.06822      1994.2895      1994.2895      1994.2895      7.931669e+09   0.084167421   -13600553      -13600553       958.8964      -13599594      -120.69539     -120.05378     -119.45551     -0.3212566     -0.11166804     0.12941317     20163.26     
   3301000   321.99728      1.6505         0.012220766    0.012155806    0.012096003   -119.98544      1994.6657      1994.6657      1994.6657      7.9361595e+09  0.084119797   -13592833      -13592833       958.85291     -13591874      -120.60958     -119.96848     -119.37827     -0.31824597    -0.095393106    0.14595647     20808.807    
   3302000   321.99377      1.651          0.012211662    0.012148683    0.012088026   -119.90582      1995.042       1995.042       1995.042       7.9406516e+09  0.084072209   -13585115      -13585115       958.84247     -13584156      -120.51973     -119.89818     -119.29954     -0.3182957     -0.087445459    0.16854887     20993.237    
   3303000   322.0069       1.6515         0.012203094    0.012142331    0.012080467   -119.83187      1995.4183      1995.4183      1995.4183      7.9451455e+09  0.084024657   -13577400      -13577400       958.88157     -13576441      -120.43517     -119.83549     -119.22494     -0.31722396    -0.089969136    0.17988047     20961.435    
   3304000   322.0179       1.652          0.012195335    0.012136119    0.012072627   -119.76012      1995.7946      1995.7946      1995.7946      7.949641e+09   0.083977141   -13569686      -13569686       958.91433     -13568727      -120.3586      -119.77418     -119.14756     -0.30909608    -0.10061515     0.17550617     20802.082    
   3305000   322.03173      1.6525         0.012187302    0.012129108    0.012065286   -119.68648      1996.1709      1996.1709      1996.1709      7.9541383e+09  0.08392966    -13561974      -13561974       958.95549     -13561015      -120.27932     -119.70499     -119.07511     -0.2965807     -0.11374614     0.16355037     21045.378    
   3306000   322.06598      1.653          0.012178824    0.012121364    0.012058242   -119.60993      1996.5471      1996.5471      1996.5471      7.9586372e+09  0.083882215   -13554264      -13554264       959.0575      -13553305      -120.19565     -119.62856     -119.00559     -0.3002893     -0.12255053     0.15053634     20656.057    
   3307000   322.12547      1.6535         0.012170423    0.012114989    0.01204952    -119.53263      1996.9234      1996.9234      1996.9234      7.9631379e+09  0.083834806   -13546556      -13546556       959.23465     -13545597      -120.11274     -119.56564     -118.91951     -0.32177957    -0.12137254     0.1356943      21038.378    
   3308000   322.18947      1.654          0.012163129    0.012109394    0.012039517   -119.45732      1997.2997      1997.2997      1997.2997      7.9676402e+09  0.083787433   -13538851      -13538851       959.42524     -13537891      -120.04075     -119.51042     -118.8208      -0.34224165    -0.11269808     0.1227873      20834.441    
   3309000   322.22642      1.6545         0.012155864    0.012101965    0.012029517   -119.37609      1997.676       1997.676       1997.676       7.9721443e+09  0.083740096   -13531147      -13531147       959.53525     -13530188      -119.96905     -119.43711     -118.7221      -0.34527862    -0.10404047     0.12482216     20867.254    
   3310000   322.2224       1.655          0.012146891    0.012091765    0.012020245   -119.28251      1998.0523      1998.0523      1998.0523      7.97665e+09    0.083692794   -13523447      -13523447       959.52328     -13522487      -119.8805      -119.33644     -118.63059     -0.33161425    -0.096643895    0.13507838     20813.16     
   3311000   322.19183      1.6555         0.012136688    0.012081195    0.012012948   -119.19017      1998.4286      1998.4286      1998.4286      7.9811574e+09  0.083645528   -13515750      -13515750       959.43226     -13514790      -119.7798      -119.23212     -118.55858     -0.31773734    -0.087741339    0.13969261     21058.828    
   3312000   322.15742      1.656          0.012127241    0.012072294    0.012007665   -119.11243      1998.8048      1998.8048      1998.8048      7.9856665e+09  0.083598297   -13508055      -13508055       959.32979     -13507096      -119.68657     -119.14428     -118.50644     -0.31027544    -0.083540183    0.13602195     20824.311    
   3313000   322.14254      1.6565         0.012118549    0.012064495    0.012002111   -119.0399       1999.1811      1999.1811      1999.1811      7.9901774e+09  0.083551102   -13500362      -13500362       959.28548     -13499403      -119.60078     -119.0673      -118.45162     -0.30621992    -0.08806267     0.13161561     21078.565    
   3314000   322.1484       1.657          0.012110253    0.012055644    0.011993207   -118.9542       199