LAMMPS (23 Jun 2022 - Update 1)
OMP_NUM_THREADS environment is not set. Defaulting to 1 thread. (src/comm.cpp:98)
  using 1 OpenMP thread(s) per MPI task
###

# Read restart info
read_restart ${read_res}
read_restart ./trial8/7030/equpmf70.res
Reading restart file ...
  restart file = 23 Jun 2022, LAMMPS = 23 Jun 2022
  restoring atom style atomic from restart
  orthogonal box = (1696.002 1696.002 1696.002) to (2303.998 2303.998 2303.998)
  1 by 2 by 2 MPI processor grid
  restoring pair style table from restart
  1000 atoms
  read_restart CPU = 0.044 seconds

# Settings
pair_style table/pgn spline 10941
pair_coeff 1 1 N20e.txt DE_GNP 308 72.9   # 1.35 * r
pair_coeff 2 2 N100e.txt DE_GNP 473.9 111.78
WARNING: 20 of 10941 force values in table DE_GNP are inconsistent with -dE/dr.
WARNING:  Should only be flagged at inflection points (src/pair_table_pgn.cpp:478)
pair_coeff 1 2 mixed_potentiale.txt DE_GNP 391.2 92.95
WARNING: 1564 of 10941 force values in table DE_GNP are inconsistent with -dE/dr.
WARNING:  Should only be flagged at inflection points (src/pair_table_pgn.cpp:478)

# Neighbor list
neighbor 2.0 bin
neigh_modify delay 0 every 1 check no once yes

# Temperature
variable T equal ${Temp}
variable T equal 300

# Deformation
reset_timestep 0
variable tmp equal "lx"
variable L0 equal ${tmp}
variable L0 equal 607.996097809754
variable strain equal "(lx - v_L0)/v_L0"
variable stp equal "step"
variable tmpe equal "temp"
variable p1 equal "v_strain"
variable p2 equal "-pxx*1.01325/10000"
variable p3 equal "-pyy*1.01325/10000"
variable p4 equal "-pzz*1.01325/10000"
variable p5 equal "lx"
variable p6 equal "ly"
variable p7 equal "lz"
variable p8 equal "press"
variable p9 equal "epair"
variable p10 equal "etotal"

# Thermo
thermo_style custom step temp v_p1 v_p2 v_p3 v_p4 press lx ly lz vol density epair pe ke etotal pxx pyy pzz pxy pxz pyz spcpu
thermo ${ts_save}
thermo 1000

# Dump
# dump 1 all custom 2000 ./${N20}${N100}/tensile/trajectory/trajectory_${usic}_${trial}_*.tensile.custom id type x y z ix iy iz
# dump_modify 1 sort id
dump 2 all cfg 50000 ./trial${trial}/${N20}${N100}/tensile/trajectory/dumpten.tens_${usic}_${trial}_*.cfg mass type xs ys zs fx fy fz
dump 2 all cfg 50000 ./trial8/${N20}${N100}/tensile/trajectory/dumpten.tens_${usic}_${trial}_*.cfg mass type xs ys zs fx fy fz
dump 2 all cfg 50000 ./trial8/70${N100}/tensile/trajectory/dumpten.tens_${usic}_${trial}_*.cfg mass type xs ys zs fx fy fz
dump 2 all cfg 50000 ./trial8/7030/tensile/trajectory/dumpten.tens_${usic}_${trial}_*.cfg mass type xs ys zs fx fy fz
dump 2 all cfg 50000 ./trial8/7030/tensile/trajectory/dumpten.tens_1_${trial}_*.cfg mass type xs ys zs fx fy fz
dump 2 all cfg 50000 ./trial8/7030/tensile/trajectory/dumpten.tens_1_8_*.cfg mass type xs ys zs fx fy fz
dump_modify 2 element N20 N100

fix 1 all nvt temp ${T} ${T} 100
fix 1 all nvt temp 300 ${T} 100
fix 1 all nvt temp 300 300 100
fix 2 all deform 1 x erate ${strain_rate} y erate ${strain_rate} z erate ${strain_rate} units box
fix 2 all deform 1 x erate 5e-6 y erate ${strain_rate} z erate ${strain_rate} units box
fix 2 all deform 1 x erate 5e-6 y erate 5e-6 z erate ${strain_rate} units box
fix 2 all deform 1 x erate 5e-6 y erate 5e-6 z erate 5e-6 units box
fix             def1 all print ${ts_save} "${p1} ${p2} ${p3} ${p4}" file ./tensile/${trial}/tensile${N20}${N100}_${usic}_${trial}.txt screen no
fix             def1 all print 1000 "${p1} ${p2} ${p3} ${p4}" file ./tensile/${trial}/tensile${N20}${N100}_${usic}_${trial}.txt screen no
fix             def1 all print 1000 "${p1} ${p2} ${p3} ${p4}" file ./tensile/8/tensile${N20}${N100}_${usic}_${trial}.txt screen no
fix             def1 all print 1000 "${p1} ${p2} ${p3} ${p4}" file ./tensile/8/tensile70${N100}_${usic}_${trial}.txt screen no
fix             def1 all print 1000 "${p1} ${p2} ${p3} ${p4}" file ./tensile/8/tensile7030_${usic}_${trial}.txt screen no
fix             def1 all print 1000 "${p1} ${p2} ${p3} ${p4}" file ./tensile/8/tensile7030_1_${trial}.txt screen no
fix             def1 all print 1000 "${p1} ${p2} ${p3} ${p4}" file ./tensile/8/tensile7030_1_8.txt screen no

timestep       		${ts}
timestep       		0.1
run				${steps_tensile}
run				6000000
Generated 0 of 1 mixed pair_coeff terms from geometric mixing rule
Unused restart file global fix info:
  fix style: npt, fix ID: 5
Neighbor list info ...
  update every 1 steps, delay 0 steps, check no
  max neighbors/atom: 2000, page size: 100000
  master list distance cutoff = 113.78
  ghost atom cutoff = 113.78
  binsize = 56.89, bins = 11 11 11
  1 neighbor lists, perpetual/occasional/extra = 1 0 0
  (1) pair table/pgn, perpetual
      attributes: half, newton on
      pair build: half/bin/atomonly/newton
      stencil: half/bin/3d
      bin: standard
Per MPI rank memory allocation (min/avg/max) = 3.853 | 3.853 | 3.853 Mbytes
   Step          Temp           v_p1           v_p2           v_p3           v_p4          Press            Lx             Ly             Lz           Volume        Density         E_pair         PotEng         KinEng         TotEng          Pxx            Pyy            Pzz            Pxy            Pxz            Pyz           S/CPU     
         0   304.01157     -7.4794452e-16  0.019154555    0.024344322    0.020960608   -212.05522      607.9961       607.9961       607.9961       2.2475138e+08  2.0828534     -16479558      -16479558       905.29455     -16478653      -189.04076     -240.25978     -206.86512     -40.365091     -7.3444711      28.625123      0            
      1000   361.88026      0.0005         0.027696271    0.032763678    0.029299621   -295.28603      608.3001       608.3001       608.3001       2.2508868e+08  2.0797323     -16478539      -16478539       1077.6176     -16477461      -273.34095     -323.35236     -289.16477     -41.631443     -8.9322582      26.227362      15279.332    
      2000   460.63658      0.001          0.035313607    0.039785129    0.036501885   -367.1375       608.60409      608.60409      608.60409      2.2542631e+08  2.0766173     -16477414      -16477414       1371.6971     -16476043      -348.5182      -392.64869     -360.2456      -41.240525     -8.1282875      23.716104      15701.143    
      3000   539.30903      0.0015         0.041387327    0.045425842    0.042441903   -425.21613      608.90809      608.90809      608.90809      2.2576428e+08  2.0735086     -16476171      -16476171       1605.9702     -16474565      -408.46116     -448.3182      -418.86902     -40.301576     -7.1699741      22.97878       15592.91     
      4000   576.93421      0.002          0.046854401    0.050888029    0.048280133   -480.37689      609.21209      609.21209      609.21209      2.2610259e+08  2.0704061     -16474752      -16474752       1718.0116     -16473033      -462.41699     -502.2258      -476.48787     -38.76075      -8.100826       22.980201      15584.659    
      5000   579.89621      0.0025         0.052680878    0.056876502    0.054644644   -540.18266      609.51609      609.51609      609.51609      2.2644124e+08  2.0673098     -16473077      -16473077       1726.8319     -16471350      -519.91984     -561.32743     -539.3007      -36.905918     -9.8330144      22.44965       15806.419    
      6000   563.51707      0.003          0.058883409    0.063572493    0.061186882   -604.13779      609.82009      609.82009      609.82009      2.2678022e+08  2.0642196     -16471084      -16471084       1678.0576     -16469405      -581.13406     -627.41173     -603.86758     -36.478628     -11.405284      21.987619      15706.981    
      7000   539.53196      0.0035         0.065221729    0.070454482    0.067557219   -668.586        610.12408      610.12408      610.12408      2.2711954e+08  2.0611357     -16468737      -16468737       1606.634      -16467130      -643.68842     -695.33168     -666.73791     -38.007352     -12.846741      22.17457       15686.638    
      8000   514.91645      0.004          0.07160389     0.076889831    0.073856252   -731.47454      610.42808      610.42808      610.42808      2.274592e+08   2.0580578     -16466037      -16466037       1533.3333     -16464504      -706.67545     -758.84363     -728.90453     -39.889        -12.557264      22.242907      15826.814    
      9000   492.95813      0.0045         0.077995747    0.082817157    0.080262657   -793.07694      610.73208      610.73208      610.73208      2.277992e+08   2.0549861     -16462999      -16462999       1467.9451     -16461531      -769.75818     -817.34179     -792.13084     -39.971222     -11.427938      20.568798      15641.823    
     10000   474.21268      0.005          0.084190671    0.088453269    0.086348165   -852.01778      611.03608      611.03608      611.03608      2.2813954e+08  2.0519205     -16459619      -16459619       1412.1244     -16458207      -830.89732     -872.96589     -852.19013     -37.671989     -11.702463      18.377497      15836.87     
     11000   458.23313      0.0055         0.08996052     0.093971969    0.091836631   -907.20987      611.34008      611.34008      611.34008      2.2848022e+08  2.0488609     -16455911      -16455911       1364.54       -16454546      -887.8413      -927.43123     -906.35708     -35.057254     -13.845202      17.618936      15645.711    
     12000   444.72829      0.006          0.095222713    0.099274325    0.096981826   -958.89091      611.64407      611.64407      611.64407      2.2882123e+08  2.0458075     -16451898      -16451898       1324.3249     -16450574      -939.77511     -979.76141     -957.1362      -34.822699     -15.930867      18.146916      15428.894    
     13000   433.31322      0.0065         0.10047699     0.10458405     0.10231799    -1011.1984      611.94807      611.94807      611.94807      2.2916259e+08  2.0427601     -16447597      -16447597       1290.3328     -16446307      -991.63082     -1032.1643     -1009.8001     -35.322496     -16.253156      19.304242      15330.286    
     14000   423.28436      0.007          0.10596905     0.11005964     0.10795258    -1065.8155      612.25207      612.25207      612.25207      2.2950428e+08  2.0397188     -16443009      -16443009       1260.4686     -16441749      -1045.8332     -1086.2042     -1065.4091     -34.842524     -15.883797      19.524481      15380.475    
     15000   414.34968      0.0075         0.111493       0.11535231     0.11353853    -1119.7758      612.55607      612.55607      612.55607      2.2984631e+08  2.0366835     -16438127      -16438127       1233.8626     -16436893      -1100.3503     -1138.4388     -1120.5382     -33.793373     -15.795165      18.093691      15657.488    
     16000   407.17965      0.008          0.11664462     0.12021592     0.11858298    -1169.3183      612.86007      612.86007      612.86007      2.3018869e+08  2.0336542     -16432964      -16432964       1212.5115     -16431751      -1151.1929     -1186.4389     -1170.323      -33.131519     -16.74377       15.762924      15829.742    
     17000   401.9308       0.0085         0.12121726     0.12497459     0.12320119    -1215.2086      613.16406      613.16406      613.16406      2.305314e+08   2.0306309     -16427546      -16427546       1196.8813     -16426349      -1196.3213     -1233.4033     -1215.9012     -32.502797     -17.738428      13.994786      15753.689    
     18000   397.73311      0.009          0.12562005     0.12976132     0.12788805    -1260.8583      613.46806      613.46806      613.46806      2.3087445e+08  2.0276137     -16421887      -16421887       1184.3813     -16420703      -1239.7735     -1280.6446     -1262.1569     -31.600325     -17.075638      12.758274      15698.815    
     19000   393.70527      0.0095         0.13035856     0.13443149     0.13266412    -1307.5226      613.77206      613.77206      613.77206      2.3121784e+08  2.0246023     -16415975      -16415975       1172.3871     -16414803      -1286.539      -1326.7357     -1309.293      -32.056573     -15.950555      12.045173      15863.434    
     20000   389.85842      0.01           0.13521074     0.1387978      0.13721704    -1352.827       614.07606      614.07606      614.07606      2.3156158e+08  2.021597      -16409812      -16409812       1160.9318     -16408651      -1334.4262     -1369.8278     -1354.2269     -33.50416      -16.608182      12.468129      15729.568    
     21000   386.84895      0.0105         0.13992308     0.1429832      0.14152955    -1396.2853      614.38006      614.38006      614.38006      2.3190565e+08  2.0185976     -16403416      -16403416       1151.9701     -16402264      -1380.9334     -1411.1345     -1396.7881     -33.543928     -19.098937      14.138127      15846.853    
     22000   385.02658      0.011          0.14441949     0.14729454     0.14580004    -1439.3094      614.68405      614.68405      614.68405      2.3225006e+08  2.0156041     -16396786      -16396786       1146.5434     -16395640      -1425.3095     -1453.6841     -1438.9345     -31.943097     -21.500705      15.381195      15770.612    
     23000   384.29329      0.0115         0.1484304      0.15163034     0.15011816    -1480.9734      614.98805      614.98805      614.98805      2.3259482e+08  2.0126166     -16389932      -16389932       1144.3598     -16388788      -1464.8941     -1496.4751     -1481.5511     -30.025051     -23.023599      14.838416      15697.126    
     24000   384.10495      0.012          0.1519585      0.15569857     0.15443078    -1520.1508      615.29205      615.29205      615.29205      2.3293992e+08  2.0096349     -16382877      -16382877       1143.799      -16381733      -1499.7138     -1536.6254     -1524.1133     -28.864138     -22.658405      11.978264      15900.254    
     25000   384.06582      0.0125         0.15571562     0.15967301     0.15856255    -1559.1781      615.59605      615.59605      615.59605      2.3328535e+08  2.0066592     -16375626      -16375626       1143.6824     -16374482      -1536.7936     -1575.8501     -1564.8907     -29.635308     -21.24564       9.1067602      15685.377    
     26000   383.94348      0.013          0.159966       0.16366853     0.16262243    -1599.661       615.90005      615.90005      615.90005      2.3363113e+08  2.0036893     -16368166      -16368166       1143.3181     -16367023      -1578.7417     -1615.2829     -1604.9586     -31.29859      -19.409265      7.8622975      15709.369    
     27000   384.18269      0.0135         0.1640819      0.16739645     0.16640567    -1637.9111      616.20405      616.20405      616.20405      2.3397725e+08  2.0007252     -16360491      -16360491       1144.0304     -16359347      -1619.3624     -1652.0745     -1642.2963     -31.110654     -18.028436      9.9411655      15838.358    
     28000   385.51152      0.014          0.16777011     0.1708517      0.16997507    -1673.1536      616.50804      616.50804      616.50804      2.3432371e+08  1.997767      -16352620      -16352620       1147.9875     -16351472      -1655.7622     -1686.1752     -1677.5235     -29.502108     -17.632071      13.511016      15733.344    
     29000   387.28981      0.0145         0.1714282      0.17435057     0.17337626    -1707.8872      616.81204      616.81204      616.81204      2.3467052e+08  1.9948147     -16344577      -16344577       1153.2829     -16343423      -1691.8648     -1720.7063     -1711.0906     -27.776321     -17.862414      13.236903      15830.409    
     30000   388.64528      0.015          0.17511564     0.17775898     0.17658247    -1741.7784      617.11604      617.11604      617.11604      2.3501766e+08  1.9918681     -16336370      -16336370       1157.3193     -16335213      -1728.257      -1754.3447     -1742.7335     -26.635887     -19.893366      10.413347      15726.867    
     31000   389.72657      0.0155         0.17844195     0.18095655     0.17976567    -1773.7122      617.42004      617.42004      617.42004      2.3536515e+08  1.9889274     -16327995      -16327995       1160.5392     -16326834      -1761.0851     -1785.9023     -1774.1492     -27.865262     -23.241946      9.7994172      15679.72     
     32000   391.04637      0.016          0.18150707     0.18397647     0.1827597     -1803.5801      617.72404      617.72404      617.72404      2.3571298e+08  1.9859924     -16319454      -16319454       1164.4693     -16318289      -1791.3356     -1815.7066     -1803.698      -29.303301     -25.186678      10.764828      15841.25     
     33000   392.54144      0.0165         0.18460483     0.18694726     0.1857273     -1833.3066      618.02803      618.02803      618.02803      2.3606115e+08  1.9830632     -16310752      -16310752       1168.9214     -16309583      -1821.908      -1845.026      -1832.9859     -28.370432     -25.835924      11.184613      15680.4      
     34000   394.00743      0.017          0.18749045     0.18971479     0.18875088    -1861.8509      618.33203      618.33203      618.33203      2.3640967e+08  1.9801398     -16301894      -16301894       1173.2869     -16300721      -1850.3869     -1872.3394     -1862.8264     -26.281692     -25.145384      10.22869       15713.718    
     35000   395.77519      0.0175         0.1901081      0.19261061     0.1915971     -1889.3521      618.63603      618.63603      618.63603      2.3675853e+08  1.9772221     -16292891      -16292891       1178.5509     -16291713      -1876.2211     -1900.9189     -1890.9164     -26.117361     -23.15031       8.5382985      15888.958    
     36000   397.91483      0.018          0.19299394     0.19576893     0.19448724    -1918.7437      618.94003      618.94003      618.94003      2.3710773e+08  1.9743101     -16283744      -16283744       1184.9224     -16282559      -1904.7021     -1932.0891     -1919.4399     -26.728414     -21.433681      8.5802177      15680.346    
     37000   400.03518      0.0185         0.19618957     0.19876358     0.19763047    -1949.4486      619.24403      619.24403      619.24403      2.3745727e+08  1.9714039     -16274447      -16274447       1191.2365     -16273256      -1936.2406     -1961.644      -1950.4611     -26.253379     -20.943215      9.2035446      15665.279    
     38000   402.31928      0.019          0.19902721     0.20105688     0.20062729    -1976.1868      619.54802      619.54802      619.54802      2.3780716e+08  1.9685033     -16265007      -16265007       1198.0381     -16263809      -1964.2459     -1984.2771     -1980.0374     -26.045725     -21.683323      8.8747         15863.115    
     39000   405.31337      0.0195         0.20148042     0.20306599     0.20307018    -1998.9032      619.85202      619.85202      619.85202      2.3815739e+08  1.9656085     -16255442      -16255442       1206.954      -16254235      -1988.4571     -2004.1055     -2004.1469     -26.565065     -23.343255      8.8924585      15697.854    
     40000   408.35637      0.02           0.20407391     0.20575083     0.20535693    -2023.7903      620.15602      620.15602      620.15602      2.3850797e+08  1.9627193     -16245758      -16245758       1216.0155     -16244542      -2014.0529     -2030.6028     -2026.7153     -27.456736     -24.5418        9.1702898      15844.815    
     41000   410.15096      0.0205         0.20681103     0.20862128     0.2078235     -2050.3522      620.46002      620.46002      620.46002      2.3885889e+08  1.9598358     -16235942      -16235942       1221.3595     -16234721      -2041.0662     -2058.9319     -2051.0585     -27.992242     -23.752454      9.1527206      15700.494    
     42000   411.7464       0.021          0.2092136      0.21084426     0.21008297    -2073.0021      620.76402      620.76402      620.76402      2.3921015e+08  1.9569579     -16225992      -16225992       1226.1105     -16224765      -2064.7777     -2080.871      -2073.3577     -26.327668     -22.67269       8.8671377      15695.94     
     43000   414.00373      0.0215         0.21133599     0.21286815     0.21230476    -2093.9515      621.06801      621.06801      621.06801      2.3956176e+08  1.9540856     -16215925      -16215925       1232.8324     -16214692      -2085.7241     -2100.8453     -2095.2851     -23.880254     -24.465745      8.5985784      15901.646    
     44000   416.18586      0.022          0.21360405     0.21512662     0.21450737    -2116.0887      621.37201      621.37201      621.37201      2.3991371e+08  1.951219      -16205740      -16205740       1239.3304     -16204501      -2108.1081     -2123.1347     -2117.0232     -22.971567     -26.49978       9.3640329      15709.212    
     45000   418.10543      0.0225         0.21602437     0.21733458     0.21667801    -2138.4553      621.67601      621.67601      621.67601      2.40266e+08    1.948358      -16195439      -16195439       1245.0466     -16194194      -2131.9948     -2144.9255     -2138.4457     -23.952778     -26.536487      8.8356008      15769.495    
     46000   420.56598      0.023          0.21836618     0.21925212     0.21868708    -2159.0768      621.98001      621.98001      621.98001      2.4061865e+08  1.9455026     -16185039      -16185039       1252.3737     -16183786      -2155.1067     -2163.8501     -2158.2737     -24.506832     -26.582339      6.9999384      15859.314    
     47000   423.45095      0.0235         0.22048944     0.22111612     0.22044151    -2177.9655      622.28401      622.28401      622.28401      2.4097163e+08  1.9426527     -16174549      -16174549       1260.9646     -16173288      -2176.0616     -2182.2464     -2175.5885     -23.673572     -26.392384      5.9097614      15699.644    
     48000   425.95174      0.024          0.22228549     0.22284665     0.22228366    -2195.6273      622.588        622.588        622.588        2.4132496e+08  1.9398084     -16163954      -16163954       1268.4115     -16162686      -2193.7872     -2199.3254     -2193.7691     -24.020749     -23.849515      5.3149332      15761.994    
     49000   427.80044      0.0245         0.22376764     0.22426836     0.22413663    -2211.276       622.892        622.892        622.892        2.4167864e+08  1.9369697     -16153262      -16153262       1273.9167     -16151988      -2208.4149     -2213.3567     -2212.0566     -25.719315     -20.803165      5.5325227      15873.865    
     50000   429.63065      0.025          0.22541868     0.22568124     0.2258731     -2227.0681      623.196        623.196        623.196        2.4203266e+08  1.9341364     -16142490      -16142490       1279.3667     -16141211      -2224.7094     -2227.3007     -2229.1942     -26.630895     -20.81145       7.482912       14896.456    
     51000   431.47048      0.0255         0.22718829     0.22747883     0.22778785    -2245.1023      623.5          623.5          623.5          2.4238703e+08  1.9313088     -16131630      -16131630       1284.8454     -16130345      -2242.1741     -2245.0415     -2248.0913     -26.327808     -23.520203      9.1091731      15900.595    
     52000   432.88513      0.026          0.22883314     0.22935539     0.22976849    -2263.2026      623.804        623.804        623.804        2.4274174e+08  1.9284866     -16120673      -16120673       1289.058      -16119384      -2258.4075     -2263.5617     -2267.6386     -24.497926     -26.404939      9.1147625      15703.789    
     53000   434.15661      0.0265         0.23039277     0.23086589     0.23117859    -2277.9414      624.10799      624.10799      624.10799      2.430968e+08   1.9256699     -16109628      -16109628       1292.8442     -16108335      -2273.7999     -2278.4692     -2281.5552     -22.071375     -27.738887      7.2125668      15252.682    
     54000   435.65879      0.027          0.23198075     0.23231318     0.23211655    -2291.0124      624.41199      624.41199      624.41199      2.434522e+08   1.9228587     -16098513      -16098513       1297.3175     -16097216      -2289.472      -2292.7528     -2290.8123     -20.691882     -26.54122       5.1149547      15810.139    
     55000   437.18779      0.0275         0.23363374     0.23379008     0.23315505    -2304.7253      624.71599      624.71599      624.71599      2.4380795e+08  1.920053      -16087323      -16087323       1301.8706     -16086021      -2305.7857     -2307.3287     -2301.0614     -20.784172     -25.665441      5.1869204      15718.496    
     56000   438.57951      0.028          0.23509825     0.23504998     0.23451541    -2318.1632      625.01999      625.01999      625.01999      2.4416405e+08  1.9172527     -16076053      -16076053       1306.0149     -16074747      -2320.2394     -2319.763      -2314.4872     -21.845683     -25.370097      6.6106735      15724.617    
     57000   439.99872      0.0285         0.23614731     0.23608567     0.23608921    -2330.1988      625.32399      625.32399      625.32399      2.4452049e+08  1.9144579     -16064710      -16064710       1310.241      -16063399      -2330.5927     -2329.9844     -2330.0193     -22.85744      -25.420919      6.849052       15726.437    
     58000   441.70484      0.029          0.23692342     0.23709573     0.23735123    -2340.2266      625.62798      625.62798      625.62798      2.4487728e+08  1.9116685     -16053304      -16053304       1315.3216     -16051989      -2338.2523     -2339.953      -2342.4745     -23.074387     -26.216012      5.3002702      15757.295    
     59000   443.74382      0.0295         0.23789839     0.23809115     0.23814022    -2349.3043      625.93198      625.93198      625.93198      2.4523442e+08  1.9088845     -16041850      -16041850       1321.3933     -16040529      -2347.8746     -2349.7769     -2350.2612     -23.181157     -25.982178      3.7906293      15685.279    
     60000   445.60587      0.03           0.23913382     0.23904661     0.23909017    -2359.6368      626.23598      626.23598      626.23598      2.4559191e+08  1.9061059     -16030350      -16030350       1326.9382     -16029023      -2360.0673     -2359.2067     -2359.6365     -21.775422     -24.590035      3.0864224      15820.083    
     61000   446.6029       0.0305         0.24054366     0.24025532     0.24039319    -2372.5378      626.53998      626.53998      626.53998      2.4594974e+08  1.9033327     -16018778      -16018778       1329.9072     -16017448      -2373.9814     -2371.1356     -2372.4963     -18.917723     -24.658211      2.6657554      15685.231    
     62000   446.83153      0.031          0.24175953     0.24138513     0.24149516    -2383.8796      626.84398      626.84398      626.84398      2.4630792e+08  1.9005649     -16007132      -16007132       1330.588      -16005802      -2385.981      -2382.286      -2383.3719     -17.400158     -24.91943       2.0472194      15866.676    
     63000   447.59769      0.0315         0.24259785     0.24217643     0.24219984    -2391.5589      627.14797      627.14797      627.14797      2.4666644e+08  1.8978025     -15995433      -15995433       1332.8695     -15994100      -2394.2546     -2390.0955     -2390.3266     -20.069338     -23.311915      1.5034895      15696.505    
     64000   449.10177      0.032          0.24332627     0.24293545     0.24302675    -2399.1725      627.45197      627.45197      627.45197      2.4702532e+08  1.8950454     -15983693      -15983693       1337.3484     -15982356      -2401.4436     -2397.5864     -2398.4876     -23.869275     -23.042479      1.089205       15730.299    
     65000   450.53279      0.0325         0.24406499     0.24370579     0.24389698    -2406.9998      627.75597      627.75597      627.75597      2.4738454e+08  1.8922936     -15971901      -15971901       1341.6097     -15970559      -2408.7342     -2405.1892     -2407.076      -23.739662     -24.309306      1.2304852      15858.143    
     66000   451.76931      0.033          0.24475936     0.24439113     0.24442494    -2413.2755      628.05997      628.05997      628.05997      2.4774411e+08  1.8895472     -15960062      -15960062       1345.2919     -15958717      -2415.587      -2411.9529     -2412.2866     -21.163001     -24.740145      2.1783221      15772.448    
     67000   453.06439      0.0335         0.24525582     0.24489224     0.24479092    -2417.7613      628.36397      628.36397      628.36397      2.4810403e+08  1.8868061     -15948195      -15948195       1349.1484     -15946846      -2420.4867     -2416.8985     -2415.8985     -20.488417     -24.688823      2.3108278      15668.199    
     68000   454.12832      0.034          0.24571122     0.24538179     0.24529999    -2422.5446      628.66797      628.66797      628.66797      2.484643e+08   1.8840702     -15936304      -15936304       1352.3166     -15934952      -2424.9812     -2421.7299     -2420.9227     -21.50709      -23.117179      0.76102408     15867.879    
     69000   454.30151      0.0345         0.24647832     0.24608873     0.24627108    -2430.5885      628.97196      628.97196      628.97196      2.4882491e+08  1.8813397     -15924373      -15924373       1352.8323     -15923020      -2432.5519     -2428.7069     -2430.5066     -22.514772     -22.813573     -0.4562291      15713.844    
     70000   453.63302      0.035          0.24728435     0.24677814     0.24711912    -2438.2979      629.27596      629.27596      629.27596      2.4918588e+08  1.8786144     -15912385      -15912385       1350.8417     -15911034      -2440.5068     -2435.5109     -2438.8761     -22.499983     -23.891495      1.3928276      15777.352    
     71000   453.37012      0.0355         0.24791784     0.24714865     0.24739072    -2442.4943      629.57996      629.57996      629.57996      2.4954719e+08  1.8758944     -15900346      -15900346       1350.0588     -15898996      -2446.7588     -2439.1675     -2441.5566     -20.798756     -25.036866      3.1733333      15854.191    
     72000   454.09343      0.036          0.24815246     0.24743487     0.24749256    -2444.5428      629.88396      629.88396      629.88396      2.4990885e+08  1.8731797     -15888282      -15888282       1352.2127     -15886930      -2449.0744     -2441.9923     -2442.5616     -18.565774     -25.289979      1.9964845      15694.267    
     73000   455.29497      0.0365         0.24810311     0.2475421      0.2479116     -2446.1117      630.18796      630.18796      630.18796      2.5027087e+08  1.8704702     -15876208      -15876208       1355.7907     -15874852      -2448.5874     -2443.0506     -2446.6973     -17.050989     -22.429776      0.83415843     15828.16     
     74000   456.28061      0.037          0.24803451     0.24759784     0.24826903    -2447.2452      630.49195      630.49195      630.49195      2.5063323e+08  1.8677659     -15864122      -15864122       1358.7258     -15862763      -2447.9103     -2443.6006     -2450.2248     -16.815587     -19.184769      0.1960449      15737.268    
     75000   456.68125      0.0375         0.24818163     0.24801084     0.24833956    -2449.32        630.79595      630.79595      630.79595      2.5099594e+08  1.8650668     -15852018      -15852018       1359.9188     -15850658      -2449.3623     -2447.6767     -2450.9209     -17.864782     -18.310965     -0.57703043     15675.432    
     76000   456.84546      0.038          0.24846351     0.24842279     0.24817394    -2451.0576      631.09995      631.09995      631.09995      2.51359e+08    1.8623729     -15839900      -15839900       1360.4078     -15838539      -2452.1442     -2451.7423     -2449.2864     -18.492056     -19.661431     -1.8207776      15855.469    
     77000   457.13366      0.0385         0.24868949     0.24851175     0.24806913    -2451.7489      631.40395      631.40395      631.40395      2.5172241e+08  1.8596842     -15827768      -15827768       1361.266      -15826407      -2454.3744     -2452.6202     -2448.252      -18.189998     -22.161692     -3.0111726      15424.173    
     78000   457.03174      0.039          0.24883406     0.2484093      0.24820951    -2452.3493      631.70795      631.70795      631.70795      2.5208617e+08  1.8570007     -15815619      -15815619       1360.9625     -15814258      -2455.8013     -2451.6092     -2449.6374     -17.350334     -23.79983      -3.1062447      15620.061    
     79000   456.28809      0.0395         0.24885012     0.24828632     0.24827859    -2452.2248      632.01194      632.01194      632.01194      2.5245028e+08  1.8543223     -15803450      -15803450       1358.748      -15802091      -2455.9597     -2450.3954     -2450.3191     -17.465498     -23.785075     -2.4985362      15843.28     
     80000   455.77238      0.04           0.24865756     0.24803366     0.24823263    -2450.6089      632.31594      632.31594      632.31594      2.5281474e+08  1.8516491     -15791269      -15791269       1357.2123     -15789911      -2454.0593     -2447.9019     -2449.8655     -17.29151      -21.754227     -2.211696       15755.973    
     81000   455.88731      0.0405         0.24850098     0.2476864      0.24810034    -2448.5162      632.61994      632.61994      632.61994      2.5317955e+08  1.848981      -15779089      -15779089       1357.5546     -15777732      -2452.5139     -2444.4747     -2448.5599     -16.686823     -19.714235     -2.8022007      15839.339    
     82000   456.19426      0.041          0.2484052      0.24753972     0.24770624    -2446.4221      632.92394      632.92394      632.92394      2.5354472e+08  1.8463181     -15766922      -15766922       1358.4686     -15765564      -2451.5687     -2443.0271     -2444.6705     -16.519967     -18.607368     -3.3499339      15720.041    
     83000   456.26934      0.0415         0.24810159     0.24752689     0.24728778    -2444.0045      633.22794      633.22794      633.22794      2.5391023e+08  1.8436602     -15754765      -15754765       1358.6922     -15753407      -2448.5723     -2442.9004     -2440.5407     -16.649168     -17.184855     -3.8963534      15675.569    
     84000   456.35315      0.042          0.24777968     0.2472827      0.24698505    -2441.1462      633.53193      633.53193      633.53193      2.5427609e+08  1.8410075     -15742605      -15742605       1358.9418     -15741246      -2445.3953     -2440.4905     -2437.5529     -15.174531     -15.72418      -3.2044306      15883.068    
     85000   456.42133      0.0425         0.24756467     0.24679465     0.24679035    -2438.1928      633.83593      633.83593      633.83593      2.5464231e+08  1.8383598     -15730442      -15730442       1359.1448     -15729083      -2443.2733     -2435.6738     -2435.6314     -12.208567     -15.382198     -1.0686358      15725.94     
     86000   456.05912      0.043          0.24729949     0.24651767     0.24664001    -2435.9147      634.13993      634.13993      634.13993      2.5500888e+08  1.8357172     -15718277      -15718277       1358.0662     -15716919      -2440.6562     -2432.9402     -2434.1476     -10.920004     -15.197944     -0.62693315     15656.456    
     87000   455.25024      0.0435         0.24665501     0.24620061     0.24627315    -2431.5446      634.44393      634.44393      634.44393      2.553758e+08   1.8330797     -15706125      -15706125       1355.6575     -15704770      -2434.2957     -2429.8111     -2430.527      -12.079196     -15.583689     -3.2781059      15892.866    
     88000   454.719        0.044          0.24584169     0.24547263     0.24550964    -2423.9624      634.74793      634.74793      634.74793      2.5574307e+08  1.8304472     -15693997      -15693997       1354.0755     -15692643      -2426.2688     -2422.6265     -2422.9918     -13.53608      -17.038971     -5.7224674      15689.039    
     89000   454.39205      0.0445         0.24536051     0.24473155     0.24467832    -2417.2066      635.05192      635.05192      635.05192      2.5611069e+08  1.8278198     -15681894      -15681894       1353.1019     -15680541      -2421.5199     -2415.3126     -2414.7872     -15.676217     -18.48737      -6.5671244      15731.22     
     90000   453.92356      0.045          0.24505341     0.24423597     0.24396096    -2412.2061      635.35592      635.35592      635.35592      2.5647867e+08  1.8251974     -15669803      -15669803       1351.7068     -15668452      -2418.4891     -2410.4216     -2407.7075     -17.544028     -18.457694     -7.2225008      15830.349    
     91000   453.43151      0.0455         0.24442204     0.24371848     0.24340012    -2406.5816      635.65992      635.65992      635.65992      2.5684699e+08  1.82258       -15657727      -15657727       1350.2416     -15656377      -2412.258      -2405.3144     -2402.1724     -16.441899     -18.825545     -7.8756904      15730.909    
     92000   452.93992      0.046          0.24332332     0.24300279     0.24296973    -2399.1968      635.96392      635.96392      635.96392      2.5721567e+08  1.8199676     -15645678      -15645678       1348.7777     -15644330      -2401.4145     -2398.2511     -2397.9248     -12.020694     -18.689342     -7.8560314      15827.486    
     93000   452.31126      0.0465         0.24220373     0.24231208     0.24247995    -2391.6301      636.26792      636.26792      636.26792      2.5758471e+08  1.8173602     -15633663      -15633663       1346.9057     -15632316      -2390.365      -2391.4343     -2393.0911     -8.5170105     -17.275685     -6.9757766      15745.083    
     94000   451.56212      0.047          0.2415986      0.24176446     0.2420377     -2386.3829      636.57191      636.57191      636.57191      2.5795409e+08  1.8147578     -15621673      -15621673       1344.6749     -15620328      -2384.3928     -2386.0297     -2388.7264     -7.981015      -15.853999     -5.7695632      15663.373    
     95000   450.64368      0.0475         0.24116734     0.2411916      0.2414404     -2381.1147      636.87591      636.87591      636.87591      2.5832383e+08  1.8121603     -15609688      -15609688       1341.9399     -15608346      -2380.1366     -2380.376      -2382.8315     -8.3994924     -15.233445     -5.9545576      15882.703    
     96000   450.02754      0.048          0.24047437     0.24035514     0.24021892    -2372.0649      637.17991      637.17991      637.17991      2.5869392e+08  1.8095678     -15597714      -15597714       1340.1052     -15596374      -2373.2975     -2372.1208     -2370.7765     -8.6946955     -13.660757     -7.7991955      15694.943    
     97000   450.11573      0.0485         0.23950142     0.23938257     0.23870927    -2360.6982      637.48391      637.48391      637.48391      2.5906437e+08  1.8069802     -15585789      -15585789       1340.3678     -15584448      -2363.6952     -2362.5223     -2355.8773     -8.8822908     -11.858585     -9.4768674      15686.217    
     98000   449.79267      0.049          0.23858264     0.2384709      0.23765894    -2351.2213      637.78791      637.78791      637.78791      2.5943516e+08  1.8043976     -15573921      -15573921       1339.4058     -15572581      -2354.6276     -2353.5248     -2345.5114     -8.5724623     -11.87955      -10.897139      15825.263    
     99000   448.3933       0.0495         0.23777996     0.23739825     0.23699689    -2342.8739      638.0919       638.0919       638.0919       2.5980632e+08  1.8018199     -15562097      -15562097       1335.2387     -15560761      -2346.7058     -2342.9386     -2338.9774     -7.8290449     -13.377024     -11.978771      15749.478    
    100000   446.8203       0.05           0.23683461     0.23605432     0.23615696    -2332.5796      638.3959       638.3959       638.3959       2.6017782e+08  1.7992471     -15550306      -15550306       1330.5546     -15548975      -2337.3758     -2329.675      -2330.688      -7.8538446     -15.672451     -12.607269      14975.64     
    101000   445.90105      0.0505         0.23577955     0.23478544     0.23517717    -2321.7112      638.6999       638.6999       638.6999       2.6054968e+08  1.7966792     -15538538      -15538538       1327.8172     -15537210      -2326.9633     -2317.1521     -2321.0182     -7.7229023     -17.364368     -12.080804      15834.663    
    102000   445.18765      0.051          0.23463435     0.23383364     0.23427969    -2311.8601      639.0039       639.0039       639.0039       2.6092189e+08  1.7941162     -15526804      -15526804       1325.6928     -15525479      -2315.661      -2307.7586     -2312.1608     -7.4057159     -17.093815     -10.620703      15664.349    
    103000   444.24776      0.0515         0.23335506     0.23294621     0.23342241    -2301.9119      639.3079       639.3079       639.3079       2.6129446e+08  1.791558      -15515125      -15515125       1322.894      -15513802      -2303.0354     -2299.0003     -2303.7001     -7.5553927     -16.117385     -10.166793      15872.178    
    104000   443.37465      0.052          0.23201198     0.23197583     0.2324318     -2291.0424      639.61189      639.61189      639.61189      2.6166739e+08  1.7890047     -15503502      -15503502       1320.294      -15502182      -2289.7802     -2289.4235     -2293.9235     -8.0316066     -14.306496     -11.135633      15680.612    
    105000   442.49328      0.0525         0.23087462     0.23074372     0.23121902    -2279.2577      639.91589      639.91589      639.91589      2.6204066e+08  1.7864563     -15491924      -15491924       1317.6694     -15490607      -2278.5553     -2277.2635     -2281.9543     -7.8327628     -11.502168     -11.919747      15713.222    
    106000   441.16483      0.053          0.22987398     0.2295968      0.22976699    -2267.416       640.21989      640.21989      640.21989      2.6241429e+08  1.7839127     -15480372      -15480372       1313.7135     -15479058      -2268.6798     -2265.9442     -2267.6238     -7.1977608     -10.79274      -12.561362      15830.252    
    107000   439.34437      0.0535         0.22867277     0.2285779      0.22826558    -2255.1731      640.52389      640.52389      640.52389      2.6278828e+08  1.7813739     -15468868      -15468868       1308.2925     -15467560      -2256.8248     -2255.8885     -2252.8061     -5.471883      -12.636956     -13.251554      15734.21     
    108000   437.726        0.054          0.22725978     0.22730521     0.22695985    -2242.0424      640.82789      640.82789      640.82789      2.6316262e+08  1.7788399     -15457430      -15457430       1303.4733     -15456126      -2242.8797     -2243.328      -2239.9195     -2.8903451     -14.512213     -15.020335      15743.976    
    109000   436.53786      0.0545         0.22601432     0.22568883     0.2258222     -2228.8851      641.13189      641.13189      641.13189      2.6353732e+08  1.7763108     -15446055      -15446055       1299.9352     -15444755      -2230.5879     -2227.3756     -2228.6918     -1.5763696     -14.112946     -16.923861      15886.365    
    110000   435.9528       0.055          0.22502556     0.22420713     0.22475578    -2217.2497      641.43588      641.43588      641.43588      2.6391237e+08  1.7737864     -15434734      -15434734       1298.193      -15433436      -2220.8296     -2212.7523     -2218.1671     -0.42065712    -12.292334     -17.96026       15649.469    
    111000   435.5451       0.0555         0.22407032     0.22320282     0.2237761     -2207.5803      641.73988      641.73988      641.73988      2.6428778e+08  1.7712668     -15423456      -15423456       1296.9789     -15422159      -2211.4021     -2202.8405     -2208.4984      0.071669998   -11.513795     -17.845187      15685.794    
    112000   434.89699      0.056          0.2229597      0.22231852     0.22263639    -2197.2682      642.04388      642.04388      642.04388      2.6466355e+08  1.768752      -15412216      -15412216       1295.049      -15410921      -2200.4411     -2194.1132     -2197.2504     -1.5489157     -12.248432     -17.438916      15828.174    
    113000   433.49737      0.0565         0.22154175     0.22114555     0.22120437    -2184.0338      642.34788      642.34788      642.34788      2.6503967e+08  1.766242      -15401024      -15401024       1290.8811     -15399733      -2186.447      -2182.5369     -2183.1174     -4.160824      -13.046633     -17.232849      15693.577    
    114000   431.32594      0.057          0.21968686     0.21948159     0.21941449    -2166.5695      642.65188      642.65188      642.65188      2.6541615e+08  1.7637367     -15389898      -15389898       1284.415      -15388613      -2168.1408     -2166.1149     -2165.4527     -4.8319457     -14.576238     -18.14764       15863.468    
    115000   428.94075      0.0575         0.21771677     0.21771077     0.21757651    -2148.2163      642.95587      642.95587      642.95587      2.6579298e+08  1.7612361     -15378850      -15378850       1277.3123     -15377572      -2148.6975     -2148.6382     -2147.3132     -2.7399339     -15.124764     -19.825049      15678.954    
    116000   426.84522      0.058          0.21631635     0.21608321     0.21620454    -2133.7416      643.25987      643.25987      643.25987      2.6617017e+08  1.7587402     -15367875      -15367875       1271.0722     -15366604      -2134.8764     -2132.5755     -2133.7729     -0.50887524    -13.625795     -20.786529      15698.635    
    117000   425.14831      0.0585         0.21537051     0.21469022     0.21543465    -2123.5147      643.56387      643.56387      643.56387      2.6654771e+08  1.7562491     -15356951      -15356951       1266.0191     -15355685      -2125.5416     -2118.8277     -2126.1747     -0.30399855    -11.762364     -20.02428       15836.358    
    118000   423.84293      0.059          0.21438694     0.21333258     0.21467952    -2113.3285      643.86787      643.86787      643.86787      2.6692562e+08  1.7537627     -15346068      -15346068       1262.1319     -15344806      -2115.8346     -2105.4288     -2118.7222     -1.1011837     -11.520567     -18.527465      15662.445    
    119000   423.11748      0.0595         0.21310716     0.21197535     0.21345424    -2100.6226      644.17187      644.17187      644.17187      2.6730388e+08  1.7512809     -15335239      -15335239       1259.9716     -15333979      -2103.2041     -2092.0341     -2106.6296     -0.9673884     -12.061569     -18.408707      15719.376    
    120000   422.27937      0.06           0.21180247     0.21093905     0.21206117    -2088.3385      644.47586      644.47586      644.47586      2.6768249e+08  1.7488039     -15324464      -15324464       1257.4759     -15323207      -2090.3278     -2081.8065     -2092.8811     -1.3961055     -11.908861     -21.310128      15705.752    
    121000   420.34799      0.0605         0.21053062     0.20997269     0.21068691    -2076.4544      644.77986      644.77986      644.77986      2.6806147e+08  1.7463315     -15313736      -15313736       1251.7245     -15312484      -2077.7757     -2072.2693     -2079.3182     -3.1068947     -11.42722      -24.578202      15692.809    
    122000   417.93723      0.061          0.20891152     0.20853726     0.20910853    -2061.2133      645.08386      645.08386      645.08386      2.684408e+08   1.7438638     -15303060      -15303060       1244.5457     -15301816      -2061.7964     -2058.1027     -2063.7407     -4.0522098     -11.033525     -24.863899      15819.747    
    123000   416.14394      0.0615         0.20708399     0.20652708     0.20702288    -2041.7269      645.38786      645.38786      645.38786      2.6882049e+08  1.7414007     -15292464      -15292464       1239.2056     -15291225      -2043.7601     -2038.2638     -2043.157      -3.4144139     -10.906856     -23.158055      15732.156    
    124000   414.59885      0.062          0.20556423     0.20472316     0.20516276    -2024.6736      645.69186      645.69186      645.69186      2.6920054e+08  1.7389422     -15281954      -15281954       1234.6046     -15280719      -2028.7612     -2020.4605     -2024.799      -1.4636881     -12.122008     -21.93823       15613.427    
    125000   412.35473      0.0625         0.20433168     0.20323186     0.20398124    -2011.8259      645.99585      645.99585      645.99585      2.6958095e+08  1.7364884     -15271507      -15271507       1227.922      -15270280      -2016.5969     -2005.7425     -2013.1383     -0.11744091    -13.867944     -20.928461      15867.898    
    126000   410.06153      0.063          0.20287641     0.20180092     0.20287247    -1998.6835      646.29985      646.29985      646.29985      2.6996171e+08  1.7340392     -15261117      -15261117       1221.0932     -15259896      -2002.2345     -1991.6203     -2002.1956      0.13462834    -14.844054     -21.385925      15678.119    
    127000   408.52216      0.0635         0.20126888     0.2003529      0.2015569     -1984.3036      646.60385      646.60385      646.60385      2.7034283e+08  1.7315946     -15250789      -15250789       1216.5092     -15249572      -1986.3694     -1977.3294     -1989.212       0.38821721    -14.922914     -24.068477      15577.241    
    128000   407.45319      0.064          0.19990782     0.19891031     0.20015026    -1970.4528      646.90785      646.90785      646.90785      2.7072431e+08  1.7291546     -15240521      -15240521       1213.326      -15239307      -1972.9368     -1963.0921     -1975.3295      0.89209942    -13.785786     -26.516421      15892.786    
    129000   406.37399      0.0645         0.19881339     0.19747701     0.19876674    -1957.5858      647.21185      647.21185      647.21185      2.7110615e+08  1.7267192     -15230313      -15230313       1210.1123     -15229103      -1962.1356     -1948.9466     -1961.6752      0.33255656    -12.042942     -26.411281      15645.93     
    130000   405.28516      0.065          0.19785579     0.19622566     0.19759181    -1946.4537      647.51584      647.51584      647.51584      2.7148835e+08  1.7242883     -15220160      -15220160       1206.87       -15218953      -1952.6848     -1936.5967     -1950.0795     -0.19645405    -11.171509     -24.500244      15545.925    
    131000   404.0294       0.0655         0.19682608     0.19529998     0.19648955    -1936.3948      647.81984      647.81984      647.81984      2.7187091e+08  1.721862      -15210055      -15210055       1203.1306     -15208852      -1942.5224     -1927.461      -1939.2011     -0.039846926   -11.972017     -23.242167      15816.851    
    132000   402.36595      0.066          0.19547631     0.19432215     0.19518817    -1924.4564      648.12384      648.12384      648.12384      2.7225382e+08  1.7194403     -15199993      -15199993       1198.1771     -15198794      -1929.2012     -1917.8105     -1926.3574      0.75454265    -14.077047     -24.536279      15652.079    
    133000   400.41431      0.0665         0.19386888     0.19294124     0.19388589    -1910.3413      648.42784      648.42784      648.42784      2.726371e+08   1.7170231     -15189980      -15189980       1192.3654     -15188788      -1913.337      -1904.182      -1913.505       1.2345792     -16.580264     -26.222951      15802.236    
    134000   398.34161      0.067          0.19225145     0.19125465     0.19261033    -1895.2757      648.73184      648.73184      648.73184      2.7302074e+08  1.7146104     -15180029      -15180029       1186.1933     -15178843      -1897.3743     -1887.5366     -1900.9161      1.1261957     -17.60179      -26.309521      15683.481    
    135000   396.40825      0.0675         0.19056598     0.18959354     0.19126037    -1879.8253      649.03583      649.03583      649.03583      2.7340473e+08  1.7122022     -15170148      -15170148       1180.4361     -15168968      -1880.74       -1871.1428     -1887.5931      0.86712325    -16.413201     -25.680021      15724.234    
    136000   394.84342      0.068          0.18890547     0.1881751      0.1898614     -1865.0941      649.33983      649.33983      649.33983      2.7378909e+08  1.7097986     -15160339      -15160339       1175.7763     -15159163      -1864.3521     -1857.1438     -1873.7863      0.32708689    -14.244029     -24.655833      15851.114    
    137000   393.21905      0.0685         0.18744462     0.18701226     0.18850724    -1852.008       649.64383      649.64383      649.64383      2.741738e+08   1.7073994     -15150590      -15150590       1170.9392     -15149419      -1849.9346     -1845.6675     -1860.4218     -0.40864116    -13.963336     -23.386109      15654.027    
    138000   391.14116      0.069          0.18629925     0.18586559     0.18727026    -1840.3984      649.94783      649.94783      649.94783      2.7455888e+08  1.7050047     -15140892      -15140892       1164.7516     -15139727      -1838.6307     -1834.3508     -1848.2138     -0.72092088    -14.308809     -23.146419      15725.079    
    139000   389.28192      0.0695         0.18548807     0.18451546     0.1860299     -1829.2078      650.25183      650.25183      650.25183      2.7494431e+08  1.7026145     -15131246      -15131246       1159.2151     -15130086      -1830.6249     -1821.026      -1835.9724     -0.24729576    -13.3387       -23.869097      15796.031    
    140000   388.10069      0.07           0.18475426     0.18315061     0.18475492    -1818.1094      650.55582      650.55582      650.55582      2.7533011e+08  1.7002288     -15121656      -15121656       1155.6976     -15120500      -1823.3828     -1807.5559     -1823.3893     -0.02143555    -12.146364     -24.220898      15728.586    
    141000   386.96108      0.0705         0.18376662     0.18203574     0.18362652    -1807.4805      650.85982      650.85982      650.85982      2.7571627e+08  1.6978475     -15112111      -15112111       1152.304      -15110959      -1813.6356     -1796.553      -1812.2528     -0.47384828    -12.712938     -24.539858      15660.167    
    142000   385.33387      0.071          0.18253729     0.18103828     0.18261545    -1796.8287      651.16382      651.16382      651.16382      2.7610279e+08  1.6954707     -15102598      -15102598       1147.4585     -15101450      -1801.5029     -1786.7089     -1802.2743     -1.0783498     -14.593253     -25.288304      15876.322    
    143000   383.75588      0.0715         0.18140075     0.17994873     0.18168531    -1786.4456      651.46782      651.46782      651.46782      2.7648966e+08  1.6930983     -15093115      -15093115       1142.7595     -15091973      -1790.2862     -1775.9559     -1793.0946     -0.96933248    -16.118615     -24.435947      15643.902    
    144000   382.52912      0.072          0.18030156     0.17871146     0.18073046    -1775.618       651.77182      651.77182      651.77182      2.7687691e+08  1.6907304     -15083689      -15083689       1139.1064     -15082550      -1779.438      -1763.745      -1783.6709     -0.064498118   -14.921747     -22.593647      15834.414    
    145000   381.42725      0.0725         0.17908964     0.17744766     0.17969646    -1764.0719      652.07581      652.07581      652.07581      2.7726451e+08  1.6883668     -15074323      -15074323       1135.8252     -15073187      -1767.4773     -1751.2722     -1773.4662      0.71290956    -12.248155     -22.03664       15733.31     
    146000   379.78585      0.073          0.1778745      0.1762517      0.1786174     -1752.5902      652.37981      652.37981      652.37981      2.7765247e+08  1.6860076     -15065005      -15065005       1130.9374     -15063874      -1755.4848     -1739.469      -1762.8167      2.0302325     -11.882708     -22.353037      15685.139    
    147000   378.12103      0.0735         0.17681611     0.17515072     0.17730536    -1741.1702      652.68381      652.68381      652.68381      2.780408e+08   1.6836529     -15055727      -15055727       1125.9799     -15054601      -1745.0394     -1728.6033     -1749.8679      2.3440858     -13.815104     -21.562884      15881.26     
    148000   376.79836      0.074          0.17599103     0.17410545     0.17601368    -1730.7678      652.98781      652.98781      652.98781      2.7842948e+08  1.6813025     -15046497      -15046497       1122.0412     -15045375      -1736.8964     -1718.2872     -1737.1199      0.10126383    -14.788285     -20.850622      15710.271    
    149000   375.42526      0.0745         0.17524593     0.17318052     0.17490686    -1721.6327      653.29181      653.29181      653.29181      2.7881853e+08  1.6789565     -15037312      -15037312       1117.9523     -15036194      -1729.5429     -1709.1589     -1726.1965     -2.1949388     -14.190728     -21.121173      15677.837    
    150000   373.78105      0.075          0.17428886     0.17224492     0.17402755    -1712.5136      653.59581      653.59581      653.59581      2.7920794e+08  1.6766149     -15028166      -15028166       1113.0561     -15027053      -1720.0973     -1699.9251     -1717.5184     -2.1989662     -12.536872     -21.211299      15264.337    
    151000   372.45639      0.0755         0.17301444     0.17111433     0.17325771    -1702.0692      653.8998       653.8998       653.8998       2.7959772e+08  1.6742776     -15019059      -15019059       1109.1115     -15017950      -1707.5197     -1688.7671     -1709.9207     -1.1402361     -11.082007     -20.354315      15704.845    
    152000   371.59487      0.076          0.17173769     0.16980952     0.17249771    -1691.0763      654.2038       654.2038       654.2038       2.7998785e+08  1.6719446     -15009996      -15009996       1106.5461     -15008889      -1694.9192     -1675.8897     -1702.42       -1.4523741     -10.840913     -19.440071      15735.984    
    153000   370.65759      0.0765         0.17082093     0.16876606     0.17155944    -1681.541       654.5078       654.5078       654.5078       2.8037835e+08  1.669616      -15000977      -15000977       1103.755      -14999873      -1685.8715     -1665.5915     -1693.1601     -2.8385342     -12.131837     -18.788018      15833.482    
    154000   369.33712      0.077          0.16998572     0.16815242     0.17038735    -1672.9188      654.8118       654.8118       654.8118       2.8076921e+08  1.6672917     -14991995      -14991995       1099.8229     -14990895      -1677.6287     -1659.5354     -1681.5924     -3.3023862     -13.465513     -18.808672      15713.53     
    155000   367.87829      0.0775         0.16896018     0.16740739     0.16930883    -1663.546       655.1158       655.1158       655.1158       2.8116044e+08  1.6649718     -14983049      -14983049       1095.4787     -14981954      -1667.5074     -1652.1825     -1670.9482     -1.3601632     -13.631072     -19.075222      15793.918    
    156000   366.62734      0.078          0.1677987      0.16624474     0.16837955    -1652.8431      655.41979      655.41979      655.41979      2.8155203e+08  1.6626561     -14974151      -14974151       1091.7536     -14973059      -1656.0444     -1640.708      -1661.7769      1.4914245     -12.395438     -17.621829      15694.943    
    157000   365.4589       0.0785         0.16688677     0.16507441     0.16750325    -1643.1102      655.72379      655.72379      655.72379      2.8194398e+08  1.6603447     -14965299      -14965299       1088.2742     -14964210      -1647.0444     -1629.1578     -1653.1285      1.8258689     -11.651324     -15.179745      15713.278    
    158000   364.21844      0.079          0.16632434     0.16424926     0.16675425    -1636.0814      656.02779      656.02779      656.02779      2.8233629e+08  1.6580376     -14956470      -14956470       1084.5803     -14955386      -1641.4937     -1621.0141     -1645.7365     -0.68553314    -12.18228      -14.778375      15775.165    
    159000   362.97205      0.0795         0.16579427     0.16372591     0.16603876    -1630.2622      656.33179      656.33179      656.33179      2.8272897e+08  1.6557348     -14947664      -14947664       1080.8688     -14946583      -1636.2623     -1615.8491     -1638.6752     -3.6688049     -12.498351     -17.060704      15648.45     
    160000   361.86824      0.08           0.16501464     0.16318635     0.16535835    -1623.684       656.63579      656.63579      656.63579      2.8312202e+08  1.6534362     -14938888      -14938888       1077.5818     -14937811      -1628.5678     -1610.524      -1631.9601     -5.6909893     -12.013082     -19.638619      15717.379    
    161000   360.99836      0.0805         0.16409039     0.16247376     0.16456493    -1615.6891      656.93978      656.93978      656.93978      2.8351542e+08  1.6511419     -14930144      -14930144       1074.9915     -14929069      -1619.4463     -1603.4914     -1624.1296     -5.3477071     -11.370734     -19.999126      15831.489    
    162000   360.41483      0.081          0.16323536     0.16164711     0.16354442    -1606.7995      657.24378      657.24378      657.24378      2.8390919e+08  1.6488518     -14921430      -14921430       1073.2538     -14920357      -1611.0078     -1595.333      -1614.0579     -1.6178099     -11.612859     -18.844282      15755.142    
    163000   359.62803      0.0815         0.16264355     0.16100928     0.16277356    -1600.2184      657.54778      657.54778      657.54778      2.8430333e+08  1.646566      -14912743      -14912743       1070.9109     -14911672      -1605.167      -1589.038      -1606.4501      1.8819632     -12.048385     -17.470351      15829.883    
    164000   358.37846      0.082          0.16200622     0.16028472     0.16229327    -1594.1581      657.85178      657.85178      657.85178      2.8469783e+08  1.6442844     -14904082      -14904082       1067.1899     -14903014      -1598.877      -1581.8872     -1601.7101      2.5001572     -11.985992     -14.863823      15666.293    
    165000   357.34275      0.0825         0.16104343     0.15918616     0.16171764    -1585.4831      658.15578      658.15578      658.15578      2.850927e+08   1.6420069     -14895459      -14895459       1064.1057     -14894395      -1589.3751     -1571.0452     -1596.029       0.14377157    -11.778862     -12.254063      15737.059    
    166000   356.79717      0.083          0.1600148      0.15794619     0.160896      -1575.317       658.45977      658.45977      658.45977      2.8548793e+08  1.6397338     -14886883      -14886883       1062.481      -14885821      -1579.2233     -1558.8077     -1587.92       -3.2676549     -11.983313     -11.500715      15810.725    
    167000   356.17332      0.0835         0.15928882     0.15722756     0.15991167    -1567.3264      658.76377      658.76377      658.76377      2.8588352e+08  1.6374647     -14878340      -14878340       1060.6233     -14877280      -1572.0584     -1551.7154     -1578.2055     -5.6029975     -12.090498     -12.977556      15690.103    
    168000   355.24572      0.084          0.15879463     0.1569864      0.15906665    -1562.1274      659.06777      659.06777      659.06777      2.8627948e+08  1.6351999     -14869817      -14869817       1057.8611     -14868759      -1567.1811     -1549.3353     -1569.8658     -6.3332263     -10.813514     -15.666047      15671.938    
    169000   354.26073      0.0845         0.15828725     0.1566252      0.1585633     -1557.6141      659.37177      659.37177      659.37177      2.8667581e+08  1.6329393     -14861312      -14861312       1054.928      -14860257      -1562.1737     -1545.7705     -1564.8981     -6.4025965     -8.9601259     -16.504649      15885.276    
    170000   353.46218      0.085          0.15759514     0.15594218     0.15805805    -1551.4281      659.67577      659.67577      659.67577      2.870725e+08   1.6306828     -14852830      -14852830       1052.55       -14851778      -1555.3431     -1539.0296     -1559.9117     -4.9048349     -8.2937702     -15.1752        15658.6      
    171000   352.76495      0.0855         0.15678726     0.15530156     0.15738199    -1544.4389      659.97976      659.97976      659.97976      2.8746956e+08  1.6284305     -14844373      -14844373       1050.4738     -14843322      -1547.37       -1532.7072     -1553.2395     -1.9581167     -8.7519948     -14.033784      15664.336    
    172000   351.78563      0.086          0.15599685     0.15479552     0.15667042    -1537.833       660.28376      660.28376      660.28376      2.8786698e+08  1.6261823     -14835940      -14835940       1047.5575     -14834892      -1539.5692     -1527.713      -1546.2168      0.22491528    -10.294823     -14.020181      15871.792    
    173000   350.61083      0.0865         0.15521386     0.15412737     0.15605234    -1531.0258      660.58776      660.58776      660.58776      2.8826477e+08  1.6239383     -14827533      -14827533       1044.0592     -14826488      -1531.8417     -1521.1189     -1540.1168      0.46974222    -11.624345     -13.387151      15654.986    
    174000   349.84538      0.087          0.15460987     0.15323129     0.15548806    -1524.2346      660.89176      660.89176      660.89176      2.8866293e+08  1.6216983     -14819151      -14819151       1041.7798     -14818110      -1525.8808     -1512.2752     -1534.5478     -0.7215766     -11.876419     -11.561342      15852.046    
    175000   349.81692      0.0875         0.15431713     0.15256052     0.15478081    -1518.7382      661.19576      661.19576      661.19576      2.8906145e+08  1.6194625     -14810796      -14810796       1041.6951     -14809754      -1522.9916     -1505.6552     -1527.5678     -3.0161449     -10.357166     -10.040809      15648.184    
    176000   350.04887      0.088          0.15421088     0.15220826     0.15410606    -1515.0101      661.49975      661.49975      661.49975      2.8946034e+08  1.6172309     -14802464      -14802464       1042.3858     -14801422      -1521.9431     -1502.1787     -1520.9086     -4.819662      -8.0872894     -10.116522      15678.315    
    177000   349.73046      0.0885         0.15395316     0.15185891     0.15373781    -1511.8016      661.80375      661.80375      661.80375      2.8985959e+08  1.6150033     -14794145      -14794145       1041.4376     -14793103      -1519.3996     -1498.7309     -1517.2742     -5.0530427     -8.0012675     -11.761603      15890.655    
    178000   348.58984      0.089          0.15341696     0.15137203     0.15331193    -1507.0349      662.10775      662.10775      662.10775      2.9025921e+08  1.6127798     -14785828      -14785828       1038.041      -14784790      -1514.1077     -1493.9258     -1513.0711     -4.2337062     -9.8375756     -13.135807      15668.775    
    179000   347.22944      0.0895         0.15262111     0.15084179     0.1525482     -1500.1599      662.41175      662.41175      662.41175      2.906592e+08   1.6105603     -14777528      -14777528       1033.99       -14776494      -1506.2533     -1488.6927     -1505.5336     -3.2796936     -10.35567      -13.131764      15690.687    
    180000   346.43335      0.09           0.15162596     0.15011492     0.1516736     -1491.6177      662.71575      662.71575      662.71575      2.9105956e+08  1.608345      -14769264      -14769264       1031.6194     -14768233      -1496.4319     -1481.5191     -1496.9021     -3.2500686     -9.420421      -11.924788      15894.75     
    181000   346.09205      0.0905         0.15063022     0.14937957     0.15098119    -1483.645       663.01974      663.01974      663.01974      2.9146029e+08  1.6061337     -14761041      -14761041       1030.603      -14760010      -1486.6047     -1474.2617     -1490.0685     -3.4952362     -10.123287     -10.822534      15670.594    
    182000   345.82182      0.091          0.14991984     0.14868767     0.1504924     -1477.4238      663.32374      663.32374      663.32374      2.9186138e+08  1.6039265     -14752853      -14752853       1029.7983     -14751823      -1479.5937     -1467.4332     -1485.2446     -2.9235687     -11.718397     -10.271289      15662.628    
    183000   345.51335      0.0915         0.14963107     0.14818892     0.15002813    -1473.3058      663.62774      663.62774      663.62774      2.9226284e+08  1.6017233     -14744689      -14744689       1028.8798     -14743660      -1476.7439     -1462.511      -1480.6625     -2.3522299     -11.542542     -9.6929016      15868.229    
    184000   344.96424      0.092          0.14947894     0.14799633     0.14940664    -1470.1272      663.93174      663.93174      663.93174      2.9266467e+08  1.5995241     -14736535      -14736535       1027.2446     -14735507      -1475.2424     -1460.6102     -1474.5289     -1.8883365     -10.066046     -9.8723418      15662.672    
    185000   344.4163       0.0925         0.14909272     0.14776806     0.14880117    -1466.1138      664.23574      664.23574      664.23574      2.9306686e+08  1.597329      -14728382      -14728382       1025.6129     -14727356      -1471.4307     -1458.3574     -1468.5534     -1.859168      -8.7559034     -9.9746101      15875.255    
    186000   343.87052      0.093          0.1485392      0.14719112     0.14838258    -1461.0178      664.53973      664.53973      664.53973      2.9346943e+08  1.5951378     -14720241      -14720241       1023.9877     -14719217      -1465.9679     -1452.6634     -1464.4222     -2.4662093     -7.9583837     -10.087361      15648.224    
    187000   343.26974      0.0935         0.14796793     0.14634542     0.1480571     -1455.2856      664.84373      664.84373      664.84373      2.9387236e+08  1.5929507     -14712123      -14712123       1022.1987     -14711101      -1460.3299     -1444.317      -1461.21       -3.4191716     -7.8478936     -9.0211053      15704.467    
    188000   342.65598      0.094          0.14747296     0.14563918     0.14754602    -1449.6526      665.14773      665.14773      665.14773      2.9427566e+08  1.5907676     -14704036      -14704036       1020.371      -14703015      -1455.445      -1437.3469     -1456.166      -3.6413488     -7.7891402     -7.6383336      15815.219    
    189000   342.18098      0.0945         0.14695921     0.14514462     0.14683807    -1444.0066      665.45173      665.45173      665.45173      2.9467933e+08  1.5885885     -14695978      -14695978       1018.9565     -14694959      -1450.3746     -1432.466      -1449.1791     -3.7026561     -7.4503644     -7.717395       15661.545    
    190000   341.89091      0.095          0.14633865     0.14481434     0.14634451    -1439.2549      665.75573      665.75573      665.75573      2.9508337e+08  1.5864133     -14687933      -14687933       1018.0927     -14686914      -1444.2502     -1429.2064     -1444.3081     -4.1283432     -7.5143811     -8.8447661      15702.761    
    191000   341.74029      0.0955         0.14573857     0.14450079     0.14606863    -1435.3417      666.05973      666.05973      666.05973      2.9548778e+08  1.5842421     -14679898      -14679898       1017.6442     -14678881      -1438.3279     -1426.1119     -1441.5853     -4.5650149     -9.042104      -9.1333323      15824.019    
    192000   341.67664      0.096          0.14530466     0.14411938     0.14577461    -1431.6922      666.36372      666.36372      666.36372      2.9589256e+08  1.5820749     -14671882      -14671882       1017.4547     -14670864      -1434.0455     -1422.3477     -1438.6835     -3.7133243     -10.367813     -8.7553098      15738.414    
    193000   341.54478      0.0965         0.14517517     0.14373584     0.14532127    -1428.5131      666.66772      666.66772      666.66772      2.962977e+08   1.5799116     -14663877      -14663877       1017.062      -14662860      -1432.7675     -1418.5624     -1434.2094     -3.0052926     -10.138835     -8.1060164      15494.93     
    194000   341.35763      0.097          0.14511542     0.14347807     0.14474985    -1425.5887      666.97172      666.97172      666.97172      2.9670322e+08  1.5777523     -14655880      -14655880       1016.5047     -14654864      -1432.1778     -1416.0185     -1428.5699     -2.9257993     -9.9896812     -7.5569989      15577.9      
    195000   341.05716      0.0975         0.14488137     0.14306973     0.14419012    -1421.6341      667.27572      667.27572      667.27572      2.9710911e+08  1.5755969     -14647895      -14647895       1015.61       -14646879      -1429.868      -1411.9885     -1423.0459     -2.0966129     -10.260864     -7.9213836      15443.977    
    196000   340.51157      0.098          0.14431703     0.14241236     0.14360495    -1415.6899      667.57972      667.57972      667.57972      2.9751536e+08  1.5734454     -14639933      -14639933       1013.9853     -14638919      -1424.2983     -1405.5007     -1417.2707     -1.4402959     -9.7157778     -9.277794       15657.141    
    197000   339.92752      0.0985         0.14344353     0.14169832     0.14295107    -1408.3162      667.88371      667.88371      667.88371      2.9792199e+08  1.5712979     -14631998      -14631998       1012.2461     -14630986      -1415.6776     -1398.4537     -1410.8174     -2.1162692     -8.0227847     -9.5624204      15457.143    
    198000   339.30542      0.099          0.14253008     0.14105921     0.14247969    -1401.658       668.18771      668.18771      668.18771      2.9832899e+08  1.5691542     -14624090      -14624090       1010.3936     -14623080      -1406.6625     -1392.1462     -1406.1652     -3.2414403     -6.0898561     -8.1563107      15510.132    
    199000   338.80122      0.0995         0.14184446     0.14069241     0.14214832    -1397.1057      668.49171      668.49171      668.49171      2.9873635e+08  1.5670145     -14616203      -14616203       1008.8922     -14615195      -1399.896      -1388.5261     -1402.8948     -4.427882      -5.5443354     -7.0273567      15601.296    
    200000   338.68671      0.1            0.14157845     0.14063874     0.14183414    -1395.0204      668.79571      668.79571      668.79571      2.9914409e+08  1.5648786     -14608330      -14608330       1008.5512     -14607322      -1397.2706     -1387.9964     -1399.7941     -5.6517266     -7.3905579     -6.964431       15047.609    
    201000   338.51082      0.1005         0.14170467     0.14058271     0.14158267    -1394.424       669.09971      669.09971      669.09971      2.995522e+08   1.5627466     -14600461      -14600461       1008.0274     -14599453      -1398.5164     -1387.4435     -1397.3123     -4.891986      -10.037185     -8.378695       15444.453    
    202000   338.08582      0.101          0.14166426     0.14009343     0.14113904    -1391.2221      669.4037       669.4037       669.4037       2.9996068e+08  1.5606185     -14592593      -14592593       1006.7618     -14591586      -1398.1176     -1382.6147     -1392.934      -2.4185282     -11.680626     -9.1048423      15650.995    
    203000   337.9753       0.1015         0.14102246     0.13921322     0.14048259    -1384.0555      669.7077       669.7077       669.7077       3.0036953e+08  1.5584942     -14584746      -14584746       1006.4327     -14583740      -1391.7835     -1373.9277     -1386.4553     -1.5754637     -11.137456     -8.0285744      15504.912    
    204000   338.32268      0.102          0.14028427     0.13852854     0.1399211     -1377.5275      670.0117       670.0117       670.0117       3.0077876e+08  1.5563738     -14576930      -14576930       1007.4672     -14575922      -1384.4981     -1367.1704     -1380.9139     -2.6621223     -8.9421291     -6.896999       15476.746    
    205000   338.14338      0.1025         0.1401778      0.13831014     0.13968181    -1375.6715      670.3157       670.3157       670.3157       3.0118835e+08  1.5542573     -14569127      -14569127       1006.9332     -14568120      -1383.4473     -1365.015      -1378.5523     -2.9915755     -6.5819316     -7.0047191      15683.909    
    206000   337.56339      0.103          0.14023808     0.13815511     0.1394472     -1374.588       670.6197       670.6197       670.6197       3.0159832e+08  1.5521446     -14561322      -14561322       1005.2061     -14560317      -1384.0422     -1363.485      -1376.2369     -2.1931881     -5.5139746     -7.0894642      15471.642    
    207000   337.26376      0.1035         0.13978623     0.13791299     0.13903001    -1370.9326      670.92369      670.92369      670.92369      3.0200865e+08  1.5500357     -14553524      -14553524       1004.3139     -14552520      -1379.5828     -1361.0954     -1372.1196     -2.4323259     -6.1070725     -6.4822425      15463.131    
    208000   337.18685      0.104          0.13895445     0.1375292      0.13837852    -1364.7904      671.22769      671.22769      671.22769      3.0241936e+08  1.5479306     -14545752      -14545752       1004.0849     -14544748      -1371.3738     -1357.3076     -1365.6898     -3.4544523     -7.670176      -5.4183541      15636.837    
    209000   336.91293      0.1045         0.1381155      0.1369863      0.13768451    -1357.9614      671.53169      671.53169      671.53169      3.0283045e+08  1.5458293     -14538010      -14538010       1003.2692     -14537006      -1363.094      -1351.9497     -1358.8404     -4.1274764     -9.0512712     -5.1592653      15475.938    
    210000   336.44779      0.105          0.13758285     0.13636247     0.13720887    -1352.5921      671.83569      671.83569      671.83569      3.032419e+08   1.5437319     -14530292      -14530292       1001.8841     -14529290      -1357.8372     -1345.7929     -1354.1463     -4.1663515     -9.9371881     -6.4991078      15574.226    
    211000   335.90615      0.1055         0.13740444     0.13588643     0.1370903     -1350.0491      672.13969      672.13969      672.13969      3.0365373e+08  1.5416382     -14522587      -14522587       1000.2711     -14521587      -1356.0764     -1341.0948     -1352.976      -3.3736251     -9.4552839     -8.1847375      15459.625    
    212000   335.49548      0.106          0.13732135     0.1357001      0.13699869    -1348.8614      672.44368      672.44368      672.44368      3.0406593e+08  1.5395483     -14514881      -14514881       999.04826     -14513882      -1355.2563     -1339.2559     -1352.072      -2.7864205     -8.5867469     -8.1349159      15480.084    
    213000   335.55765      0.1065         0.13706016     0.13540805     0.13650319    -1345.4113      672.74768      672.74768      672.74768      3.044785e+08   1.5374622     -14507180      -14507180       999.23338     -14506180      -1352.6786     -1336.3736     -1347.1817     -2.6604953     -8.2599894     -6.8243128      15606.471    
    214000   335.91684      0.107          0.13669062     0.13492063     0.13594467    -1340.7548      673.05168      673.05168      673.05168      3.0489144e+08  1.5353799     -14499498      -14499498       1000.303      -14498498      -1349.0316     -1331.5631     -1341.6696     -3.3431347     -7.5343083     -6.229144       15471.006    
    215000   335.98237      0.1075         0.13623528     0.13451712     0.13567597    -1337.0454      673.35568      673.35568      673.35568      3.0530476e+08  1.5333013     -14491840      -14491840       1000.4981     -14490839      -1344.5376     -1327.5807     -1339.0177     -4.0228012     -5.8524459     -6.3136109      15488.881    
    216000   336.0074       0.108          0.13570982     0.13426783     0.13552386    -1333.9963      673.65968      673.65968      673.65968      3.0571846e+08  1.5312265     -14484195      -14484195       1000.5727     -14483194      -1339.3518     -1325.1205     -1337.5165     -3.5570002     -5.1507022     -5.8334928      15661.091    
    217000   336.02781      0.1085         0.1353648      0.13402046     0.13516896    -1330.8799      673.96367      673.96367      673.96367      3.0613252e+08  1.5291554     -14476557      -14476557       1000.6334     -14475556      -1335.9467     -1322.6791     -1334.0139     -3.4485655     -6.7597391     -4.6459735      15424.764    
[...]
   3041000   325.27354      1.5205         0.0073786865   0.007253933    0.0069978801  -71.158811      1532.4542      1532.4542      1532.4542      3.5988395e+09  0.13007643    -4260771.3     -4260771.3      968.60906     -4259802.7     -72.821973     -71.590752     -69.063707     -0.10203239     0.37017869     1.5613125      14421.087    
   3042000   325.25186      1.521          0.0073712285   0.0072530444   0.0069933402  -71.116418      1532.7582      1532.7582      1532.7582      3.6009817e+09  0.12999905    -4258711.4     -4258711.4      968.54449     -4257742.9     -72.748369     -71.581983     -69.018902     -0.081159375    0.35967972     1.5406199      14270.338    
   3043000   325.21794      1.5215         0.0073606086   0.0072478523   0.0069868606  -71.043084      1533.0622      1533.0622      1533.0622      3.6031247e+09  0.12992173    -4256652.2     -4256652.2      968.44348     -4255683.8     -72.643559     -71.530741     -68.954953     -0.068670533    0.3468318      1.5308073      14288.424    
   3044000   325.19003      1.522          0.0073509364   0.0072388953   0.0069797439  -70.958387      1533.3662      1533.3662      1533.3662      3.6052686e+09  0.12984447    -4254594.8     -4254594.8      968.36039     -4253626.4     -72.548102     -71.442342     -68.884717     -0.070969068    0.33894948     1.5325889      14436.709    
   3045000   325.16441      1.5225         0.0073458829   0.0072303495   0.006972873   -70.891045      1533.6702      1533.6702      1533.6702      3.6074133e+09  0.12976727    -4252538.9     -4252538.9      968.2841      -4251570.6     -72.498228     -71.358001     -68.816906     -0.093877095    0.32463326     1.5367623      14314.583    
   3046000   325.1376       1.523          0.0073432164   0.007222914    0.0069650759  -70.832161      1533.9742      1533.9742      1533.9742      3.6095589e+09  0.12969014    -4250483.9     -4250483.9      968.20425     -4249515.7     -72.471911     -71.284619     -68.739954     -0.1249612      0.29856571     1.5350648      14400.257    
   3047000   325.12265      1.5235         0.0073396704   0.0072148071   0.0069553304  -70.761766      1534.2782      1534.2782      1534.2782      3.6117053e+09  0.12961306    -4248430       -4248430        968.15973     -4247461.9     -72.436915     -71.20461      -68.643774     -0.13982345     0.26951586     1.5321556      14459.984    
   3048000   325.12593      1.524          0.0073341399   0.0072048789   0.0069459085  -70.679915      1534.5822      1534.5822      1534.5822      3.6138525e+09  0.12953605    -4246377.8     -4246377.8      968.1695      -4245409.6     -72.382333     -71.106627     -68.550787     -0.12929445     0.25051302     1.5266614      14438.782    
   3049000   325.14338      1.5245         0.0073263248   0.0071952241   0.0069381905  -70.597054      1534.8861      1534.8861      1534.8861      3.6160007e+09  0.1294591     -4244327.2     -4244327.2      968.22147     -4243359       -72.305204     -71.011341     -68.474616     -0.10698251     0.25320201     1.5231674      14450.955    
   3050000   325.15701      1.525          0.0073170763   0.0071867907   0.0069324728  -70.520075      1535.1901      1535.1901      1535.1901      3.6181496e+09  0.12938221    -4242278.4     -4242278.4      968.26206     -4241310.1     -72.213928     -70.92811      -68.418187     -0.079430179    0.2773721      1.5184346      14090.058    
   3051000   325.15104      1.5255         0.0073078321   0.0071796884   0.0069283195  -70.452636      1535.4941      1535.4941      1535.4941      3.6202995e+09  0.12930538    -4240230.8     -4240230.8      968.24429     -4239262.5     -72.122696     -70.858015     -68.377198     -0.056335156    0.30966872     1.5159653      14685.854    
   3052000   325.13509      1.526          0.0072986654   0.0071729694   0.0069253363  -70.390562      1535.7981      1535.7981      1535.7981      3.6224501e+09  0.12922861    -4238184.3     -4238184.3      968.19677     -4237216.1     -72.032227     -70.791704     -68.347755     -0.040744593    0.32294389     1.5199323      14508.868    
   3053000   325.12256      1.5265         0.0072914748   0.0071656234   0.0069231222  -70.335456      1536.1021      1536.1021      1536.1021      3.6246016e+09  0.1291519     -4236138.8     -4236138.8      968.15946     -4235170.6     -71.961261     -70.719205     -68.325904     -0.039848645    0.31094957     1.5259798      14437.333    
   3054000   325.11546      1.527          0.0072872334   0.0071578719   0.0069193781  -70.283686      1536.4061      1536.4061      1536.4061      3.626754e+09   0.12907525    -4234094       -4234094        968.13834     -4233125.9     -71.919402     -70.642703     -68.288952     -0.064894227    0.28979116     1.5294708      14497.211    
   3055000   325.11567      1.5275         0.0072850792   0.0071510671   0.0069137458  -70.235684      1536.7101      1536.7101      1536.7101      3.6289073e+09  0.12899866    -4232050       -4232050        968.13895     -4231081.8     -71.898142     -70.575545     -68.233366     -0.10903556     0.2822306      1.5299         14287.924    
   3056000   325.12417      1.528          0.0072834148   0.0071482699   0.0069081028  -70.202443      1537.0141      1537.0141      1537.0141      3.6310613e+09  0.12892214    -4230006.3     -4230006.3      968.16427     -4229038.1     -71.881715     -70.547939     -68.177674     -0.14749579     0.28908938     1.5274444      14279.256    
   3057000   325.14719      1.5285         0.0072793146   0.0071488782   0.0069021776  -70.171463      1537.3181      1537.3181      1537.3181      3.6332163e+09  0.12884567    -4227962.8     -4227962.8      968.23282     -4226994.5     -71.84125      -70.553942     -68.119196     -0.17233987     0.29078141     1.5245916      14474.524    
   3058000   325.18609      1.529          0.0072738664   0.0071507978   0.0068972156  -70.143531      1537.6221      1537.6221      1537.6221      3.635372e+09   0.12876927    -4225919.4     -4225919.4      968.34864     -4224951.1     -71.78748      -70.572887     -68.070226     -0.18913597     0.27983024     1.5270977      14351.545    
   3059000   325.23074      1.5295         0.007269273    0.0071516355   0.0068943018  -70.12159       1537.9261      1537.9261      1537.9261      3.6375287e+09  0.12869292    -4223876.1     -4223876.1      968.4816      -4222907.6     -71.742147     -70.581155     -68.041468     -0.18825257     0.27723545     1.5289043      14362.698    
   3060000   325.27368      1.53           0.0072652254   0.0071489037   0.0068933387  -70.096119      1538.2301      1538.2301      1538.2301      3.6396862e+09  0.12861663    -4221832.8     -4221832.8      968.60948     -4220864.2     -71.7022       -70.554194     -68.031963     -0.16998217     0.2890563      1.5228373      14578.156    
   3061000   325.30198      1.5305         0.0072606922   0.0071426072   0.0068924984  -70.057728      1538.5341      1538.5341      1538.5341      3.6418445e+09  0.12854041    -4219789.5     -4219789.5      968.69375     -4218820.8     -71.65746      -70.492052     -68.02367      -0.14360184     0.3045862      1.512347       14485.194    
   3062000   325.30645      1.531          0.0072547746   0.0071330628   0.0068892063  -69.996032      1538.8381      1538.8381      1538.8381      3.6440037e+09  0.12846425    -4217746.7     -4217746.7      968.70705     -4216778       -71.599058     -70.397857     -67.99118      -0.11691921     0.30708871     1.508321       14469.699    
   3063000   325.28916      1.5315         0.0072464631   0.0071207892   0.0068817109  -69.903654      1539.1421      1539.1421      1539.1421      3.6461638e+09  0.12838814    -4215705.5     -4215705.5      968.65556     -4214736.9     -71.51703      -70.276725     -67.917206     -0.10339601     0.28207502     1.5103717      14498.613    
   3064000   325.24668      1.532          0.0072358766   0.0071088362   0.0068718566  -69.797087      1539.4461      1539.4461      1539.4461      3.6483247e+09  0.1283121     -4213666.8     -4213666.8      968.52908     -4212698.3     -71.41255      -70.158758     -67.819952     -0.11346835     0.24486964     1.5212908      14352.173    
   3065000   325.18194      1.5325         0.0072263548   0.0071014376   0.0068631292  -69.712712      1539.7501      1539.7501      1539.7501      3.6504864e+09  0.12823611    -4211630.2     -4211630.2      968.33627     -4210661.8     -71.318577     -70.08574      -67.733818     -0.13767226     0.22156923     1.5402556      14361.309    
   3066000   325.11594      1.533          0.0072200576   0.0070981045   0.0068548201  -69.653696      1540.0541      1540.0541      1540.0541      3.652649e+09   0.12816019    -4209594.7     -4209594.7      968.13976     -4208626.6     -71.256428     -70.052845     -67.651814     -0.15212255     0.2165322      1.5494334      14336.723    
   3067000   325.0672       1.5335         0.00721581     0.007096114    0.0068463363  -69.605265      1540.3581      1540.3581      1540.3581      3.6548125e+09  0.12808432    -4207559.9     -4207559.9      967.99461     -4206591.9     -71.214508     -70.033201     -67.568086     -0.14536038     0.22715805     1.5374203      14513.218    
   3068000   325.03575      1.534          0.0072119384   0.0070929689   0.0068389912  -69.558018      1540.6621      1540.6621      1540.6621      3.6569768e+09  0.12800852    -4205525.6     -4205525.6      967.90097     -4204557.7     -71.176298     -70.002161     -67.495595     -0.12618552     0.24251281     1.5131975      14353.253    
   3069000   325.00754      1.5345         0.0072083118   0.0070882695   0.0068329419  -69.510727      1540.9661      1540.9661      1540.9661      3.659142e+09   0.12793277    -4203491.7     -4203491.7      967.81696     -4202523.9     -71.140506     -69.955781     -67.435893     -0.11112775     0.25385377     1.4998376      14316.197    
   3070000   324.97564      1.535          0.0072033691   0.0070804472   0.0068277233  -69.451566      1541.2701      1541.2701      1541.2701      3.661308e+09   0.12785709    -4201458.5     -4201458.5      967.72196     -4200490.8     -71.091726     -69.878581     -67.38439      -0.10480639     0.26364405     1.5022467      14476.662    
   3071000   324.95121      1.5355         0.0071967794   0.0070695464   0.0068234045  -69.379818      1541.5741      1541.5741      1541.5741      3.6634749e+09  0.12778146    -4199426.5     -4199426.5      967.64921     -4198458.9     -71.026691     -69.770998     -67.341767     -0.10481179     0.2818556      1.5096166      14321.793    
   3072000   324.94511      1.536          0.0071918676   0.0070594537   0.0068215104  -69.324226      1541.8781      1541.8781      1541.8781      3.6656426e+09  0.1277059     -4197395.7     -4197395.7      967.63104     -4196428.1     -70.978215     -69.671391     -67.323073     -0.1116611      0.29873868     1.5143322      14336.426    
   3073000   324.95869      1.5365         0.0071901458   0.0070525144   0.0068215346  -69.295813      1542.1821      1542.1821      1542.1821      3.6678112e+09  0.12763039    -4195365.6     -4195365.6      967.67148     -4194397.9     -70.961222     -69.602906     -67.323312     -0.1257936      0.31391735     1.5104922      14475.344    
   3074000   324.99724      1.537          0.0071909364   0.0070503373   0.0068208541  -69.289013      1542.4861      1542.4861      1542.4861      3.6699807e+09  0.12755495    -4193335.1     -4193335.1      967.78628     -4192367.3     -70.969025     -69.581419     -67.316596     -0.14876427     0.32596242     1.5062634      14363.583    
   3075000   325.05886      1.5375         0.0071923791   0.0070523606   0.0068184717  -69.292578      1542.7901      1542.7901      1542.7901      3.672151e+09   0.12747956    -4191303.9     -4191303.9      967.96977     -4190335.9     -70.983263     -69.601388     -67.293083     -0.17052514     0.32418165     1.5177693      14481.372    
   3076000   325.11847      1.538          0.007193103    0.0070549941   0.006814331   -69.290001      1543.0941      1543.0941      1543.0941      3.6743221e+09  0.12740423    -4189271.7     -4189271.7      968.14728     -4188303.6     -70.990407     -69.627378     -67.252218     -0.17621012     0.30126518     1.535136       14624.756    
   3077000   325.15582      1.5385         0.0071907497   0.0070549542   0.0068085783  -69.263204      1543.3981      1543.3981      1543.3981      3.6764941e+09  0.12732896    -4187239.1     -4187239.1      968.25852     -4186270.8     -70.967182     -69.626985     -67.195444     -0.16230475     0.27362353     1.5429061      14509.644    
   3078000   325.17297      1.539          0.0071861975   0.0070503189   0.0068041079  -69.218272      1543.7021      1543.7021      1543.7021      3.678667e+09   0.12725375    -4185206.9     -4185206.9      968.30957     -4184238.6     -70.922255     -69.581237     -67.151324     -0.14126105     0.26226276     1.5392394      14582.123    
   3079000   325.16571      1.5395         0.0071806978   0.0070431218   0.0068028177  -69.172259      1544.0061      1544.0061      1544.0061      3.6808407e+09  0.1271786     -4183175.4     -4183175.4      968.28795     -4182207.1     -70.867978     -69.510208     -67.138591     -0.13251601     0.26775338     1.5354922      14538.59     
   3080000   325.13043      1.54           0.0071711935   0.0070353846   0.0068011283  -69.109981      1544.3101      1544.3101      1544.3101      3.6830153e+09  0.12710351    -4181144.5     -4181144.5      968.18289     -4180176.3     -70.774177     -69.433848     -67.121917     -0.13206822     0.28047146     1.5301857      14615.778    
   3081000   325.0816       1.5405         0.0071593804   0.007027082    0.0067966696  -69.029137      1544.6141      1544.6141      1544.6141      3.6851908e+09  0.12702848    -4179114.9     -4179114.9      968.0375      -4178146.9     -70.657591     -69.351908     -67.077913     -0.13214511     0.29685929     1.5260356      14522.406    
   3082000   325.03404      1.541          0.0071501235   0.0070185748   0.0067889288  -68.945232      1544.9181      1544.9181      1544.9181      3.6873671e+09  0.12695351    -4177087       -4177087        967.89587     -4176119.2     -70.566232     -69.267948     -67.001518     -0.12633086     0.30222015     1.5303058      14611.015    
   3083000   324.99246      1.5415         0.0071432895   0.0070093961   0.0067785147  -68.858295      1545.2221      1545.2221      1545.2221      3.6895442e+09  0.1268786     -4175060.8     -4175060.8      967.77205     -4174093.1     -70.498786     -69.177361     -66.898739     -0.11604469     0.30305951     1.534136       14777.048    
   3084000   324.9593       1.542          0.0071371586   0.006999981    0.006767483   -68.770861      1545.5261      1545.5261      1545.5261      3.6917222e+09  0.12680374    -4173036.5     -4173036.5      967.6733      -4172068.8     -70.438278     -69.084441     -66.789865     -0.10394659     0.30478439     1.5167857      14713.05     
   3085000   324.94201      1.5425         0.0071319552   0.006994375    0.0067600403  -68.710817      1545.8301      1545.8301      1545.8301      3.6939011e+09  0.12672895    -4171013.9     -4171013.9      967.62183     -4170046.3     -70.386925     -69.029114     -66.716411     -0.094382512    0.30314752     1.4921148      14614.231    
   3086000   324.9331       1.543          0.0071284495   0.0069947954   0.0067567624  -68.689884      1546.1341      1546.1341      1546.1341      3.6960808e+09  0.12665421    -4168991.5     -4168991.5      967.59529     -4168023.9     -70.352326     -69.033264     -66.684061     -0.091959221    0.29688488     1.4882677      14736.405    
   3087000   324.93043      1.5435         0.007124557    0.0069978326   0.006754631   -68.680058      1546.4381      1546.4381      1546.4381      3.6982614e+09  0.12657953    -4166968.4     -4166968.4      967.58733     -4166000.9     -70.31391      -69.063238     -66.663025     -0.089671772    0.28768787     1.5114118      14691.338    
   3088000   324.94046      1.544          0.0071183194   0.0069992479   0.006753098   -68.65915       1546.7421      1546.7421      1546.7421      3.7004428e+09  0.12650491    -4164944.9     -4164944.9      967.6172      -4163977.3     -70.25235      -69.077206     -66.647895     -0.083187369    0.28298196     1.5461021      14713.671    
   3089000   324.95675      1.5445         0.0071102349   0.0069939957   0.0067506216  -68.60713       1547.0461      1547.0461      1547.0461      3.7026251e+09  0.12643035    -4162921.7     -4162921.7      967.66572     -4161954.1     -70.172563     -69.02537      -66.623455     -0.077981396    0.28220245     1.5684017      14869.546    
   3090000   324.96894      1.545          0.0071027829   0.0069814547   0.006744838   -68.522331      1547.3501      1547.3501      1547.3501      3.7048083e+09  0.12635585    -4160900       -4160900        967.70201     -4159932.3     -70.099018     -68.901601     -66.566375     -0.087329561    0.27757321     1.5773628      14770.792    
   3091000   324.97323      1.5455         0.0070988428   0.0069674992   0.0067356814  -68.433336      1547.6541      1547.6541      1547.6541      3.7069923e+09  0.1262814     -4158880.4     -4158880.4      967.71479     -4157912.7     -70.060131     -68.763871     -66.476007     -0.11345032     0.2579051      1.5762871      14681.998    
   3092000   324.96789      1.546          0.0070963024   0.0069588498   0.0067256268  -68.363447      1547.9581      1547.9581      1547.9581      3.7091771e+09  0.12620702    -4156862.5     -4156862.5      967.69888     -4155894.8     -70.035059     -68.678508     -66.376775     -0.14192732     0.22914827     1.553337       14839.42     
   3093000   324.96274      1.5465         0.0070917819   0.0069563797   0.0067170778  -68.312326      1548.2621      1548.2621      1548.2621      3.7113629e+09  0.12613269    -4154845.5     -4154845.5      967.68356     -4153877.8     -69.990445     -68.65413      -66.292403     -0.15867842     0.21114982     1.5193308      14683.347    
   3094000   324.96461      1.547          0.0070865778   0.0069571222   0.0067120032  -68.280955      1548.5661      1548.5661      1548.5661      3.7135494e+09  0.12605842    -4152828.9     -4152828.9      967.68911     -4151861.2     -69.939085     -68.661457     -66.242321     -0.16941586     0.2125991      1.5015345      14630.132    
   3095000   324.97589      1.5475         0.0070809374   0.0069575645   0.006711068   -68.260778      1548.8701      1548.8701      1548.8701      3.7157369e+09  0.12598421    -4150812.1     -4150812.1      967.72271     -4149844.4     -69.883418     -68.665823     -66.233091     -0.1883364      0.23350781     1.5066911      14703.383    
   3096000   325.00028      1.548          0.0070742966   0.0069548345   0.0067124042  -68.234346      1549.1741      1549.1741      1549.1741      3.7179252e+09  0.12591006    -4148795.3     -4148795.3      967.79533     -4147827.5     -69.817879     -68.63888      -66.246279     -0.21280914     0.25939407     1.5149365      14603.776    
   3097000   325.02716      1.5485         0.0070685927   0.0069484265   0.0067122691  -68.194056      1549.4781      1549.4781      1549.4781      3.7201143e+09  0.12583597    -4146778.8     -4146778.8      967.87538     -4145810.9     -69.761586     -68.575637     -66.244945     -0.21961618     0.27198206     1.5157413      14605.953    
   3098000   325.03439      1.549          0.0070631683   0.0069391179   0.006706981   -68.128192      1549.7821      1549.7821      1549.7821      3.7223044e+09  0.12576193    -4144763       -4144763        967.89692     -4143795.1     -69.708051