LAMMPS (23 Jun 2022 - Update 1)
OMP_NUM_THREADS environment is not set. Defaulting to 1 thread. (src/comm.cpp:98)
  using 1 OpenMP thread(s) per MPI task
###

# Read restart info
read_restart ${read_res}
read_restart ./trial8/4060/equpmf70.res
Reading restart file ...
  restart file = 23 Jun 2022, LAMMPS = 23 Jun 2022
  restoring atom style atomic from restart
  orthogonal box = (1656.6176 1656.6176 1656.6176) to (2343.3824 2343.3824 2343.3824)
  1 by 2 by 2 MPI processor grid
  restoring pair style table from restart
  1000 atoms
  read_restart CPU = 0.012 seconds

# Settings
pair_style table/pgn spline 10941
pair_coeff 1 1 N20e.txt DE_GNP 308 72.9   # 1.35 * r
pair_coeff 2 2 N100e.txt DE_GNP 473.9 111.78
WARNING: 20 of 10941 force values in table DE_GNP are inconsistent with -dE/dr.
WARNING:  Should only be flagged at inflection points (src/pair_table_pgn.cpp:478)
pair_coeff 1 2 mixed_potentiale.txt DE_GNP 391.2 92.95
WARNING: 1564 of 10941 force values in table DE_GNP are inconsistent with -dE/dr.
WARNING:  Should only be flagged at inflection points (src/pair_table_pgn.cpp:478)

# Neighbor list
neighbor 2.0 bin
neigh_modify delay 0 every 1 check no once yes

# Temperature
variable T equal ${Temp}
variable T equal 300

# Deformation
reset_timestep 0
variable tmp equal "lx"
variable L0 equal ${tmp}
variable L0 equal 686.764795739213
variable strain equal "(lx - v_L0)/v_L0"
variable stp equal "step"
variable tmpe equal "temp"
variable p1 equal "v_strain"
variable p2 equal "-pxx*1.01325/10000"
variable p3 equal "-pyy*1.01325/10000"
variable p4 equal "-pzz*1.01325/10000"
variable p5 equal "lx"
variable p6 equal "ly"
variable p7 equal "lz"
variable p8 equal "press"
variable p9 equal "epair"
variable p10 equal "etotal"

# Thermo
thermo_style custom step temp v_p1 v_p2 v_p3 v_p4 press lx ly lz vol density epair pe ke etotal pxx pyy pzz pxy pxz pyz spcpu
thermo ${ts_save}
thermo 1000

# Dump
# dump 1 all custom 2000 ./${N20}${N100}/tensile/trajectory/trajectory_${usic}_${trial}_*.tensile.custom id type x y z ix iy iz
# dump_modify 1 sort id
dump 2 all cfg 50000 ./trial${trial}/${N20}${N100}/tensile/trajectory/dumpten.tens_${usic}_${trial}_*.cfg mass type xs ys zs fx fy fz
dump 2 all cfg 50000 ./trial8/${N20}${N100}/tensile/trajectory/dumpten.tens_${usic}_${trial}_*.cfg mass type xs ys zs fx fy fz
dump 2 all cfg 50000 ./trial8/40${N100}/tensile/trajectory/dumpten.tens_${usic}_${trial}_*.cfg mass type xs ys zs fx fy fz
dump 2 all cfg 50000 ./trial8/4060/tensile/trajectory/dumpten.tens_${usic}_${trial}_*.cfg mass type xs ys zs fx fy fz
dump 2 all cfg 50000 ./trial8/4060/tensile/trajectory/dumpten.tens_1_${trial}_*.cfg mass type xs ys zs fx fy fz
dump 2 all cfg 50000 ./trial8/4060/tensile/trajectory/dumpten.tens_1_8_*.cfg mass type xs ys zs fx fy fz
dump_modify 2 element N20 N100

fix 1 all nvt temp ${T} ${T} 100
fix 1 all nvt temp 300 ${T} 100
fix 1 all nvt temp 300 300 100
fix 2 all deform 1 x erate ${strain_rate} y erate ${strain_rate} z erate ${strain_rate} units box
fix 2 all deform 1 x erate 5e-6 y erate ${strain_rate} z erate ${strain_rate} units box
fix 2 all deform 1 x erate 5e-6 y erate 5e-6 z erate ${strain_rate} units box
fix 2 all deform 1 x erate 5e-6 y erate 5e-6 z erate 5e-6 units box
fix             def1 all print ${ts_save} "${p1} ${p2} ${p3} ${p4}" file ./tensile/${trial}/tensile${N20}${N100}_${usic}_${trial}.txt screen no
fix             def1 all print 1000 "${p1} ${p2} ${p3} ${p4}" file ./tensile/${trial}/tensile${N20}${N100}_${usic}_${trial}.txt screen no
fix             def1 all print 1000 "${p1} ${p2} ${p3} ${p4}" file ./tensile/8/tensile${N20}${N100}_${usic}_${trial}.txt screen no
fix             def1 all print 1000 "${p1} ${p2} ${p3} ${p4}" file ./tensile/8/tensile40${N100}_${usic}_${trial}.txt screen no
fix             def1 all print 1000 "${p1} ${p2} ${p3} ${p4}" file ./tensile/8/tensile4060_${usic}_${trial}.txt screen no
fix             def1 all print 1000 "${p1} ${p2} ${p3} ${p4}" file ./tensile/8/tensile4060_1_${trial}.txt screen no
fix             def1 all print 1000 "${p1} ${p2} ${p3} ${p4}" file ./tensile/8/tensile4060_1_8.txt screen no

timestep       		${ts}
timestep       		0.1
run				${steps_tensile}
run				6000000
Generated 0 of 1 mixed pair_coeff terms from geometric mixing rule
Unused restart file global fix info:
  fix style: npt, fix ID: 5
Neighbor list info ...
  update every 1 steps, delay 0 steps, check no
  max neighbors/atom: 2000, page size: 100000
  master list distance cutoff = 113.78
  ghost atom cutoff = 113.78
  binsize = 56.89, bins = 13 13 13
  1 neighbor lists, perpetual/occasional/extra = 1 0 0
  (1) pair table/pgn, perpetual
      attributes: half, newton on
      pair build: half/bin/atomonly/newton
      stencil: half/bin/3d
      bin: standard
Per MPI rank memory allocation (min/avg/max) = 3.849 | 3.849 | 3.85 Mbytes
   Step          Temp           v_p1           v_p2           v_p3           v_p4          Press            Lx             Ly             Lz           Volume        Density         E_pair         PotEng         KinEng         TotEng          Pxx            Pyy            Pzz            Pxy            Pxz            Pyz           S/CPU     
         0   305.46052      3.310794e-16   0.017114974    0.0061770674   0.0083463641  -104.08226      686.7648       686.7648       686.7648       3.2390979e+08  1.7531306     -33582006      -33582006       909.60928     -33581096      -168.91166     -60.962915     -82.372209      4.8348241      20.101154      34.33687       0            
      1000   372.08742      0.0005         0.024935037    0.014158663    0.016264025   -182.11276      687.10818      687.10818      687.10818      3.243959e+08   1.7505035     -33581265      -33581265       1108.0128     -33580157      -246.08968     -139.73514     -160.51345      5.1550378      19.842338      33.776592      19097.051    
      2000   474.74177      0.001          0.032103515    0.021324251    0.02360389    -253.41444      687.45156      687.45156      687.45156      3.2488249e+08  1.7478817     -33580275      -33580275       1413.6999     -33578861      -316.83706     -210.45399     -232.95228      5.9290588      18.550921      34.273944      19064.733    
      3000   551.79708      0.0015         0.038755079    0.027947545    0.030402269   -319.45026      687.79494      687.79494      687.79494      3.2536957e+08  1.7452651     -33578989      -33578989       1643.1575     -33577346      -382.48289     -275.82082     -300.04707      6.0640121      17.695965      35.129955      19444.94     
      4000   586.15219      0.002          0.045333493    0.034630352    0.037049172   -384.9429       688.13833      688.13833      688.13833      3.2585714e+08  1.7426537     -33577328      -33577328       1745.4611     -33575583      -447.40679     -341.77501     -365.6469       5.8582463      17.892223      35.309146      18995.704    
      5000   586.82095      0.0025         0.05216441     0.041609707    0.043858701   -452.77677      688.48171      688.48171      688.48171      3.2634519e+08  1.7400476     -33575216      -33575216       1747.4526     -33573469      -514.8227      -410.65588     -432.85172      5.0543709      17.156274      33.947226      19375.233    
      6000   569.90056      0.003          0.058939595    0.048640527    0.050806391   -521.05112      688.82509      688.82509      688.82509      3.2683373e+08  1.7374466     -33572609      -33572609       1697.0665     -33570912      -581.68857     -480.04468     -501.42009      3.719411       15.410842      32.572011      19120.631    
      7000   547.38243      0.0035         0.06532377     0.055548038    0.057718575   -587.51668      689.16847      689.16847      689.16847      3.2732276e+08  1.7348508     -33569500      -33569500       1630.0114     -33567870      -644.69549     -548.21651     -569.63805      3.0863202      14.173029      31.858068      19409.808    
      8000   524.98671      0.004          0.071539938    0.062171957    0.064435416   -651.85397      689.51185      689.51185      689.51185      3.2781228e+08  1.7322602     -33565899      -33565899       1563.3208     -33564336      -706.04429     -613.58951     -635.92811      3.0087042      13.578526      31.196695      19064.262    
      9000   504.29863      0.0045         0.077956098    0.068550595    0.070904864   -715.22841      689.85524      689.85524      689.85524      3.2830228e+08  1.7296747     -33561802      -33561802       1501.7152     -33560300      -769.36687     -676.54177     -699.7766       2.3239191      12.834867      30.99295       19203.959    
     10000   485.95487      0.005          0.084387986    0.07486953     0.077168038   -777.7796       690.19862      690.19862      690.19862      3.2879277e+08  1.7270944     -33557209      -33557209       1447.0906     -33555761      -832.84467     -738.90481     -761.58932      2.2144209      12.122079      31.475663      19057.334    
     11000   470.44255      0.0055         0.090597922    0.081209226    0.083313696   -839.28232      690.542        690.542        690.542        3.2928375e+08  1.7245192     -33552128      -33552128       1400.8976     -33550727      -894.13197     -801.47274     -822.24225      3.0970278      11.962199      31.744041      19282.815    
     12000   457.37257      0.006          0.096483906    0.087352527    0.089297576   -898.54103      690.88538      690.88538      690.88538      3.2977522e+08  1.7219491     -33546579      -33546579       1361.9774     -33545217      -952.22211     -862.10241     -881.29856      3.6220638      11.597044      31.151549      19175.009    
     13000   446.19374      0.0065         0.10201507     0.093218418    0.09504644    -954.9467       691.22877      691.22877      691.22877      3.3026718e+08  1.7193842     -33540589      -33540589       1328.6888     -33539260      -1006.8104     -919.99426     -938.03543      3.3461771      10.924142      29.398581      19402.414    
     14000   436.75173      0.007          0.10737108     0.098984966    0.10072521    -1010.2188      691.57215      691.57215      691.57215      3.3075962e+08  1.7168243     -33534179      -33534179       1300.5721     -33532878      -1059.6702     -976.90566     -994.08053      2.7690312      10.048388      28.058961      19114.15     
     15000   428.71951      0.0075         0.11283072     0.10470745     0.10646643    -1065.8923      691.91553      691.91553      691.91553      3.3125256e+08  1.7142695     -33527352      -33527352       1276.6535     -33526075      -1113.5526     -1033.3822     -1050.742       2.0748493      9.0117143      27.904486      19293.739    
     16000   421.62718      0.008          0.11839545     0.1102867      0.11219688    -1121.4049      692.25891      692.25891      692.25891      3.3174598e+08  1.7117198     -33520096      -33520096       1255.5337     -33518840      -1168.4723     -1088.4451     -1107.2972      1.126559       7.3429677      27.460776      19121.416    
     17000   415.50437      0.0085         0.12384624     0.11563749     0.11768964    -1175.009       692.6023       692.6023       692.6023       3.322399e+08   1.7091751     -33512417      -33512417       1237.301      -33511179      -1222.2674     -1141.2533     -1161.5065      0.17948084     6.182149       26.55385       19022.482    
     18000   410.67168      0.009          0.1290676      0.12091591     0.12286363    -1226.5717      692.94568      692.94568      692.94568      3.327343e+08   1.7066355     -33504336      -33504336       1222.9101     -33503114      -1273.7982     -1193.3472     -1212.5697      0.10413611     6.1835781      26.499313      19114.151    
     19000   406.67003      0.0095         0.13420427     0.12624924     0.12784714    -1277.4098      693.28906      693.28906      693.28906      3.3322919e+08  1.7041009     -33495867      -33495867       1210.9939     -33494656      -1324.4932     -1245.9831     -1261.7531      0.46451825     6.0670801      27.148113      19300.531    
     20000   403.12474      0.01           0.1392163      0.13152795     0.13288575    -1327.8394      693.63244      693.63244      693.63244      3.3372458e+08  1.7015713     -33487017      -33487017       1200.4366     -33485817      -1373.958      -1298.0799     -1311.4804      0.37500949     6.306498       27.869668      19213.916    
     21000   400.48403      0.0105         0.14397279     0.13662948     0.13794378    -1376.9095      693.97583      693.97583      693.97583      3.3422046e+08  1.6990467     -33477800      -33477800       1192.5731     -33476608      -1420.901      -1348.4281     -1361.3993      0.75157262     6.8627374      28.245394      19362.22     
     22000   398.94297      0.011          0.14860733     0.14151511     0.1428625     -1424.4097      694.31921      694.31921      694.31921      3.3471682e+08  1.6965271     -33468225      -33468225       1187.984      -33467037      -1466.6403     -1396.6456     -1409.9432      1.8822882      6.2941102      27.161062      19265.974    
     23000   398.04294      0.0115         0.15320323     0.14611809     0.14749619    -1469.9153      694.66259      694.66259      694.66259      3.3521368e+08  1.6940125     -33458297      -33458297       1185.3039     -33457112      -1511.9983     -1442.0734     -1455.6742      2.2061548      4.1956196      24.475263      19105.554    
     24000   397.34521      0.012          0.1575115      0.1505734      0.15199183    -1513.5348      695.00597      695.00597      695.00597      3.3571103e+08  1.6915028     -33448028      -33448028       1183.2262     -33446845      -1554.5176     -1486.0439     -1500.0428      0.73668081     2.2496474      22.780237      19439.414    
     25000   396.68247      0.0125         0.16155422     0.15505085     0.15667926    -1556.9844      695.34936      695.34936      695.34936      3.3620887e+08  1.6889981     -33437425      -33437425       1181.2527     -33436244      -1594.4162     -1530.2329     -1546.3041     -0.9349044      1.7566755      23.204593      19117.392    
     26000   396.25787      0.013          0.16576144     0.15954708     0.16133289    -1600.9258      695.69274      695.69274      695.69274      3.3670721e+08  1.6864984     -33426497      -33426497       1179.9883     -33425317      -1635.9382     -1574.6072     -1592.2318     -1.3623532      1.6422174      24.339378      19444.639    
     27000   396.15515      0.0135         0.17022621     0.16391447     0.16550758    -1643.715       696.03612      696.03612      696.03612      3.3720603e+08  1.6840036     -33415252      -33415252       1179.6824     -33414072      -1680.0021     -1617.71       -1633.4329     -1.6424334      1.5379547      25.05834       19118.394    
     28000   396.17374      0.014          0.17461054     0.16801634     0.16931025    -1684.1422      696.3795       696.3795       696.3795       3.3770535e+08  1.6815137     -33403698      -33403698       1179.7377     -33402519      -1723.2721     -1658.1924     -1670.9622     -1.6371675      1.818042       24.968984      19337.243    
     29000   396.39471      0.0145         0.17859906     0.17184631     0.17305038    -1722.1671      696.72289      696.72289      696.72289      3.3820516e+08  1.6790287     -33391844      -33391844       1180.3958     -33390664      -1762.6357     -1695.9912     -1707.8745     -1.5230862      1.5790112      24.115181      19146.478    
     30000   397.05503      0.015          0.18233132     0.17576285     0.17699395    -1760.3031      697.06627      697.06627      697.06627      3.3870546e+08  1.6765486     -33379695      -33379695       1182.3621     -33378512      -1799.4702     -1734.6445     -1746.7945     -2.3518498      1.6604007      22.487457      19237.189    
     31000   398.13257      0.0155         0.18592998     0.17984641     0.1811078     -1799.1091      697.40965      697.40965      697.40965      3.3920626e+08  1.6740733     -33367261      -33367261       1185.5708     -33366075      -1834.9862     -1774.9461     -1787.3951     -3.6596642      2.5038152      20.874041      19135.81     
     32000   399.47338      0.016          0.18937552     0.18384854     0.18519043    -1837.0408      697.75303      697.75303      697.75303      3.3970755e+08  1.671603      -33354543      -33354543       1189.5635     -33353354      -1868.9911     -1814.444      -1827.6874     -3.6063034      2.1903208      20.284007      19426.92     
     33000   400.62052      0.0165         0.19279316     0.18761574     0.18900147    -1873.2144      698.09641      698.09641      698.09641      3.4020933e+08  1.6691375     -33341549      -33341549       1192.9795     -33340356      -1902.7205     -1851.6234     -1865.2994     -2.4316977      0.19380201     20.487323      19103.584    
     34000   401.86176      0.017          0.19625887     0.19117867     0.1924386     -1907.6442      698.4398       698.4398       698.4398       3.4071161e+08  1.6666769     -33328286      -33328286       1196.6757     -33327090      -1936.9245     -1886.7868     -1899.2213     -1.8896391     -1.6330205      21.118057      19343.24     
     35000   403.66678      0.0175         0.19980957     0.19457654     0.19567973    -1941.1657      698.78318      698.78318      698.78318      3.4121438e+08  1.664221      -33314769      -33314769       1202.0507     -33313567      -1971.9671     -1920.3211     -1931.2088     -1.8926475     -1.9240673      22.193947      19212.764    
     36000   405.4857       0.018          0.20324925     0.19790462     0.1989755     -1974.2721      699.12656      699.12656      699.12656      3.4171765e+08  1.6617701     -33300997      -33300997       1207.4672     -33299789      -2005.9141     -1953.1667     -1963.7355     -1.4363992     -1.6433143      22.544121      19366.151    
     37000   406.90907      0.0185         0.2063509      0.20129743     0.20224249    -2006.3848      699.46994      699.46994      699.46994      3.4222141e+08  1.6593239     -33286975      -33286975       1211.7057     -33285763      -2036.525      -1986.6512     -1995.9782     -2.0401333     -2.12325        21.190543      19153.422    
     38000   408.24689      0.019          0.20926674     0.2046692      0.20529997    -2037.1278      699.81333      699.81333      699.81333      3.4272566e+08  1.6568825     -33272710      -33272710       1215.6895     -33271495      -2065.3022     -2019.928      -2026.1531     -4.3402525     -2.9825691      19.390241      19393.438    
     39000   409.86442      0.0195         0.21227252     0.20788034     0.20835078    -2067.6162      700.15671      700.15671      700.15671      3.4323041e+08  1.6544459     -33258216      -33258216       1220.5062     -33256996      -2094.9669     -2051.6194     -2056.2623     -5.7003178     -2.8868224      19.251157      19167.82     
     40000   411.6742       0.02           0.21539626     0.21090303     0.21144763    -2098.0242      700.50009      700.50009      700.50009      3.4373566e+08  1.6520141     -33243502      -33243502       1225.8955     -33242277      -2125.7958     -2081.4511     -2086.8258     -4.9011412     -2.2286197      20.579352      19410.505    
     41000   413.17211      0.0205         0.21835384     0.21383264     0.21440098    -2127.1073      700.84347      700.84347      700.84347      3.442414e+08   1.649587      -33228563      -33228563       1230.356      -33227333      -2154.9848     -2110.364      -2115.9732     -3.5508188     -2.0951084      21.128502      19149.438    
     42000   414.60048      0.021          0.22103825     0.21668328     0.21713223    -2154.3014      701.18686      701.18686      701.18686      3.4474764e+08  1.6471647     -33213403      -33213403       1234.6094     -33212168      -2181.4779     -2138.4977     -2142.9285     -3.0329385     -2.4873251      20.587324      19350.293    
     43000   416.3693       0.0215         0.22363326     0.2194256      0.21981326    -2180.6797      701.53024      701.53024      701.53024      3.4525437e+08  1.6447472     -33198032      -33198032       1239.8767     -33196792      -2207.0887     -2165.5623     -2169.3882     -3.5155075     -2.5202785      19.581671      19206.586    
     44000   418.28464      0.022          0.22619277     0.22206743     0.22249662    -2206.6184      701.87362      701.87362      701.87362      3.457616e+08   1.6423343     -33182451      -33182451       1245.5802     -33181205      -2232.3491     -2191.6351     -2195.8709     -4.1821355     -2.6954522      18.290343      19380.581    
     45000   420.2576       0.0225         0.22877659     0.22462774     0.22508718    -2232.0635      702.217        702.217        702.217        3.4626933e+08  1.6399262     -33166670      -33166670       1251.4554     -33165419      -2257.8494     -2216.9034     -2221.4377     -3.9514797     -3.5478335      17.457475      19187.839    
     46000   421.89464      0.023          0.23134489     0.22716917     0.22771496    -2257.518       702.56039      702.56039      702.56039      3.4677755e+08  1.6375228     -33150703      -33150703       1256.3302     -33149447      -2283.1965     -2241.9854     -2247.3719     -3.7945366     -4.232333       17.312372      19400.146    
     47000   423.1864       0.0235         0.23371829     0.22966604     0.23026042    -2281.9138      702.90377      702.90377      702.90377      3.4728627e+08  1.6351241     -33134549      -33134549       1260.1768     -33133289      -2306.6202     -2266.6275     -2272.4936     -5.2328296     -4.1276119      18.69036       19164.84     
     48000   424.6147       0.024          0.23594768     0.23214541     0.23246497    -2304.6568      703.24715      703.24715      703.24715      3.4779549e+08  1.6327301     -33118209      -33118209       1264.4301     -33116945      -2328.6225     -2291.0971     -2294.2509     -7.1619662     -4.2547087      19.651679      19335.227    
     49000   426.36074      0.0245         0.23809403     0.23447143     0.23437039    -2325.6381      703.59053      703.59053      703.59053      3.483052e+08   1.6303407     -33101695      -33101695       1269.6295     -33100425      -2349.8053     -2314.0531     -2313.0559     -7.8667553     -4.50046        18.821116      19150.68     
     50000   428.30432      0.025          0.24015165     0.2365321      0.23637352    -2345.776       703.93392      703.93392      703.93392      3.4881542e+08  1.627956      -33085010      -33085010       1275.4171     -33083735      -2370.1125     -2334.3903     -2332.8253     -7.74145       -3.9478406      17.821325      18424.274    
     51000   430.00862      0.0255         0.24213637     0.23845023     0.23866328    -2366.1481      704.2773       704.2773       704.2773       3.4932613e+08  1.625576      -33068160      -33068160       1280.4922     -33066879      -2389.7001     -2353.3208     -2355.4235     -6.7142942     -2.8058027      17.420359      19344.228    
     52000   431.37781      0.026          0.24408288     0.24040134     0.24097328    -2386.5696      704.62068      704.62068      704.62068      3.4983734e+08  1.6232006     -33051153      -33051153       1284.5695     -33049868      -2408.9107     -2372.5768     -2378.2214     -5.6354063     -2.6668171      16.310497      19171.365    
     53000   432.55174      0.0265         0.24599425     0.24247462     0.24303042    -2406.4456      704.96406      704.96406      704.96406      3.5034904e+08  1.6208298     -33033997      -33033997       1288.0652     -33032709      -2427.7745     -2393.0384     -2398.5238     -5.6313713     -3.6805194      14.890001      18747.61     
     54000   433.83415      0.027          0.2478738      0.24443678     0.24468944    -2424.5415      705.30745      705.30745      705.30745      3.5086125e+08  1.6184636     -33016694      -33016694       1291.884      -33015402      -2446.3242     -2412.4035     -2414.897      -6.904604      -4.5298038      14.472621      19141.264    
     55000   435.43138      0.0275         0.24965212     0.24628063     0.24614166    -2441.235       705.65083      705.65083      705.65083      3.5137395e+08  1.616102      -32999245      -32999245       1296.6403     -32997948      -2463.8749     -2430.6009     -2429.2293     -8.0676124     -5.7144419      15.489996      19324.787    
     56000   436.77021      0.028          0.25129306     0.24802588     0.24781376    -2457.8755      705.99421      705.99421      705.99421      3.5188716e+08  1.613745      -32981653      -32981653       1300.6271     -32980353      -2480.0697     -2447.8251     -2445.7316     -8.653072      -6.5978778      16.943404      19071.97     
     57000   437.64431      0.0285         0.25272774     0.24964125     0.24968737    -2474.0731      706.33759      706.33759      706.33759      3.5240086e+08  1.6113926     -32963919      -32963919       1303.23       -32962616      -2494.2289     -2463.7675     -2464.2228     -8.8472515     -6.0452834      17.258064      19402.016    
     58000   438.36706      0.029          0.25409451     0.25121224     0.25143494    -2489.4866      706.68097      706.68097      706.68097      3.5291507e+08  1.6090448     -32946050      -32946050       1305.3822     -32944744      -2507.7178     -2479.2721     -2481.4699     -8.8130725     -4.9452595      16.252458      19168.33     
     59000   439.21017      0.0295         0.25550807     0.25274563     0.25293094    -2504.1028      707.02436      707.02436      707.02436      3.5342977e+08  1.6067015     -32928061      -32928061       1307.8929     -32926753      -2521.6686     -2494.4054     -2496.2343     -9.4183815     -4.2018489      15.19781       19408.666    
     60000   440.55402      0.03           0.25700528     0.25408384     0.25430182    -2517.9404      707.36774      707.36774      707.36774      3.5394497e+08  1.6043628     -32909962      -32909962       1311.8946     -32908650      -2536.4449     -2507.6125     -2509.7638     -10.518287     -3.2754199      14.469175      17933.864    
     61000   442.07125      0.0305         0.25861193     0.25541543     0.25570597    -2532.2258      707.71112      707.71112      707.71112      3.5446068e+08  1.6020286     -32891749      -32891749       1316.4127     -32890433      -2552.3013     -2520.7544     -2523.6218     -10.832325     -2.9504278      14.156442      19349.903    
     62000   443.28422      0.031          0.26016547     0.25680142     0.25704965    -2546.3164      708.0545       708.0545       708.0545       3.5497688e+08  1.599699      -32873416      -32873416       1320.0247     -32872096      -2567.6336     -2534.433      -2536.8828     -10.085841     -3.1496304      13.8818        19177.306    
     63000   444.23829      0.0315         0.26130779     0.25803672     0.25818536    -2557.8744      708.39789      708.39789      708.39789      3.5549359e+08  1.5973738     -32854971      -32854971       1322.8658     -32853648      -2578.9074     -2546.6244     -2548.0913     -8.389184      -3.8610636      13.890562      19315.97     
     64000   444.89835      0.032          0.26197288     0.2591636      0.2591986     -2567.1028      708.74127      708.74127      708.74127      3.5601079e+08  1.5950532     -32836430      -32836430       1324.8313     -32835105      -2585.4713     -2557.7459     -2558.0912     -7.8256825     -5.2655815      14.701269      19236.992    
     65000   445.1397       0.0325         0.26267451     0.26020457     0.26022189    -2576.2019      709.08465      709.08465      709.08465      3.565285e+08   1.5927371     -32817803      -32817803       1325.55       -32816477      -2592.3959     -2568.0195     -2568.1904     -8.8696122     -5.7276874      15.593559      19347.892    
     66000   445.17781      0.033          0.26375494     0.2611471      0.26134487    -2586.5512      709.42803      709.42803      709.42803      3.5704671e+08  1.5904254     -32799080      -32799080       1325.6635     -32797754      -2603.0588     -2577.3215     -2579.2734     -10.499035     -4.3166283      15.515045      19004.342    
     67000   445.54301      0.0335         0.26476457     0.26202908     0.26232813    -2596.0088      709.77142      709.77142      709.77142      3.5756542e+08  1.5881182     -32780270      -32780270       1326.751      -32778943      -2613.0231     -2586.0259     -2588.9773     -12.291967     -2.6078784      15.319702      19425.209    
     68000   446.543        0.034          0.26559674     0.26297205     0.26314279    -2604.5286      710.1148       710.1148       710.1148       3.5808464e+08  1.5858155     -32761387      -32761387       1329.7288     -32760057      -2621.236      -2595.3324     -2597.0174     -13.209759     -2.513851       14.563021      19171.181    
     69000   447.457        0.0345         0.26631212     0.26398254     0.26389766    -2612.6896      710.45818      710.45818      710.45818      3.5860435e+08  1.5835172     -32742429      -32742429       1332.4505     -32741097      -2628.2962     -2605.3051     -2604.4674     -11.560745     -4.0535921      13.40483       19414.992    
     70000   448.02225      0.035          0.26686967     0.26478215     0.2646323     -2619.5711      710.80156      710.80156      710.80156      3.5912457e+08  1.5812233     -32723397      -32723397       1334.1338     -32722063      -2633.7988     -2613.1967     -2611.7177     -8.5656388     -6.0844689      12.433512      19105.046    
     71000   448.284        0.0355         0.2673687      0.26522704     0.26538951    -2625.1674      711.14495      711.14495      711.14495      3.596453e+08   1.5789339     -32704297      -32704297       1334.9132     -32702962      -2638.724      -2617.5874     -2619.1908     -8.1099336     -6.2438474      12.089262      19300.205    
     72000   448.49763      0.036          0.26787644     0.26542492     0.26611593    -2629.8784      711.48833      711.48833      711.48833      3.6016652e+08  1.5766489     -32685142      -32685142       1335.5493     -32683807      -2643.7349     -2619.5403     -2626.3601     -10.477558     -4.4012803      12.69377       19206.121    
     73000   448.89476      0.0365         0.26845956     0.26569086     0.26671453    -2634.6408      711.83171      711.83171      711.83171      3.6068825e+08  1.5743683     -32665933      -32665933       1336.7319     -32664597      -2649.4899     -2622.1649     -2632.2677     -12.25614      -2.948797       13.693917      19314.274    
     74000   449.46959      0.037          0.26902394     0.26610958     0.26713429    -2639.2559      712.17509      712.17509      712.17509      3.6121048e+08  1.5720921     -32646672      -32646672       1338.4437     -32645333      -2655.0598     -2626.2973     -2636.4104     -12.2038       -2.7049223      14.021146      19283.875    
     75000   450.14166      0.0375         0.26934991     0.26671042     0.26754298    -2643.6493      712.51848      712.51848      712.51848      3.6173322e+08  1.5698203     -32627368      -32627368       1340.445      -32626027      -2658.2769     -2632.2272     -2640.4439     -12.283019     -3.3935789      13.409334      19176.742    
     76000   450.29891      0.038          0.26947352     0.26727541     0.26800699    -2647.4412      712.86186      712.86186      712.86186      3.6225646e+08  1.5675529     -32608023      -32608023       1340.9133     -32606682      -2659.4969     -2637.8032     -2645.0234     -12.389464     -4.4834887      12.451622      19331.183    
     77000   449.98052      0.0385         0.26955791     0.26759239     0.26820591    -2649.4159      713.20524      713.20524      713.20524      3.627802e+08   1.5652898     -32588637      -32588637       1339.9651     -32587297      -2660.3297     -2640.9315     -2646.9866     -11.728279     -4.7327644      11.117237      19249.441    
     78000   449.8103       0.039          0.26961453     0.26767747     0.26821918    -2649.9258      713.54862      713.54862      713.54862      3.6330445e+08  1.5630311     -32569217      -32569217       1339.4583     -32567878      -2660.8885     -2641.7712     -2647.1175     -11.21683      -3.8559055      9.8821122      19342.378    
     79000   449.68355      0.0395         0.26969942     0.26776731     0.26828274    -2650.7097      713.89201      713.89201      713.89201      3.638292e+08   1.5607767     -32549765      -32549765       1339.0808     -32548426      -2661.7264     -2642.6579     -2647.7447     -12.002429     -3.0608103      9.2300393      19205.549    
     80000   449.49533      0.04           0.26981063     0.26781726     0.2683458     -2651.4473      714.23539      714.23539      714.23539      3.6435446e+08  1.5585267     -32530289      -32530289       1338.5203     -32528950      -2662.8239     -2643.1509     -2648.3671     -13.116214     -2.4229434      9.183242       19323.667    
     81000   449.60111      0.0405         0.26984463     0.26761617     0.26827762    -2650.6733      714.57877      714.57877      714.57877      3.6488023e+08  1.556281      -32510802      -32510802       1338.8353     -32509463      -2663.1594     -2641.1662     -2647.6943     -13.626209     -1.3500633      9.217523       19167.71     
     82000   449.88566      0.041          0.26973423     0.26736862     0.26802999    -2648.6811      714.92215      714.92215      714.92215      3.654065e+08   1.5540396     -32491316      -32491316       1339.6827     -32489977      -2662.0699     -2638.7231     -2645.2503     -13.300516     -0.64043766     8.2875913      19383.299    
     83000   449.62048      0.0415         0.26942368     0.26720676     0.26779247    -2646.3457      715.26553      715.26553      715.26553      3.6593327e+08  1.5518025     -32471832      -32471832       1338.893      -32470493      -2659.005      -2637.1257     -2642.9062     -13.215967     -0.62084542     6.895053       19167.142    
     84000   448.71619      0.042          0.26898956     0.26693011     0.26774707    -2643.858       715.60892      715.60892      715.60892      3.6646055e+08  1.5495697     -32452343      -32452343       1336.2002     -32451007      -2654.7205     -2634.3954     -2642.4581     -12.845902     -0.40720961     6.1289446      19402.509    
     85000   447.87586      0.0425         0.26862032     0.26658811     0.26776034    -2641.5619      715.9523       715.9523       715.9523       3.6698834e+08  1.5473411     -32432846      -32432846       1333.6978     -32431513      -2651.0764     -2631.0201     -2642.5891     -12.360481     -0.7380136      5.437067       19166.57     
     86000   447.28977      0.043          0.26826747     0.26639162     0.26751987    -2638.9636      716.29568      716.29568      716.29568      3.6751663e+08  1.5451169     -32413348      -32413348       1331.9525     -32412016      -2647.594      -2629.0809     -2640.2158     -12.851992     -1.3347935      4.6805893      19404.941    
     87000   447.08881      0.0435         0.2677432      0.26623195     0.26695618    -2634.8592      716.63906      716.63906      716.63906      3.6804543e+08  1.5428969     -32393858      -32393858       1331.3541     -32392527      -2642.42       -2627.5051     -2634.6526     -14.055424     -1.707084       3.8848285      19115.635    
     88000   447.28027      0.044          0.26716514     0.26587768     0.266385      -2629.913       716.98245      716.98245      716.98245      3.6857474e+08  1.5406811     -32374385      -32374385       1331.9243     -32373053      -2636.7149     -2624.0087     -2629.0155     -14.885985     -1.4385939      2.2148687      19383.766    
     89000   447.52393      0.0445         0.26655594     0.26541293     0.2658878     -2624.7443      717.32583      717.32583      717.32583      3.6910456e+08  1.5384696     -32354932      -32354932       1332.6498     -32353599      -2630.7026     -2619.4219     -2624.1085     -14.730192     -0.098501375   -0.032539919    19192.121    
     90000   447.45055      0.045          0.26604855     0.26495161     0.26532992    -2619.7223      717.66921      717.66921      717.66921      3.6963488e+08  1.5362624     -32335499      -32335499       1332.4313     -32334166      -2625.6951     -2614.8691     -2618.6028     -13.938024      0.86315913    -1.8928613      19334.382    
     91000   447.03531      0.0455         0.26557938     0.26434633     0.26466343    -2613.995       718.01259      718.01259      718.01259      3.7016571e+08  1.5340593     -32316094      -32316094       1331.1948     -32314763      -2621.0646     -2608.8954     -2612.025      -12.756008      0.31915369    -2.7448295      19215.033    
     92000   446.40666      0.046          0.26499752     0.26362313     0.26403132    -2607.6223      718.35598      718.35598      718.35598      3.7069705e+08  1.5318605     -32296721      -32296721       1329.3228     -32295392      -2615.3222     -2601.758      -2605.7866     -11.928435     -0.042812588   -2.4113861      19422.841    
     93000   445.3783       0.0465         0.26437272     0.26292804     0.26338657    -2601.1591      718.69936      718.69936      718.69936      3.7122889e+08  1.5296658     -32277376      -32277376       1326.2605     -32276049      -2609.1559     -2594.898      -2599.4234     -12.704228      0.40234328    -1.6712028      19139.859    
     94000   444.0759       0.047          0.26368627     0.26217783     0.26263995    -2593.9766      719.04274      719.04274      719.04274      3.7176125e+08  1.5274754     -32258058      -32258058       1322.3822     -32256735      -2602.3811     -2587.494      -2592.0548     -14.151025      0.79694866    -2.5194321      19108.86     
     95000   442.54422      0.0475         0.26276221     0.26139879     0.26184349    -2585.7537      719.38612      719.38612      719.38612      3.7229411e+08  1.5252891     -32238775      -32238775       1317.8211     -32237457      -2593.2614     -2579.8055     -2584.1943     -14.09609       1.0731525     -5.1147081      19163.688    
     96000   441.02077      0.048          0.26146592     0.26064866     0.2609846     -2576.196       719.72951      719.72951      719.72951      3.7282749e+08  1.523107      -32219527      -32219527       1313.2845     -32218214      -2580.468      -2572.4023     -2575.7177     -13.387711      0.92494659    -7.3471753      19325.668    
     97000   440.20699      0.0485         0.26012933     0.25987385     0.26000422    -2566.0248      720.07289      720.07289      720.07289      3.7336137e+08  1.5209291     -32200331      -32200331       1310.8613     -32199020      -2567.2769     -2564.7555     -2566.0421     -13.576115      0.073616786   -8.4427684      19267.517    
     98000   439.93926      0.049          0.2593144      0.25900885     0.2590712     -2557.4289      720.41627      720.41627      720.41627      3.7389576e+08  1.5187553     -32181196      -32181196       1310.064      -32179886      -2559.2342     -2556.2186     -2556.8339     -13.697406     -0.9908505     -8.2217453      19304.97     
     99000   439.56784      0.0495         0.25879569     0.25805346     0.25811514    -2549.4343      720.75965      720.75965      720.75965      3.7443066e+08  1.5165856     -32162115      -32162115       1308.958      -32160806      -2554.1149     -2546.7897     -2547.3984     -13.545038     -0.60504681    -7.6996392      19292.455    
    100000   438.93429      0.05           0.25806185     0.25706219     0.25710608    -2540.4396      721.10304      721.10304      721.10304      3.7496607e+08  1.5144201     -32143088      -32143088       1307.0714     -32141781      -2546.8724     -2537.0065     -2537.4397     -13.637423      1.184867      -7.6735924      18451.013    
    101000   438.12553      0.0505         0.25694504     0.25604623     0.25603248    -2529.8914      721.44642      721.44642      721.44642      3.7550199e+08  1.5122587     -32124119      -32124119       1304.663      -32122815      -2535.8504     -2526.9798     -2526.8441     -13.764817      2.4386947     -8.4759133      19306.604    
    102000   436.97909      0.051          0.25569347     0.25505777     0.25502794    -2519.2176      721.7898       721.7898       721.7898       3.7603842e+08  1.5101014     -32105200      -32105200       1301.2491     -32103898      -2523.4984     -2517.2245     -2516.93       -12.48526       2.4314835     -10.238126      19217.206    
    103000   435.32553      0.0515         0.25454482     0.25401127     0.25396454    -2508.4978      722.13318      722.13318      722.13318      3.7657536e+08  1.5079482     -32086330      -32086330       1296.3251     -32085033      -2512.162      -2506.8963     -2506.4351     -10.729491      1.2394793     -11.825875      19430.415    
    104000   433.8258       0.052          0.2534403      0.25273629     0.25266491    -2496.3944      722.47657      722.47657      722.47657      3.7711282e+08  1.5057991     -32067525      -32067525       1291.8592     -32066233      -2501.2613     -2494.3133     -2493.6088     -10.467432      0.00054975612 -12.467715      19180.723    
    105000   432.82899      0.0525         0.25219394     0.25137989     0.25132177    -2483.4135      722.81995      722.81995      722.81995      3.7765078e+08  1.5036541     -32048804      -32048804       1288.8908     -32047515      -2488.9607     -2480.9266     -2480.3531     -11.577985     -0.5400166     -12.701572      19423.278    
    106000   431.53067      0.053          0.25091322     0.25019443     0.25023292    -2471.7183      723.16333      723.16333      723.16333      3.7818926e+08  1.5015132     -32030166      -32030166       1285.0246     -32028881      -2476.3209     -2469.227      -2469.6069     -12.631882      0.011965943   -11.878929      19216.285    
    107000   429.88124      0.0535         0.24968609     0.2490776      0.24915939    -2460.4756      723.50671      723.50671      723.50671      3.7872824e+08  1.4993763     -32011590      -32011590       1280.1129     -32010310      -2464.2101     -2458.2048     -2459.012      -12.272161      1.1143962     -10.376011      19393.182    
    108000   428.46274      0.054          0.24856776     0.24795574     0.24795696    -2449.1503      723.85009      723.85009      723.85009      3.7926774e+08  1.4972435     -31993076      -31993076       1275.8889     -31991800      -2453.1731     -2447.1329     -2447.1449     -11.412174      1.2937248     -10.480798      19219.377    
    109000   427.21109      0.0545         0.24741019     0.24685304     0.24660304    -2437.2605      724.19348      724.19348      724.19348      3.7980775e+08  1.4951147     -31974634      -31974634       1272.1617     -31973362      -2441.7487     -2436.25       -2433.7828     -11.525701      0.61878929    -12.777252      19359.394    
    110000   425.8516       0.055          0.24606906     0.24577042     0.2452805     -2424.9362      724.53686      724.53686      724.53686      3.8034828e+08  1.49299       -31956267      -31956267       1268.1133     -31954999      -2428.5128     -2425.5655     -2420.7303     -11.595628      0.092603365   -14.586586      19244.858    
    111000   424.48559      0.0555         0.24470161     0.24459554     0.24395265    -2412.2043      724.88024      724.88024      724.88024      3.8088931e+08  1.4908692     -31937971      -31937971       1264.0456     -31936707      -2415.0172     -2413.9703     -2407.6255     -10.829159     -0.50145365    -14.33376       19395.609    
    112000   423.18234      0.056          0.24351183     0.24328166     0.24274497    -2399.995       725.22362      725.22362      725.22362      3.8143086e+08  1.4887525     -31919747      -31919747       1260.1647     -31918487      -2403.2749     -2401.0033     -2395.7066     -9.7021561     -1.4084131     -13.355796      19212.971    
    113000   421.64848      0.0565         0.24235605     0.24176139     0.24168153    -2387.693       725.56701      725.56701      725.56701      3.8197292e+08  1.4866398     -31901602      -31901602       1255.5972     -31900346      -2391.8683     -2385.9994     -2385.2112     -9.9190691     -1.6314205     -12.72454       19346.274    
    114000   419.67129      0.057          0.24092076     0.24009955     0.24053381    -2373.7285      725.91039      725.91039      725.91039      3.825155e+08   1.4845311     -31883541      -31883541       1249.7095     -31882291      -2377.703      -2369.5984     -2373.8841     -11.251198     -1.1625621     -13.037874      19182.442    
    115000   417.61477      0.0575         0.23926898     0.23847565     0.23893913    -2357.7063      726.25377      726.25377      726.25377      3.8305859e+08  1.4824264     -31865571      -31865571       1243.5855     -31864328      -2361.4012     -2353.5717     -2358.1459     -11.7825       -0.94678186    -14.078792      19295.222    
    116000   416.15632      0.058          0.2378125      0.23707474     0.23712026    -2342.3226      726.59715      726.59715      726.59715      3.8360219e+08  1.4803256     -31847700      -31847700       1239.2424     -31846461      -2347.0269     -2339.7458     -2340.195      -11.093793     -0.78951417    -15.085461      19229.762    
    117000   415.0381       0.0585         0.23658422     0.23585906     0.23550857    -2328.9805      726.94054      726.94054      726.94054      3.8414631e+08  1.4782289     -31829923      -31829923       1235.9126     -31828687      -2334.9047     -2327.748      -2324.2889     -10.060025     -0.27935739    -15.257512      19329.661    
    118000   413.76353      0.059          0.23532146     0.23457617     0.23426124    -2316.5026      727.28392      727.28392      727.28392      3.8469094e+08  1.476136      -31812222      -31812222       1232.1171     -31810990      -2322.4423     -2315.0868     -2311.9786     -10.429507     -0.33363137    -14.925782      19192.572    
    119000   412.38077      0.0595         0.23383511     0.23308158     0.23301078    -2302.5823      727.6273       727.6273       727.6273       3.8523608e+08  1.4740472     -31794609      -31794609       1227.9995     -31793381      -2307.7731     -2300.3364     -2299.6376     -11.642051     -1.1725222     -14.795929      19421.363    
    120000   410.98514      0.06           0.23214981     0.23150757     0.2316722     -2287.4565      727.97068      727.97068      727.97068      3.8578174e+08  1.4719622     -31777094      -31777094       1223.8436     -31775870      -2291.1405     -2284.8021     -2286.4268     -11.844293     -1.2441888     -15.261898      19189.945    
    121000   409.49663      0.0605         0.23055737     0.22988569     0.23023567    -2272.1564      728.31407      728.31407      728.31407      3.8632792e+08  1.4698812     -31759672      -31759672       1219.411      -31758453      -2275.4244     -2268.7954     -2272.2494     -12.137559     -1.0903394     -15.461334      19379.054    
    122000   407.85502      0.061          0.2292373      0.22830233     0.22874971    -2257.7164      728.65745      728.65745      728.65745      3.8687461e+08  1.4678042     -31742340      -31742340       1214.5226     -31741125      -2262.3963     -2253.1688     -2257.5842     -11.887224     -0.044293647   -14.691472      19074.122    
    123000   405.89308      0.0615         0.2280051      0.22686685     0.22744822    -2244.6588      729.00083      729.00083      729.00083      3.8742181e+08  1.465731      -31725093      -31725093       1208.6803     -31723884      -2250.2353     -2239.0017     -2244.7394     -10.86569       1.2284038     -13.687829      19405.302    
    124000   403.76685      0.062          0.22659947     0.22541881     0.22620456    -2231.1797      729.34421      729.34421      729.34421      3.8796953e+08  1.4636617     -31707932      -31707932       1202.3487     -31706730      -2236.3629     -2224.7107     -2232.4654     -10.413367      0.54769598    -13.025964      19185.495    
    125000   402.0286       0.0625         0.22504256     0.22387301     0.2246843     -2215.9712      729.6876       729.6876       729.6876       3.8851777e+08  1.4615963     -31690865      -31690865       1197.1725     -31689668      -2220.9974     -2209.4548     -2217.4616     -10.834262     -0.9858287     -13.364113      19286.748    
    126000   400.73922      0.063          0.22349092     0.2223303      0.2229699     -2200.1517      730.03098      730.03098      730.03098      3.8906653e+08  1.4595349     -31673900      -31673900       1193.333      -31672707      -2205.6839     -2194.2295     -2200.5418     -11.143424     -1.640524      -14.208958      19163.249    
    127000   399.50911      0.0635         0.22197829     0.22079639     0.22136586    -2184.8525      730.37436      730.37436      730.37436      3.896158e+08   1.4574772     -31657037      -31657037       1189.6699     -31655847      -2190.7554     -2179.0909     -2184.7112     -10.418943     -0.99401984    -15.203762      19371.447    
    128000   398.00894      0.064          0.22039567     0.21931219     0.21985506    -2169.7933      730.71774      730.71774      730.71774      3.9016558e+08  1.4554235     -31640269      -31640269       1185.2027     -31639084      -2175.1361     -2164.443      -2169.8008     -9.5627607      0.36989252    -15.664596      19166.141    
    129000   396.50007      0.0645         0.21878851     0.21788465     0.21836949    -2154.9228      731.06113      731.06113      731.06113      3.9071589e+08  1.4533736     -31623596      -31623596       1180.7095     -31622415      -2159.2747     -2150.3544     -2155.1393     -10.205168      2.1040483     -15.632156      19217.248    
    130000   394.99183      0.065          0.21732968     0.21640952     0.21702075    -2140.8338      731.40451      731.40451      731.40451      3.9126671e+08  1.4513276     -31607023      -31607023       1176.2182     -31605846      -2144.8771     -2135.7959     -2141.8283     -11.691376      2.8823408     -15.558729      19194.921    
    131000   393.40797      0.0655         0.21602315     0.21484107     0.21581961    -2127.4244      731.74789      731.74789      731.74789      3.9181805e+08  1.4492853     -31590542      -31590542       1171.5018     -31589370      -2131.9827     -2120.3165     -2129.9739     -11.158673      2.2461463     -14.835498      19155.833    
    132000   391.71233      0.066          0.21470574     0.2133026      0.21456126    -2113.8896      732.09127      732.09127      732.09127      3.923699e+08   1.447247      -31574147      -31574147       1166.4524     -31572980      -2118.9809     -2105.133      -2117.555      -8.8924829      1.1631257     -14.054696      19413.62     
    133000   390.15519      0.0665         0.21313393     0.21178898     0.21301378    -2098.6485      732.43465      732.43465      732.43465      3.9292228e+08  1.4452124     -31557842      -31557842       1161.8155     -31556680      -2103.4684     -2090.1947     -2102.2825     -8.1270952      0.44979942    -14.469683      19233.251    
    134000   388.95197      0.067          0.21139238     0.2101461      0.21130156    -2081.8819      732.77804      732.77804      732.77804      3.9347517e+08  1.4431817     -31541644      -31541644       1158.2325     -31540486      -2086.2806     -2073.9808     -2085.3842     -8.7316276      0.40565834    -15.252514      19389.756    
    135000   387.88137      0.0675         0.20980751     0.20850074     0.20969796    -2065.9798      733.12142      733.12142      733.12142      3.9402858e+08  1.4411547     -31525562      -31525562       1155.0445     -31524407      -2070.6392     -2057.7423     -2069.5579     -9.3516778      1.1197543     -15.512438      19246.934    
    136000   386.43487      0.068          0.20856818     0.20702848     0.20827256    -2052.3701      733.4648       733.4648       733.4648       3.9458251e+08  1.4391316     -31509577      -31509577       1150.7371     -31508426      -2058.4079     -2043.2122     -2055.4904     -9.5422695      1.8784508     -15.168858      19362.673    
    137000   384.63508      0.0685         0.20744294     0.20574005     0.20693361    -2040.025       733.80818      733.80818      733.80818      3.9513696e+08  1.4371122     -31493669      -31493669       1145.3776     -31492524      -2047.3026     -2030.4964     -2042.2759     -8.70673        2.1282232     -14.702538      19256.07     
    138000   383.08483      0.069          0.2061173      0.20446406     0.20564543    -2027.2285      734.15157      734.15157      734.15157      3.9569193e+08  1.4350966     -31477844      -31477844       1140.7612     -31476703      -2034.2196     -2017.9034     -2029.5626     -7.5219424      2.136269      -15.062157      19381.047    
    139000   382.10205      0.0695         0.20460834     0.20308985     0.20425521    -2013.1702      734.49495      734.49495      734.49495      3.9624741e+08  1.4330848     -31462110      -31462110       1137.8346     -31460972      -2019.3273     -2004.341      -2015.8422     -7.3616743      2.2422497     -16.369497      19249.229    
    140000   381.05504      0.07           0.20295893     0.20167624     0.20287122    -1998.5407      734.83833      734.83833      734.83833      3.9680342e+08  1.4310768     -31446473      -31446473       1134.7168     -31445339      -2003.0489     -1990.3897     -2002.1833     -8.1962164      3.1166646     -17.242506      19427.913    
    141000   379.70668      0.0705         0.20119584     0.20022891     0.20146487    -1983.3527      735.18171      735.18171      735.18171      3.9735995e+08  1.4290725     -31430935      -31430935       1130.7016     -31429804      -1985.6486     -1976.1057     -1988.3036     -8.37348        3.9764736     -16.687267      19243.514    
    142000   378.41483      0.071          0.19958976     0.19864645     0.1999929     -1968.0208      735.5251       735.5251       735.5251       3.9791699e+08  1.4270719     -31415502      -31415502       1126.8547     -31414375      -1969.7977     -1960.4881     -1973.7765     -7.1479773      4.0917036     -15.665677      19405.465    
    143000   377.11789      0.0715         0.1983507      0.19707265     0.19859146    -1954.1568      735.86848      735.86848      735.86848      3.9847456e+08  1.4250751     -31400166      -31400166       1122.9927     -31399043      -1957.5692     -1944.9559     -1959.9453     -5.755334       4.069529      -15.023432      19275.688    
    144000   375.31511      0.072          0.19732897     0.19581373     0.19736798    -1942.6291      736.21186      736.21186      736.21186      3.9903265e+08  1.4230819     -31384907      -31384907       1117.6243     -31383789      -1947.4855     -1932.5312     -1947.8705     -5.1972063      3.9562734     -14.793845      19386.781    
    145000   373.40241      0.0725         0.19621941     0.19473807     0.19612285    -1931.3441      736.55524      736.55524      736.55524      3.9959126e+08  1.4210925     -31369717      -31369717       1111.9286     -31368605      -1936.535      -1921.9153     -1935.5821     -5.8567347      3.7192865     -14.561354      19219.692    
    146000   372.23422      0.073          0.19497174     0.19345494     0.19474137    -1918.4737      736.89863      736.89863      736.89863      4.0015039e+08  1.4191069     -31354610      -31354610       1108.4499     -31353502      -1924.2215     -1909.2519     -1921.9479     -6.8678275      2.8783739     -14.679846      19418.421    
    147000   371.67585      0.0735         0.19359736     0.1919811      0.193313      -1904.4048      737.24201      737.24201      737.24201      4.0071004e+08  1.4171249     -31339602      -31339602       1106.7872     -31338495      -1910.6574     -1894.7061     -1907.851      -7.0947813      1.9665828     -15.513357      19165.677    
    148000   370.88739      0.074          0.19211521     0.19059247     0.19207724    -1890.8954      737.58539      737.58539      737.58539      4.0127021e+08  1.4151466     -31324685      -31324685       1104.4393     -31323580      -1896.0297     -1881.0015     -1895.655      -6.2931819      2.2242404     -15.614317      19361.446    
    149000   369.43986      0.0745         0.19068555     0.18940643     0.19106864    -1878.9723      737.92877      737.92877      737.92877      4.018309e+08   1.4131719     -31309844      -31309844       1100.1288     -31308744      -1881.92       -1869.2961     -1885.7008     -5.6446064      2.9623669     -14.49667       19171.359    
    150000   367.69564      0.075          0.18956198     0.18835188     0.18996319    -1868.1702      738.27216      738.27216      738.27216      4.0239212e+08  1.411201      -31295073      -31295073       1094.9348     -31293978      -1870.8312     -1858.8885     -1874.7909     -6.0897604      3.1140964     -14.453023      18670.705    
    151000   366.05659      0.0755         0.18862569     0.18734243     0.18873645    -1857.7336      738.61554      738.61554      738.61554      4.0295386e+08  1.4092337     -31280377      -31280377       1090.054      -31279287      -1861.5909     -1848.926      -1862.6839     -6.5555635      3.3129901     -15.560205      19169.913    
    152000   364.81562      0.076          0.18762578     0.18617379     0.18747837    -1846.4609      738.95892      738.95892      738.95892      4.0351612e+08  1.4072701     -31265751      -31265751       1086.3586     -31264665      -1851.7225     -1837.3925     -1850.2677     -5.9545542      3.496671      -15.638236      19405.186    
    153000   363.9557       0.0765         0.18639795     0.1848888      0.18629319    -1834.2954      739.3023       739.3023       739.3023       4.040789e+08   1.4053101     -31251200      -31251200       1083.7979     -31250116      -1839.6048     -1824.7106     -1838.5708     -5.0766584      3.6377471     -14.137708      19196.987    
    154000   363.03835      0.077          0.18506357     0.18364312     0.18525677    -1822.3981      739.64569      739.64569      739.64569      4.0464221e+08  1.4033537     -31236726      -31236726       1081.0662     -31235645      -1826.4354     -1812.4166     -1828.3422     -5.069821       4.040328      -12.860952      19422.79     
    155000   361.88491      0.0775         0.18381384     0.18251481     0.18418567    -1811.0513      739.98907      739.98907      739.98907      4.0520604e+08  1.401401      -31222330      -31222330       1077.6315     -31221252      -1814.1016     -1801.2811     -1817.7713     -5.3712554      4.257767      -12.52634       19180.905    
    156000   360.7087       0.078          0.18265758     0.1814894      0.18302552    -1800.0576      740.33245      740.33245      740.33245      4.0577039e+08  1.3994519     -31208009      -31208009       1074.1289     -31206935      -1802.6902     -1791.1612     -1806.3215     -5.1706207      3.7249896     -13.215156      19367.661    
    157000   359.36326      0.0785         0.18167196     0.18052812     0.18188098    -1789.8876      740.67583      740.67583      740.67583      4.0633527e+08  1.3975064     -31193754      -31193754       1070.1224     -31192684      -1792.9629     -1781.6741     -1795.0257     -4.8084744      2.8809598     -14.064195      19204.132    
    158000   357.701        0.079          0.18080818     0.17951192     0.18073372    -1779.9287      741.01921      741.01921      741.01921      4.0690067e+08  1.3955646     -31179561      -31179561       1065.1725     -31178496      -1784.438      -1771.6449     -1783.7031     -4.787375       2.6395846     -14.469011      19216.079    
    159000   356.36815      0.0795         0.17982301     0.17843288     0.17959851    -1769.4034      741.3626       741.3626       741.3626       4.074666e+08   1.3936263     -31165432      -31165432       1061.2035     -31164371      -1774.7151     -1760.9956     -1772.4995     -5.0567728      2.6733979     -13.449962      19364.15     
    160000   355.49862      0.08           0.17878545     0.1773816      0.17867267    -1759.4859      741.70598      741.70598      741.70598      4.0803305e+08  1.3916916     -31151376      -31151376       1058.6142     -31150317      -1764.4752     -1750.6203     -1763.3621     -5.6243645      2.2663679     -12.408665      18992.215    
    161000   354.41739      0.0805         0.17777544     0.1764182      0.17787037    -1750.3545      742.04936      742.04936      742.04936      4.0860002e+08  1.3897605     -31137376      -31137376       1055.3945     -31136321      -1754.5072     -1741.1122     -1755.4441     -6.0288844      2.2739923     -12.847968      19377.577    
    162000   353.11487      0.081          0.1769036      0.17552177     0.17695526    -1741.5268      742.39274      742.39274      742.39274      4.0916752e+08  1.3878329     -31123424      -31123424       1051.5158     -31122373      -1745.9028     -1732.2652     -1746.4126     -6.2598737      3.6611277     -13.713022      19261.962    
    163000   352.12734      0.0815         0.17613941     0.17469897     0.17595622    -1733.0195      742.73613      742.73613      742.73613      4.0973555e+08  1.3859089     -31109527      -31109527       1048.5751     -31108479      -1738.3608     -1724.1448     -1736.5529     -6.6213056      4.9051889     -13.6436        19328.797    
    164000   351.50427      0.082          0.17541677     0.17390788     0.1751481     -1725.3812      743.07951      743.07951      743.07951      4.103041e+08   1.3839885     -31095685      -31095685       1046.7197     -31094639      -1731.2289     -1716.3373     -1728.5774     -6.5576197      5.0711895     -13.295961      18428.725    
    165000   350.86698      0.0825         0.17465532     0.17307283     0.17442131    -1717.7381      743.42289      743.42289      743.42289      4.1087318e+08  1.3820716     -31081894      -31081894       1044.822      -31080849      -1723.714      -1708.096      -1721.4045     -5.2278897      4.7152266     -13.411901      19321.62     
    166000   350.27885      0.083          0.17372349     0.17225519     0.17356632    -1709.1701      743.76627      743.76627      743.76627      4.1144278e+08  1.3801583     -31068152      -31068152       1043.0706     -31067109      -1714.5175     -1700.0265     -1712.9663     -3.3395815      4.784389      -13.156834      19212.265    
    167000   349.62584      0.0835         0.17276923     0.17150605     0.17265898    -1700.5815      744.10966      744.10966      744.10966      4.1201291e+08  1.3782485     -31054458      -31054458       1041.126      -31053417      -1705.0997     -1692.6331     -1704.0116     -3.1758467      5.1478531     -12.399675      19332.56     
    168000   348.81466      0.084          0.17192387     0.1706767      0.17174639    -1692.0699      744.45304      744.45304      744.45304      4.1258356e+08  1.3763422     -31040818      -31040818       1038.7105     -31039780      -1696.7566     -1684.448      -1695.0051     -4.7140874      4.8520268     -11.688717      19230.006    
    169000   347.79144      0.0845         0.17127852     0.16975312     0.17094942    -1684.2867      744.79642      744.79642      744.79642      4.1315474e+08  1.3744394     -31027235      -31027235       1035.6635     -31026199      -1690.3875     -1675.333      -1687.1396     -5.5961963      3.154632      -11.592706      19320.334    
    170000   346.42857      0.085          0.17062873     0.16891006     0.17021517    -1676.9602      745.1398       745.1398       745.1398       4.1372645e+08  1.3725401     -31013698      -31013698       1031.6051     -31012666      -1683.9746     -1667.0127     -1679.8931     -5.7731448      1.1592682     -11.541905      17962.195    
    171000   345.20853      0.0855         0.16976366     0.16817309     0.16947085    -1669.2412      745.48319      745.48319      745.48319      4.1429869e+08  1.3706444     -31000202      -31000202       1027.972      -30999174      -1675.437      -1659.7394     -1672.5473     -6.0908998      0.65993866    -11.089228      19325.777    
    172000   344.34853      0.086          0.16891431     0.16753401     0.16869768    -1661.8011      745.82657      745.82657      745.82657      4.1487145e+08  1.3687521     -30986753      -30986753       1025.4111     -30985727      -1667.0546     -1653.4321     -1664.9167     -5.860579       1.9139782     -10.895272      19214.831    
    173000   343.52768      0.0865         0.16829874     0.16696189     0.16799264    -1655.5746      746.16995      746.16995      746.16995      4.1544474e+08  1.3668633     -30973342      -30973342       1022.9668     -30972319      -1660.9794     -1647.7858     -1657.9585     -4.4400307      3.6536079     -11.153345      19385.746    
    174000   343.07851      0.087          0.16779334     0.16631351     0.16730037    -1649.5015      746.51333      746.51333      746.51333      4.1601856e+08  1.3649779     -30959968      -30959968       1021.6292     -30958946      -1655.9916     -1641.3867     -1651.1263     -2.4785861      4.3686707     -11.652838      19174.336    
    175000   343.11751      0.0875         0.1672445      0.16560564     0.16668525    -1643.3437      746.85672      746.85672      746.85672      4.1659291e+08  1.3630961     -30946632      -30946632       1021.7454     -30945610      -1650.5748     -1634.4006     -1645.0555     -2.1800607      3.7148772     -12.284054      19332.058    
    176000   343.08663      0.088          0.16660736     0.16489574     0.16608806    -1636.9477      747.2001       747.2001       747.2001       4.1716778e+08  1.3612177     -30933332      -30933332       1021.6534     -30932311      -1644.2868     -1627.3944     -1639.1617     -4.3614489      2.8846054     -12.172388      19239.363    
    177000   342.7793       0.0885         0.16593788     0.16411745     0.16545955    -1630.1172      747.54348      747.54348      747.54348      4.1774319e+08  1.3593427     -30920072      -30920072       1020.7382     -30919051      -1637.6796     -1619.7133     -1632.9588     -7.0248843      3.1258185     -10.991182      19337.924    
    178000   342.25215      0.089          0.1652063      0.16348581     0.16488122    -1623.73        747.88686      747.88686      747.88686      4.1831912e+08  1.3574712     -30906852      -30906852       1019.1685     -30905833      -1630.4594     -1613.4795     -1627.2511     -7.7686575      4.3015583     -9.5072294      19243.392    
    179000   341.35358      0.0895         0.16451768     0.16311553     0.1643106     -1618.3693      748.23024      748.23024      748.23024      4.1889558e+08  1.3556031     -30893669      -30893669       1016.4927     -30892652      -1623.6632     -1609.8252     -1621.6196     -6.9267215      4.643592      -8.5934707      19349.774    
    180000   340.29627      0.09           0.16395852     0.16270085     0.16360629    -1612.8486      748.57363      748.57363      748.57363      4.1947257e+08  1.3537385     -30880513      -30880513       1013.3442     -30879500      -1618.1448     -1605.7325     -1614.6685     -5.9399195      3.5804351     -8.1490728      19240.125    
    181000   339.31883      0.0905         0.16352931     0.1620772      0.16281312    -1606.7757      748.91701      748.91701      748.91701      4.2005009e+08  1.3518772     -30867389      -30867389       1010.4335     -30866378      -1613.9088     -1599.5776     -1606.8405     -5.4381364      2.525576      -8.340515       19356.767    
    182000   338.60764      0.091          0.16311518     0.16126685     0.16205064    -1600.239       749.26039      749.26039      749.26039      4.2062814e+08  1.3500194     -30854298      -30854298       1008.3157     -30853290      -1609.8216     -1591.58       -1599.3154     -4.9585869      2.4869648     -9.4224575      19297.913    
    183000   338.32442      0.0915         0.16262192     0.16052725     0.16144724    -1594.1982      749.60377      749.60377      749.60377      4.2120672e+08  1.348165      -30841247      -30841247       1007.4723     -30840239      -1604.9536     -1584.2808     -1593.3603     -4.3243164      2.8741644     -10.050399      19234.295    
    184000   338.07709      0.092          0.16196492     0.15994758     0.16100082    -1588.6613      749.94716      749.94716      749.94716      4.2178583e+08  1.346314      -30828234      -30828234       1006.7359     -30827227      -1598.4695     -1578.5599     -1588.9546     -3.986921       2.8540469     -9.6641308      19414.633    
    185000   337.75442      0.0925         0.1612135      0.15939411     0.16052939    -1582.8176      750.29054      750.29054      750.29054      4.2236548e+08  1.3444663     -30815255      -30815255       1005.775      -30814249      -1591.0535     -1573.0975     -1584.3019     -4.7712413      2.6117208     -9.5024503      19166.123    
    186000   337.48125      0.093          0.16059872     0.15893175     0.16006806    -1577.7565      750.63392      750.63392      750.63392      4.2294565e+08  1.3426221     -30802306      -30802306       1004.9615     -30801301      -1584.9861     -1568.5344     -1579.7489     -6.3712552      2.6172153     -10.150383      19330.392    
    187000   337.28348      0.0935         0.16021637     0.1586314      0.15967345    -1574.2124      750.9773       750.9773       750.9773       4.2352635e+08  1.3407812     -30789376      -30789376       1004.3726     -30788371      -1581.2126     -1565.5702     -1575.8544     -7.1859248      2.7888659     -9.9878329      19241.594    
    188000   337.2335       0.094          0.15977193     0.15824215     0.15924935    -1570.0746      751.32069      751.32069      751.32069      4.2410759e+08  1.3389436     -30776467      -30776467       1004.2238     -30775463      -1576.8264     -1561.7286     -1571.6689     -6.4258219      3.1179959     -8.9700936      19340.907    
    189000   337.22625      0.0945         0.15929899     0.15761306     0.15870884    -1564.6711      751.66407      751.66407      751.66407      4.2468935e+08  1.3371095     -30763587      -30763587       1004.2022     -30762583      -1572.1588     -1555.52       -1566.3345     -5.8489125      3.7092719     -8.6218403      19208.397    
    190000   336.66463      0.095          0.15885737     0.15691699     0.15814695    -1559.0799      752.00745      752.00745      752.00745      4.2527165e+08  1.3352787     -30750741      -30750741       1002.5298     -30749739      -1567.8004     -1548.6503     -1560.789      -5.8977074      4.2274223     -9.1063621      19327.41     
    191000   335.45249      0.0955         0.15828508     0.15638306     0.15758007    -1553.5758      752.35083      752.35083      752.35083      4.2585448e+08  1.3334512     -30737924      -30737924       998.92022     -30736925      -1562.1523     -1543.3808     -1555.1943     -5.3216052      4.1409331     -9.4924768      19140.207    
    192000   334.50785      0.096          0.15756656     0.15592092     0.15687223    -1547.3631      752.69422      752.69422      752.69422      4.2643784e+08  1.331627      -30725139      -30725139       996.10727     -30724143      -1555.061      -1538.8199     -1548.2085     -4.6048168      4.1192122     -8.5614319      19420.31     
    193000   334.43107      0.0965         0.15698476     0.15538995     0.15615463    -1541.3417      753.0376       753.0376       753.0376       4.2702174e+08  1.3298062     -30712392      -30712392       995.87861     -30711397      -1549.3191     -1533.5795     -1541.1264     -4.212219       4.3380387     -6.5259719      19164.091    
    194000   334.74239      0.097          0.15667795     0.1548767      0.15568596    -1537.1021      753.38098      753.38098      753.38098      4.2760616e+08  1.3279887     -30699673      -30699673       996.80566     -30698676      -1546.2911     -1528.5141     -1536.501      -4.3562783      4.2153134     -5.2296765      19421.654    
    195000   334.75907      0.0975         0.15645969     0.15450446     0.15549768    -1534.5401      753.72436      753.72436      753.72436      4.2819112e+08  1.3261745     -30686970      -30686970       996.85534     -30685973      -1544.1371     -1524.8405     -1534.6428     -5.4993083      3.752807      -5.968128       19164.658    
    196000   334.46854      0.098          0.15615872     0.15429694     0.15533716    -1532.3392      754.06775      754.06775      754.06775      4.2877662e+08  1.3243636     -30674279      -30674279       995.99019     -30673283      -1541.1667     -1522.7924     -1533.0586     -6.6535825      3.4551798     -8.2253615      19398.839    
    197000   334.18566      0.0985         0.15568149     0.15398375     0.15492359    -1528.3784      754.41113      754.41113      754.41113      4.2936265e+08  1.322556      -30661608      -30661608       995.14783     -30660613      -1536.4569     -1519.7014     -1528.9769     -6.4375405      3.325115      -9.4325155      19174.575    
    198000   334.18716      0.099          0.15500281     0.15332287     0.15426453    -1521.8035      754.75451      754.75451      754.75451      4.2994921e+08  1.3207517     -30648970      -30648970       995.15229     -30647974      -1529.7588     -1513.1791     -1522.4725     -5.6080168      3.0892807     -9.4824834      19420.066    
    199000   333.99244      0.0995         0.15445875     0.15266733     0.15358486    -1515.6211      755.09789      755.09789      755.09789      4.305363e+08   1.3189507     -30636367      -30636367       994.57246     -30635372      -1524.3893     -1506.7094     -1515.7647     -5.5185314      2.4820873     -9.0263996      19139.535    
    200000   333.19491      0.1            0.15409769     0.15227893     0.15310262    -1511.5692      755.44128      755.44128      755.44128      4.3112393e+08  1.3171529     -30623786      -30623786       992.19754     -30622794      -1520.8259     -1502.8762     -1511.0053     -5.9470593      2.547586      -7.9013404      18075.929    
    201000   332.36116      0.1005         0.15378541     0.15196343     0.15279977    -1508.5076      755.78466      755.78466      755.78466      4.3171209e+08  1.3153585     -30611214      -30611214       989.71477     -30610225      -1517.744      -1499.7624     -1508.0164     -6.0013151      3.4880476     -6.5149918      19129.119    
    202000   332.42412      0.101          0.15343394     0.15150975     0.15247414    -1504.7877      756.12804      756.12804      756.12804      4.3230079e+08  1.3135672     -30598665      -30598665       989.90227     -30597675      -1514.2753     -1495.285      -1504.8027     -5.614663       4.2829773     -5.8877386      19318.957    
    203000   332.90395      0.1015         0.15299535     0.15098163     0.15208943    -1500.3418      756.47142      756.47142      756.47142      4.3289002e+08  1.3117793     -30586154      -30586154       991.33112     -30585163      -1509.9467     -1490.0728     -1501.006      -5.7300787      4.6603425     -6.1828734      19241.214    
    204000   332.57173      0.102          0.15252651     0.15054108     0.1515635     -1495.62        756.8148       756.8148       756.8148       4.3347979e+08  1.3099945     -30573670      -30573670       990.34182     -30572679      -1505.3196     -1485.725      -1495.8154     -6.0413526      4.3565905     -6.619102       19324.03     
    205000   331.74267      0.1025         0.15209013     0.15015796     0.15082633    -1490.4989      757.15819      757.15819      757.15819      4.340701e+08   1.308213      -30561203      -30561203       987.87303     -30560215      -1501.0129     -1481.9439     -1488.5401     -5.2193939      3.1110448     -6.7873886      19227.254    
    206000   331.42641      0.103          0.15167928     0.14979052     0.1502163     -1485.9317      757.50157      757.50157      757.50157      4.3466094e+08  1.3064348     -30548758      -30548758       986.93124     -30547772      -1496.9581     -1478.3175     -1482.5196     -4.2250076      2.2931626     -7.290292       19414.905    
    207000   331.58975      0.1035         0.15121496     0.14943888     0.14994889    -1482.3677      757.84495      757.84495      757.84495      4.3525231e+08  1.3046597     -30536337      -30536337       987.41765     -30535350      -1492.3756     -1474.8471     -1479.8805     -4.2096459      3.2233243     -7.6596974      19239.236    
    208000   331.76839      0.104          0.15079405     0.14910318     0.14985617    -1479.5737      758.18833      758.18833      758.18833      4.3584422e+08  1.3028879     -30523935      -30523935       987.94961     -30522947      -1488.2216     -1471.534      -1478.9654     -5.180464       4.1017654     -7.5579455      19250.011    
    209000   331.78244      0.1045         0.15044733     0.14880567     0.14963043    -1476.7117      758.53172      758.53172      758.53172      4.3643667e+08  1.3011193     -30511549      -30511549       987.99146     -30510561      -1484.7997     -1468.5978     -1476.7375     -6.1256339      4.2552927     -7.2905357      19040.888    
    210000   331.71636      0.105          0.15008643     0.1484505      0.1492074     -1472.9643      758.8751       758.8751       758.8751       4.3702966e+08  1.2993538     -30499174      -30499174       987.79467     -30498187      -1481.2379     -1465.0925     -1472.5626     -6.1944941      3.9235902     -7.3029356      18927.653    
    211000   331.63365      0.1055         0.14961335     0.14781854     0.14864902    -1467.4921      759.21848      759.21848      759.21848      4.3762318e+08  1.2975916     -30486827      -30486827       987.54837     -30485839      -1476.5689     -1458.8556     -1467.0518     -5.5003824      3.75307       -7.4402465      19270.079    
    212000   331.62896      0.106          0.1490902      0.14709768     0.1481035     -1461.605       759.56186      759.56186      759.56186      4.3821724e+08  1.2958325     -30474517      -30474517       987.53442     -30473529      -1471.4059     -1451.7412     -1461.6679     -5.1637952      4.1963981     -7.2011561      18869.534    
    213000   331.37766      0.1065         0.14874046     0.14678719     0.14769457    -1458.0877      759.90525      759.90525      759.90525      4.3881183e+08  1.2940767     -30462240      -30462240       986.78609     -30461253      -1467.9542     -1448.6769     -1457.6321     -4.9745182      4.3439715     -6.7351103      19210.682    
    214000   330.96108      0.107          0.14844725     0.14674514     0.14728858    -1455.6492      760.24863      760.24863      760.24863      4.3940697e+08  1.292324      -30449974      -30449974       985.54557     -30448989      -1465.0604     -1448.2619     -1453.6253     -4.2908053      3.9032503     -6.6652429      18937.336    
    215000   330.885        0.1075         0.14808933     0.14649512     0.14693038    -1452.4708      760.59201      760.59201      760.59201      4.4000264e+08  1.2905744     -30437719      -30437719       985.31903     -30436733      -1461.528      -1445.7944     -1450.0901     -2.7531611      3.8334034     -6.6558838      19229.265    
    216000   330.99505      0.108          0.14770728     0.14590143     0.14660232    -1448.1817      760.93539      760.93539      760.93539      4.4059885e+08  1.2888281     -30425486      -30425486       985.64675     -30424500      -1457.7575     -1439.9352     -1446.8524     -2.6665727      3.8787074     -6.471972       18924.185    
    217000   330.94307      0.1085         0.14739788     0.14534212     0.14611487    -1443.7203      761.27878      761.27878      761.27878      4.4119559e+08  1.2870848     -30413278      -30413278       985.49196     -30412292      -1454.704      -1434.4152     -1442.0416     -4.3250191      3.5989249     -6.6097199      19203.334    
[...]
   3137000   325.46579      1.5685         0.011088453    0.010977942    0.010871606   -108.3576       1763.9554      1763.9554      1763.9554      5.4886152e+09  0.10346073    -9288117.9     -9288117.9      969.18154     -9287148.7     -109.43452     -108.34387     -107.29441      0.36157659     0.54000486     0.37268374     18646.101    
   3138000   325.5073       1.569          0.01108372     0.010973008    0.010864446   -108.30224      1764.2988      1764.2988      1764.2988      5.4918212e+09  0.10340034    -9283217.8     -9283217.8      969.30515     -9282248.5     -109.38781     -108.29517     -107.22374      0.38351638     0.53318281     0.37268744     18830.479    
   3139000   325.53123      1.5695         0.011081569    0.010968978    0.010857291   -108.25837      1764.6421      1764.6421      1764.6421      5.4950284e+09  0.10333999    -9278317.9     -9278317.9      969.37642     -9277348.5     -109.36659     -108.2554      -107.15313      0.41504654     0.50378219     0.36463512     18588.513    
   3140000   325.52818      1.57           0.011076346    0.010962895    0.010848577   -108.19251      1764.9855      1764.9855      1764.9855      5.4982368e+09  0.10327968    -9273418.1     -9273418.1      969.36732     -9272448.7     -109.31503     -108.19536     -107.06713      0.43561525     0.47901172     0.36124799     18794.52     
   3141000   325.52985      1.5705         0.01106581     0.010954025    0.010836227   -108.08804      1765.3289      1765.3289      1765.3289      5.5014466e+09  0.10321943    -9268520.2     -9268520.2      969.37229     -9267550.9     -109.21106     -108.10782     -106.94525      0.44144308     0.48056223     0.36695489     18563.1      
   3142000   325.55459      1.571          0.011052195    0.010943878    0.010822609   -107.96507      1765.6723      1765.6723      1765.6723      5.5046575e+09  0.10315922    -9263626.3     -9263626.3      969.44598     -9262656.8     -109.07669     -108.00768     -106.81084      0.4398553      0.5073386      0.37458892     18801.123    
   3143000   325.58231      1.5715         0.011040546    0.010934415    0.010812457   -107.86222      1766.0157      1766.0157      1766.0157      5.5078697e+09  0.10309905    -9258736.1     -9258736.1      969.52854     -9257766.6     -108.96171     -107.91429     -106.71065      0.43166937     0.54934766     0.37342167     18560.499    
   3144000   325.59312      1.572          0.011033722    0.010926189    0.01080631    -107.79248      1766.3591      1766.3591      1766.3591      5.5110832e+09  0.10303894    -9253847.9     -9253847.9      969.56071     -9252878.4     -108.89437     -107.8331      -106.64999      0.42104082     0.5754575      0.36620189     18812.609    
   3145000   325.59273      1.5725         0.011031577    0.010917984    0.010800698   -107.73998      1766.7024      1766.7024      1766.7024      5.5142979e+09  0.10297887    -9248960.5     -9248960.5      969.55956     -9247990.9     -108.8732      -107.75212     -106.5946       0.41556284     0.56522724     0.36688547     18684.05     
   3146000   325.58006      1.573          0.011030517    0.010910229    0.010794608   -107.69094      1767.0458      1767.0458      1767.0458      5.5175139e+09  0.10291885    -9244073.2     -9244073.2      969.52183     -9243103.7     -108.86274     -107.67559     -106.5345       0.41349663     0.5361248      0.3798239      18627.515    
   3147000   325.55724      1.5735         0.011025666    0.010901589    0.010789001   -107.62812      1767.3892      1767.3892      1767.3892      5.5207311e+09  0.10285887    -9239186.4     -9239186.4      969.45388     -9238217       -108.81486     -107.59032     -106.47916      0.42792797     0.51582799     0.3963579      18820.881    
   3148000   325.54214      1.574          0.011017573    0.010892601    0.010783824   -107.55489      1767.7326      1767.7326      1767.7326      5.5239495e+09  0.10279894    -9234301.2     -9234301.2      969.40891     -9233331.8     -108.735       -107.50161     -106.42807      0.45337902     0.50753576     0.41198331     18592.448    
   3149000   325.54462      1.5745         0.011008288    0.010885696    0.010778154   -107.48298      1768.076       1768.076       1768.076       5.5271692e+09  0.10273906    -9229417.5     -9229417.5      969.41628     -9228448       -108.64335     -107.43347     -106.3721       0.46004528     0.50047065     0.4223954      18842.875    
   3150000   325.57221      1.575          0.010999138    0.010880573    0.010770908   -107.41219      1768.4193      1768.4193      1768.4193      5.5303902e+09  0.10267922    -9224535       -9224535        969.49844     -9223565.5     -108.55306     -107.38291     -106.30059      0.43930271     0.49241001     0.42145949     18048.3      
   3151000   325.61782      1.5755         0.010990929    0.010875112    0.010761869   -107.33748      1768.7627      1768.7627      1768.7627      5.5336124e+09  0.10261943    -9219654       -9219654        969.63427     -9218684.4     -108.47203     -107.32901     -106.21138      0.40979176     0.48824148     0.41309629     18739.003    
   3152000   325.65556      1.576          0.010984733    0.010866917    0.010752625   -107.25973      1769.1061      1769.1061      1769.1061      5.5368359e+09  0.10255969    -9214774.9     -9214774.9      969.74666     -9213805.1     -108.41089     -107.24813     -106.12016      0.39505215     0.48949031     0.40484332     18565.484    
   3153000   325.66268      1.5765         0.010979042    0.01085662     0.010745413   -107.1834       1769.4495      1769.4495      1769.4495      5.5400606e+09  0.10249999    -9209897.4     -9209897.4      969.76784     -9208927.6     -108.35472     -107.14651     -106.04898      0.4048607      0.49137047     0.39912577     18599.624    
   3154000   325.63741      1.577          0.010970311    0.010846073    0.010739302   -107.09988      1769.7929      1769.7929      1769.7929      5.5432866e+09  0.10244034    -9205021.5     -9205021.5      969.69261     -9204051.8     -108.26855     -107.04242     -105.98867      0.42750891     0.4910555      0.39735793     18572.655    
   3155000   325.60317      1.5775         0.010959419    0.010836938    0.010732775   -107.01252      1770.1363      1770.1363      1770.1363      5.5465138e+09  0.10238073    -9200147.8     -9200147.8      969.59063     -9199178.2     -108.16105     -106.95227     -105.92425      0.43726656     0.49713413     0.40364385     18592.54     
   3156000   325.56395      1.578          0.010950517    0.010829022    0.010727056   -106.93838      1770.4796      1770.4796      1770.4796      5.5497422e+09  0.10232118    -9195275.9     -9195275.9      969.47384     -9194306.5     -108.0732      -106.87414     -105.86781      0.41923804     0.5133727      0.41264672     18521.28     
   3157000   325.52341      1.5785         0.010944673    0.010822625    0.010721827   -106.88091      1770.823       1770.823       1770.823       5.552972e+09   0.10226166    -9190405.1     -9190405.1      969.35314     -9189435.7     -108.01552     -106.811       -105.8162       0.39605057     0.52727371     0.41635506     18687.135    
   3158000   325.49032      1.579          0.010938493    0.010817627    0.010715264   -106.82255      1771.1664      1771.1664      1771.1664      5.5562029e+09  0.1022022     -9185534.7     -9185534.7      969.2546      -9184565.4     -107.95453     -106.76168     -105.75143      0.38779716     0.53612328     0.41478352     18326.539    
   3159000   325.47475      1.5795         0.010930598    0.010813459    0.010706422   -106.75378      1771.5098      1771.5098      1771.5098      5.5594352e+09  0.10214278    -9180665.4     -9180665.4      969.20822     -9179696.2     -107.87661     -106.72054     -105.66417      0.39398212     0.5306785      0.39995027     18234.756    
   3160000   325.47973      1.58           0.01092147     0.010808293    0.010696644   -106.67459      1771.8532      1771.8532      1771.8532      5.5626687e+09  0.1020834     -9175797.7     -9175797.7      969.22307     -9174828.5     -107.78653     -106.66956     -105.56767      0.40567381     0.50488765     0.37133937     18622.146    
   3161000   325.49703      1.5805         0.010911871    0.010800236    0.010688423   -106.58945      1772.1966      1772.1966      1772.1966      5.5659034e+09  0.10202408    -9170931.9     -9170931.9      969.27459     -9169962.6     -107.69179     -106.59004     -105.48653      0.42269113     0.48433716     0.34801382     18297.282    
   3162000   325.51344      1.581          0.010902501    0.010790829    0.010682218   -106.50727      1772.5399      1772.5399      1772.5399      5.5691394e+09  0.10196479    -9166068.3     -9166068.3      969.32343     -9165099       -107.59932     -106.4972      -105.42529      0.44264809     0.50391869     0.34782169     18692.938    
   3163000   325.50629      1.5815         0.010895278    0.010784291    0.010676959   -106.4447       1772.8833      1772.8833      1772.8833      5.5723766e+09  0.10190556    -9161206.2     -9161206.2      969.30214     -9160236.9     -107.52804     -106.43268     -105.3734       0.45689119     0.54784984     0.36462958     18599.043    
   3164000   325.48389      1.582          0.010889054    0.010780349    0.010670616   -106.39039      1773.2267      1773.2267      1773.2267      5.5756151e+09  0.10184637    -9156344.6     -9156344.6      969.23545     -9155375.4     -107.4666      -106.39378     -105.31079      0.46021187     0.57068801     0.3843454      18758.546    
   3165000   325.47159      1.5825         0.010881711    0.01077588     0.010663408   -106.32782      1773.5701      1773.5701      1773.5701      5.5788549e+09  0.10178722    -9151483.7     -9151483.7      969.19882     -9150514.5     -107.39414     -106.34967     -105.23966      0.45963303     0.56493359     0.39123994     18543.126    
   3166000   325.46617      1.583          0.010873472    0.010768626    0.010656038   -106.2526       1773.9135      1773.9135      1773.9135      5.5820959e+09  0.10172813    -9146624       -9146624        969.18266     -9145654.9     -107.31282     -106.27808     -105.16691      0.46610352     0.55250098     0.37976987     18714.258    
   3167000   325.45829      1.5835         0.010865284    0.010759477    0.010648585   -106.17105      1774.2568      1774.2568      1774.2568      5.5853382e+09  0.10166907    -9141766.3     -9141766.3      969.15922     -9140797.2     -107.23202     -106.18778     -105.09336      0.47784277     0.55471972     0.35722941     18555.801    
   3168000   325.46673      1.584          0.010856487    0.010749072    0.010640619   -106.08168      1774.6002      1774.6002      1774.6002      5.5885817e+09  0.10161007    -9136910.7     -9136910.7      969.18434     -9135941.5     -107.14519     -106.08509     -105.01474      0.48155945     0.56879547     0.33623532     18690.696    
   3169000   325.4993       1.5845         0.010847177    0.010738328    0.010633418   -105.99202      1774.9436      1774.9436      1774.9436      5.5918264e+09  0.10155111    -9132057.5     -9132057.5      969.28134     -9131088.2     -107.05331     -105.97906     -104.94368      0.47677971     0.5734308      0.3303151      18542.524    
   3170000   325.52289      1.585          0.010837024    0.01072628     0.01062615    -105.89507      1775.287       1775.287       1775.287       5.5950725e+09  0.10149219    -9127206.7     -9127206.7      969.35159     -9126237.3     -106.95311     -105.86015     -104.87195      0.46543777     0.55500147     0.34615208     18711.15     
   3171000   325.52834      1.5855         0.010826927    0.010713686    0.010617082   -105.79059      1775.6304      1775.6304      1775.6304      5.5983198e+09  0.10143332    -9122358.8     -9122358.8      969.3678      -9121389.5     -106.85346     -105.73586     -104.78245      0.45702099     0.52029838     0.37472983     18551.786    
   3172000   325.52826      1.586          0.010818623    0.010703096    0.010606996   -105.69525      1775.9738      1775.9738      1775.9738      5.6015683e+09  0.10137449    -9117513.9     -9117513.9      969.36758     -9116544.5     -106.77151     -105.63135     -104.68291      0.45514955     0.49520432     0.4046182      18841.624    
   3173000   325.54661      1.5865         0.010812018    0.010694311    0.01059773    -105.61414      1776.3171      1776.3171      1776.3171      5.6048181e+09  0.10131572    -9112671.3     -9112671.3      969.42223     -9111701.8     -106.70632     -105.54464     -104.59147      0.44271178     0.50075241     0.42370282     18673.416    
   3174000   325.57347      1.587          0.010806657    0.010686542    0.010590204   -105.54619      1776.6605      1776.6605      1776.6605      5.6080692e+09  0.10125698    -9107830.2     -9107830.2      969.50219     -9106860.7     -106.65341     -105.46797     -104.51718      0.42032871     0.53167081     0.42002188     18711.976    
   3175000   325.59105      1.5875         0.010801154    0.010680009    0.010582899   -105.48256      1777.0039      1777.0039      1777.0039      5.6113215e+09  0.10119829    -9102990.4     -9102990.4      969.55454     -9102020.9     -106.59911     -105.4035      -104.44509      0.40483446     0.56278169     0.39173797     18870.556    
   3176000   325.60019      1.588          0.010795456    0.010674892    0.010574504   -105.41937      1777.3473      1777.3473      1777.3473      5.614575e+09   0.10113965    -9098151.6     -9098151.6      969.58177     -9097182.1     -106.54287     -105.353       -104.36224      0.4052341      0.57440864     0.35861469     18708.008    
   3177000   325.60251      1.5885         0.010788934    0.010669343    0.010567479   -105.35655      1777.6907      1777.6907      1777.6907      5.6178299e+09  0.10108105    -9093313.9     -9093313.9      969.58866     -9092344.3     -106.4785      -105.29823     -104.29291      0.40516749     0.57190579     0.34397426     18867.018    
   3178000   325.60019      1.589          0.010780564    0.010663342    0.010563094   -105.29484      1778.0341      1778.0341      1778.0341      5.6210859e+09  0.1010225     -9088477       -9088477        969.58177     -9087507.5     -106.39589     -105.239       -104.24963      0.40107904     0.56527703     0.34768167     18700.283    
   3179000   325.59645      1.5895         0.010772283    0.010657805    0.01055898    -105.23585      1778.3774      1778.3774      1778.3774      5.6243433e+09  0.10096399    -9083641.3     -9083641.3      969.57062     -9082671.7     -106.31417     -105.18436     -104.20903      0.41093442     0.55577359     0.34893148     18931.741    
   3180000   325.58432      1.59           0.010765333    0.01065268     0.010552498   -105.17481      1778.7208      1778.7208      1778.7208      5.6276019e+09  0.10090553    -9078806.4     -9078806.4      969.53451     -9077836.9     -106.24558     -105.13378     -104.14506      0.43107255     0.54723908     0.34153428     18764.818    
   3181000   325.55128      1.5905         0.010760406    0.010647053    0.01054477    -105.11466      1779.0642      1779.0642      1779.0642      5.6308617e+09  0.10084711    -9073972.4     -9073972.4      969.43611     -9073003       -106.19695     -105.07824     -104.06879      0.44774636     0.53752742     0.33899807     18962.614    
   3182000   325.49963      1.591          0.010754809    0.010640371    0.010537031   -105.04881      1779.4076      1779.4076      1779.4076      5.6341229e+09  0.10078874    -9069139.3     -9069139.3      969.28231     -9068170       -106.14171     -105.0123      -103.99241      0.45955063     0.52043675     0.34501482     18805.364    
   3183000   325.45417      1.5915         0.010746048    0.010632712    0.010527724   -104.96417      1779.751       1779.751       1779.751       5.6373852e+09  0.10073042    -9064307.5     -9064307.5      969.14694     -9063338.4     -106.05525     -104.93671     -103.90055      0.46114897     0.50049876     0.35415898     18917.87     
   3184000   325.44088      1.592          0.010734069    0.010625107    0.010517107   -104.86482      1780.0944      1780.0944      1780.0944      5.6406489e+09  0.10067213    -9059478.2     -9059478.2      969.10738     -9058509.1     -105.93702     -104.86165     -103.79578      0.44678048     0.48343744     0.36217584     18802.411    
   3185000   325.46198      1.5925         0.010721506    0.010616481    0.010507162   -104.7624       1780.4377      1780.4377      1780.4377      5.6439138e+09  0.1006139     -9054652       -9054652        969.1702      -9053682.8     -105.81304     -104.77653     -103.69762      0.41683275     0.46806964     0.37007438     18926.83     
   3186000   325.49839      1.593          0.010711916    0.010607305    0.010499765   -104.67633      1780.7811      1780.7811      1780.7811      5.6471799e+09  0.1005557     -9049828.5     -9049828.5      969.27861     -9048859.2     -105.71839     -104.68597     -103.62463      0.37866671     0.4568373      0.377766       18814.159    
   3187000   325.52477      1.5935         0.01070386     0.010597568    0.010492485   -104.59384      1781.1245      1781.1245      1781.1245      5.6504473e+09  0.10049756    -9045007       -9045007        969.35718     -9044037.7     -105.63889     -104.58987     -103.55278      0.35949148     0.45373054     0.37992956     18923.334    
   3188000   325.52822      1.594          0.010695025    0.010587497    0.01048422    -104.50446      1781.4679      1781.4679      1781.4679      5.653716e+09   0.10043946    -9040187.8     -9040187.8      969.36744     -9039218.5     -105.55169     -104.49047     -103.4712       0.37295372     0.46016757     0.37616099     18772.856    
   3189000   325.51986      1.5945         0.010684726    0.010578294    0.010476374   -104.41449      1781.8113      1781.8113      1781.8113      5.6569859e+09  0.1003814     -9035371       -9035371        969.34254     -9034401.7     -105.45004     -104.39964     -103.39377      0.39992853     0.47181952     0.36890537     18838.981    
   3190000   325.52535      1.595          0.010673619    0.010571298    0.010470027   -104.33405      1782.1546      1782.1546      1782.1546      5.6602571e+09  0.10032338    -9030556.5     -9030556.5      969.35891     -9029587.2     -105.34043     -104.3306      -103.33113      0.41582332     0.48637477     0.37102478     18740.891    
   3191000   325.54261      1.5955         0.010663961    0.010566976    0.010465516   -104.27322      1782.498       1782.498       1782.498       5.6635296e+09  0.10026542    -9025743.6     -9025743.6      969.4103      -9024774.1     -105.24511     -104.28795     -103.28661      0.41779901     0.48852679     0.38519135     18737.009    
   3192000   325.54719      1.596          0.010657978    0.010564377    0.010462606   -104.23542      1782.8414      1782.8414      1782.8414      5.6668033e+09  0.10020749    -9020930.9     -9020930.9      969.42395     -9019961.5     -105.18606     -104.2623      -103.2579       0.41742551     0.47905477     0.39621664     18833.616    
   3193000   325.53079      1.5965         0.010655555    0.010560489    0.01045916    -104.20332      1783.1848      1783.1848      1783.1848      5.6700783e+09  0.10014961    -9016117.5     -9016117.5      969.37509     -9015148.2     -105.16215     -104.22392     -103.22388      0.42679954     0.46877387     0.3890776      18699.907    
   3194000   325.52233      1.597          0.010653239    0.010553276    0.010451955   -104.14827      1783.5282      1783.5282      1783.5282      5.6733545e+09  0.10009178    -