LAMMPS (23 Jun 2022 - Update 1)
OMP_NUM_THREADS environment is not set. Defaulting to 1 thread. (src/comm.cpp:98)
  using 1 OpenMP thread(s) per MPI task
###

# Read restart info
read_restart ${read_res}
read_restart ./trial8/9010/equpmf70.res
Reading restart file ...
  restart file = 23 Jun 2022, LAMMPS = 23 Jun 2022
  restoring atom style atomic from restart
  orthogonal box = (1728.9141 1728.9141 1728.9141) to (2271.0859 2271.0859 2271.0859)
  1 by 2 by 2 MPI processor grid
  restoring pair style table from restart
  1000 atoms
  read_restart CPU = 0.051 seconds

# Settings
pair_style table/pgn spline 10941
pair_coeff 1 1 N20e.txt DE_GNP 308 72.9   # 1.35 * r
pair_coeff 2 2 N100e.txt DE_GNP 473.9 111.78
WARNING: 20 of 10941 force values in table DE_GNP are inconsistent with -dE/dr.
WARNING:  Should only be flagged at inflection points (src/pair_table_pgn.cpp:478)
pair_coeff 1 2 mixed_potentiale.txt DE_GNP 391.2 92.95
WARNING: 1564 of 10941 force values in table DE_GNP are inconsistent with -dE/dr.
WARNING:  Should only be flagged at inflection points (src/pair_table_pgn.cpp:478)

# Neighbor list
neighbor 2.0 bin
neigh_modify delay 0 every 1 check no once yes

# Temperature
variable T equal ${Temp}
variable T equal 300

# Deformation
reset_timestep 0
variable tmp equal "lx"
variable L0 equal ${tmp}
variable L0 equal 542.17186612467
variable strain equal "(lx - v_L0)/v_L0"
variable stp equal "step"
variable tmpe equal "temp"
variable p1 equal "v_strain"
variable p2 equal "-pxx*1.01325/10000"
variable p3 equal "-pyy*1.01325/10000"
variable p4 equal "-pzz*1.01325/10000"
variable p5 equal "lx"
variable p6 equal "ly"
variable p7 equal "lz"
variable p8 equal "press"
variable p9 equal "epair"
variable p10 equal "etotal"

# Thermo
thermo_style custom step temp v_p1 v_p2 v_p3 v_p4 press lx ly lz vol density epair pe ke etotal pxx pyy pzz pxy pxz pyz spcpu
thermo ${ts_save}
thermo 1000

# Dump
# dump 1 all custom 2000 ./${N20}${N100}/tensile/trajectory/trajectory_${usic}_${trial}_*.tensile.custom id type x y z ix iy iz
# dump_modify 1 sort id
dump 2 all cfg 50000 ./trial${trial}/${N20}${N100}/tensile/trajectory/dumpten.tens_${usic}_${trial}_*.cfg mass type xs ys zs fx fy fz
dump 2 all cfg 50000 ./trial8/${N20}${N100}/tensile/trajectory/dumpten.tens_${usic}_${trial}_*.cfg mass type xs ys zs fx fy fz
dump 2 all cfg 50000 ./trial8/90${N100}/tensile/trajectory/dumpten.tens_${usic}_${trial}_*.cfg mass type xs ys zs fx fy fz
dump 2 all cfg 50000 ./trial8/9010/tensile/trajectory/dumpten.tens_${usic}_${trial}_*.cfg mass type xs ys zs fx fy fz
dump 2 all cfg 50000 ./trial8/9010/tensile/trajectory/dumpten.tens_1_${trial}_*.cfg mass type xs ys zs fx fy fz
dump 2 all cfg 50000 ./trial8/9010/tensile/trajectory/dumpten.tens_1_8_*.cfg mass type xs ys zs fx fy fz
dump_modify 2 element N20 N100

fix 1 all nvt temp ${T} ${T} 100
fix 1 all nvt temp 300 ${T} 100
fix 1 all nvt temp 300 300 100
fix 2 all deform 1 x erate ${strain_rate} y erate ${strain_rate} z erate ${strain_rate} units box
fix 2 all deform 1 x erate 5e-6 y erate ${strain_rate} z erate ${strain_rate} units box
fix 2 all deform 1 x erate 5e-6 y erate 5e-6 z erate ${strain_rate} units box
fix 2 all deform 1 x erate 5e-6 y erate 5e-6 z erate 5e-6 units box
fix             def1 all print ${ts_save} "${p1} ${p2} ${p3} ${p4}" file ./tensile/${trial}/tensile${N20}${N100}_${usic}_${trial}.txt screen no
fix             def1 all print 1000 "${p1} ${p2} ${p3} ${p4}" file ./tensile/${trial}/tensile${N20}${N100}_${usic}_${trial}.txt screen no
fix             def1 all print 1000 "${p1} ${p2} ${p3} ${p4}" file ./tensile/8/tensile${N20}${N100}_${usic}_${trial}.txt screen no
fix             def1 all print 1000 "${p1} ${p2} ${p3} ${p4}" file ./tensile/8/tensile90${N100}_${usic}_${trial}.txt screen no
fix             def1 all print 1000 "${p1} ${p2} ${p3} ${p4}" file ./tensile/8/tensile9010_${usic}_${trial}.txt screen no
fix             def1 all print 1000 "${p1} ${p2} ${p3} ${p4}" file ./tensile/8/tensile9010_1_${trial}.txt screen no
fix             def1 all print 1000 "${p1} ${p2} ${p3} ${p4}" file ./tensile/8/tensile9010_1_8.txt screen no

timestep       		${ts}
timestep       		0.1
run				${steps_tensile}
run				6000000
Generated 0 of 1 mixed pair_coeff terms from geometric mixing rule
Unused restart file global fix info:
  fix style: npt, fix ID: 5
Neighbor list info ...
  update every 1 steps, delay 0 steps, check no
  max neighbors/atom: 2000, page size: 100000
  master list distance cutoff = 113.78
  ghost atom cutoff = 113.78
  binsize = 56.89, bins = 10 10 10
  1 neighbor lists, perpetual/occasional/extra = 1 0 0
  (1) pair table/pgn, perpetual
      attributes: half, newton on
      pair build: half/bin/atomonly/newton
      stencil: half/bin/3d
      bin: standard
Per MPI rank memory allocation (min/avg/max) = 3.859 | 3.859 | 3.859 Mbytes
   Step          Temp           v_p1           v_p2           v_p3           v_p4          Press            Lx             Ly             Lz           Volume        Density         E_pair         PotEng         KinEng         TotEng          Pxx            Pyy            Pzz            Pxy            Pxz            Pyz           S/CPU     
         0   303.36791     -8.3875129e-16  0.0097797765   0.016097822    0.015619457   -136.5147       542.17187      542.17187      542.17187      1.593716e+08   2.5201241     -7761571.1     -7761571.1      903.37782     -7760667.7     -96.51889      -158.87315     -154.15206     -12.95174       25.682519     -2.4806591      0            
      1000   336.04365      0.0005         0.020824055    0.02659606     0.026514347   -243.22547      542.44295      542.44295      542.44295      1.5961078e+08  2.5163477     -7761020.6     -7761020.6      1000.6806     -7760020       -205.51744     -262.4827      -261.67626     -13.646924      24.172994     -4.1025433      10804.393    
      2000   385.25944      0.001          0.029155708    0.034915328    0.035316002   -326.95793      542.71404      542.71404      542.71404      1.5985019e+08  2.5125788     -7760290.1     -7760290.1      1147.2368     -7759142.9     -287.74446     -344.58749     -348.54184     -13.395008      22.763127     -6.8415957      12136.251    
      3000   427.72821      0.0015         0.035183746    0.041116595    0.041753063   -388.36551      542.98512      542.98512      542.98512      1.6008985e+08  2.5088175     -7759431.6     -7759431.6      1273.7016     -7758157.9     -347.23658     -405.78924     -412.0707      -10.561431      21.941483     -8.2256929      12119.987    
      4000   452.96688      0.002          0.040635784    0.046986544    0.047065892   -443.08979      543.25621      543.25621      543.25621      1.6032974e+08  2.5050636     -7758437.2     -7758437.2      1348.858      -7757088.4     -401.04401     -463.72113     -464.50424     -8.5325295      22.355724     -8.3254346      11893.803    
      5000   460.09065      0.0025         0.047155778    0.053637983    0.052828449   -505.37778      543.5273       543.5273       543.5273       1.6056988e+08  2.5013173     -7757245.1     -7757245.1      1370.0714     -7755875.1     -465.39135     -529.36574     -521.37625     -8.8798816      23.041872     -7.6538858      12066.248    
      6000   454.71627      0.003          0.054957928    0.060626273    0.059599182   -576.30852      543.79838      543.79838      543.79838      1.6081025e+08  2.4975784     -7755815.4     -7755815.4      1354.0674     -7754461.3     -542.39258     -598.33479     -588.19819     -9.2585908      21.785827     -6.1681257      12291.834    
      7000   443.43176      0.0035         0.062797041    0.067514751    0.066955888   -648.96021      544.06947      544.06947      544.06947      1.6105087e+08  2.4938469     -7754124.6     -7754124.6      1320.4641     -7752804.2     -619.75861     -666.31879     -660.80324     -8.9248021      20.029076     -4.7163994      11887.613    
      8000   430.47446      0.004          0.070386773    0.074578642    0.074473813   -721.89893      544.34055      544.34055      544.34055      1.6129172e+08  2.4901229     -7752161       -7752161        1281.8794     -7750879.1     -694.66344     -736.03397     -734.99939     -8.4215536      19.312576     -5.0457106      11913.955    
      9000   417.99989      0.0045         0.077735511    0.081782403    0.081848389   -794.0334       544.61164      544.61164      544.61164      1.6153281e+08  2.4864063     -7749929.2     -7749929.2      1244.7323     -7748684.5     -767.18985     -807.12956     -807.78079     -7.6706878      18.422272     -6.0678121      11634.345    
     10000   406.97057      0.005          0.084565621    0.088773644    0.088627748   -861.80447      544.88273      544.88273      544.88273      1.6177415e+08  2.4826971     -7747437.1     -7747437.1      1211.8889     -7746225.3     -834.59779     -876.12775     -874.68786     -7.0311402      17.415423     -5.9328188      12351.081    
     11000   397.37848      0.0055         0.090440878    0.095272983    0.094448791   -921.66347      545.15381      545.15381      545.15381      1.6201572e+08  2.4789953     -7744706.1     -7744706.1      1183.3253     -7743522.8     -892.58207     -940.27124     -932.13709     -7.0763664      18.708208     -5.3615935      11808.383    
     12000   389.06424      0.006          0.095693688    0.10134596     0.10012779    -977.60485      545.4249       545.4249       545.4249       1.6225754e+08  2.4753008     -7741750.3     -7741750.3      1158.5669     -7740591.7     -944.42327     -1000.2069     -988.18441     -6.2561478      20.913308     -6.2038286      12098.128    
     13000   381.68584      0.0065         0.10137214     0.10717647     0.10627783    -1035.6985      545.69598      545.69598      545.69598      1.6249959e+08  2.4716137     -7738573.5     -7738573.5      1136.5953     -7737437       -1000.4652     -1057.7495     -1048.8806     -3.4632707      19.428203     -7.4796472      12358.76     
     14000   375.19042      0.007          0.10784126     0.11288988     0.11259594    -1096.5608      545.96707      545.96707      545.96707      1.6274189e+08  2.4679338     -7735170.3     -7735170.3      1117.253      -7734053       -1064.3105     -1114.1365     -1111.2355     -2.172213       13.58352      -8.2139509      11897.636    
     15000   369.91121      0.0075         0.11442963     0.11835461     0.11860442    -1155.9788      546.23816      546.23816      546.23816      1.6298442e+08  2.4642613     -7731540       -7731540        1101.5324     -7730438.5     -1129.3326     -1168.0692     -1170.5347     -3.9954022      9.6234687     -8.5295139      11787.139    
     16000   366.3204       0.008          0.12036418     0.12393167     0.12430907    -1212.6159      546.50924      546.50924      546.50924      1.632272e+08   2.4605961     -7727693.9     -7727693.9      1090.8396     -7726603.1     -1187.9021     -1223.1105     -1226.8351     -4.4877866      11.998281     -8.6414615      11890.568    
     17000   364.08947      0.0085         0.12560009     0.12985884     0.12973038    -1267.1743      546.78033      546.78033      546.78033      1.6347022e+08  2.4569381     -7723650.4     -7723650.4      1084.1963     -7722566.2     -1239.5765     -1281.6071     -1280.3393     -3.1471785      15.480109     -8.3036368      11814.828    
     18000   362.47759      0.009          0.13033116     0.13535807     0.13446587    -1316.408       547.05141      547.05141      547.05141      1.6371348e+08  2.4532874     -7719422.4     -7719422.4      1079.3964     -7718343       -1286.2686     -1335.8803     -1327.075      -1.6823613      15.152559     -6.7559201      11828.927    
     19000   361.56638      0.0095         0.13514357     0.13989424     0.13881793    -1361.4795      547.3225       547.3225       547.3225       1.6395698e+08  2.4496439     -7715013.5     -7715013.5      1076.6829     -7713936.9     -1333.7633     -1380.6488     -1370.0265     -0.36313845     12.006896     -3.1446058      11816.955    
     20000   360.96742      0.01           0.14043691     0.14426251     0.14341969    -1408.4024      547.59358      547.59358      547.59358      1.6420072e+08  2.4460076     -7710427.4     -7710427.4      1074.8993     -7709352.5     -1386.0045     -1423.7602     -1415.4423      1.1320028      9.7078258     -1.9275797      11828.506    
     21000   360.57087      0.0105         0.14577739     0.14902966     0.14818611    -1457.3342      547.86467      547.86467      547.86467      1.644447e+08   2.4423785     -7705665.9     -7705665.9      1073.7185     -7704592.2     -1438.711      -1470.8084     -1462.4832      2.59303        10.356337     -4.9648466      11811.068    
     22000   360.57294      0.011          0.15105343     0.15409773     0.15324386    -1508.0024      548.13576      548.13576      548.13576      1.6468893e+08  2.4387566     -7700727       -7700727        1073.7246     -7699653.3     -1490.7814     -1520.8263     -1512.3993      3.3471802      13.607794     -6.8572491      11913.049    
     23000   361.05054      0.0115         0.15617629     0.15912267     0.15841733    -1558.4054      548.40684      548.40684      548.40684      1.6493339e+08  2.4351419     -7695609.9     -7695609.9      1075.1469     -7694534.8     -1541.3402     -1570.4186     -1563.4575      4.2183773      16.549023     -6.7286794      11875.62     
     24000   362.5254       0.012          0.16071935     0.16380716     0.1632161     -1604.5484      548.67793      548.67793      548.67793      1.651781e+08   2.4315342     -7690327.8     -7690327.8      1079.5387     -7689248.2     -1586.1767     -1616.6509     -1610.8176      4.7623496      16.220474     -7.1055836      11860.292    
     25000   364.83099      0.0125         0.16477329     0.16823563     0.16755955    -1646.7423      548.94901      548.94901      548.94901      1.6542305e+08  2.4279337     -7684893.3     -7684893.3      1086.4044     -7683806.9     -1626.186      -1660.3566     -1653.6842      4.2035585      13.798867     -6.2194488      11821.035    
     26000   367.16034      0.013          0.16881151     0.17244608     0.17141395    -1686.5582      549.2201       549.2201       549.2201       1.6566824e+08  2.4243404     -7679309.7     -7679309.7      1093.3408     -7678216.3     -1666.0401     -1701.9104     -1691.7242      3.7950674      9.5893836     -2.874284       11821.993    
     27000   368.85444      0.0135         0.17297993     0.1763969      0.17501709    -1725.1219      549.49119      549.49119      549.49119      1.6591368e+08  2.420754      -7673579.3     -7673579.3      1098.3855     -7672480.9     -1707.1792     -1740.902      -1727.2844      4.4836591      6.8271538     -1.5001381      11842.58     
     28000   370.33153      0.014          0.17672784     0.17996567     0.17849045    -1760.6184      549.76227      549.76227      549.76227      1.6615936e+08  2.4171748     -7667710.6     -7667710.6      1102.784      -7666607.8     -1744.1682     -1776.1231     -1761.5638      6.1945782      6.8515943     -2.9409507      11816.578    
     29000   372.19224      0.0145         0.18037227     0.18353779     0.18187695    -1795.4997      550.03336      550.03336      550.03336      1.6640527e+08  2.4136026     -7661713       -7661713        1108.3249     -7660604.7     -1780.1359     -1811.3772     -1794.9859      6.8886071      7.4129514     -4.8842224      11883.311    
     30000   374.4511       0.015          0.18456679     0.18732213     0.18556073    -1833.8668      550.30444      550.30444      550.30444      1.6665144e+08  2.4100375     -7655588.5     -7655588.5      1115.0514     -7654473.4     -1821.5326     -1848.7257     -1831.342       4.5611796      7.6401979     -6.0014834      11829.516    
     31000   376.8469       0.0155         0.18888467     0.19137889     0.18998949    -1875.9867      550.57553      550.57553      550.57553      1.6689784e+08  2.4064794     -7649330       -7649330        1122.1857     -7648207.8     -1864.1468     -1888.7628     -1875.0504      2.7418905      8.7155225     -6.3448689      11828.469    
     32000   379.22662      0.016          0.19269907     0.19525235     0.19417301    -1915.0405      550.84662      550.84662      550.84662      1.6714449e+08  2.4029282     -7642941.6     -7642941.6      1129.2721     -7641812.4     -1901.7919     -1926.9908     -1916.3386      4.3682682      10.630076     -6.71503        11845.295    
     33000   381.89374      0.0165         0.1961509      0.19833855     0.19743989    -1947.2961      551.1177       551.1177       551.1177       1.6739138e+08  2.3993841     -7636433.1     -7636433.1      1137.2143     -7635295.9     -1935.8588     -1957.4493     -1948.5802      8.6678665      13.806351     -5.8127541      11848.465    
     34000   384.57513      0.017          0.1994799      0.20121214     0.20013581    -1976.5699      551.38879      551.38879      551.38879      1.6763851e+08  2.3958469     -7629803.8     -7629803.8      1145.1991     -7628658.6     -1968.7135     -1985.8094     -1975.1868      10.417896      14.916965     -5.8432216      11841.194    
     35000   386.56043      0.0175         0.20257491     0.20435919     0.20263532    -2005.3275      551.65987      551.65987      551.65987      1.6788589e+08  2.3923167     -7623052.5     -7623052.5      1151.111      -7621901.4     -1999.2589     -2016.8684     -1999.8551      9.7294795      11.730912     -6.1171871      11901.847    
     36000   388.28134      0.018          0.20535974     0.20739198     0.20529046    -2033.2007      551.93096      551.93096      551.93096      1.6813351e+08  2.3887934     -7616194       -7616194        1156.2355     -7615037.8     -2026.7431     -2046.7997     -2026.0594      9.836379       7.9184137     -4.0792533      11826.833    
     37000   390.42071      0.0185         0.20820348     0.21024817     0.20842876    -2062.2762      552.20205      552.20205      552.20205      1.6838137e+08  2.385277      -7609242.8     -7609242.8      1162.6062     -7608080.2     -2054.8086     -2074.9881     -2057.0319      10.652505      7.3506603     -1.1827589      11833.588    
     38000   392.58823      0.019          0.21132064     0.21320977     0.21173436    -2093.1484      552.47313      552.47313      552.47313      1.6862947e+08  2.3817676     -7602192.5     -7602192.5      1169.0607     -7601023.4     -2085.5726     -2104.2169     -2089.6556      10.138828      8.0527719     -1.3048432      11832.905    
     39000   394.02869      0.0195         0.21437496     0.21628776     0.21457483    -2122.6665      552.74422      552.74422      552.74422      1.6887782e+08  2.378265      -7595036.1     -7595036.1      1173.3502     -7593862.7     -2115.7163     -2134.5942     -2117.6889      10.299929      8.9589065     -3.3242707      11787.308    
     40000   395.33781      0.02           0.21732813     0.2191315      0.21674513    -2148.8766      553.0153       553.0153       553.0153       1.6912642e+08  2.3747692     -7587777.2     -7587777.2      1177.2485     -7586599.9     -2144.8619     -2162.6598     -2139.1081      11.400242      10.388541     -4.8698511      11775.047    
     41000   397.38013      0.0205         0.22012173     0.22169581     0.21909506    -2174.2334      553.28639      553.28639      553.28639      1.6937525e+08  2.3712803     -7580424.5     -7580424.5      1183.3302     -7579241.2     -2172.4326     -2187.9676     -2162.3001      12.988984      11.478789     -5.6829639      11865.42     
     42000   400.06561      0.021          0.22270022     0.22411582     0.22178558    -2199.5283      553.55748      553.55748      553.55748      1.6962434e+08  2.3677983     -7572974.9     -7572974.9      1191.3271     -7571783.6     -2197.8803     -2211.8512     -2188.8535      13.447517      11.525134     -5.0248916      11799.137    
     43000   402.50786      0.0215         0.22521382     0.2265971      0.22436193    -2224.4357      553.82856      553.82856      553.82856      1.6987366e+08  2.364323      -7565438.8     -7565438.8      1198.5997     -7564240.2     -2222.6876     -2236.3395     -2214.2801      13.008749      10.591128     -3.15251        12284.579    
     44000   404.44103      0.022          0.22720374     0.22847608     0.22643404    -2243.9801      554.09965      554.09965      554.09965      1.7012323e+08  2.3608546     -7557831.9     -7557831.9      1204.3563     -7556627.5     -2242.3265     -2254.8836     -2234.7302      13.074555      8.4944122     -1.1677786      12346.292    
     45000   406.26221      0.0225         0.22893558     0.22996151     0.22803006    -2259.8146      554.37073      554.37073      554.37073      1.7037304e+08  2.3573929     -7550159.1     -7550159.1      1209.7795     -7548949.3     -2259.4185     -2269.5437     -2250.4817      13.201987      7.5499457     -1.9984356      12317.922    
     46000   408.09952      0.023          0.23125898     0.23203868     0.22954556    -2279.277       554.64182      554.64182      554.64182      1.706231e+08   2.353938      -7542417.8     -7542417.8      1215.2507     -7541202.5     -2282.3487     -2290.0438     -2265.4386      14.164418      8.9627968     -4.2582578      12332.484    
     47000   409.51653      0.0235         0.23394851     0.23509647     0.23169798    -2305.2651      554.9129       554.9129       554.9129       1.7087341e+08  2.3504899     -7534594.2     -7534594.2      1219.4703     -7533374.7     -2308.8923     -2320.2217     -2286.6813      14.926239      9.3149316     -5.1811094      12396.741    
     48000   410.48273      0.024          0.23641076     0.23794275     0.23433243    -2331.3955      555.18399      555.18399      555.18399      1.7112395e+08  2.3470485     -7526671.9     -7526671.9      1222.3475     -7525449.5     -2333.1928     -2348.3124     -2312.6812      14.479782      9.6691673     -4.6335652      12332.077    
     49000   411.47503      0.0245         0.23843835     0.23976266     0.23684059    -2352.304       555.45508      555.45508      555.45508      1.7137475e+08  2.3436138     -7518652.4     -7518652.4      1225.3024     -7517427.1     -2353.2036     -2366.2735     -2337.4349      14.469243      10.973263     -3.8922761      12214.963    
     50000   412.92317      0.025          0.23986721     0.24091282     0.23852285    -2366.3225      555.72616      555.72616      555.72616      1.7162578e+08  2.3401857     -7510570.5     -7510570.5      1229.6147     -7509340.9     -2367.3053     -2377.6247     -2354.0375      15.724284      10.786494     -2.4109416      11421.868    
     51000   414.48358      0.0255         0.241657       0.24215929     0.23987695    -2380.7656      555.99725      555.99725      555.99725      1.7187706e+08  2.3367644     -7502443.8     -7502443.8      1234.2613     -7501209.6     -2384.9691     -2389.9263     -2367.4015      16.670307      7.6853229     -1.3515309      11825.999    
     52000   415.26104      0.026          0.24394225     0.24365208     0.24154984    -2398.6978      556.26833      556.26833      556.26833      1.7212859e+08  2.3333498     -7494261.2     -7494261.2      1236.5765     -7493024.7     -2407.5228     -2404.659      -2383.9116      16.186969      4.2573433     -2.0869348      11859.458    
     53000   415.66286      0.0265         0.24562371     0.24509453     0.24309911    -2414.0714      556.53942      556.53942      556.53942      1.7238036e+08  2.3299418     -7486011.8     -7486011.8      1237.773      -7484774       -2424.1175     -2418.895      -2399.2017      14.707109      3.009367      -3.6072585      11692.336    
     54000   416.81466      0.027          0.24666483     0.24645192     0.24420248    -2425.5917      556.81051      556.81051      556.81051      1.7263238e+08  2.3265404     -7477705.4     -7477705.4      1241.2029     -7476464.2     -2434.3926     -2432.2913     -2410.0911      14.569224      6.0210588     -4.0901367      11836.135    
     55000   418.70875      0.0275         0.24768707     0.24799633     0.24531619    -2437.6991      557.08159      557.08159      557.08159      1.7288465e+08  2.3231456     -7469356.8     -7469356.8      1246.8432     -7468109.9     -2444.4813     -2447.5335     -2421.0826      15.305501      8.8205491     -2.6399258      9812.6442    
     56000   420.23985      0.028          0.24927862     0.2498355      0.24675289    -2453.7117      557.35268      557.35268      557.35268      1.7313716e+08  2.3197575     -7460953.3     -7460953.3      1251.4025     -7459701.9     -2460.1887     -2465.6847     -2435.2617      16.807939      7.9956392      0.79751135     11881.785    
     57000   420.81706      0.0285         0.25122095     0.25164583     0.24821191    -2470.8568      557.62376      557.62376      557.62376      1.7338991e+08  2.3163759     -7452480.9     -7452480.9      1253.1213     -7451227.8     -2479.358      -2483.5513     -2449.6611      18.076653      6.216854       1.897801       12199.516    
     58000   421.5817       0.029          0.25287068     0.25262336     0.24931684    -2483.1347      557.89485      557.89485      557.89485      1.7364291e+08  2.3130009     -7443962.3     -7443962.3      1255.3983     -7442706.9     -2495.6396     -2493.1987     -2460.5659      18.551562      7.0645099     -0.99244515     12359.27     
     59000   422.75552      0.0295         0.25382214     0.25311606     0.25051665    -2491.8327      558.16594      558.16594      558.16594      1.7389616e+08  2.3096325     -7435411.8     -7435411.8      1258.8937     -7434152.9     -2505.0298     -2498.0613     -2472.4071      18.457552      7.787552      -5.4617042      12296.606    
     60000   423.11145      0.03           0.2542081      0.25381438     0.25161699    -2499.0196      558.43702      558.43702      558.43702      1.7414965e+08  2.3062705     -7426817       -7426817        1259.9537     -7425557       -2508.8389     -2504.9531     -2483.2666      16.827963      7.9787134     -7.4214834      12409.799    
     61000   423.42134      0.0305         0.25453932     0.25425928     0.25207465    -2503.0784      558.70811      558.70811      558.70811      1.7440339e+08  2.3029152     -7418181.2     -7418181.2      1260.8765     -7416920.3     -2512.1077     -2509.344      -2487.7833      16.407024      8.2962828     -5.9763736      12358.478    
     62000   424.59433      0.031          0.25542839     0.25498205     0.25235033    -2509.2878      558.97919      558.97919      558.97919      1.7465738e+08  2.2995663     -7409519.7     -7409519.7      1264.3694     -7408255.4     -2520.8822     -2516.4772     -2490.5041      17.806742      8.0321492     -5.0644116      12353.948    
     63000   425.74396      0.0315         0.25682201     0.25641551     0.25307471    -2520.9713      559.25028      559.25028      559.25028      1.7491161e+08  2.2962239     -7400832.6     -7400832.6      1267.7928     -7399564.8     -2534.6362     -2530.6244     -2497.6532      17.839084      6.3961082     -4.9217248      12108.334    
     64000   426.27741      0.032          0.25828983     0.25764842     0.25388634    -2532.526       559.52137      559.52137      559.52137      1.7516609e+08  2.292888      -7392113.6     -7392113.6      1269.3813     -7390844.3     -2549.1225     -2542.7922     -2505.6634      17.062183      2.9537221     -3.4690981      11845.701    
     65000   426.81697      0.0325         0.25921196     0.25802153     0.25441087    -2538.5126      559.79245      559.79245      559.79245      1.7542081e+08  2.2895585     -7383359.6     -7383359.6      1270.9881     -7382088.7     -2558.2232     -2546.4745     -2510.8401      18.233332      2.3532013     -1.7626327      11975.615    
     66000   427.74667      0.033          0.25955657     0.25813034     0.25496939    -2541.8416      560.06354      560.06354      560.06354      1.7567578e+08  2.2862355     -7374572.7     -7374572.7      1273.7565     -7373299       -2561.6242     -2547.5484     -2516.3523      19.127373      5.5244338     -2.1494989      11877.877    
     67000   428.36388      0.0335         0.2598617      0.25872643     0.25587718    -2547.7928      560.33462      560.33462      560.33462      1.75931e+08    2.2829189     -7365753       -7365753        1275.5945     -7364477.4     -2564.6356     -2553.4314     -2525.3114      17.869777      6.7484823     -3.5140028      11884.678    
     68000   428.3443       0.034          0.26018231     0.25958113     0.2565962     -2554.0246      560.60571      560.60571      560.60571      1.7618647e+08  2.2796087     -7356904.8     -7356904.8      1275.5362     -7355629.2     -2567.7997     -2561.8666     -2532.4076      17.321335      5.2727023     -3.3588056      11878.479    
     69000   428.23733      0.0345         0.26045592     0.25986387     0.25705932    -2557.3785      560.8768       560.8768       560.8768       1.7644218e+08  2.2763049     -7348038.8     -7348038.8      1275.2176     -7346763.6     -2570.5001     -2564.657      -2536.9783      19.053811      4.2427756     -3.5133053      11867.039    
     70000   428.08435      0.035          0.26061132     0.2592948      0.2572798     -2556.7429      561.14788      561.14788      561.14788      1.7669814e+08  2.2730075     -7339165.9     -7339165.9      1274.7621     -7337891.2     -2572.0337     -2559.0407     -2539.1542      19.767862      3.7244011     -5.7646258      11879.556    
     71000   428.14117      0.0355         0.26055594     0.2585886      0.25699551    -2553.3022      561.41897      561.41897      561.41897      1.7695435e+08  2.2697165     -7330290.3     -7330290.3      1274.9313     -7329015.4     -2571.4872     -2552.0711     -2536.3484      18.000194      5.1641487     -7.9122067      11983.847    
     72000   428.61754      0.036          0.26062977     0.25877707     0.25649025    -2552.503       561.69005      561.69005      561.69005      1.7721081e+08  2.2664318     -7321413.7     -7321413.7      1276.3499     -7320137.3     -2572.2158     -2553.9311     -2531.362       14.791176      6.2718269     -9.5949571      11904.008    
     73000   429.22611      0.0365         0.26116975     0.2598522      0.25623725    -2556.984       561.96114      561.96114      561.96114      1.7746751e+08  2.2631535     -7312531.8     -7312531.8      1278.1621     -7311253.7     -2577.545      -2564.5418     -2528.8651      14.201455      4.2205628     -8.9831618      11904.683    
     74000   429.37184      0.037          0.26205165     0.26078589     0.25642973    -2563.59        562.23223      562.23223      562.23223      1.7772446e+08  2.2598814     -7303622.9     -7303622.9      1278.596      -7302344.3     -2586.2487     -2573.7566     -2530.7647      15.919804      0.42373898    -6.6499744      11900.63     
     75000   428.83787      0.0375         0.26250634     0.26080982     0.2567422     -2566.1925      562.50331      562.50331      562.50331      1.7798166e+08  2.2566157     -7294681.8     -7294681.8      1277.006      -7293404.8     -2590.7361     -2573.9928     -2533.8485      16.31546      -1.9199625     -4.3578597      11889.889    
     76000   428.78087      0.038          0.26191507     0.2600943      0.25663237    -2561.5321      562.7744       562.7744       562.7744       1.7823911e+08  2.2533563     -7285737.1     -7285737.1      1276.8362     -7284460.3     -2584.9007     -2566.9311     -2532.7646      16.230887     -0.52380374    -1.2423532      11880.611    
     77000   429.30083      0.0385         0.26100117     0.25961429     0.25658627    -2556.7949      563.04548      563.04548      563.04548      1.784968e+08   2.2501031     -7276810.8     -7276810.8      1278.3846     -7275532.4     -2575.8813     -2562.1939     -2532.3096      18.204237      3.4540194     -0.45265305     11877.116    
     78000   429.37293      0.039          0.26055867     0.25945474     0.25673463    -2555.3024      563.31657      563.31657      563.31657      1.7875474e+08  2.2468562     -7267883.5     -7267883.5      1278.5993     -7266604.9     -2571.5142     -2560.6192     -2533.7738      19.03866       5.6253028     -3.0640553      11965.391    
     79000   428.99935      0.0395         0.26080306     0.25941105     0.25667005    -2555.7502      563.58765      563.58765      563.58765      1.7901294e+08  2.2436156     -7258943.8     -7258943.8      1277.4868     -7257666.3     -2573.9261     -2560.188      -2533.1364      17.196219      4.0405458     -8.6711771      11880.346    
     80000   428.61529      0.04           0.26104907     0.25935181     0.25622764    -2554.9092      563.85874      563.85874      563.85874      1.7927138e+08  2.2403811     -7250004.5     -7250004.5      1276.3432     -7248728.1     -2576.354      -2559.6034     -2528.7702      15.519225      1.494488      -12.9698        11872.45     
     81000   428.48989      0.0405         0.26053193     0.2588863      0.25546476    -2549.1668      564.12983      564.12983      564.12983      1.7953006e+08  2.2371529     -7241075.3     -7241075.3      1275.9697     -7239799.3     -2571.2502     -2555.0091     -2521.2412      14.612948      0.66145064    -12.686789      11879.27     
     82000   428.60319      0.041          0.25961886     0.25796147     0.25450447    -2539.9615      564.40091      564.40091      564.40091      1.79789e+08    2.2339309     -7232167.8     -7232167.8      1276.3071     -7230891.5     -2562.2389     -2545.8818     -2511.7639      14.29668      -0.080956655   -10.041038      11877.597    
     83000   428.62669      0.0415         0.25901601     0.25708069     0.25358681    -2532.0619      564.672        564.672        564.672        1.8004819e+08  2.2307151     -7223282.3     -7223282.3      1276.3771     -7222005.9     -2556.2893     -2537.1892     -2502.7073      14.796638      0.26573806    -7.1515599      11896.93     
     84000   428.35506      0.042          0.25869845     0.25659101     0.25303518    -2527.5915      564.94308      564.94308      564.94308      1.8030762e+08  2.2275054     -7214406.2     -7214406.2      1275.5682     -7213130.6     -2553.1552     -2532.3564     -2497.263       15.451423      2.19563       -5.1835656      11981.816    
     85000   428.13539      0.0425         0.25825895     0.25596858     0.25286383    -2523.5344      565.21417      565.21417      565.21417      1.8056731e+08  2.2243019     -7205538.3     -7205538.3      1274.9141     -7204263.4     -2548.8177     -2526.2135     -2495.572       14.119096      2.1981648     -4.7831617      11866.995    
     86000   427.95645      0.043          0.25753024     0.25534525     0.25284313    -2519.0184      565.48526      565.48526      565.48526      1.8082724e+08  2.2211045     -7196681.3     -7196681.3      1274.3812     -7195406.9     -2541.6258     -2520.0617     -2495.3676      12.589081     -0.44859965    -7.1293044      11899.454    
     87000   427.83581      0.0435         0.25660762     0.25492341     0.25224894    -2512.6407      565.75634      565.75634      565.75634      1.8108743e+08  2.2179133     -7187831.6     -7187831.6      1274.022      -7186557.6     -2532.5203     -2515.8985     -2489.5035      13.989653     -3.0542083     -8.867375       11887.37     
     88000   428.10772      0.044          0.25599049     0.25447823     0.25110264    -2505.375       566.02743      566.02743      566.02743      1.8134786e+08  2.2147282     -7179006.1     -7179006.1      1274.8317     -7177731.3     -2526.4297     -2511.5049     -2478.1904      15.718397     -4.0908625     -6.9865536      11917.636    
     89000   428.05036      0.0445         0.25576672     0.25370357     0.25008599    -2498.7459      566.29851      566.29851      566.29851      1.8160854e+08  2.2115491     -7170207.3     -7170207.3      1274.6609     -7168932.6     -2524.2212     -2503.8596     -2468.1568      13.86477      -4.1734974     -6.4739459      11881.126    
     90000   427.09911      0.045          0.25510326     0.2527564      0.24923589    -2490.6507      566.5696       566.5696       566.5696       1.8186947e+08  2.2083762     -7161420.1     -7161420.1      1271.8282     -7160148.3     -2517.6734     -2494.5117     -2459.767       10.127318     -5.2947324     -9.4852115      11948.09     
     91000   426.13011      0.0455         0.25362781     0.25152375     0.24847661    -2479.2439      566.84069      566.84069      566.84069      1.8213065e+08  2.2052093     -7152656.2     -7152656.2      1268.9427     -7151387.3     -2503.1119     -2482.3464     -2452.2735      9.6303754     -4.1809307     -12.247068      11879.255    
     92000   425.62481      0.046          0.25200366     0.25025042     0.24789973    -2467.8142      567.11177      567.11177      567.11177      1.8239208e+08  2.2020485     -7143928.2     -7143928.2      1267.438      -7142660.7     -2487.0828     -2469.7797     -2446.5801      10.73152      -1.1021603     -13.567332      11874.931    
     93000   424.99442      0.0465         0.25101177     0.24933342     0.24732396    -2459.6402      567.38286      567.38286      567.38286      1.8265377e+08  2.1988937     -7135225       -7135225        1265.5608     -7133959.5     -2477.2935     -2460.7296     -2440.8977      10.859302      0.89881381    -14.273648      11910.48     
     94000   423.89227      0.047          0.25043775     0.24858849     0.24649902    -2452.5874      567.65394      567.65394      567.65394      1.829157e+08   2.1957449     -7126545.9     -7126545.9      1262.2788     -7125283.6     -2471.6284     -2453.3776     -2432.7562      10.409852      0.67277599    -11.301587      11887.707    
     95000   422.83011      0.0475         0.24949904     0.24780293     0.24511326    -2442.3562      567.92503      567.92503      567.92503      1.8317788e+08  2.1926021     -7117889.1     -7117889.1      1259.1159     -7116630       -2462.3641     -2445.6248     -2419.0798      9.1100593     -0.19097015    -8.5450418      11892.427    
     96000   422.36736      0.048          0.24831375     0.24705425     0.24369365    -2431.3238      568.19612      568.19612      568.19612      1.8344031e+08  2.1894654     -7109258.6     -7109258.6      1257.7379     -7108000.9     -2450.6661     -2438.2358     -2405.0694      7.926806      -2.5500652     -10.067294      11961.257    
     97000   422.68834      0.0485         0.24714122     0.24610041     0.2422399     -2419.5461      568.4672       568.4672       568.4672       1.83703e+08    2.1863346     -7100659.6     -7100659.6      1258.6937     -7099400.9     -2439.0942     -2428.8222     -2390.7219      7.5109084     -3.7286596     -14.068824      11882.698    
     98000   423.09403      0.049          0.24604832     0.24494608     0.24111339    -2408.4474      568.73829      568.73829      568.73829      1.8396593e+08  2.1832097     -7092098.7     -7092098.7      1259.9018     -7090838.8     -2428.3081     -2417.4299     -2379.6041      7.5936668     -2.902041      -15.56847       11750.425    
     99000   422.73274      0.0495         0.24462749     0.24358001     0.24027941    -2396.5356      569.00937      569.00937      569.00937      1.8422911e+08  2.1800909     -7083580.2     -7083580.2      1258.8259     -7082321.3     -2414.2856     -2403.9478     -2371.3734      8.778299      -2.434677      -12.979582      11860.865    
    100000   421.39143      0.05           0.24289741     0.24223754     0.2393694     -2383.434       569.28046      569.28046      569.28046      1.8449255e+08  2.1769779     -7075103.5     -7075103.5      1254.8317     -7073848.7     -2397.211      -2390.6986     -2362.3923      10.569297     -3.9654588     -9.7023531      11483.412    
    101000   419.53656      0.0505         0.24107815     0.24070666     0.23804164    -2368.0449      569.55155      569.55155      569.55155      1.8475624e+08  2.1738709     -7066669.9     -7066669.9      1249.3082     -7065420.6     -2379.2564     -2375.5901     -2349.2883      9.1988699     -5.34833       -10.225615      11869.017    
    102000   417.89432      0.051          0.23956311     0.23874489     0.23655911    -2351.7299      569.82263      569.82263      569.82263      1.8502017e+08  2.1707698     -7058278.3     -7058278.3      1244.4179     -7057033.8     -2364.3041     -2356.2288     -2334.6569      5.0770756     -4.5615236     -14.023125      11858.757    
    103000   416.9375       0.0515         0.23858067     0.23688846     0.23508466    -2337.5402      570.09372      570.09372      570.09372      1.8528436e+08  2.1676746     -7049926.5     -7049926.5      1241.5687     -7048684.9     -2354.6082     -2337.9074     -2320.1052      2.1192781     -3.2235172     -17.493563      11958.056    
    104000   416.49173      0.052          0.2380586      0.23593269     0.2337441     -2328.2684      570.3648       570.3648       570.3648       1.855488e+08   2.1645853     -7041607.2     -7041607.2      1240.2413     -7040367       -2349.4557     -2328.4746     -2306.8749      1.3623355     -4.2447525     -16.747364      11861.337    
    105000   415.9529       0.0525         0.2372452      0.23553279     0.23279148    -2321.1431      570.63589      570.63589      570.63589      1.8581349e+08  2.1615019     -7033309.7     -7033309.7      1238.6367     -7032071.1     -2341.4281     -2324.5279     -2297.4733      2.3507634     -6.5170579     -13.887105      11870.78     
    106000   415.63525      0.053          0.23566786     0.23461869     0.23194605    -2310.1656      570.90698      570.90698      570.90698      1.8607844e+08  2.1584243     -7025036.8     -7025036.8      1237.6908     -7023799.1     -2325.861      -2315.5064     -2289.1295      3.5391659     -7.730107      -12.548368      11870.165    
    107000   415.71115      0.0535         0.23370107     0.23287953     0.23077775    -2294.1306      571.17806      571.17806      571.17806      1.8634363e+08  2.1553525     -7016819.7     -7016819.7      1237.9168     -7015581.8     -2306.4502     -2298.3423     -2277.5993      4.0672016     -9.7302678     -12.97608       11866.123    
    108000   415.10102      0.054          0.23157194     0.23082857     0.22937025    -2275.7489      571.44915      571.44915      571.44915      1.8660908e+08  2.1522866     -7008675.4     -7008675.4      1236.0999     -7007439.3     -2285.4373     -2278.1009     -2263.7084      4.5598994     -10.209701     -14.47346       11869.611    
    109000   413.24488      0.0545         0.22970206     0.22893615     0.22752708    -2257.3083      571.72023      571.72023      571.72023      1.8687478e+08  2.1492264     -7000592.1     -7000592.1      1230.5727     -6999361.6     -2266.983      -2259.4241     -2245.5177      3.4337808     -7.4428126     -15.232025      11964.907    
    110000   410.88701      0.055          0.22831597     0.22729944     0.22553273    -2240.8031      571.99132      571.99132      571.99132      1.8714073e+08  2.1461721     -6992547.2     -6992547.2      1223.5514     -6991323.6     -2253.3034     -2243.2711     -2225.835       1.580466      -2.9327002     -15.756182      11872.36     
    111000   408.44037      0.0555         0.2273379      0.22610286     0.22414746    -2229.0919      572.2624       572.2624       572.2624       1.8740693e+08  2.1431236     -6984515.3     -6984515.3      1216.2657     -6983299       -2243.6506     -2231.4617     -2212.1635      1.1277517     -1.0112807     -18.581167      11886.608    
    112000   406.59146      0.056          0.22625412     0.22522604     0.22318558    -2219.4777      572.53349      572.53349      572.53349      1.8767339e+08  2.1400808     -6976507.6     -6976507.6      1210.7599     -6975296.8     -2232.9545     -2222.8082     -2202.6704      2.1268028     -2.4129124     -20.178621      11836.009    
    113000   406.5589       0.0565         0.22480298     0.22394653     0.22217844    -2207.1813      572.80458      572.80458      572.80458      1.8794009e+08  2.1370438     -6968555.2     -6968555.2      1210.663      -6967344.5     -2218.6329     -2210.1804     -2192.7307      0.64110615    -5.4887018     -19.387867      11840.423    
    114000   407.56426      0.057          0.22310503     0.22220884     0.22099299    -2191.9791      573.07566      573.07566      573.07566      1.8820705e+08  2.1340125     -6960664.4     -6960664.4      1213.6568     -6959450.7     -2201.8755     -2193.0307     -2181.0312     -1.3079267     -9.7570758     -19.606224      11828.403    
    115000   407.88258      0.0575         0.22128091     0.22032073     0.21961525    -2175.2345      573.34675      573.34675      573.34675      1.8847427e+08  2.130987      -6952828.1     -6952828.1      1214.6047     -6951613.5     -2183.8728     -2174.3965     -2167.434      -0.097733501   -13.760632     -20.537713      11907.139    
    116000   406.88758      0.058          0.21954216     0.21869335     0.21810433    -2159.1902      573.61783      573.61783      573.61783      1.8874173e+08  2.1279672     -6945040.6     -6945040.6      1211.6417     -6943829       -2166.7126     -2158.3356     -2152.5224      2.8938043     -14.313101     -19.338323      11855.047    
    117000   404.72077      0.0585         0.21836063     0.2175649      0.21664086    -2146.7765      573.88892      573.88892      573.88892      1.8900945e+08  2.1249531     -6937289.7     -6937289.7      1205.1893     -6936084.5     -2155.0518     -2147.1986     -2138.0791      3.4207499     -11.576924     -16.511564      11854.48     
    118000   402.1188       0.059          0.21742138     0.21646926     0.21519584    -2135.3285      574.16001      574.16001      574.16001      1.8927742e+08  2.1219446     -6929563.2     -6929563.2      1197.4411     -6928365.8     -2145.7822     -2136.3855     -2123.8178      1.0484366     -7.7972021     -14.966196      11827.514    
    119000   399.88686      0.0595         0.21600226     0.21508081     0.21371908    -2121.2341      574.43109      574.43109      574.43109      1.8954565e+08  2.1189419     -6921869       -6921869        1190.7948     -6920678.2     -2131.7765     -2122.6826     -2109.2433     -1.4510143     -4.3883642     -15.180354      11833.663    
    120000   398.72341      0.06           0.21405574     0.21339023     0.21199957    -2103.6123      574.70218      574.70218      574.70218      1.8981413e+08  2.1159448     -6914232.9     -6914232.9      1187.3302     -6913045.5     -2112.5659     -2105.9979     -2092.273      -2.2746482     -2.2231091     -16.048643      11878.731    
    121000   398.20642      0.0605         0.21201039     0.21194268     0.21040987    -2086.8918      574.97326      574.97326      574.97326      1.9008286e+08  2.1129533     -6906661.6     -6906661.6      1185.7907     -6905475.8     -2092.3799     -2091.7116     -2076.584      -1.9917188     -3.5421545     -17.409999      11926.361    
    122000   397.03327      0.061          0.2104157      0.21054181     0.20950689    -2074.0666      575.24435      575.24435      575.24435      1.9035184e+08  2.1099675     -6899134.9     -6899134.9      1182.2973     -6897952.6     -2076.6415     -2077.8861     -2067.6723     -2.4073886     -9.2897256     -19.372004      11850.176    
    123000   395.19357      0.0615         0.20942877     0.20899191     0.20888032    -2063.6598      575.51544      575.51544      575.51544      1.9062108e+08  2.1069874     -6891634.7     -6891634.7      1176.819      -6890457.9     -2066.9012     -2062.5898     -2061.4884     -2.6854335     -15.336301     -21.622849      11782.569    
    124000   394.05645      0.062          0.20841641     0.20735538     0.20794429    -2051.8664      575.78652      575.78652      575.78652      1.9089057e+08  2.1040128     -6884162.9     -6884162.9      1173.4328     -6882989.4     -2056.91       -2046.4385     -2052.2506     -1.6403879     -16.094283     -22.269489      11835.826    
    125000   393.81889      0.0625         0.20703732     0.20594046     0.20656726    -2038.1448      576.05761      576.05761      576.05761      1.9116032e+08  2.1010438     -6876733.3     -6876733.3      1172.7254     -6875560.6     -2043.2995     -2032.4744     -2038.6604     -0.20580735    -11.047318     -20.573083      11847.479    
    126000   393.12673      0.063          0.2055421      0.20462245     0.20485776    -2023.2661      576.32869      576.32869      576.32869      1.9143032e+08  2.0980804     -6869360.4     -6869360.4      1170.6643     -6868189.7     -2028.5428     -2019.4665     -2021.7889      0.18018407    -7.9184851     -19.257972      11870.419    
    127000   391.42062      0.0635         0.20401323     0.20325769     0.20303365    -2007.746       576.59978      576.59978      576.59978      1.9170058e+08  2.0951226     -6862036.6     -6862036.6      1165.5838     -6860871       -2013.4541     -2005.9974     -2003.7864     -0.97315296    -7.7125681     -19.781141      11824.111    
    128000   389.4012       0.064          0.20255034     0.20217892     0.20152523    -1994.4222      576.87087      576.87087      576.87087      1.9197108e+08  2.0921703     -6854748.5     -6854748.5      1159.5703     -6853588.9     -1999.0165     -1995.3508     -1988.8993     -4.2227629     -8.586851      -22.373919      11904.257    
    129000   387.81666      0.0645         0.20106554     0.20136705     0.20047727    -1983.4192      577.14195      577.14195      577.14195      1.9224185e+08  2.0892236     -6847490.1     -6847490.1      1154.8518     -6846335.2     -1984.3626     -1987.3383     -1978.5568     -4.3897594     -8.5837688     -24.020195      11830.366    
    130000   386.83713      0.065          0.19968913     0.20044058     0.19950159    -1972.6336      577.41304      577.41304      577.41304      1.9251286e+08  2.0862824     -6840259.8     -6840259.8      1151.9349     -6839107.8     -1970.7785     -1978.1947     -1968.9276     -1.441953      -7.7825656     -23.265646      11857.545    
    131000   386.06157      0.0655         0.19858822     0.19910523     0.19830287    -1960.6755      577.68412      577.68412      577.68412      1.9278414e+08  2.0833468     -6833066.5     -6833066.5      1149.6254     -6831916.8     -1959.9133     -1965.0159     -1957.0972      0.79392898    -7.4110087     -19.902929      11829.356    
    132000   385.10835      0.066          0.19769062     0.19716642     0.19694496    -1946.8773      577.95521      577.95521      577.95521      1.9305566e+08  2.0804166     -6825920.2     -6825920.2      1146.7869     -6824773.4     -1951.0548     -1945.8813     -1943.6957      1.5376152     -8.8095022     -16.607818      11817.435    
    133000   383.84251      0.0665         0.19652206     0.19523236     0.19569703    -1932.565       578.2263       578.2263       578.2263       1.9332745e+08  2.0774919     -6818826.6     -6818826.6      1143.0174     -6817683.6     -1939.5219     -1926.7936     -1931.3795      0.94694049    -11.621142     -15.550781      11841.828    
    134000   382.33164      0.067          0.194992       0.19377214     0.19453847    -1918.9164      578.49738      578.49738      578.49738      1.9359948e+08  2.0745727     -6811770.4     -6811770.4      1138.5183     -6810631.9     -1924.4214     -1912.3823     -1919.9454     -0.47085751    -13.546951     -17.688544      11909.032    
    135000   380.75528      0.0675         0.19344303     0.19270902     0.19332846    -1906.3426      578.76847      578.76847      578.76847      1.9387177e+08  2.071659      -6804748.3     -6804748.3      1133.8242     -6803614.5     -1909.1343     -1901.8901     -1908.0035     -1.2120143     -13.706456     -21.596801      11871.714    
    136000   379.45089      0.068          0.19210774     0.19176236     0.19194708    -1894.2912      579.03955      579.03955      579.03955      1.9414432e+08  2.0687507     -6797762.5     -6797762.5      1129.94       -6796632.6     -1895.956      -1892.5474     -1894.3704     -1.4049575     -13.404047     -25.125913      11837.912    
    137000   378.31197      0.0685         0.19103547     0.19109263     0.1905227     -1883.8747      579.31064      579.31064      579.31064      1.9441712e+08  2.0658479     -6790809.7     -6790809.7      1126.5485     -6789683.2     -1885.3735     -1885.9376     -1880.3129     -1.3312037     -12.6178       -25.626976      11807.989    
    138000   377.24099      0.069          0.18998137     0.19043853     0.18923301    -1874.0123      579.58172      579.58172      579.58172      1.9469018e+08  2.0629505     -6783887.5     -6783887.5      1123.3592     -6782764.1     -1874.9703     -1879.4821     -1867.5846      0.15557198    -9.7287227     -22.906861      11854.778    
    139000   375.96483      0.0695         0.18863065     0.18944663     0.1880886     -1862.5409      579.85281      579.85281      579.85281      1.9496349e+08  2.0600585     -6776999.1     -6776999.1      1119.5591     -6775879.6     -1861.6398     -1869.6929     -1856.2902      1.5944315     -6.9984896     -19.744633      11855.116    
    140000   374.30499      0.07           0.18715677     0.18803391     0.18712435    -1849.8726      580.1239       580.1239       580.1239       1.9523706e+08  2.0571719     -6770148.4     -6770148.4      1114.6163     -6769033.8     -1847.0937     -1855.7504     -1846.7738      1.7022024     -6.2668504     -17.962733      11918.925    
    141000   372.54814      0.0705         0.18607788     0.18675545     0.18643646    -1839.8545      580.39498      580.39498      580.39498      1.9551089e+08  2.0542908     -6763325       -6763325        1109.3847     -6762215.6     -1836.4459     -1843.133      -1839.9848      0.82131901    -7.6815844     -18.554751      11845.989    
    142000   371.09817      0.071          0.18512451     0.18554156     0.18567365    -1830.2154      580.66607      580.66607      580.66607      1.9578497e+08  2.0514149     -6756527.1     -6756527.1      1105.067      -6755422.1     -1827.0369     -1831.1528     -1832.4565     -1.2419761     -10.431679     -20.703037      11821.761    
    143000   370.24606      0.0715         0.18414576     0.18405648     0.18473833    -1819.033       580.93715      580.93715      580.93715      1.9605931e+08  2.0485445     -6749764.1     -6749764.1      1102.5295     -6748661.6     -1817.3773     -1816.4962     -1823.2255     -1.1768315     -13.730397     -20.905784      11834.02     
    144000   369.36656      0.072          0.18339014     0.18272649     0.18373575    -1808.8737      581.20824      581.20824      581.20824      1.963339e+08   2.0456794     -6743035.3     -6743035.3      1099.9106     -6741935.4     -1809.92       -1803.3703     -1813.3309      0.91353701    -15.800941     -18.593444      11835.546    
    145000   367.88864      0.0725         0.18253836     0.18150024     0.18257451    -1798.2173      581.47933      581.47933      581.47933      1.9660875e+08  2.0428196     -6736333.5     -6736333.5      1095.5095     -6735238       -1801.5135     -1791.2681     -1801.8703      2.8368016     -15.42832      -16.517085      11836.473    
    146000   366.81815      0.073          0.18122434     0.18036221     0.18118328    -1785.5739      581.75041      581.75041      581.75041      1.9688385e+08  2.0399652     -6729666.1     -6729666.1      1092.3218     -6728573.7     -1788.5452     -1780.0366     -1788.14        2.659556      -13.078582     -14.897882      11838.57     
    147000   366.47893      0.0735         0.17996675     0.17970803     0.17995596    -1775.2471      582.0215       582.0215       582.0215       1.9715921e+08  2.0371161     -6723038.6     -6723038.6      1091.3117     -6721947.3     -1776.1337     -1773.5803     -1776.0272     -0.3995836     -11.096374     -15.230327      11905.733    
    148000   365.5918       0.074          0.17901001     0.17923058     0.17920314    -1768.0524      582.29258      582.29258      582.29258      1.9743483e+08  2.0342723     -6716433.7     -6716433.7      1088.67       -6715345.1     -1766.6915     -1768.8683     -1768.5975     -2.4531898     -9.722727      -16.605557      11830.317    
    149000   364.15472      0.0745         0.1780329      0.17851244     0.17859089    -1760.4613      582.56367      582.56367      582.56367      1.9771071e+08  2.0314338     -6709847       -6709847        1084.3906     -6708762.6     -1757.0481     -1761.7808     -1762.555      -1.3131522     -9.1415026     -17.168419      11837.385    
    150000   363.00958      0.075          0.17683505     0.17746629     0.17772464    -1750.2294      582.83476      582.83476      582.83476      1.9798684e+08  2.0286005     -6703287.3     -6703287.3      1080.9805     -6702206.3     -1745.2262     -1751.4561     -1754.0058      0.50074889    -8.1721386     -17.937645      11515.567    
    151000   361.95647      0.0755         0.17569118     0.17632177     0.17660302    -1739.0113      583.10584      583.10584      583.10584      1.9826323e+08  2.0257725     -6696757.1     -6696757.1      1077.8446     -6695679.2     -1733.9371     -1740.1605     -1742.9363      1.7305523     -8.0640359     -19.515299      11849.33     
    152000   360.90821      0.076          0.17466469     0.17524384     0.17532718    -1727.8912      583.37693      583.37693      583.37693      1.9853988e+08  2.0229498     -6690254.9     -6690254.9      1074.723      -6689180.2     -1723.8065     -1729.5223     -1730.3447      2.9635113     -7.8165745     -20.233042      11846.527    
    153000   359.90258      0.0765         0.17384035     0.17434134     0.1745635     -1719.698       583.64801      583.64801      583.64801      1.9881678e+08  2.0201324     -6683778.7     -6683778.7      1071.7284     -6682707       -1715.6709     -1720.6152     -1722.8078      2.8184018     -9.0522379     -19.472123      11908.319    
    154000   358.44108      0.077          0.17329084     0.17354883     0.17401081    -1713.4649      583.9191       583.9191       583.9191       1.9909394e+08  2.0173201     -6677330       -6677330        1067.3763     -6676262.6     -1710.2477     -1712.7938     -1717.3531      1.7249356     -13.446407     -17.246201      11824.218    
    155000   357.02042      0.0775         0.17289008     0.17260718     0.17301553    -1705.7744      584.19019      584.19019      584.19019      1.9937136e+08  2.0145131     -6670905.7     -6670905.7      1063.1459     -6669842.6     -1706.2924     -1703.5004     -1707.5305      1.4850413     -16.298576     -13.334911      11826.273    
    156000   356.18449      0.078          0.17243445     0.17165248     0.17198042    -1697.7296      584.46127      584.46127      584.46127      1.9964904e+08  2.0117112     -6664505.1     -6664505.1      1060.6566     -6663444.4     -1701.7957     -1694.0782     -1697.3148      1.929341      -15.618967     -10.696004      11833.807    
    157000   355.61926      0.0785         0.17132928     0.17072956     0.17120042    -1688.4917      584.73236      584.73236      584.73236      1.9992697e+08  2.0089146     -6658125.9     -6658125.9      1058.9734     -6657067       -1690.8886     -1684.9698     -1689.6167      1.4272484     -12.625275     -12.651601      11829.142    
    158000   354.91889      0.079          0.16982449     0.1699691      0.17048917    -1678.6998      585.00344      585.00344      585.00344      2.0020516e+08  2.0061232     -6651767.7     -6651767.7      1056.8878     -6650710.8     -1676.0374     -1677.4646     -1682.5973      0.91435136    -8.2023295     -17.511793      11869.911    
    159000   353.99299      0.0795         0.16862517     0.16930645     0.16952868    -1669.4146      585.27453      585.27453      585.27453      2.0048361e+08  2.0033369     -6645427.8     -6645427.8      1054.1307     -6644373.7     -1664.201      -1670.9248     -1673.118       1.3566074     -3.9523198     -22.797685      11865.209    
    160000   353.18559      0.08           0.16787215     0.1685594      0.16842477    -1660.8482      585.54562      585.54562      585.54562      2.0076232e+08  2.0005558     -6639113.2     -6639113.2      1051.7264     -6638061.4     -1656.7693     -1663.552      -1662.2232      2.2649189     -3.5835482     -24.112722      11855.121    
    161000   352.75335      0.0805         0.16720058     0.16772412     0.16751781    -1652.9073      585.8167       585.8167       585.8167       2.0104128e+08  1.9977798     -6632836.2     -6632836.2      1050.4392     -6631785.8     -1650.1414     -1655.3084     -1653.2722      2.6979141     -6.5016868     -19.677596      11840.044    
    162000   352.17788      0.081          0.16650275     0.16696622     0.1669857     -1646.3679      586.08779      586.08779      586.08779      2.0132051e+08  1.9950089     -6626588.8     -6626588.8      1048.7256     -6625540.1     -1643.2544     -1647.8285     -1648.0207      2.4538629     -9.7745759     -14.195663      11861.63     
    163000   351.18169      0.0815         0.16598259     0.16620793     0.16649568    -1640.55        586.35887      586.35887      586.35887      2.0159999e+08  1.9922432     -6620354.8     -6620354.8      1045.7591     -6619309.1     -1638.1208     -1640.3447     -1643.1846      1.1641469     -11.881471     -13.210831      11829.945    
    164000   350.19339      0.082          0.16564001     0.16542543     0.16587394    -1634.8035      586.62996      586.62996      586.62996      2.0187973e+08  1.9894826     -6614129.9     -6614129.9      1042.8161     -6613087.1     -1634.7398     -1632.6221     -1637.0485     -0.24030222    -12.018652     -15.356575      11808.244    
    165000   349.34531      0.0825         0.16523656     0.16477585     0.16528669    -1629.4074      586.90105      586.90105      586.90105      2.0215973e+08  1.9867271     -6607914.4     -6607914.4      1040.2907     -6606874.1     -1630.758      -1626.2112     -1631.2528     -0.094870734   -11.18399      -16.592929      11763.807    
    166000   348.30846      0.083          0.16423886     0.16417338     0.16459542    -1621.8691      587.17213      587.17213      587.17213      2.0243999e+08  1.9839766     -6601709.3     -6601709.3      1037.2031     -6600672       -1620.9116     -1620.2653     -1624.4305      2.1577975     -9.4710049     -15.66107       11732.715    
    167000   347.5477       0.0835         0.16284749     0.1634572      0.16365726    -1611.8495      587.44322      587.44322      587.44322      2.0272051e+08  1.9812313     -6595528.7     -6595528.7      1034.9377     -6594493.7     -1607.1798     -1613.1972     -1615.1715      3.7743113     -6.6885918     -13.716289      11822.719    
    168000   347.28891      0.084          0.16185975     0.16275731     0.16240329    -1602.1724      587.7143       587.7143       587.7143       2.0300128e+08  1.978491      -6589388.1     -6589388.1      1034.1671     -6588353.9     -1597.4315     -1606.2898     -1602.7958      3.6182692     -5.1143925     -12.47443       11763.607    
    169000   346.75704      0.0845         0.16161324     0.16226676     0.16130378    -1596.1305      587.98539      587.98539      587.98539      2.0328232e+08  1.9757558     -6583277       -6583277        1032.5833     -6582244.5     -1594.9986     -1601.4484     -1591.9446      2.7397371     -5.737451      -14.340737      11811.816    
    170000   345.77058      0.085          0.16137893     0.16149091     0.16069983    -1590.8205      588.25647      588.25647      588.25647      2.0356361e+08  1.9730256     -6577176.1     -6577176.1      1029.6458     -6576146.5     -1592.6862     -1593.7913     -1585.984       2.9680205     -7.2901568     -17.298856      11842.388    
    171000   345.0905       0.0855         0.16056825     0.16026086     0.16036502    -1583.0056      588.52756      588.52756      588.52756      2.0384517e+08  1.9703004     -6571091.3     -6571091.3      1027.6206     -6570063.7     -1584.6854     -1581.6517     -1582.6797      2.0491589     -8.8934311     -16.99737       11836.205    
    172000   344.75127      0.086          0.1594039      0.15920577     0.16025757    -1575.3507      588.79865      588.79865      588.79865      2.0412698e+08  1.9675802     -6565026.2     -6565026.2      1026.6104     -6563999.6     -1573.1942     -1571.2388     -1581.6193     -1.0898213     -9.5092902     -16.226619      11867.084    
    173000   343.79516      0.0865         0.15854956     0.1588271      0.16001283    -1570.4893      589.06973      589.06973      589.06973      2.0440905e+08  1.9648651     -6558974.2     -6558974.2      1023.7633     -6557950.4     -1564.7625     -1567.5016     -1579.2038     -1.8522058     -9.2096092     -17.052125      11809.2      
    174000   343.13544      0.087          0.15817057     0.15852419     0.1589938     -1564.8937      589.34082      589.34082      589.34082      2.0469139e+08  1.9621549     -6552936.3     -6552936.3      1021.7988     -6551914.5     -1561.0221     -1564.5122     -1569.1468      1.0179803     -10.320509     -15.990047      11138.272    
    175000   343.38392      0.0875         0.15793786     0.15799181     0.15795404    -1558.9562      589.6119       589.6119       589.6119       2.0497398e+08  1.9594497     -6546926       -6546926        1022.5387     -6545903.5     -1558.7255     -1559.258      -1558.8851      3.3634884     -11.504082     -12.772936      11787.471    
    176000   343.3641       0.088          0.15747179     0.15742654     0.15730003    -1553.4118      589.88299      589.88299      589.88299      2.0525683e+08  1.9567495     -6540933.4     -6540933.4      1022.4797     -6539910.9     -1554.1257     -1553.6792     -1552.4306      3.7974842     -8.5340652     -10.863166      11817.467    
    177000   342.89063      0.0885         0.15682494     0.15690371     0.15669479    -1547.5728      590.15408      590.15408      590.15408      2.0553994e+08  1.9540543     -6534945.5     -6534945.5      1021.0697     -6533924.4     -1547.7418     -1548.5192     -1546.4574      3.9303693     -1.8272352     -11.452261      11808.854    
    178000   342.37949      0.089          0.15628353     0.1562841      0.15615781    -1541.9868      590.42516      590.42516      590.42516      2.0582332e+08  1.951364      -6528963.2     -6528963.2      1019.5476     -6527943.7     -1542.3985     -1542.4042     -1541.1578      3.6890745      1.8453905     -12.672503      11835        
    179000   341.71338      0.0895         0.15559837     0.15563114     0.15573983    -1536.2097      590.69625      590.69625      590.69625      2.0610695e+08  1.9486786     -6522996.6     -6522996.6      1017.5641     -6521979.1     -1535.6365     -1535.9599     -1537.0326      3.2594815      1.6024276     -13.36717       11891.764    
    180000   341.00328      0.09           0.15456465     0.15494701     0.1549197     -1527.8604      590.96733      590.96733      590.96733      2.0639084e+08  1.9459982     -6517064.9     -6517064.9      1015.4495     -6516049.5     -1525.4345     -1529.2081     -1528.9386      3.5429464     -1.619818      -13.139111      11630.35     
    181000   340.31359      0.0905         0.15355056     0.15422794     0.15384218    -1518.614       591.23842      591.23842      591.23842      2.06675e+08    1.9433227     -6511169.4     -6511169.4      1013.3958     -6510156       -1515.4262     -1522.1114     -1518.3043      3.4924439     -7.353317      -11.355515      11768.656    
    182000   339.60446      0.091          0.15305748     0.15363103     0.1530781     -1512.5146      591.50951      591.50951      591.50951      2.0695941e+08  1.940652      -6505294.5     -6505294.5      1011.2841     -6504283.2     -1510.5599     -1516.2204     -1510.7634      2.6462618     -12.13495      -9.4830117      11267.282    
    183000   338.88921      0.0915         0.1528867      0.15327137     0.15299441    -1510.4942      591.78059      591.78059      591.78059      2.0724409e+08  1.9379863     -6499422.7     -6499422.7      1009.1542     -6498413.6     -1508.8744     -1512.6708     -1509.9375      2.0542533     -12.662287     -8.99233        11782.465    
    184000   338.66296      0.092          0.15263552     0.1528137      0.15319911    -1508.8357      592.05168      592.05168      592.05168      2.0752903e+08  1.9353255     -6493543       -6493543        1008.4805     -6492534.6     -1506.3954     -1508.154      -1511.9577      2.6920456     -9.5205315     -9.1345459      11808.104    
    185000   339.22207      0.0925         0.15223944     0.15214975     0.15310452    -1505.0373      592.32276      592.32276      592.32276      2.0781422e+08  1.9326695     -6487668.9     -6487668.9      1010.1454     -6486658.7     -1502.4865     -1501.6013     -1511.0242      3.1894375     -7.0650226     -9.9794222      11771.41     
    186000   339.9658       0.093          0.1518556      0.15146774     0.15243931    -1499.3425      592.59385      592.59385      592.59385      2.0809968e+08  1.9300184     -6481814.2     -6481814.2      1012.3601     -6480801.9     -1498.6982     -1494.8704     -1504.459       2.5640778     -4.6878039     -11.290018      11836.575    
    187000   340.0295       0.0935         0.15138986     0.15090214     0.15145736    -1492.7194      592.86494      592.86494      592.86494      2.083854e+08   1.9273721     -6475979.6     -6475979.6      1012.5498     -6474967.1     -1494.1018     -1489.2884     -1494.768       1.865201      -1.275695      -12.186934      11776.623    
    188000   339.24474      0.094          0.15091638     0.15046384     0.15052223    -1486.6435      593.13602      593.13602      593.13602      2.0867139e+08  1.9247306     -6470160.5     -6470160.5      1010.2129     -6469150.3     -1489.4289     -1484.9627     -1485.5389      1.3071381      0.32580876    -12.343815      11782.782    
    189000   337.86754      0.0945         0.15041478     0.15017571     0.14970608    -1481.3605      593.40711      593.40711      593.40711      2.0895763e+08  1.922094      -6464356.1     -6464356.1      1006.1118     -6463350       -1484.4785     -1482.119      -1477.4841      0.60569198    -1.937255      -11.932168      11794.812    
    190000   336.68099      0.095          0.14952673     0.14959021     0.14897495    -1474.1077      593.67819      593.67819      593.67819      2.0924413e+08  1.9194622     -6458571.1     -6458571.1      1002.5785     -6457568.6     -1475.714      -1476.3405     -1470.2685      1.0752536     -5.5548352     -11.714186      11786.624    
    191000   336.00651      0.0955         0.14845247     0.14894767     0.14867076    -1467.4592      593.94928      593.94928      593.94928      2.095309e+08   1.9168352     -6452809.4     -6452809.4      1000.57       -6451808.8     -1465.112      -1469.9992     -1467.2663      3.3374495     -6.9270563     -11.980168      11799.398    
    192000   335.41123      0.096          0.14776835     0.14874028     0.14876489    -1464.836       594.22037      594.22037      594.22037      2.0981793e+08  1.914213      -6447054.4     -6447054.4      998.79736     -6446055.6     -1458.3602     -1467.9524     -1468.1953      4.2804794     -5.6223064     -11.732693      11858.528    
    193000   335.26257      0.0965         0.14762683     0.14845059     0.14864086    -1463.0094      594.49145      594.49145      594.49145      2.1010522e+08  1.9115956     -6441291.6     -6441291.6      998.35468     -6440293.2     -1456.9635     -1465.0935     -1466.9713      3.7016895     -3.9911329     -8.6761444      11752.573    
    194000   335.94232      0.097          0.14778163     0.14789069     0.14812873    -1459.992       594.76254      594.76254      594.76254      2.1039277e+08  1.9089829     -6435532.9     -6435532.9      1000.3789     -6434532.5     -1458.4913     -1459.5677     -1461.9169      3.4167963     -4.4520992     -6.5085625      12194.541    
    195000   336.56095      0.0975         0.14765193     0.14732193     0.14751641    -1455.6798      595.03362      595.03362      595.03362      2.1068059e+08  1.906375      -6429796.6     -6429796.6      1002.221      -6428794.3     -1457.2113     -1453.9544     -1455.8738      2.6261389     -5.3160247     -7.046938       11828.181    
    196000   336.48082      0.098          0.14697744     0.14685418     0.14672352    -1449.3137      595.30471      595.30471      595.30471      2.1096866e+08  1.9037719     -6424079.4     -6424079.4      1001.9824     -6423077.4     -1450.5545     -1449.3381     -1448.0486      1.7254033     -4.3502349     -8.3143558      11875.676    
    197000   336.00095      0.0985         0.14606912     0.14619927     0.14567269    -1440.7141      595.57579      595.57579      595.57579      2.11257e+08    1.9011735     -6418385.6     -6418385.6      1000.5535     -6417385       -1441.5901     -1442.8746     -1437.6777      1.7635691     -3.5556476     -8.8306616      12251.494    
    198000   335.18052      0.099          0.14529358     0.14567828     0.14496103    -1434.1077      595.84688      595.84688      595.84688      2.1154561e+08  1.8985798     -6412710.5     -6412710.5      998.11036     -6411712.4     -1433.9361     -1437.7328     -1430.6542      2.1872084     -5.3970824     -10.439359      12169.981    
    199000   334.37407      0.0995         0.14465769     0.14538847     0.14457603    -1429.7958      596.11797      596.11797      596.11797      2.1183447e+08  1.8959908     -6407047.8     -6407047.8      995.70887     -6406052.1     -1427.6604     -1434.8726     -1426.8545      1.6426865     -6.4732235     -11.815263      11774.382    
    200000   334.05999      0.1            0.14422078     0.14512244     0.14430968    -1426.6071      596.38905      596.38905      596.38905      2.121236e+08   1.8934065     -6401393.4     -6401393.4      994.7736      -6400398.6     -1423.3484     -1432.2472     -1424.2258      1.0569293     -5.0262312     -11.674729      11598.991    
    201000   334.04483      0.1005         0.14407197     0.14447943     0.14405322    -1423.1585      596.66014      596.66014      596.66014      2.1241299e+08  1.890827      -6395747.3     -6395747.3      994.72846     -6394752.6     -1421.8798     -1425.9011     -1421.6947      0.92605869    -2.9522337     -10.300915      11769.672    
    202000   334.07983      0.101          0.14415897     0.14360243     0.14379034    -1419.6948      596.93122      596.93122      596.93122      2.1270264e+08  1.8882521     -6390112.5     -6390112.5      994.83269     -6389117.7     -1422.7384     -1417.2458     -1419.1003      1.5566573     -1.1301852     -9.7620155      11848.43     
    203000   333.93243      0.1015         0.14407761     0.14286463     0.14336833    -1415.6117      597.20231      597.20231      597.20231      2.1299256e+08  1.8856819     -6384490.1     -6384490.1      994.39375     -6383495.7     -1421.9354     -1409.9643     -1414.9354      2.2248225     -0.55698224    -10.03114       11970.823    
    204000   333.83242      0.102          0.14344354     0.14227898     0.14268219    -1409.3419      597.4734       597.4734       597.4734       2.1328274e+08  1.8831163     -6378879.1     -6378879.1      994.09594     -6377885       -1415.6777     -1404.1844     -1408.1638      1.4204033     -2.5702609     -9.3555872      11672.488    
    205000   334.1213       0.1025         0.14263067     0.14198384     0.14200768    -1403.4779      597.74448      597.74448      597.74448      2.1357319e+08  1.8805554     -6373290.4     -6373290.4      994.95619     -6372295.4     -1407.6553     -1401.2716     -1401.5068      1.0864566     -4.1109099     -7.9161207      11411.894    
    206000   334.22663      0.103          0.14203728     0.14194931     0.14162318    -1400.1473      598.01557      598.01557      598.01557      2.1386389e+08  1.8779991     -6367715.4     -6367715.4      995.26982     -6366720.1     -1401.7989     -1400.9307     -1397.7121      1.4392178     -4.8906908     -7.6886087      11723.536    
    207000   333.68207      0.1035         0.14150868     0.14191064     0.14136539    -1397.433       598.28665      598.28665      598.28665      2.1415487e+08  1.8754475     -6362139.7     -6362139.7      993.64821     -6361146.1     -1396.5821     -1400.5491     -1395.1679      1.9261839     -4.8017248     -8.4991752      11394.969    
    208000   333.16404      0.104          0.14088612     0.14180338     0.14091364    -1393.546       598.55774      598.55774      598.55774      2.144461e+08   1.8729005     -6356567.8     -6356567.8      992.10563     -6355575.7     -1390.4379     -1399.4906     -1390.7095      3.1174847     -3.7786782     -7.941165       12198.428    
    209000   332.71398      0.1045         0.14023572     0.14149261     0.14037184    -1388.6016      598.82883      598.82883      598.82883      2.147376e+08   1.8703581     -6351010.8     -6351010.8      990.76543     -6350020       -1384.0189     -1396.4235     -1385.3624      4.2724938     -3.204842      -7.8390524      12030.961    
    210000   332.1647       0.105          0.13965786     0.14067219     0.13984803    -1382.2784      599.09991      599.09991      599.09991      2.1502936e+08  1.8678203     -6345474.9     -6345474.9      989.12976     -6344485.8     -1378.316      -1388.3266     -1380.1927      3.3845228     -3.3679759     -8.808301       11673.331    
    211000   332.02756      0.1055         0.13920657     0.13964376     0.13944504    -1376.0848      599.371        599.371        599.371        2.1532139e+08  1.8652871     -6339960.6     -6339960.6      988.72136     -6338971.9     -1373.862      -1378.1767     -1376.2155      2.7211522     -4.1939285     -9.7116083      11425.072    
    212000   332.20305      0.106          0.13901896     0.13916921     0.13913277    -1372.8791      599.64208      599.64208      599.64208      2.1561368e+08  1.8627585     -6334456.7     -6334456.7      989.24395     -6333467.5     -1372.0105     -1373.4933     -1373.1336      3.3691793     -4.9048091     -10.728262      12112.919    
    213000   332.51168      0.1065         0.13900743     0.1390754      0.13866647    -1370.9986      599.91317      599.91317      599.91317      2.1590624e+08  1.8602344     -6328955.9     -6328955.9      990.16302     -6327965.7     -1371.8967     -1372.5675     -1368.5317      3.7510392     -3.7591788     -9.929277       11680.077    
    214000   333.00475      0.107          0.13883434     0.13875828     0.13814785    -1367.6798      600.18426      600.18426      600.18426      2.1619906e+08  1.8577149     -6323466.8     -6323466.8      991.63129     -6322475.2     -1370.1884     -1369.4377     -1363.4133      1.7332333     -1.5696683     -6.6113252      12361.031    
    215000   333.04467      0.1075         0.13826814     0.13828635     0.13770011    -1362.7917      600.45534      600.45534      600.45534      2.1649214e+08  1.8551999     -6317993.8     -6317993.8      991.75015     -6317002.1     -1364.6004     -1364.7801     -1358.9944      0.58251723    -0.38227862    -4.1670801      12054.448    
    216000   332.2081       0.108          0.13747197     0.13796273     0.13742859    -1358.2146      600.72643      600.72643      600.72643      2.1678549e+08  1.8526895     -6312526.2     -6312526.2      989.25899     -6311536.9     -1356.7429     -1361.5862     -1356.3147      1.8577588     -0.44642481    -4.5891582      11584.402    
    217000   331.2503       0.1085         0.13708253     0.1375521      0.13714269    -1354.6421      600.99751      600.99751      600.99751      2.1707911e+08  1.8501836     -6307061.7     -6307061.7      986.40682     -6306075.3     -1352.8994     -1357.5337     -1353.4931      2.7110754     -0.75879452    -5.9756847      11261.675    
[...]
   2909000   319.16582      1.4545         0.0036745311   0.0036328453   0.003184652   -34.51609       1330.7608      1330.7608      1330.7608      2.3566769e+09  0.17042481    -1307781.5     -1307781.5      950.4213      -1306831       -36.264802     -35.853396     -31.430072      1.2189815      1.3308055      1.9507553      11287.577    
   2910000   319.10342      1.455          0.0036726688   0.0036245379   0.0031744698  -34.449137      1331.0319      1331.0319      1331.0319      2.3581174e+09  0.1703207     -1307178.3     -1307178.3      950.23549     -1306228       -36.246423     -35.771407     -31.329581      1.2156072      1.3212049      1.9706147      11248.58     
   2911000   319.04044      1.4555         0.003669362    0.003619017    0.0031687348  -34.40123       1331.303       1331.303       1331.303       2.3595585e+09  0.17021668    -1306575.9     -1306575.9      950.04794     -1305625.8     -36.213788     -35.716921     -31.272981      1.1943444      1.305162       1.9695737      11229.06     
   2912000   318.99604      1.456          0.0036630812   0.0036162796   0.0031669279  -34.365618      1331.5741      1331.5741      1331.5741      2.3610002e+09  0.17011274    -1305974       -1305974        949.91572     -1305024.1     -36.151801     -35.689905     -31.255148      1.1656122      1.2847992      1.9469085      11289.572    
   2913000   318.98687      1.4565         0.0036557888   0.0036172443   0.0031675324  -34.34679       1331.8452      1331.8452      1331.8452      2.3624425e+09  0.17000889    -1305372.4     -1305372.4      949.88843     -1304422.5     -36.07983      -35.699425     -31.261114      1.1429179      1.2650636      1.9260016      11394.396    
   2914000   319.02248      1.457          0.0036508973   0.0036215069   0.0031695068  -34.351216      1332.1163      1332.1163      1332.1163      2.3638853e+09  0.16990512    -1304770.8     -1304770.8      949.99448     -1303820.8     -36.031555     -35.741494     -31.2806        1.1358193      1.2483833      1.9388697      11409.395    
   2915000   319.09208      1.4575         0.003648548    0.0036249938   0.0031717669  -34.362394      1332.3874      1332.3874      1332.3874      2.3653288e+09  0.16980143    -1304168.7     -1304168.7      950.20173     -1303218.5     -36.008369     -35.775908     -31.302905      1.1399494      1.2306681      1.9820629      11382.572    
   2916000   319.17657      1.458          0.0036484989   0.0036250805   0.0031743134  -34.370895      1332.6584      1332.6584      1332.6584      2.3667728e+09  0.16969783    -1303566.3     -1303566.3      950.45331     -1302615.9     -36.007885     -35.776763     -31.328037      1.1465363      1.217887       2.0219533      11399.622    
   2917000   319.26524      1.4585         0.0036490482   0.0036214005   0.0031774605  -34.370949      1332.9295      1332.9295      1332.9295      2.3682174e+09  0.16959431    -1302963.8     -1302963.8      950.71736     -1302013       -36.013306     -35.740444     -31.359097      1.1491699      1.2138433      2.0298848      11376.653    
   2918000   319.35134      1.459          0.0036474494   0.0036165124   0.0031810802  -34.361517      1333.2006      1333.2006      1333.2006      2.3696626e+09  0.16949088    -1302361       -1302361        950.97377     -1301410.1     -35.997527     -35.692203     -31.394821      1.1476997      1.2172775      2.0044859      11309.883    
   2919000   319.42901      1.4595         0.0036446107   0.0036136277   0.0031834857  -34.350602      1333.4717      1333.4717      1333.4717      2.3711084e+09  0.16938753    -1301758.5     -1301758.5      951.20506     -1300807.3     -35.969511     -35.663733     -31.418561      1.1406091      1.2344988      1.9491293      11199.77     
   2920000   319.48168      1.46           0.0036436977   0.0036127711   0.0031838568  -34.346001      1333.7428      1333.7428      1333.7428      2.3725548e+09  0.16928427    -1301156       -1301156        951.36188     -1300204.6     -35.960501     -35.655279     -31.422223      1.1348122      1.2445493      1.8853766      11145.173    
   2921000   319.49037      1.4605         0.0036443182   0.0036107058   0.0031807763  -34.331114      1334.0139      1334.0139      1334.0139      2.3740018e+09  0.16918109    -1300553.3     -1300553.3      951.38777     -1299601.9     -35.966624     -35.634895     -31.391821      1.125838       1.2427827      1.8449043      11159.214    
   2922000   319.44942      1.461          0.0036443271   0.0036059637   0.0031739815  -34.29319       1334.285       1334.285       1334.285       2.3754493e+09  0.16907799    -1299950.7     -1299950.7      951.26582     -1298999.4     -35.966712     -35.588095     -31.324761      1.1176375      1.2413309      1.8342652      11154.154    
   2923000   319.36956      1.4615         0.0036413461   0.0035982809   0.0031659913  -34.231823      1334.556       1334.556       1334.556       2.3768975e+09  0.16897498    -1299348.9     -1299348.9      951.028       -1298397.9     -35.937292     -35.512271     -31.245905      1.115694       1.2394973      1.8319581      11127.233    
   2924000   319.28445      1.462          0.0036344425   0.0035903461   0.0031610925  -34.166892      1334.8271      1334.8271      1334.8271      2.3783462e+09  0.16887205    -1298748.2     -1298748.2      950.77458     -1297797.5     -35.869159     -35.433961     -31.197557      1.1094327      1.2403135      1.8147404      11155.183    
   2925000   319.22605      1.4625         0.0036271319   0.0035851694   0.0031592469  -34.119741      1335.0982      1335.0982      1335.0982      2.3797956e+09  0.16876921    -1298148.1     -1298148.1      950.60067     -1297197.5     -35.797009     -35.382871     -31.179343      1.0942345      1.250442       1.7799625      11200.607    
   2926000   319.20039      1.463          0.0036215782   0.00358135     0.0031558724  -34.077805      1335.3693      1335.3693      1335.3693      2.3812455e+09  0.16866644    -1297548.5     -1297548.5      950.52425     -1296598       -35.742198     -35.345176     -31.146039      1.0891016      1.263548       1.7448089      11171.572    
   2927000   319.192        1.4635         0.0036174036   0.0035789124   0.0031490491  -34.033605      1335.6404      1335.6404      1335.6404      2.382696e+09   0.16856377    -1296949.6     -1296949.6      950.49926     -1295999.1     -35.700998     -35.321119     -31.078698      1.1105493      1.2778965      1.7290756      11188.074    
   2928000   319.17675      1.464          0.0036139159   0.003579236    0.0031414051  -33.998049      1335.9115      1335.9115      1335.9115      2.3841471e+09  0.16846117    -1296351.3     -1296351.3      950.45385     -1295400.8     -35.666577     -35.324313     -31.003257      1.1497961      1.3019998      1.7310042      11153.111    
   2929000   319.15238      1.4645         0.003612362    0.0035805588   0.0031356683  -33.978416      1336.1826      1336.1826      1336.1826      2.3855988e+09  0.16835866    -1295753       -1295753        950.38128     -1294802.6     -35.651241     -35.337368     -30.94664       1.1728248      1.3359722      1.7364778      11166.386    
   2930000   319.14256      1.465          0.0036120757   0.0035796208   0.0031324442  -33.963782      1336.4536      1336.4536      1336.4536      2.387051e+09   0.16825623    -1295154.9     -1295154.9      950.35203     -1294204.5     -35.648416     -35.32811      -30.914821      1.1525659      1.3685561      1.7364184      11223.067    
   2931000   319.16137      1.4655         0.0036100889   0.0035749697   0.0031319886  -33.940446      1336.7247      1336.7247      1336.7247      2.3885039e+09  0.16815388    -1294556.9     -1294556.9      950.40806     -1293606.5     -35.628807     -35.282208     -30.910324      1.0939793      1.3852478      1.73837        11222.147    
   2932000   319.20147      1.466          0.0036038889   0.0035656068   0.0031318113  -33.888665      1336.9958      1336.9958      1336.9958      2.3899573e+09  0.16805162    -1293959.3     -1293959.3      950.52748     -1293008.8     -35.567618     -35.189803     -30.908575      1.0243596      1.3787259      1.7422508      11133.889    
   2933000   319.2445       1.4665         0.0035951603   0.003555648    0.0031305598  -33.823071      1337.2669      1337.2669      1337.2669      2.3914114e+09  0.16794944    -1293363       -1293363        950.6556      -1292412.4     -35.481473     -35.091518     -30.896223      0.97656637     1.3705799      1.7477019      11051.209    
   2934000   319.26351      1.467          0.0035896221   0.0035507977   0.0031298758  -33.786646      1337.538       1337.538       1337.538       2.392866e+09   0.16784735    -1292767.7     -1292767.7      950.7122      -1291817       -35.426816     -35.043649     -30.889472      0.96929751     1.3796327      1.7537261      10973.737    
   2935000   319.25014      1.4675         0.0035883599   0.0035512212   0.0031287441  -33.780164      1337.8091      1337.8091      1337.8091      2.3943212e+09  0.16774533    -1292172.4     -1292172.4      950.67241     -1291221.7     -35.414359     -35.047829     -30.878304      0.99737358     1.3865204      1.7563893      10891.849    
   2936000   319.21919      1.468          0.00359023     0.0035534593   0.0031256282  -33.783428      1338.0802      1338.0802      1338.0802      2.395777e+09   0.1676434     -1291576.6     -1291576.6      950.58025     -1290626       -35.432815     -35.069917     -30.847552      1.032919       1.3676346      1.7699578      10823.742    
   2937000   319.17618      1.4685         0.0035900128   0.0035531996   0.0031196907  -33.762326      1338.3513      1338.3513      1338.3513      2.3972334e+09  0.16754155    -1290980.4     -1290980.4      950.45216     -1290030       -35.430672     -35.067354     -30.788954      1.0570557      1.3354382      1.8042514      10770.112    
   2938000   319.10883      1.469          0.0035834888   0.0035491025   0.0031120972  -33.702405      1338.6223      1338.6223      1338.6223      2.3986904e+09  0.16743978    -1290384.5     -1290384.5      950.2516      -1289434.3     -35.366285     -35.026919     -30.714011      1.0651672      1.3211365      1.8350067      10777.031    
   2939000   319.01124      1.4695         0.0035718011   0.0035434456   0.0031035891  -33.617356      1338.8934      1338.8934      1338.8934      2.400148e+09   0.1673381     -1289789.8     -1289789.8      949.961       -1288839.8     -35.250936     -34.971089     -30.630043      1.0699944      1.3481506      1.8330322      10802.27     
   2940000   318.90406      1.47           0.0035616513   0.0035391097   0.0030959024  -33.544414      1339.1645      1339.1645      1339.1645      2.4016062e+09  0.1672365     -1289196.3     -1289196.3      949.64182     -1288246.7     -35.150765     -34.928297     -30.554181      1.0683495      1.405351       1.7948271      10852.196    
   2941000   318.82185      1.4705         0.0035566745   0.0035340713   0.0030907099  -33.494385      1339.4356      1339.4356      1339.4356      2.4030649e+09  0.16713498    -1288603.8     -1288603.8      949.39702     -1287654.4     -35.101648     -34.878572     -30.502935      1.0424365      1.4464545      1.7566025      10877.915    
   2942000   318.78665      1.471          0.0035572839   0.003529133    0.0030894059  -33.475854      1339.7067      1339.7067      1339.7067      2.4045243e+09  0.16703354    -1288011.4     -1288011.4      949.2922      -1287062.2     -35.107663     -34.829835     -30.490065      0.99550926     1.44489        1.7530617      10960.27     
   2943000   318.79702      1.4715         0.0035598351   0.0035268718   0.0030932342  -33.489402      1339.9778      1339.9778      1339.9778      2.4059842e+09  0.16693219    -1287418.8     -1287418.8      949.32308     -1286469.5     -35.132841     -34.807518     -30.527848      0.96441595     1.433169       1.782004       11004.416    
   2944000   318.83536      1.472          0.0035600252   0.0035272825   0.0031000242  -33.513716      1340.2489      1340.2489      1340.2489      2.4074448e+09  0.16683091    -1286825.5     -1286825.5      949.43725     -1285876.1     -35.134717     -34.811572     -30.59486       0.98090445     1.4487823      1.8108276      10996.995    
   2945000   318.88056      1.4725         0.0035569477   0.0035287867   0.0031053981  -33.526219      1340.5199      1340.5199      1340.5199      2.4089059e+09  0.16672972    -1286231.4     -1286231.4      949.57185     -1285281.8     -35.104345     -34.826417     -30.647896      1.0266899      1.4855197      1.8020853      10973.229    
   2946000   318.91902      1.473          0.003550105    0.0035297113   0.0031046377  -33.504248      1340.791       1340.791       1340.791       2.4103676e+09  0.16662861    -1285637.1     -1285637.1      949.68638     -1284687.4     -35.036812     -34.835542     -30.640392      1.0679224      1.5184768      1.7532175      10937.655    
   2947000   318.94167      1.4735         0.003542312    0.0035290219   0.00309879    -33.457107      1341.0621      1341.0621      1341.0621      2.4118299e+09  0.16652758    -1285043.4     -1285043.4      949.75384     -1284093.6     -34.959901     -34.828738     -30.58268       1.0802387      1.5177305      1.6936799      10957.898    
   2948000   318.94028      1.474          0.0035336085   0.0035272252   0.0030910137  -33.396981      1341.3332      1341.3332      1341.3332      2.4132928e+09  0.16642664    -1284450.4     -1284450.4      949.74968     -1283500.7     -34.874004     -34.811006     -30.505934      1.0667131      1.4811325      1.654402       10926.428    
   2949000   318.91807      1.4745         0.0035230529   0.0035233599   0.0030823894  -33.321168      1341.6043      1341.6043      1341.6043      2.4147563e+09  0.16632577    -1283858.4     -1283858.4      949.68355     -1282908.7     -34.769828     -34.772859     -30.420818      1.0558151      1.4396957      1.6591482      10961.406    
   2950000   318.89093      1.475          0.0035107638   0.0035167824   0.0030727997  -33.227555      1341.8754      1341.8754      1341.8754      2.4162204e+09  0.16622499    -1283268       -1283268        949.60274     -1282318.4     -34.648545     -34.707944     -30.326175      1.0712812      1.4182068      1.7067083      10780.19     
   2951000   318.87119      1.4755         0.0035001119   0.0035087997   0.0030632974  -33.134991      1342.1465      1342.1465      1342.1465      2.4176851e+09  0.16612429    -1282679.1     -1282679.1      949.54394     -1281729.6     -34.543419     -34.629161     -30.232395      1.1212068      1.4142396      1.7777661      10938.034    
   2952000   318.8719       1.476          0.0034942557   0.0035013789   0.0030564017  -33.068628      1342.4175      1342.4175      1342.4175      2.4191503e+09  0.16602367    -1282091.8     -1282091.8      949.54608     -1281142.2     -34.485622     -34.555923     -30.164339      1.1891243      1.4120557      1.8450808      10908.175    
   2953000   318.8898       1.4765         0.0034943112   0.0034984627   0.0030547137  -33.053664      1342.6886      1342.6886      1342.6886      2.4206162e+09  0.16592313    -1281505.2     -1281505.2      949.59937     -1280555.6     -34.48617      -34.527142     -30.14768       1.2319944      1.4026054      1.8900506      10961.723    
   2954000   318.91007      1.477          0.0034980222   0.0035006537   0.0030568698  -33.080174      1342.9597      1342.9597      1342.9597      2.4220826e+09  0.16582267    -1280918.2     -1280918.2      949.65974     -1279968.6     -34.522795     -34.548766     -30.168959      1.2326011      1.389556       1.8958452      11104.388    
   2955000   318.93233      1.4775         0.0035025147   0.0035039242   0.0030606702  -33.118214      1343.2308      1343.2308      1343.2308      2.4235497e+09  0.16572229    -1280330       -1280330        949.72602     -1279380.3     -34.567133     -34.581044     -30.206466      1.2090033      1.3773449      1.8731449      11538.625    
   2956000   318.96582      1.478          0.0035062354   0.0035016156   0.0030623068  -33.128244      1343.5019      1343.5019      1343.5019      2.4250173e+09  0.165622      -1279740.8     -1279740.8      949.82574     -1278791       -34.603853     -34.55826      -30.222618      1.1845502      1.3666371      1.8378959      11113.206    
   2957000   319.01062      1.4785         0.0035058226   0.0034908557   0.0030581667  -33.077868      1343.773       1343.773       1343.773       2.4264855e+09  0.16552178    -1279151.8     -1279151.8      949.95915     -1278201.8     -34.599779     -34.452067     -30.181759      1.15882        1.3515371      1.7979172      11337.192    
   2958000   319.04491      1.479          0.0035011767   0.0034761797   0.0030500561  -32.987623      1344.0441      1344.0441      1344.0441      2.4279543e+09  0.16542165    -1278564.3     -1278564.3      950.06126     -1277614.2     -34.553927     -34.307227     -30.101714      1.1284474      1.333709       1.7651474      11350.463    
   2959000   319.04119      1.4795         0.003496257    0.0034649224   0.003040867   -32.904174      1344.3151      1344.3151      1344.3151      2.4294237e+09  0.1653216     -1277978.4     -1277978.4      950.05019     -1277028.4     -34.505373     -34.196125     -30.011024      1.1010783      1.3025346      1.7594133      11306.713    
   2960000   318.99795      1.48           0.0034932492   0.0034596947   0.0030325356  -32.849673      1344.5862      1344.5862      1344.5862      2.4308937e+09  0.16522162    -1277393.6     -1277393.6      949.92142     -1276443.7     -34.475689     -34.144532     -29.928799      1.0848064      1.2631217      1.7815842      11286.563    
   2961000   318.95222      1.4805         0.0034908406   0.0034579439   0.0030260938  -32.814798      1344.8573      1344.8573      1344.8573      2.4323643e+09  0.16512173    -1276809.3     -1276809.3      949.78524     -1275859.6     -34.451919     -34.127253     -29.865224      1.0792476      1.2391642      1.8177194      11243.95     
   2962000   318.9519       1.481          0.0034871718   0.0034572399   0.0030241004  -32.793855      1345.1284      1345.1284      1345.1284      2.4338355e+09  0.16502192    -1276225.5     -1276225.5      949.78431     -1275275.7     -34.41571      -34.120305     -29.84555       1.0779509      1.2368335      1.845299       11180.115    
   2963000   319.00781      1.4815         0.0034844629   0.0034576652   0.0030285936  -32.801124      1345.3995      1345.3995      1345.3995      2.4353073e+09  0.16492219    -1275641.7     -1275641.7      949.95077     -1274691.8     -34.388975     -34.124502     -29.889895      1.0795711      1.2487291      1.8511055      11102.342    
   2964000   319.09503      1.482          0.0034829552   0.0034563088   0.003036536   -32.81783       1345.6706      1345.6706      1345.6706      2.4367797e+09  0.16482254    -1275057.6     -1275057.6      950.2105      -1274107.4     -34.374096     -34.111116     -29.96828       1.0812838      1.2627528      1.8330004      11031.057    
   2965000   319.17773      1.4825         0.0034814753   0.0034511513   0.0030419436  -32.813785      1345.9417      1345.9417      1345.9417      2.4382527e+09  0.16472297    -1274473.1     -1274473.1      950.45678     -1273522.7     -34.35949      -34.060215     -30.021649      1.0790362      1.2864144      1.7973555      11080.774    
   2966000   319.23782      1.483          0.0034778861   0.0034438826   0.0030413516  -32.776117      1346.2127      1346.2127      1346.2127      2.4397262e+09  0.16462348    -1273889       -1273889        950.63571     -1272938.3     -34.324067     -33.988479     -30.015806      1.0790128      1.3172235      1.758494       11084.603    
ERROR on proc 0: Pair distance > table outer cutoff: ijtype 2 1 dist 308.00008161305755 (src/pair_table_pgn.cpp:138)
Last command: run				${steps_tensile}
