LAMMPS (23 Jun 2022 - Update 1)
OMP_NUM_THREADS environment is not set. Defaulting to 1 thread. (src/comm.cpp:98)
  using 1 OpenMP thread(s) per MPI task
###

# Read restart info
read_restart ${read_res}
read_restart ./trial8/8020/equpmf70.res
Reading restart file ...
  restart file = 23 Jun 2022, LAMMPS = 23 Jun 2022
  restoring atom style atomic from restart
  orthogonal box = (1711.3754 1711.3754 1711.3754) to (2288.6246 2288.6246 2288.6246)
  1 by 2 by 2 MPI processor grid
  restoring pair style table from restart
  1000 atoms
  read_restart CPU = 0.035 seconds

# Settings
pair_style table/pgn spline 10941
pair_coeff 1 1 N20e.txt DE_GNP 308 72.9   # 1.35 * r
pair_coeff 2 2 N100e.txt DE_GNP 473.9 111.78
WARNING: 20 of 10941 force values in table DE_GNP are inconsistent with -dE/dr.
WARNING:  Should only be flagged at inflection points (src/pair_table_pgn.cpp:478)
pair_coeff 1 2 mixed_potentiale.txt DE_GNP 391.2 92.95
WARNING: 1564 of 10941 force values in table DE_GNP are inconsistent with -dE/dr.
WARNING:  Should only be flagged at inflection points (src/pair_table_pgn.cpp:478)

# Neighbor list
neighbor 2.0 bin
neigh_modify delay 0 every 1 check no once yes

# Temperature
variable T equal ${Temp}
variable T equal 300

# Deformation
reset_timestep 0
variable tmp equal "lx"
variable L0 equal ${tmp}
variable L0 equal 577.249160261063
variable strain equal "(lx - v_L0)/v_L0"
variable stp equal "step"
variable tmpe equal "temp"
variable p1 equal "v_strain"
variable p2 equal "-pxx*1.01325/10000"
variable p3 equal "-pyy*1.01325/10000"
variable p4 equal "-pzz*1.01325/10000"
variable p5 equal "lx"
variable p6 equal "ly"
variable p7 equal "lz"
variable p8 equal "press"
variable p9 equal "epair"
variable p10 equal "etotal"

# Thermo
thermo_style custom step temp v_p1 v_p2 v_p3 v_p4 press lx ly lz vol density epair pe ke etotal pxx pyy pzz pxy pxz pyz spcpu
thermo ${ts_save}
thermo 1000

# Dump
# dump 1 all custom 2000 ./${N20}${N100}/tensile/trajectory/trajectory_${usic}_${trial}_*.tensile.custom id type x y z ix iy iz
# dump_modify 1 sort id
dump 2 all cfg 50000 ./trial${trial}/${N20}${N100}/tensile/trajectory/dumpten.tens_${usic}_${trial}_*.cfg mass type xs ys zs fx fy fz
dump 2 all cfg 50000 ./trial8/${N20}${N100}/tensile/trajectory/dumpten.tens_${usic}_${trial}_*.cfg mass type xs ys zs fx fy fz
dump 2 all cfg 50000 ./trial8/80${N100}/tensile/trajectory/dumpten.tens_${usic}_${trial}_*.cfg mass type xs ys zs fx fy fz
dump 2 all cfg 50000 ./trial8/8020/tensile/trajectory/dumpten.tens_${usic}_${trial}_*.cfg mass type xs ys zs fx fy fz
dump 2 all cfg 50000 ./trial8/8020/tensile/trajectory/dumpten.tens_1_${trial}_*.cfg mass type xs ys zs fx fy fz
dump 2 all cfg 50000 ./trial8/8020/tensile/trajectory/dumpten.tens_1_8_*.cfg mass type xs ys zs fx fy fz
dump_modify 2 element N20 N100

fix 1 all nvt temp ${T} ${T} 100
fix 1 all nvt temp 300 ${T} 100
fix 1 all nvt temp 300 300 100
fix 2 all deform 1 x erate ${strain_rate} y erate ${strain_rate} z erate ${strain_rate} units box
fix 2 all deform 1 x erate 5e-6 y erate ${strain_rate} z erate ${strain_rate} units box
fix 2 all deform 1 x erate 5e-6 y erate 5e-6 z erate ${strain_rate} units box
fix 2 all deform 1 x erate 5e-6 y erate 5e-6 z erate 5e-6 units box
fix             def1 all print ${ts_save} "${p1} ${p2} ${p3} ${p4}" file ./tensile/${trial}/tensile${N20}${N100}_${usic}_${trial}.txt screen no
fix             def1 all print 1000 "${p1} ${p2} ${p3} ${p4}" file ./tensile/${trial}/tensile${N20}${N100}_${usic}_${trial}.txt screen no
fix             def1 all print 1000 "${p1} ${p2} ${p3} ${p4}" file ./tensile/8/tensile${N20}${N100}_${usic}_${trial}.txt screen no
fix             def1 all print 1000 "${p1} ${p2} ${p3} ${p4}" file ./tensile/8/tensile80${N100}_${usic}_${trial}.txt screen no
fix             def1 all print 1000 "${p1} ${p2} ${p3} ${p4}" file ./tensile/8/tensile8020_${usic}_${trial}.txt screen no
fix             def1 all print 1000 "${p1} ${p2} ${p3} ${p4}" file ./tensile/8/tensile8020_1_${trial}.txt screen no
fix             def1 all print 1000 "${p1} ${p2} ${p3} ${p4}" file ./tensile/8/tensile8020_1_8.txt screen no

timestep       		${ts}
timestep       		0.1
run				${steps_tensile}
run				6000000
Generated 0 of 1 mixed pair_coeff terms from geometric mixing rule
Unused restart file global fix info:
  fix style: npt, fix ID: 5
Neighbor list info ...
  update every 1 steps, delay 0 steps, check no
  max neighbors/atom: 2000, page size: 100000
  master list distance cutoff = 113.78
  ghost atom cutoff = 113.78
  binsize = 56.89, bins = 11 11 11
  1 neighbor lists, perpetual/occasional/extra = 1 0 0
  (1) pair table/pgn, perpetual
      attributes: half, newton on
      pair build: half/bin/atomonly/newton
      stencil: half/bin/3d
      bin: standard
Per MPI rank memory allocation (min/avg/max) = 3.856 | 3.857 | 3.857 Mbytes
   Step          Temp           v_p1           v_p2           v_p3           v_p4          Press            Lx             Ly             Lz           Volume        Density         E_pair         PotEng         KinEng         TotEng          Pxx            Pyy            Pzz            Pxy            Pxz            Pyz           S/CPU     
         0   303.79149     -3.9389174e-16  0.019054913    0.03102257     0.016486437   -218.97827      577.24916      577.24916      577.24916      1.92349e+08    2.2608914     -11863716      -11863716       904.6392      -11862811      -188.05737     -306.16897     -162.70848      16.973609     -62.466828      53.347503      0            
      1000   349.11984      0.0005         0.028114046    0.039668745    0.025195905   -305.87613      577.53778      577.53778      577.53778      1.9263767e+08  2.2575035     -11862794      -11862794       1039.6193     -11861754      -277.46406     -391.50007     -248.66425      16.549931     -63.641914      52.072733      13631.247    
      2000   424.41271      0.001          0.03563891     0.047032417    0.032977534   -380.45517      577.82641      577.82641      577.82641      1.9292662e+08  2.2541223     -11861743      -11861743       1263.8286     -11860480      -351.7287      -464.17386     -325.46295      14.051325     -64.632222      49.80517       13787.614    
      3000   486.44633      0.0015         0.041720607    0.052926463    0.039321082   -440.72096      578.11503      578.11503      578.11503      1.9321587e+08  2.2507478     -11860561      -11860561       1448.5541     -11859113      -411.75038     -522.34358     -388.06891      12.725831     -62.259279      46.099899      13772.902    
      4000   519.10441      0.002          0.047534372    0.058188644    0.045001749   -495.84593      578.40366      578.40366      578.40366      1.935054e+08   2.2473801     -11859221      -11859221       1545.8043     -11857675      -469.12778     -574.27726     -444.13274      13.674396     -58.154612      44.313659      13791.643    
      5000   525.0558       0.0025         0.053544505    0.063553214    0.05109528    -553.31195      578.69228      578.69228      578.69228      1.9379523e+08  2.2440192     -11857667      -11857667       1563.5265     -11856104      -528.44318     -627.22145     -504.27121      13.884551     -56.200509      45.884521      14315.348    
      6000   514.40212      0.003          0.059869965    0.06972029     0.05795042    -616.96085      578.98091      578.98091      578.98091      1.9408534e+08  2.2406649     -11855853      -11855853       1531.8017     -11854321      -590.87062     -688.08576     -571.92618      12.843458     -56.811682      48.202476      14519.215    
      7000   496.81349      0.0035         0.066535965    0.076439059    0.064946547   -684.00879      579.26953      579.26953      579.26953      1.9437574e+08  2.2373173     -11853752      -11853752       1479.4257     -11852272      -656.65892     -754.39486     -640.97258      11.67095      -57.717219      47.559806      14498.62     
      8000   478.10172      0.004          0.073257387    0.082969038    0.071550394   -749.32747      579.55816      579.55816      579.55816      1.9466643e+08  2.2339763     -11851345      -11851345       1423.7053     -11849922      -722.9942      -818.84074     -706.14748      11.784498     -58.160553      43.309402      16112.007    
      9000   460.51403      0.0045         0.079957787    0.088990164    0.077582459   -811.02199      579.84678      579.84678      579.84678      1.9495741e+08  2.230642      -11848633      -11848633       1371.3321     -11847262      -789.12201     -878.26463     -765.67934      12.649956     -58.870688      38.48142       16351.454    
     10000   444.6297       0.005          0.086237406    0.09443528     0.083214617   -868.12173      580.13541      580.13541      580.13541      1.9524868e+08  2.2273144     -11845632      -11845632       1324.0313     -11844308      -851.09703     -932.00375     -821.26441      10.882865     -58.647137      35.174805      16413.922    
     11000   431.12993      0.0055         0.091861211    0.099640013    0.088831596   -922.22327      580.42403      580.42403      580.42403      1.9554024e+08  2.2239933     -11842368      -11842368       1283.8313     -11841084      -906.59966     -983.37047     -876.69969      6.2759877     -56.366674      34.222149      16416.851    
     12000   419.75405      0.006          0.09727273     0.10510846     0.094785817   -977.60344      580.71266      580.71266      580.71266      1.958321e+08   2.2206789     -11838848      -11838848       1249.9559     -11837598      -960.00721     -1037.3398     -935.46328      4.063942      -53.28567       34.961383      16276.193    
     13000   410.06182      0.0065         0.10263881     0.11094587     0.10087978    -1034.5077      581.00128      581.00128      581.00128      1.9612424e+08  2.217371      -11835070      -11835070       1221.0941     -11833849      -1012.9663     -1094.9506     -995.60605      5.7783199     -51.606124      35.104488      16413.229    
     14000   401.80651      0.007          0.10804709     0.11655119     0.10669289    -1089.8632      581.2899       581.2899       581.2899       1.9641667e+08  2.2140697     -11831030      -11831030       1196.5112     -11829834      -1066.3418     -1150.2708     -1052.977       7.7145579     -51.612249      34.282506      16326.571    
     15000   394.66702      0.0075         0.11350012     0.12167843     0.11197459    -1142.045       581.57853      581.57853      581.57853      1.9670939e+08  2.210775      -11826739      -11826739       1175.251      -11825564      -1120.1591     -1200.8727     -1105.1032      7.3623143     -53.73136       32.972904      16417.743    
     16000   388.96643      0.008          0.11882058     0.12654214     0.11682197    -1191.495       581.86715      581.86715      581.86715      1.970024e+08   2.2074868     -11822216      -11822216       1158.2756     -11821057      -1172.668      -1248.8738     -1152.9432      6.3979538     -54.61802       31.365225      16434.732    
     17000   385.03732      0.0085         0.12416153     0.13130749     0.12172604    -1240.8753      582.15578      582.15578      582.15578      1.9729571e+08  2.2042051     -11817471      -11817471       1146.5754     -11816324      -1225.379      -1295.9042     -1201.3426      7.2536991     -52.677601      29.405145      16434.323    
     18000   382.30068      0.009          0.1292651      0.13584474     0.12684702    -1289.4378      582.4444       582.4444       582.4444       1.975893e+08   2.2009299     -11812504      -11812504       1138.4261     -11811366      -1275.7473     -1340.6834     -1251.8828      7.4067243     -50.450391      27.014966      16420.864    
     19000   379.67625      0.0095         0.13384686     0.14005464     0.13198179    -1335.2522      582.73303      582.73303      582.73303      1.9788319e+08  2.1976612     -11807312      -11807312       1130.611      -11806181      -1320.9658     -1382.2318     -1302.559       4.0866399     -49.661527      24.578791      16416.419    
     20000   377.58138      0.01           0.13802561     0.14410443     0.13644282    -1376.9977      583.02165      583.02165      583.02165      1.9817737e+08  2.1943989     -11801922      -11801922       1124.3729     -11800797      -1362.2069     -1422.2002     -1346.586       0.87492807    -47.288374      24.128086      16432.244    
     21000   376.69631      0.0105         0.14242378     0.14829453     0.14028809    -1417.9008      583.31028      583.31028      583.31028      1.9847183e+08  2.1911431     -11796356      -11796356       1121.7373     -11795234      -1405.6134     -1463.5532     -1384.5358      1.5862653     -44.138137      25.635383      16434.106    
     22000   376.70389      0.011          0.14716836     0.1526267      0.14431295    -1461.0017      583.5989       583.5989       583.5989       1.9876659e+08  2.1878938     -11790610      -11790610       1121.7599     -11789488      -1452.4387     -1506.3084     -1424.2581      3.8869005     -44.588816      26.900541      16423.581    
     23000   376.9929       0.0115         0.15167363     0.15690588     0.14908081    -1505.5854      583.88753      583.88753      583.88753      1.9906165e+08  2.1846509     -11784676      -11784676       1122.6205     -11783554      -1496.9023     -1548.5406     -1471.3132      4.4002284     -48.29756       27.553331      16448.296    
     24000   377.3336       0.012          0.15584761     0.16088835     0.15397232    -1548.5098      584.17615      584.17615      584.17615      1.9935699e+08  2.1814144     -11778546      -11778546       1123.635      -11777423      -1538.0963     -1587.8445     -1519.5886      3.3000774     -49.578582      26.483985      16379.447    
     25000   378.14902      0.0125         0.15987548     0.16479749     0.15830961    -1588.8892      584.46477      584.46477      584.46477      1.9965263e+08  2.1781842     -11772225      -11772225       1126.0632     -11771099      -1577.8484     -1626.4248     -1562.3944      0.9685669     -46.360869      22.990409      16458.305    
     26000   379.79844      0.013          0.16383627     0.1687572      0.16208107    -1627.3527      584.7534       584.7534       584.7534       1.9994855e+08  2.1749605     -11765733      -11765733       1130.9749     -11764602      -1616.9383     -1665.504      -1599.6158     -0.81147152    -43.034632      20.788485      16421.184    
     27000   381.67139      0.0135         0.16773008     0.17252473     0.16529594    -1663.1327      585.04202      585.04202      585.04202      2.0024477e+08  2.1717431     -11759085      -11759085       1136.5522     -11757948      -1655.3672     -1702.6867     -1631.3441      1.086107      -42.883284      21.314552      16394.255    
     28000   383.11133      0.014          0.17133421     0.17581053     0.16846131    -1696.212       585.33065      585.33065      585.33065      2.0054129e+08  2.168532      -11752291      -11752291       1140.8401     -11751150      -1690.9371     -1735.115      -1662.5838      4.0749678     -44.00407       20.90882       16435.223    
     29000   384.08857      0.0145         0.17475985     0.17879169     0.17197845    -1728.8592      585.61927      585.61927      585.61927      2.0083809e+08  2.1653273     -11745344      -11745344       1143.7502     -11744201      -1724.7456     -1764.5368     -1697.2953      4.4833852     -44.025047      19.805898      16426.186    
     30000   385.46155      0.015          0.17813485     0.18200509     0.1754877     -1762.0779      585.9079       585.9079       585.9079       2.0113519e+08  2.1621289     -11738252      -11738252       1147.8387     -11737105      -1758.0543     -1796.2505     -1731.9289      2.1014474     -41.84167       18.008544      16406.149    
     31000   388.02366      0.0155         0.18145955     0.18524287     0.17892624    -1794.9787      586.19652      586.19652      586.19652      2.0143258e+08  2.1589368     -11731026      -11731026       1155.4682     -11729871      -1790.8666     -1828.2049     -1765.8647     -1.6530002     -40.031566      16.549074      16473.067    
     32000   391.17818      0.016          0.18497263     0.1885085      0.18273964    -1829.8241      586.48515      586.48515      586.48515      2.0173026e+08  2.1557509     -11723661      -11723661       1164.8618     -11722496      -1825.5379     -1860.4343     -1803.5        -3.8936379     -40.887463      16.464921      16445.996    
     33000   394.21208      0.0165         0.18822445     0.19171495     0.18627645    -1862.7053      586.77377      586.77377      586.77377      2.0202824e+08  2.1525713     -11716151      -11716151       1173.8963     -11714977      -1857.6309     -1892.0794     -1838.4056     -3.9850433     -42.197752      16.994014      16438.722    
     34000   397.00914      0.017          0.19121124     0.19471663     0.18914833    -1891.8536      587.0624       587.0624       587.0624       2.0232651e+08  2.149398      -11708506      -11708506       1182.2254     -11707323      -1887.1082     -1921.7037     -1866.7489     -1.6415506     -41.039125      17.24952       16419.986    
     35000   399.12324      0.0175         0.19433869     0.19749857     0.19167257    -1919.5981      587.35102      587.35102      587.35102      2.0262507e+08  2.1462309     -11700734      -11700734       1188.5209     -11699545      -1917.9737     -1949.1593     -1891.6612      1.8708826     -39.11693       17.018207      16449.538    
     36000   400.37605      0.018          0.19750161     0.20015224     0.19436096    -1947.5773      587.63965      587.63965      587.63965      2.0292393e+08  2.1430701     -11692836      -11692836       1192.2515     -11691644      -1949.1893     -1975.3491     -1918.1935      3.1357922     -37.731492      18.470844      16427.177    
     37000   401.65795      0.0185         0.20034965     0.20269196     0.19702325    -1974.0599      587.92827      587.92827      587.92827      2.0322308e+08  2.1399154     -11684818      -11684818       1196.0688     -11683622      -1977.2973     -2000.4141     -1944.4683      1.0438182     -36.008465      20.537109      16396.673    
     38000   404.03954      0.019          0.20297955     0.20512619     0.19956374    -1999.0771      588.21689      588.21689      588.21689      2.0352252e+08  2.1367669     -11676695      -11676695       1203.1607     -11675491      -2003.2524     -2024.4381     -1969.5409     -0.99323282    -34.747801      18.797321      16432.266    
     39000   406.98397      0.0195         0.20553104     0.20760068     0.20238437    -2024.8905      588.50552      588.50552      588.50552      2.0382226e+08  2.1336246     -11668466      -11668466       1211.9288     -11667254      -2028.4337     -2048.8595     -1997.3784     -1.5507039     -33.729806      13.982725      16445.364    
     40000   409.58235      0.02           0.20801685     0.210295       0.20503115    -2050.639       588.79414      588.79414      588.79414      2.041223e+08   2.1304885     -11660128      -11660128       1219.6663     -11658909      -2052.9667     -2075.4503     -2023.5002     -2.8937017     -33.508289      10.130716      16452.743    
     41000   411.82231      0.0205         0.21034671     0.21283021     0.20749859    -2074.7611      589.08277      589.08277      589.08277      2.0442262e+08  2.1273585     -11651675      -11651675       1226.3365     -11650449      -2075.9606     -2100.4709     -2047.8519     -4.5222449     -33.660338      9.7366228      16397.841    
     42000   414.14629      0.021          0.21268893     0.21502715     0.20997491    -2097.8402      589.37139      589.37139      589.37139      2.0472324e+08  2.1242346     -11643115      -11643115       1233.2569     -11641882      -2099.0765     -2122.153      -2072.2912     -5.0704807     -32.542006      12.599287      16427.051    
     43000   416.82776      0.0215         0.21496747     0.21696988     0.2123591     -2119.5705      589.66002      589.66002      589.66002      2.0502416e+08  2.1211168     -11634463      -11634463       1241.2419     -11633222      -2121.564      -2141.3262     -2095.8213     -3.2804549     -31.447681      16.312178      16491.157    
     44000   419.46103      0.022          0.21724078     0.21862019     0.21460067    -2139.8524      589.94864      589.94864      589.94864      2.0532537e+08  2.1180052     -11625723      -11625723       1249.0833     -11624473      -2143.9998     -2157.6135     -2117.9439     -2.6204861     -30.772864      18.208697      16439.277    
     45000   421.84955      0.0225         0.21938076     0.22015537     0.21643328    -2157.9715      590.23727      590.23727      590.23727      2.0562688e+08  2.1148996     -11616894      -11616894       1256.1959     -11615638      -2165.1197     -2172.7645     -2136.0304     -4.0368732     -30.453134      16.325845      16446.271    
     46000   423.88643      0.023          0.2216165      0.22239064     0.21837076    -2179.0539      590.52589      590.52589      590.52589      2.0592868e+08  2.1118001     -11607980      -11607980       1262.2614     -11606718      -2187.1848     -2194.8249     -2155.1519     -3.3133124     -30.690296      11.578272      16484.308    
     47000   425.62213      0.0235         0.22381772     0.22482159     0.2203895     -2200.9336      590.81452      590.81452      590.81452      2.0623077e+08  2.1087066     -11598981      -11598981       1267.43       -11597714      -2208.9091     -2218.8166     -2175.0753     -0.37748618    -31.118053      7.8393275      16444.127    
     48000   427.45696      0.024          0.22569253     0.22660679     0.22241834    -2219.6485      591.10314      591.10314      591.10314      2.0653316e+08  2.1056192     -11589895      -11589895       1272.8938     -11588622      -2227.4121     -2236.4351     -2195.0983      0.2641108     -30.799293      8.3423069      16445.298    
     49000   429.37026      0.0245         0.22716798     0.22814204     0.22432992    -2235.8416      591.39176      591.39176      591.39176      2.0683585e+08  2.1025378     -11580727      -11580727       1278.5913     -11579449      -2241.9736     -2251.5869     -2213.9642     -2.355428      -28.747182      10.374689      16427.006    
     50000   430.94589      0.025          0.22868421     0.2298947      0.22608371    -2252.3649      591.68039      591.68039      591.68039      2.0713883e+08  2.0994624     -11571484      -11571484       1283.2833     -11570201      -2256.9377     -2268.8843     -2231.2728     -4.8902009     -25.364106      12.158559      14464.019    
     51000   432.06394      0.0255         0.23031321     0.23173895     0.22775578    -2269.2917      591.96901      591.96901      591.96901      2.0744211e+08  2.096393      -11562161      -11562161       1286.6126     -11560875      -2273.0147     -2287.0856     -2247.7747     -4.7411917     -23.355834      12.34751       16465.448    
     52000   433.12647      0.026          0.23171689     0.2331216      0.22935223    -2283.7099      592.25764      592.25764      592.25764      2.0774568e+08  2.0933296     -11552754      -11552754       1289.7767     -11551464      -2286.8679     -2300.7313     -2263.5305     -3.6303345     -23.520068      11.209666      16427.258    
     53000   434.66241      0.0265         0.23314442     0.23400159     0.23076754    -2295.9571      592.54626      592.54626      592.54626      2.0804955e+08  2.0902722     -11543285      -11543285       1294.3504     -11541991      -2300.9565     -2309.4162     -2277.4985     -3.8606373     -26.033931      9.141872       15938.911    
     54000   436.80791      0.027          0.23492366     0.23494003     0.23192915    -2308.7189      592.83489      592.83489      592.83489      2.0835372e+08  2.0872207     -11533771      -11533771       1300.7394     -11532470      -2318.5162     -2318.6778     -2288.9628     -5.3170268     -29.404221      6.4064676      16410.583    
     55000   438.99783      0.0275         0.23672168     0.23628302     0.23336028    -2323.7601      593.12351      593.12351      593.12351      2.0865818e+08  2.0841751     -11524202      -11524202       1307.2606     -11522894      -2336.2613     -2331.9321     -2303.0869     -6.7277608     -28.807171      5.4807802      16460.137    
     56000   440.70842      0.028          0.23799731     0.23767146     0.23498414    -2337.8663      593.41214      593.41214      593.41214      2.0896294e+08  2.0811355     -11514569      -11514569       1312.3544     -11513256      -2348.8509     -2345.6349     -2319.1131     -6.1189771     -24.128376      6.7974117      16421.756    
     57000   441.94437      0.0285         0.23901795     0.23894332     0.23641895    -2350.1282      593.70076      593.70076      593.70076      2.09268e+08    2.0781018     -11504871      -11504871       1316.0349     -11503555      -2358.9237     -2358.1872     -2333.2736     -5.1886937     -21.514448      7.4893514      16424.251    
     58000   442.82129      0.029          0.2401167      0.24019663     0.23745938    -2361.2886      593.98939      593.98939      593.98939      2.0957335e+08  2.075074      -11495117      -11495117       1318.6462     -11493799      -2369.7676     -2370.5564     -2343.5418     -6.0813446     -21.885037      6.0494519      16417.264    
     59000   443.30107      0.0295         0.24123601     0.24134431     0.23836978    -2371.7414      594.27801      594.27801      594.27801      2.09879e+08    2.072052      -11485305      -11485305       1320.0749     -11483985      -2380.8143     -2381.8832     -2352.5269     -7.9982226     -22.272062      5.0354641      16451.402    
     60000   443.78376      0.03           0.24212334     0.24220095     0.2391825     -2380.1523      594.56664      594.56664      594.56664      2.1018494e+08  2.0690359     -11475441      -11475441       1321.5122     -11474119      -2389.5716     -2390.3375     -2360.5478     -9.3371626     -22.339667      5.7924281      16452.482    
     61000   444.76029      0.0305         0.24285139     0.2428416      0.24018116    -2387.9403      594.85526      594.85526      594.85526      2.1049119e+08  2.0660257     -11465539      -11465539       1324.4202     -11464214      -2396.7569     -2396.6603     -2370.4038     -8.3525044     -22.916474      6.2194807      16454.762    
     62000   445.95795      0.031          0.24386429     0.24353623     0.24126876    -2397.1356      595.14388      595.14388      595.14388      2.1079773e+08  2.0630213     -11455590      -11455590       1327.9866     -11454262      -2406.7534     -2403.5157     -2381.1375     -5.7462579     -22.803522      6.3172436      16445.984    
     63000   447.5102       0.0315         0.24492399     0.24440513     0.2421728     -2406.4542      595.43251      595.43251      595.43251      2.1110457e+08  2.0600227     -11445600      -11445600       1332.609      -11444267      -2417.2119     -2412.0911     -2390.0597     -4.2687324     -20.18555       5.5572675      16488.833    
     64000   449.23938      0.032          0.24576087     0.245254       0.2431572     -2415.2383      595.72113      595.72113      595.72113      2.114117e+08   2.0570299     -11435580      -11435580       1337.7582     -11434242      -2425.4712     -2420.4688     -2399.7749     -6.4741789     -18.233299      4.0713653      16473.881    
     65000   450.73787      0.0325         0.24624182     0.24560167     0.24411929    -2421.1293      596.00976      596.00976      596.00976      2.1171913e+08  2.054043      -11425529      -11425529       1342.2204     -11424187      -2430.2178     -2423.9        -2409.2701     -9.8059057     -17.532541      2.2464523      16453.194    
     66000   451.44471      0.033          0.24672468     0.24584514     0.24482627    -2425.8445      596.29838      596.29838      596.29838      2.1202687e+08  2.0510618     -11415446      -11415446       1344.3253     -11414102      -2434.9833     -2426.3029     -2416.2474     -10.524696     -17.48601      -0.17927217     16471.388    
     67000   450.7477       0.0335         0.24733414     0.24643666     0.24500257    -2430.3754      596.58701      596.58701      596.58701      2.123349e+08   2.0480863     -11405322      -11405322       1342.2497     -11403979      -2440.9982     -2432.1407     -2417.9874     -11.133983     -17.447173     -1.1825205      16484.428    
     68000   450.0404       0.034          0.24760274     0.24706845     0.24480001    -2432.6711      596.87563      596.87563      596.87563      2.1264322e+08  2.0451167     -11395166      -11395166       1340.1435     -11393826      -2443.6491     -2438.3761     -2415.9882     -11.318775     -17.344281     -0.35950889     16451.925    
     69000   450.07674      0.0345         0.24804808     0.24759747     0.24516204    -2437.0675      597.16426      597.16426      597.16426      2.1295185e+08  2.0421527     -11384997      -11384997       1340.2517     -11383657      -2448.0442     -2443.597      -2419.5612     -10.521475     -17.417556      0.98837661     16468.247    
     70000   450.29756      0.035          0.24877488     0.2478142      0.24604289    -2443.0693      597.45288      597.45288      597.45288      2.1326077e+08  2.0391945     -11374798      -11374798       1340.9092     -11373457      -2455.2171     -2445.736      -2428.2546     -10.171055     -15.994865      2.6472568      16450.439    
     71000   451.02981      0.0355         0.24929258     0.24783506     0.24668014    -2446.9374      597.74151      597.74151      597.74151      2.1357e+08     2.036242      -11364562      -11364562       1343.0897     -11363218      -2460.3265     -2445.9419     -2434.5437     -10.181104     -14.926489      4.139702       16482.628    
     72000   452.62984      0.036          0.24953228     0.24802531     0.24703161    -2449.508       598.03013      598.03013      598.03013      2.1387952e+08  2.0332952     -11354310      -11354310       1347.8544     -11352962      -2462.6921     -2447.8195     -2438.0125     -10.754628     -15.328496      2.1997698      16451.855    
     73000   454.04665      0.0365         0.24971262     0.24841358     0.24756077    -2453.1194      598.31875      598.31875      598.31875      2.1418934e+08  2.0303541     -11344055      -11344055       1352.0734     -11342703      -2464.472      -2451.6514     -2443.2349     -11.792591     -15.720925     -1.8897958      16451.953    
     74000   454.35796      0.037          0.24977605     0.24871773     0.2482052     -2456.4486      598.60738      598.60738      598.60738      2.1449946e+08  2.0274186     -11333786      -11333786       1353.0004     -11332433      -2465.0979     -2454.6531     -2449.5948     -10.911913     -14.40785      -2.8039513      16488.696    
     75000   453.731        0.0375         0.24990853     0.24870135     0.24843251    -2457.5784      598.896        598.896        598.896        2.1480988e+08  2.0244888     -11323490      -11323490       1351.1334     -11322139      -2466.4054     -2454.4915     -2451.8382     -10.043362     -13.7411       -1.3239952      16459.644    
     76000   453.09683      0.038          0.2498496      0.24830992     0.24793892    -2454.473       599.18463      599.18463      599.18463      2.1512059e+08  2.0215647     -11313175      -11313175       1349.245      -11311825      -2465.8239     -2450.6283     -2446.9669     -10.100366     -13.550851      0.34206143     16495.062    
     77000   452.96747      0.0385         0.2495372      0.2479776      0.24718418    -2449.8692      599.47325      599.47325      599.47325      2.1543161e+08  2.0186462     -11302862      -11302862       1348.8598     -11301513      -2462.7407     -2447.3486     -2439.5182     -10.559091     -14.034951      1.7691089      16479.834    
     78000   452.88456      0.039          0.24960451     0.24796835     0.24687779    -2449.0522      599.76188      599.76188      599.76188      2.1574293e+08  2.0157333     -11292556      -11292556       1348.6129     -11291208      -2463.4049     -2447.2574     -2436.4943     -11.035172     -14.212658      1.8042604      16305.888    
     79000   452.7629       0.0395         0.24970529     0.24787082     0.24692405    -2449.2151      600.0505       600.0505       600.0505       2.1605455e+08  2.012826      -11282252      -11282252       1348.2506     -11280904      -2464.3996     -2446.2948     -2436.9509     -11.835412     -11.915937      0.38690428     16411.746    
     80000   452.91474      0.04           0.24955693     0.24757871     0.24725185    -2448.8444      600.33913      600.33913      600.33913      2.1636646e+08  2.0099242     -11271944      -11271944       1348.7027     -11270596      -2462.9354     -2443.4119     -2440.186      -14.258886     -8.5818355     -1.8633626      16443.069    
     81000   452.9693       0.0405         0.24949462     0.24720846     0.24746175    -2448.112       600.62775      600.62775      600.62775      2.1667868e+08  2.0070281     -11261632      -11261632       1348.8652     -11260284      -2462.3204     -2439.7578     -2442.2576     -15.536729     -7.8383079     -4.8875181      16486.393    
     82000   452.9074       0.041          0.24930652     0.24689276     0.24715584    -2445.4482      600.91638      600.91638      600.91638      2.169912e+08   2.0041375     -11251319      -11251319       1348.6809     -11249970      -2460.464      -2436.6421     -2439.2385     -13.34247      -10.272546     -6.1115557      16463.374    
     83000   452.7834       0.0415         0.24904846     0.24672097     0.24685561    -2443.0464      601.205        601.205        601.205        2.1730402e+08  2.0012525     -11241008      -11241008       1348.3116     -11239660      -2457.9172     -2434.9466     -2436.2755     -10.613377     -12.227382     -2.8423186      16478.29     
     84000   452.16656      0.042          0.24884793     0.24641574     0.24684772    -2441.3567      601.49362      601.49362      601.49362      2.1761713e+08  1.998373      -11230693      -11230693       1346.4748     -11229347      -2455.9381     -2431.9343     -2436.1976     -9.3911927     -10.64014       0.22492204     16468.915    
     85000   451.18031      0.0425         0.24845372     0.24597401     0.24651691    -2437.5183      601.78225      601.78225      601.78225      2.1793055e+08  1.995499      -11220371      -11220371       1343.5379     -11219028      -2452.0476     -2427.5747     -2432.9328     -10.552358     -7.944335      -0.11224658     16455.856    
     86000   450.94736      0.043          0.24765861     0.24533881     0.24549031    -2429.4358      602.07087      602.07087      602.07087      2.1824427e+08  1.9926305     -11210066      -11210066       1342.8442     -11208723      -2444.2005     -2421.3058     -2422.801      -12.425266     -7.064182      -1.1305076      16450.771    
     87000   451.45754      0.0435         0.24675442     0.24447743     0.24442243    -2420.1144      602.3595       602.3595       602.3595       2.1855829e+08  1.9897675     -11199800      -11199800       1344.3635     -11198456      -2435.2768     -2412.8047     -2412.2618     -13.540976     -8.5097409     -2.3102614      16474.648    
     88000   451.69677      0.044          0.24628176     0.2436927      0.24396183    -2414.4627      602.64812      602.64812      602.64812      2.1887261e+08  1.9869101     -11189564      -11189564       1345.0759     -11188219      -2430.612      -2405.0599     -2407.7161     -13.55107      -10.004834     -2.7143425      16444.742    
     89000   451.11619      0.0445         0.24597246     0.24287591     0.24389196    -2410.5282      602.93675      602.93675      602.93675      2.1918724e+08  1.984058      -11179342      -11179342       1343.347      -11177998      -2427.5594     -2396.9988     -2407.0265     -13.163329     -9.4832597     -2.7567587      16478.671    
     90000   450.08054      0.045          0.24522643     0.24196945     0.24339966    -2403.4724      603.22537      603.22537      603.22537      2.1950216e+08  1.9812115     -11169133      -11169133       1340.263      -11167792      -2420.1967     -2388.0528     -2402.1678     -13.774949     -8.0090169     -3.690415       16459.054    
     91000   449.324        0.0455         0.24409568     0.24109862     0.24237459    -2393.5155      603.514        603.514        603.514        2.1981739e+08  1.9783703     -11158951      -11158951       1338.0101     -11157613      -2409.037      -2379.4584     -2392.0513     -14.173749     -7.4947923     -5.7995893      16485.28     
     92000   448.94154      0.046          0.2432864      0.2405911      0.24171018    -2386.9979      603.80262      603.80262      603.80262      2.2013291e+08  1.9755346     -11148793      -11148793       1336.8713     -11147456      -2401.0501     -2374.4495     -2385.494      -11.437342     -8.4448588     -7.7683556      16445.176    
     93000   448.20518      0.0465         0.24299441     0.24024366     0.24146434    -2384.0856      604.09125      604.09125      604.09125      2.2044874e+08  1.9727044     -11138638      -11138638       1334.6785     -11137303      -2398.1684     -2371.0206     -2383.0677     -8.8025428     -9.0438898     -6.9260066      16475.874    
     94000   447.16828      0.047          0.24291616     0.23955092     0.24096881    -2379.9191      604.37987      604.37987      604.37987      2.2076487e+08  1.9698795     -11128482      -11128482       1331.5908     -11127151      -2397.3961     -2364.1838     -2378.1773     -9.4070506     -8.3386694     -4.179128       16460.979    
     95000   446.68739      0.0475         0.24208311     0.2385573      0.23971065    -2369.7707      604.6685       604.6685       604.6685       2.2108131e+08  1.96706       -11118364      -11118364       1330.1588     -11117034      -2389.1745     -2354.3775     -2365.7602     -10.52731      -6.3468516     -2.9778315      16449.251    
     96000   446.6865       0.048          0.24049985     0.2376916      0.23825944    -2356.9402      604.95712      604.95712      604.95712      2.2139804e+08  1.9642459     -11108301      -11108301       1330.1561     -11106971      -2373.549      -2345.8337     -2351.4379     -11.302296     -5.3740277     -4.3863944      16479.853    
     97000   446.02329      0.0485         0.2390168      0.23651284     0.23743846    -2345.4827      605.24574      605.24574      605.24574      2.2171508e+08  1.9614372     -11098274      -11098274       1328.1812     -11096946      -2358.9125     -2334.2003     -2343.3354     -11.953038     -6.6736726     -6.6703155      16463.042    
     98000   444.25505      0.049          0.23782446     0.23513175     0.23703975    -2335.7051      605.53437      605.53437      605.53437      2.2203242e+08  1.9586338     -11088272      -11088272       1322.9157     -11086949      -2347.1449     -2320.57       -2339.4004     -13.165864     -8.1960641     -8.5686887      16458.671    
     99000   442.14933      0.0495         0.23678214     0.23387167     0.23602872    -2324.8048      605.82299      605.82299      605.82299      2.2235006e+08  1.9558357     -11078299      -11078299       1316.6452     -11076982      -2336.858      -2308.1339     -2329.4224     -13.740756     -8.8814009     -9.0202253      16494.437    
    100000   440.64817      0.05           0.23586272     0.23267226     0.2347807     -2313.7287      606.11162      606.11162      606.11162      2.2266801e+08  1.953043      -11068362      -11068362       1312.175      -11067050      -2327.7841     -2296.2967     -2317.1054     -13.260978     -7.9524078     -9.4475189      15638.552    
    101000   439.76786      0.0505         0.23496282     0.23136832     0.23368986    -2302.89        606.40024      606.40024      606.40024      2.2298626e+08  1.9502556     -11058468      -11058468       1309.5536     -11057159      -2318.9027     -2283.4278     -2306.3396     -10.323011     -5.0086984     -11.008539      16465.335    
    102000   438.78172      0.051          0.23382003     0.23033215     0.23288804    -2293.084       606.68887      606.68887      606.68887      2.2330481e+08  1.9474735     -11048611      -11048611       1306.617      -11047305      -2307.6243     -2273.2015     -2298.4263     -7.1791669     -3.5234469     -11.722092      16487.924    
    103000   437.44181      0.0515         0.23242059     0.22940108     0.23209778    -2282.8175      606.97749      606.97749      606.97749      2.2362366e+08  1.9446967     -11038788      -11038788       1302.627      -11037486      -2293.8129     -2264.0127     -2290.627      -6.8412717     -4.8719739     -11.266774      16461.382    
    104000   436.82331      0.052          0.23117932     0.22813083     0.230938      -2270.7399      607.26612      607.26612      607.26612      2.2394282e+08  1.9419251     -11028999      -11028999       1300.7852     -11027698      -2281.5625     -2251.4762     -2279.1809     -7.1701701     -6.9124869     -8.5120152      16503.985    
    105000   437.06866      0.0525         0.23017474     0.22686269     0.22969149    -2259.1625      607.55474      607.55474      607.55474      2.2426229e+08  1.9391589     -11019257      -11019257       1301.5158     -11017955      -2271.6481     -2238.9607     -2266.8788     -6.1927968     -8.0456987     -5.1906432      16482.426    
    106000   436.40171      0.053          0.2291564      0.22584872     0.22880481    -2249.5598      607.84337      607.84337      607.84337      2.2458205e+08  1.9363978     -11009560      -11009560       1299.5298     -11008261      -2261.5979     -2228.9535     -2258.1279     -8.041119      -10.505827     -6.7853794      16452.993    
    107000   434.02118      0.0535         0.22805726     0.22472149     0.2277215     -2238.6718      608.13199      608.13199      608.13199      2.2490212e+08  1.9336421     -10999899      -10999899       1292.441      -10998606      -2250.7502     -2217.8287     -2247.4365     -11.67897      -12.140099     -10.907706      16479.153    
    108000   431.34594      0.054          0.22693754     0.22307588     0.22618189    -2224.5096      608.42061      608.42061      608.42061      2.2522249e+08  1.9308915     -10990276      -10990276       1284.4746     -10988991      -2239.6993     -2201.5878     -2232.2417     -12.809646     -10.051587     -12.940303      16477.393    
    109000   429.63383      0.0545         0.2258044      0.22151333     0.22472658    -2210.8539      608.70924      608.70924      608.70924      2.2554317e+08  1.9281462     -10980693      -10980693       1279.3762     -10979414      -2228.5161     -2186.1666     -2217.8789     -10.292381     -7.2642516     -14.000494      16477.057    
    110000   428.52309      0.055          0.22461595     0.22034587     0.22371313    -2199.7695      608.99786      608.99786      608.99786      2.2586415e+08  1.925406      -10971150      -10971150       1276.0686     -10969874      -2216.787      -2174.6446     -2207.8769     -6.2162953     -7.1262283     -15.030973      16491.651    
    111000   427.42524      0.0555         0.2233998      0.21925612     0.22270968    -2188.8826      609.28649      609.28649      609.28649      2.2618544e+08  1.9226711     -10961651      -10961651       1272.7994     -10960378      -2204.7846     -2163.8896     -2197.9737     -3.770718      -9.1938358     -14.792472      16464.076    
    112000   426.18005      0.056          0.22190586     0.21809681     0.22142263    -2175.9201      609.57511      609.57511      609.57511      2.2650703e+08  1.9199413     -10952202      -10952202       1269.0914     -10950933      -2190.0406     -2152.4482     -2185.2715     -3.0749054     -10.601676     -13.166685      16506.402    
    113000   425.18007      0.0565         0.22008408     0.21687709     0.21985382    -2160.7533      609.86374      609.86374      609.86374      2.2682892e+08  1.9172167     -10942805      -10942805       1266.1137     -10941539      -2172.061      -2140.4104     -2169.7885     -3.2692489     -9.9071259     -11.801936      16467.25     
    114000   424.25904      0.057          0.21856279     0.2155761      0.21845839    -2146.8781      610.15236      610.15236      610.15236      2.2715112e+08  1.9144972     -10933457      -10933457       1263.371      -10932194      -2157.0471     -2127.5707     -2156.0166     -4.162991      -8.5651993     -12.042057      16490.25     
    115000   422.65953      0.0575         0.21734487     0.21423143     0.217395      -2134.9496      610.44099      610.44099      610.44099      2.2747363e+08  1.9117829     -10924151      -10924151       1258.6079     -10922892      -2145.0271     -2114.2998     -2145.5218     -5.9047259     -8.3787584     -13.502946      16462.247    
    116000   420.29747      0.058          0.21629053     0.21281458     0.21642332    -2123.6234      610.72961      610.72961      610.72961      2.2779644e+08  1.9090737     -10914883      -10914883       1251.5741     -10913632      -2134.6216     -2100.3166     -2135.9321     -7.9548166     -7.9917264     -14.83086       16487.401    
    117000   418.43651      0.0585         0.21499808     0.21130782     0.2150907     -2110.0308      611.01824      611.01824      611.01824      2.2811956e+08  1.9063697     -10905670      -10905670       1246.0325     -10904424      -2121.8661     -2085.4461     -2122.7801     -8.0662807     -6.2781575     -13.917543      16482.853    
    118000   417.98408      0.059          0.21345961     0.20991174     0.21344628    -2094.9671      611.30686      611.30686      611.30686      2.2844298e+08  1.9036707     -10896517      -10896517       1244.6852     -10895272      -2106.6826     -2071.6678     -2106.551      -6.0104418     -5.918791      -12.1325        16465.815    
    119000   417.56439      0.0595         0.21201918     0.20879902     0.21210196    -2082.1454      611.59549      611.59549      611.59549      2.287667e+08   1.9009768     -10887412      -10887412       1243.4354     -10886169      -2092.4666     -2060.6861     -2093.2836     -3.6634643     -9.2754316     -11.798014      16494.887    
    120000   416.07151      0.06           0.21074189     0.20793818     0.21101843    -2071.547       611.88411      611.88411      611.88411      2.2909073e+08  1.898288      -10878336      -10878336       1238.9899     -10877097      -2079.8607     -2052.1903     -2082.59       -2.3557031     -13.045948     -12.458826      16470.279    
    121000   414.29932      0.0605         0.20930166     0.20677289     0.20976288    -2058.845       612.17273      612.17273      612.17273      2.2941507e+08  1.8956043     -10869300      -10869300       1233.7126     -10868067      -2065.6467     -2040.6898     -2070.1986     -1.0310204     -13.195168     -13.357364      16481.409    
    122000   412.91867      0.061          0.20784327     0.20528806     0.20850868    -2045.0366      612.46136      612.46136      612.46136      2.2973972e+08  1.8929256     -10860323      -10860323       1229.6013     -10859093      -2051.2536     -2026.0357     -2057.8206     -0.74831131    -11.32916      -14.857098      16459.144    
    123000   411.22068      0.0615         0.20658439     0.20386486     0.20737204    -2032.474       612.74998      612.74998      612.74998      2.3006467e+08  1.890252      -10851400      -10851400       1224.545      -10850176      -2038.8294     -2011.9898     -2046.6029     -2.3656937     -10.014108     -15.906095      16468.729    
    124000   409.26172      0.062          0.20538076     0.20232026     0.20612353    -2019.3258      613.03861      613.03861      613.03861      2.3038992e+08  1.8875834     -10842518      -10842518       1218.7115     -10841299      -2026.9505     -1996.7457     -2034.281      -3.996405      -9.5482032     -15.527755      16452.809    
    125000   407.67493      0.0625         0.20406557     0.20059435     0.20440209    -2003.6582      613.32723      613.32723      613.32723      2.3071549e+08  1.8849198     -10833687      -10833687       1213.9863     -10832473      -2013.9706     -1979.7123     -2017.2918     -3.8817548     -11.074338     -13.364769      16498.667    
    126000   406.33703      0.063          0.20278618     0.1991518      0.20285463    -1989.613       613.61586      613.61586      613.61586      2.3104136e+08  1.8822613     -10824911      -10824911       1210.0023     -10823701      -2001.344      -1965.4754     -2002.0195     -2.7759142     -13.014236     -10.515662      16465.825    
    127000   404.78688      0.0635         0.20146883     0.19811106     0.20193749    -1978.8384      613.90448      613.90448      613.90448      2.3136753e+08  1.8796077     -10816178      -10816178       1205.3862     -10814973      -1988.3428     -1955.2042     -1992.9681     -1.961108      -13.597049     -9.5355711      16486.684    
    128000   403.22836      0.064          0.20000047     0.19697676     0.20120855    -1967.8782      614.19311      614.19311      614.19311      2.3169401e+08  1.8769591     -10807485      -10807485       1200.7452     -10806284      -1973.8511     -1944.0094     -1985.774      -1.1933295     -12.962233     -11.254702      16463.837    
    129000   401.92484      0.0645         0.19858269     0.19567622     0.20002077    -1955.0281      614.48173      614.48173      614.48173      2.320208e+08   1.8743155     -10798841      -10798841       1196.8635     -10797644      -1959.8588     -1931.1741     -1974.0515     -0.66724345    -10.853887     -14.439232      16475.186    
    130000   400.37992      0.065          0.19753304     0.19452286     0.19858422    -1943.0549      614.77036      614.77036      614.77036      2.323479e+08   1.8716769     -10790244      -10790244       1192.263      -10789052      -1949.4996     -1919.7913     -1959.8738     -0.5468089     -8.3390108     -16.89536       16483.198    
    131000   398.36294      0.0655         0.19653178     0.19351304     0.19737482    -1932.4604      615.05898      615.05898      615.05898      2.326753e+08   1.8690432     -10781675      -10781675       1186.2568     -10780488      -1939.6178     -1909.8252     -1947.9381     -1.2556301     -7.7806095     -15.986236      16477.213    
    132000   396.41838      0.066          0.19524229     0.19265442     0.19625696    -1921.7162      615.3476       615.3476       615.3476       2.3300302e+08  1.8664145     -10773127      -10773127       1180.4662     -10771947      -1926.8916     -1901.3513     -1936.9056     -0.7579104     -10.115707     -12.890366      16461.173    
    133000   395.25699      0.0665         0.19360745     0.19153112     0.19462658    -1907.2791      615.63623      615.63623      615.63623      2.3333104e+08  1.8637906     -10764630      -10764630       1177.0078     -10763453      -1910.757      -1890.2651     -1920.815       1.6507197     -13.162461     -11.164914      16449.768    
    134000   394.90568      0.067          0.19196445     0.18973676     0.19277846    -1889.8912      615.92485      615.92485      615.92485      2.3365936e+08  1.8611717     -10756218      -10756218       1175.9617     -10755042      -1894.5418     -1872.5563     -1902.5755      3.5935756     -14.318301     -11.547172      16327.692    
    135000   394.01952      0.0675         0.19092212     0.18786757     0.19155636    -1876.2926      616.21348      616.21348      616.21348      2.33988e+08    1.8585577     -10747881      -10747881       1173.3228     -10746707      -1884.2548     -1854.1088     -1890.5143      3.1437718     -13.200319     -12.434028      16409.595    
    136000   391.61027      0.068          0.19004581     0.18666082     0.19096873    -1867.5067      616.5021       616.5021       616.5021       2.3431694e+08  1.8559486     -10739572      -10739572       1166.1485     -10738405      -1875.6063     -1842.1991     -1884.7148      0.43331177    -12.733423     -12.222854      16459.657    
    137000   388.90323      0.0685         0.18868543     0.18582249     0.19004978    -1857.2504      616.79073      616.79073      616.79073      2.3464619e+08  1.8533444     -10731273      -10731273       1158.0874     -10730115      -1862.1804     -1833.9254     -1875.6455     -2.7772403     -13.144192     -10.559566      16492.56     
    138000   387.59539      0.069          0.18713942     0.18469559     0.18851295    -1843.4015      617.07935      617.07935      617.07935      2.3497575e+08  1.850745      -10723013      -10723013       1154.1929     -10721858      -1846.9225     -1822.8037     -1860.4782     -4.2232875     -12.358644     -10.889936      16445.593    
    139000   387.23142      0.0695         0.18581853     0.18355227     0.1868756     -1829.9083      617.36798      617.36798      617.36798      2.3530562e+08  1.8481505     -10714812      -10714812       1153.109      -10713659      -1833.8863     -1811.52       -1844.3188     -4.7963074     -10.968764     -14.686469      16449.543    
    140000   386.62772      0.07           0.18460367     0.18258536     0.18556914    -1818.433       617.6566       617.6566       617.6566       2.3563579e+08  1.8455609     -10706669      -10706669       1151.3113     -10705517      -1821.8966     -1801.9774     -1831.425      -5.1420778     -10.221006     -17.057176      16488.161    
    141000   385.50051      0.0705         0.18347825     0.18155007     0.1845448     -1807.955       617.94523      617.94523      617.94523      2.3596628e+08  1.842976      -10698574      -10698574       1147.9547     -10697426      -1810.7895     -1791.7599     -1821.3156     -3.6100064     -10.436043     -14.197143      16452.771    
    142000   383.81133      0.071          0.1825616      0.1802337      0.1836334     -1797.6106      618.23385      618.23385      618.23385      2.3629707e+08  1.840396      -10690521      -10690521       1142.9246     -10689378      -1801.7429     -1778.7683     -1812.3207     -0.87371781    -11.03281      -8.6933716      16454.773    
    143000   381.54704      0.0715         0.1817934      0.17893258     0.18275689    -1787.9196      618.52248      618.52248      618.52248      2.3662818e+08  1.8378209     -10682489      -10682489       1136.1819     -10681353      -1794.1614     -1765.9273     -1803.6703      1.1190664     -12.371347     -6.3596413      16460.04     
    144000   379.40052      0.072          0.18097905     0.17795459     0.1817047     -1778.5618      618.8111       618.8111       618.8111       2.3695959e+08  1.8352505     -10674474      -10674474       1129.79       -10673344      -1786.1244     -1756.2752     -1793.2859      1.524132      -13.411237     -7.9986284      16443.855    
    145000   378.10075      0.0725         0.18001835     0.17707796     0.18037864    -1768.1551      619.09972      619.09972      619.09972      2.3729131e+08  1.8326849     -10666491      -10666491       1125.9195     -10665365      -1776.643      -1747.6236     -1780.1987      0.47052496    -13.021999     -9.9728846      16465.946    
    146000   377.10224      0.073          0.17876578     0.17614779     0.1790276     -1756.5299      619.38835      619.38835      619.38835      2.3762334e+08  1.8301241     -10658557      -10658557       1122.9461     -10657435      -1764.2811     -1738.4435     -1766.8651     -0.87011643    -12.350025     -11.126181      16466.166    
    147000   375.56188      0.0735         0.17722161     0.17503799     0.17758793    -1743.0629      619.67697      619.67697      619.67697      2.3795568e+08  1.8275681     -10650675      -10650675       1118.3592     -10649557      -1749.0413     -1727.4907     -1752.6566     -2.0126839     -13.274327     -12.819904      16447.442    
    148000   373.84261      0.074          0.17551817     0.17350335     0.1760424     -1727.326       619.9656       619.9656       619.9656       2.3828833e+08  1.8250168     -10642849      -10642849       1113.2394     -10641736      -1732.2296     -1712.3449     -1737.4034     -3.3440352     -15.248022     -13.821739      16444.825    
    149000   372.53279      0.0745         0.17423957     0.1719832      0.17497725    -1714.6148      620.25422      620.25422      620.25422      2.3862129e+08  1.8224702     -10635080      -10635080       1109.339      -10633970      -1719.6108     -1697.3422     -1726.8912     -3.8222179     -14.935512     -13.462867      16483.275    
    150000   371.60898      0.075          0.17374493     0.17112399     0.17443184    -1708.3667      620.54285      620.54285      620.54285      2.3895456e+08  1.8199284     -10627341      -10627341       1106.5881     -10626235      -1714.7291     -1688.8625     -1721.5084     -3.7178749     -12.324943     -11.510686      15836.384    
    151000   371.0246       0.0755         0.17352442     0.17092792     0.17407797    -1705.8321      620.83147      620.83147      620.83147      2.3928814e+08  1.8173914     -10619613      -10619613       1104.8479     -10618508      -1712.5529     -1686.9274     -1718.016      -3.2531203     -10.333939     -9.266924       16410.434    
    152000   370.48395      0.076          0.1731442      0.17091101     0.17386325    -1703.8192      621.1201       621.1201       621.1201       2.3962203e+08  1.814859      -10611885      -10611885       1103.2379     -10610782      -1708.8004     -1686.7605     -1715.8968     -1.9426672     -10.092907     -8.3069368      16459.151    
    153000   369.73339      0.0765         0.17221319     0.17035607     0.17323892    -1696.877       621.40872      621.40872      621.40872      2.3995623e+08  1.8123313     -10604169      -10604169       1101.0029     -10603068      -1699.6121     -1681.2837     -1709.7352     -0.52571974    -10.908376     -8.7080797      16427.651    
    154000   368.74105      0.077          0.17097337     0.16912031     0.17191849    -1684.3891      621.69735      621.69735      621.69735      2.4029074e+08  1.8098084     -10596486      -10596486       1098.0479     -10595388      -1687.376      -1669.0876     -1696.7036     -0.82344398    -12.15122      -9.090238       16469.377    
    155000   367.23786      0.0775         0.16975551     0.16764061     0.17037537    -1670.4383      621.98597      621.98597      621.98597      2.4062556e+08  1.8072901     -10588855      -10588855       1093.5716     -10587762      -1675.3567     -1654.4842     -1681.4742     -2.3194275     -14.169865     -8.8611872      16457.763    
    156000   365.35234      0.078          0.16858754     0.16629682     0.16894173    -1657.4589      622.27459      622.27459      622.27459      2.409607e+08   1.8047765     -10581277      -10581277       1087.9569     -10580189      -1663.8296     -1641.222      -1667.3252     -2.5596863     -16.597669     -8.1762226      16445.567    
    157000   363.73248      0.0785         0.16737561     0.16534847     0.16783391    -1646.7078      622.56322      622.56322      622.56322      2.4129614e+08  1.8022675     -10573742      -10573742       1083.1332     -10572659      -1651.8689     -1631.8626     -1656.3919     -1.0282843     -16.635584     -8.994451       16437.52     
    158000   362.58824      0.079          0.16626042     0.16491999     0.16697296    -1638.7972      622.85184      622.85184      622.85184      2.416319e+08   1.7997632     -10566239      -10566239       1079.7259     -10565159      -1640.8628     -1627.6337     -1647.895       0.48137418    -14.180613     -11.177989      16429.277    
    159000   361.66089      0.0795         0.16569845     0.16450276     0.16608752    -1632.663       623.14047      623.14047      623.14047      2.4196796e+08  1.7972635     -10558757      -10558757       1076.9644     -10557680      -1635.3166     -1623.516      -1639.1564      0.56245076    -12.084384     -11.398006      16455.068    
    160000   360.92821      0.08           0.16556319     0.16362402     0.16528114    -1626.6744      623.42909      623.42909      623.42909      2.4230434e+08  1.7947685     -10551297      -10551297       1074.7826     -10550222      -1633.9816     -1614.8435     -1631.198      -0.79383914    -11.333349     -8.9373139      16462.372    
    161000   360.41364      0.0805         0.16518453     0.16255506     0.16481443    -1620.3768      623.71772      623.71772      623.71772      2.4264103e+08  1.7922781     -10543861      -10543861       1073.2503     -10542788      -1630.2446     -1604.2937     -1626.592      -2.9436519     -10.728894     -7.3406264      16445.072    
    162000   359.7298       0.081          0.16430971     0.16183492     0.16448346    -1614.0409      624.00634      624.00634      624.00634      2.4297803e+08  1.7897922     -10536446      -10536446       1071.2139     -10535375      -1621.6107     -1597.1865     -1623.3256     -4.8777435     -10.929049     -7.6143537      16428.321    
    163000   358.76637      0.0815         0.16329658     0.16125232     0.16386404    -1606.7537      624.29497      624.29497      624.29497      2.4331535e+08  1.787311      -10529045      -10529045       1068.345      -10527977      -1611.612      -1591.4367     -1617.2124     -5.4288191     -13.423906     -7.7686426      16438.943    
    164000   357.83929      0.082          0.1622245      0.16037208     0.16293997    -1597.2911      624.58359      624.58359      624.58359      2.4365297e+08  1.7848344     -10521675      -10521675       1065.5843     -10520610      -1601.0313     -1582.7493     -1608.0925     -4.5436562     -15.991343     -6.0599851      16427.184    
    165000   356.87581      0.0825         0.16112805     0.15939796     0.16195781    -1587.2484      624.87222      624.87222      624.87222      2.4399091e+08  1.7823623     -10514348      -10514348       1062.7152     -10513285      -1590.2102     -1573.1356     -1598.3993     -2.4574802     -16.739249     -4.3051971      16437.221    
    166000   355.61946      0.083          0.16030038     0.15875495     0.16095521    -1579.1119      625.16084      625.16084      625.16084      2.4432916e+08  1.7798948     -10507050      -10507050       1058.974      -10505991      -1582.0418     -1566.7896     -1588.5044      0.52435899    -14.813353     -4.6774098      16460.057    
    167000   354.24924      0.0835         0.15979867     0.15823084     0.16005644    -1572.7805      625.44947      625.44947      625.44947      2.4466772e+08  1.7774318     -10499770      -10499770       1054.8937     -10498715      -1577.0903     -1561.617      -1579.6343      2.9947753     -12.095929     -6.1050337      16430.784    
    168000   353.42142      0.084          0.15932533     0.15761847     0.15911449    -1566.11        625.73809      625.73809      625.73809      2.450066e+08   1.7749734     -10492510      -10492510       1052.4286     -10491457      -1572.4188     -1555.5734     -1570.3379      3.1469869     -10.380888     -7.0817894      16466.675    
    169000   353.38001      0.0845         0.158818       0.15698513     0.15826778    -1559.572       626.02671      626.02671      626.02671      2.4534578e+08  1.7725196     -10485277      -10485277       1052.3053     -10484224      -1567.4118     -1549.3228     -1561.9816     -0.54276161    -10.850124     -8.2629837      16422.65     
    170000   353.35803      0.085          0.15829935     0.15653524     0.15775744    -1554.7069      626.31534      626.31534      626.31534      2.4568528e+08  1.7700702     -10478067      -10478067       1052.2399     -10477015      -1562.2932     -1544.8827     -1556.9449     -5.2030926     -12.910487     -8.6617233      16430.209    
    171000   352.82461      0.0855         0.15784882     0.15620245     0.1574117     -1550.9926      626.60396      626.60396      626.60396      2.460251e+08   1.7676253     -10470865      -10470865       1050.6514     -10469815      -1557.8467     -1541.5984     -1553.5326     -7.0737531     -14.756933     -7.0274437      16456.452    
    172000   351.99064      0.086          0.15729709     0.15558009     0.15702393    -1545.8545      626.89259      626.89259      626.89259      2.4636522e+08  1.765185      -10463670      -10463670       1048.168      -10462622      -1552.4016     -1535.4561     -1549.7057     -5.9608007     -14.922837     -4.9336432      16427.515    
    173000   351.13065      0.0865         0.15641982     0.15453556     0.15640448    -1537.4944      627.18121      627.18121      627.18121      2.4670566e+08  1.7627491     -10456501      -10456501       1045.6071     -10455455      -1543.7436     -1525.1474     -1543.5922     -3.2209506     -14.975956     -3.9261573      16441.591    
    174000   350.45689      0.087          0.15546986     0.1534816      0.15564929    -1528.4176      627.46984      627.46984      627.46984      2.4704642e+08  1.7603178     -10449370      -10449370       1043.6008     -10448326      -1534.3682     -1514.7456     -1536.1391     -0.87519566    -14.673864     -3.1650096      16423.386    
    175000   349.59587      0.0875         0.15491398     0.15296457     0.15493696    -1522.5447      627.75846      627.75846      627.75846      2.4738749e+08  1.7578909     -10442267      -10442267       1041.0368     -10441226      -1528.8821     -1509.6429     -1529.1089     -0.080805316   -13.203565     -2.5597073      16435.265    
    176000   348.4011       0.088          0.1548128      0.1528938      0.15425366    -1519.7311      628.04709      628.04709      628.04709      2.4772887e+08  1.7554684     -10435169      -10435169       1037.479      -10434131      -1527.8836     -1508.9445     -1522.3652     -0.40750807    -10.512541     -2.7592753      16448.253    
    177000   347.43715      0.0885         0.15458314     0.15260563     0.15350542    -1515.5661      628.33571      628.33571      628.33571      2.4807056e+08  1.7530504     -10428076      -10428076       1034.6085     -10427041      -1525.617      -1506.1004     -1514.9807     -0.55970874    -8.2908187     -4.5112593      16435.071    
    178000   347.16651      0.089          0.15371878     0.15186278     0.15279294    -1507.9349      628.62434      628.62434      628.62434      2.4841257e+08  1.7506368     -10421002      -10421002       1033.8026     -10419968      -1517.0864     -1498.7691     -1507.9491      0.047395797   -8.9283774     -5.7216604      16415.321    
    179000   347.03535      0.0895         0.15263208     0.15110604     0.15216286    -1499.7976      628.91296      628.91296      628.91296      2.4875489e+08  1.7482277     -10413962      -10413962       1033.412      -10412929      -1506.3615     -1491.3007     -1501.7307      0.96231031    -11.513216     -5.7920393      16430.54     
    180000   346.53697      0.09           0.15189245     0.1505204      0.15175187    -1494.0858      629.20158      629.20158      629.20158      2.4909753e+08  1.745823      -10406948      -10406948       1031.9279     -10405916      -1499.0619     -1485.5208     -1497.6745      0.35653007    -14.11861      -5.8151386      16417.993    
    181000   345.98194      0.0905         0.15149147     0.14996334     0.15124977    -1489.2823      629.49021      629.49021      629.49021      2.4944048e+08  1.7434227     -10399947      -10399947       1030.2751     -10398917      -1495.1046     -1480.0231     -1492.7192     -2.4587453     -15.919878     -4.542201       16411.605    
    182000   345.68649      0.091          0.1511414      0.14954303     0.15062783    -1484.7019      629.77883      629.77883      629.77883      2.4978375e+08  1.7410268     -10392963      -10392963       1029.3953     -10391933      -1491.6497     -1475.875      -1486.5811     -4.3360419     -16.132768     -2.2746168      16430.29     
    183000   345.1395       0.0915         0.15056402     0.14916        0.15012854    -1479.8999      630.06746      630.06746      630.06746      2.5012733e+08  1.7386353     -10385994      -10385994       1027.7665     -10384966      -1485.9513     -1472.0948     -1481.6535     -4.1132991     -14.161394     -1.5573844      16421.64     
    184000   344.46156      0.092          0.1498969      0.14842672     0.14972033    -1473.95        630.35608      630.35608      630.35608      2.5047123e+08  1.7362481     -10379040      -10379040       1025.7477     -10378014      -1479.3674     -1464.8578     -1477.6248     -3.1129686     -11.64045      -1.1048347      16422.673    
    185000   344.03112      0.0925         0.14939069     0.14756058     0.14906378    -1467.2755      630.64471      630.64471      630.64471      2.5081544e+08  1.7338653     -10372113      -10372113       1024.4659     -10371089      -1474.3715     -1456.3097     -1471.1452     -2.2269714     -11.440036     -1.1478792      16430.298    
    186000   343.46096      0.093          0.14925804     0.14706302     0.14830272    -1462.6985      630.93333      630.93333      630.93333      2.5115997e+08  1.7314869     -10365205      -10365205       1022.7681     -10364182      -1473.0623     -1451.3992     -1463.634      -1.11754       -12.650405     -1.1729697      16430.9      
    187000   342.56796      0.0935         0.14910833     0.14667283     0.14766789    -1458.834       631.22196      631.22196      631.22196      2.5150481e+08  1.7291129     -10358301      -10358301       1020.1089     -10357281      -1471.5848     -1447.5483     -1457.3687     -0.22761343    -13.456814     -0.9333537      16421.111    
    188000   341.82707      0.094          0.14858732     0.14624618     0.147183      -1454.1212      631.51058      631.51058      631.51058      2.5184997e+08  1.7267431     -10351405      -10351405       1017.9027     -10350387      -1466.4428     -1443.3375     -1452.5833     -0.56902025    -13.470688     -1.5808212      16459.316    
    189000   341.44746      0.0945         0.14778771     0.14572209     0.1467902     -1448.4744      631.79921      631.79921      631.79921      2.5219544e+08  1.7243777     -10344529      -10344529       1016.7722     -10343512      -1458.5513     -1438.1652     -1448.7067     -1.7251504     -11.992304     -2.0182689      16411.761    
    190000   341.23198      0.095          0.14704922     0.14518004     0.14638866    -1442.9408      632.08783      632.08783      632.08783      2.5254123e+08  1.7220167     -10337679      -10337679       1016.1306     -10336662      -1451.2629     -1432.8156     -1444.7437     -1.4156985     -9.7860454     -2.0341301      16428.289    
    191000   341.05273      0.0955         0.14657819     0.14478982     0.14593962    -1438.6302      632.37646      632.37646      632.37646      2.5288733e+08  1.7196599     -10330849      -10330849       1015.5968     -10329834      -1446.6143     -1428.9644     -1440.312      -0.20489834    -9.6277411     -0.95950539     16418.279    
    192000   340.77534      0.096          0.14621644     0.14467713     0.14556174    -1435.8263      632.66508      632.66508      632.66508      2.5323375e+08  1.7173074     -10324021      -10324021       1014.7708     -10323007      -1443.0441     -1427.8522     -1436.5827      0.70479008    -10.672861      0.082649523    16415.11     
    193000   340.49227      0.0965         0.14568015     0.14464995     0.14503913    -1432.2534      632.9537       632.9537       632.9537       2.5358049e+08  1.7149592     -10317193      -10317193       1013.9278     -10316179      -1437.7513     -1427.584      -1431.425       0.51012848    -10.583207      0.39593755     16443.813    
    194000   340.60649      0.097          0.14505363     0.144142       0.14428147    -1426.0288      633.24233      633.24233      633.24233      2.5392754e+08  1.7126153     -10310386      -10310386       1014.268      -10309372      -1431.568      -1422.5709     -1423.9474     -1.9647704     -10.736977      0.66931586     16419.192    
    195000   340.66797      0.0975         0.14455821     0.14325788     0.14358882    -1419.2118      633.53095      633.53095      633.53095      2.5427491e+08  1.7102757     -10303616      -10303616       1014.451      -10302602      -1426.6786     -1413.8453     -1417.1115     -4.4774555     -12.405356      0.863743       16409.797    
    196000   340.224        0.098          0.14420925     0.14236931     0.14309213    -1413.5067      633.81958      633.81958      633.81958      2.546226e+08   1.7079403     -10296869      -10296869       1013.129      -10295856      -1423.2347     -1405.0758     -1412.2095     -3.8824233     -14.845563      1.4113141      16437.464    
    197000   339.61733      0.0985         0.14399827     0.14166987     0.14268203    -1409.1625      634.1082       634.1082       634.1082       2.549706e+08   1.7056092     -10290137      -10290137       1011.3224     -10289125      -1421.1524     -1398.1729     -1408.1622     -1.1332365     -16.342849      1.8913365      16407.951    
    198000   339.16487      0.099          0.14382697     0.14120537     0.14240635    -1406.164       634.39683      634.39683      634.39683      2.5531892e+08  1.7032823     -10283411      -10283411       1009.9751     -10282401      -1419.4619     -1393.5887     -1405.4414      0.63967891    -14.421953      1.2713225      16420.006    
    199000   338.60437      0.0995         0.14358764     0.14103051     0.1421824     -1404.0646      634.68545      634.68545      634.68545      2.5566756e+08  1.7009596     -10276682      -10276682       1008.306      -10275674      -1417.0999     -1391.8629     -1403.2312     -0.3612107     -10.842289      0.028132681    16398.366    
    200000   338.08831      0.1            0.14300294     0.14088698     0.14174135    -1400.218       634.97408      634.97408      634.97408      2.5601652e+08  1.6986412     -10269960      -10269960       1006.7693     -10268953      -1411.3293     -1390.4464     -1398.8783     -1.3613032     -9.3817713     -0.044579617    15047.468    
    201000   337.91205      0.1005         0.14231973     0.14070888     0.14121002    -1395.6366      635.2627       635.2627       635.2627       2.5636579e+08  1.696327      -10263257      -10263257       1006.2444     -10262251      -1404.5865     -1388.6887     -1393.6345     -0.69786142    -9.8384428      0.34778851     16415.367    
    202000   337.731        0.101          0.14166663     0.14043345     0.14061907    -1390.6379      635.55133      635.55133      635.55133      2.5671538e+08  1.6940169     -10256576      -10256576       1005.7052     -10255570      -1398.1409     -1385.9704     -1387.8023      0.60124746    -9.928613      -0.14926936     16389.03     
    203000   337.4168       0.1015         0.14091952     0.13991544     0.13993183    -1384.2151      635.83995      635.83995      635.83995      2.5706529e+08  1.6917111     -10249912      -10249912       1004.7696     -10248908      -1390.7675     -1380.8581     -1381.0198      0.64161515    -9.8403862     -0.41234976     16419.707    
    204000   337.07057      0.102          0.14031196     0.13940144     0.13923857    -1378.2448      636.12857      636.12857      636.12857      2.5741551e+08  1.6894095     -10243270      -10243270       1003.7386     -10242266      -1384.7714     -1375.7853     -1374.1778     -0.53848446    -9.8542963      1.1118109      16375.502    
    205000   336.91301      0.1025         0.14013311     0.1390028      0.13884585    -1375.0531      636.4172       636.4172       636.4172       2.5776605e+08  1.687112      -10236643      -10236643       1003.2694     -10235639      -1383.0062     -1371.851      -1370.302      -1.7672678     -10.015807      2.0289576      16392.225    
    206000   336.94183      0.103          0.14028215     0.13853113     0.13892842    -1374.2634      636.70582      636.70582      636.70582      2.5811692e+08  1.6848187     -10230023      -10230023       1003.3552     -10229019      -1384.4772     -1367.196      -1371.1169     -2.0656701     -10.993261      0.78562267     16403.93     
    207000   337.08999      0.1035         0.14031912     0.1378946      0.1389885     -1372.4886      636.99445      636.99445      636.99445      2.5846809e+08  1.6825295     -10223401      -10223401       1003.7964     -10222398      -1384.8421     -1360.9139     -1371.7098     -1.5153186     -13.033884     -1.0778646      16395.403    
    208000   337.05913      0.104          0.13986642     0.13740034     0.13866436    -1368.307       637.28307      637.28307      637.28307      2.5881959e+08  1.6802445     -10216785      -10216785       1003.7045     -10215781      -1380.3742     -1356.0359     -1368.5108     -0.62080532    -14.618154      0.38155939     16418.073    
    209000   336.60899      0.1045         0.13912464     0.13717578     0.13813909    -1363.4         637.5717       637.5717       637.5717       2.5917141e+08  1.6779636     -10210181      -10210181       1002.3641     -10209179      -1373.0534     -1353.8196     -1363.3269     -0.33387777    -13.191831      3.1174543      16426.215    
    210000   335.87783      0.105          0.13841012     0.13683267     0.13748517    -1357.7695      637.86032      637.86032      637.86032      2.5952354e+08  1.6756869     -10203592      -10203592       1000.1868     -10202592      -1366.0017     -1350.4335     -1356.8732     -0.97701998    -10.000854      4.1150063      16401.498    
    211000   335.43462      0.1055         0.13788348     0.1362617      0.13664271    -1351.3871      638.14895      638.14895      638.14895      2.59876e+08    1.6734143     -10197030      -10197030       998.86703     -10196031      -1360.8041     -1344.7984     -1348.5587     -1.3360318     -8.9041697      3.8609552      16430.624    
    212000   335.39756      0.106          0.13740533     0.13574722     0.13587776    -1345.6051      638.43757      638.43757      638.43757      2.6022877e+08  1.6711457     -10190497      -10190497       998.75665     -10189498      -1356.0851     -1339.7209     -1341.0092     -1.1335576     -10.429078      3.0892521      16387.767    
    213000   335.26543      0.1065         0.13684712     0.13549181     0.13546054    -1341.556       638.7262       638.7262       638.7262       2.6058186e+08  1.6688813     -10183977      -10183977       998.36322     -10182978      -1350.5761     -1337.2002     -1336.8916     -0.96851527    -11.484762      1.8359224      16398.454    
    214000   334.93565      0.107          0.13640485     0.13523932     0.13522219    -1338.4863      639.01482      639.01482      639.01482      2.6093527e+08  1.666621      -10177463      -10177463       997.38118     -10176466      -1346.2112     -1334.7084     -1334.5393     -1.8772935     -11.183176     -0.1083127      16395.011    
    215000   334.68812      0.1075         0.13626955     0.13476376     0.13479741    -1335.0793      639.30344      639.30344      639.30344      2.61289e+08    1.6643647     -10170962      -10170962       996.64406     -10169965      -1344.8759     -1330.0149     -1330.347      -1.3427343     -10.785834     -0.95438066     16375.948    
    216000   334.91232      0.108          0.13625699     0.13430588     0.13428886    -1331.8587      639.59207      639.59207      639.59207      2.6164305e+08  1.6621125     -10164474      -10164474       997.31169     -10163477      -1344.752      -1325.496      -1325.328      -0.74358951    -10.82034       0.68647167     16409.259    
    217000   335.17492      0.1085         0.13613717     0.13409615     0.13419789    -1330.4752      639.88069      639.88069      639.88069      2.6199742e+08  1.6598644     -10157991      -10157991       998.09368     -10156993      -1343.5694     -1323.4261     -1324.4302     -1.6403475     -10.739442      2.867651       16392.166    
[...]
   2897000   323.30592      1.4485         0.006261789    0.0060329958   0.0055711216  -58.774262      1413.3946      1413.3946      1413.3946      2.823516e+09   0.1540208     -2837846.8     -2837846.8      962.74982     -2836884.1     -61.799052     -59.541039     -54.982695     -0.033390223    0.33408682     3.3261067      13573.86     
   2898000   323.30144      1.449          0.006266571    0.0060241115   0.0055677579  -58.749701      1413.6832      1413.6832      1413.6832      2.8252461e+09  0.15392648    -2836512.8     -2836512.8      962.73648     -2835550.1     -61.846247     -59.453358     -54.949498     -0.042269542    0.34337938     3.3394636      13714.274    
   2899000   323.25481      1.4495         0.0062673665   0.0060125987   0.0055593694  -58.686848      1413.9718      1413.9718      1413.9718      2.8269769e+09  0.15383224    -2835179.1     -2835179.1      962.59763     -2834216.5     -61.854099     -59.339735     -54.86671      -0.041706641    0.36603424     3.3323359      13775.144    
   2900000   323.18829      1.45           0.006261473    0.0060025294   0.0055487039  -58.599247      1414.2604      1414.2604      1414.2604      2.8287084e+09  0.15373808    -2833846.4     -2833846.4      962.39953     -2832884       -61.795934     -59.240359     -54.761449     -0.054055912    0.40251974     3.3270613      13516.347    
   2901000   323.1249       1.4505         0.0062511079   0.0059934901   0.0055395413  -58.50527       1414.5491      1414.5491      1414.5491      2.8304406e+09  0.15364399    -2832515.4     -2832515.4      962.21078     -2831553.2     -61.693638     -59.151148     -54.671022     -0.066090961    0.43002932     3.3319945      13719.051    
   2902000   323.05861      1.451          0.0062414656   0.0059851362   0.0055330074  -58.424572      1414.8377      1414.8377      1414.8377      2.8321736e+09  0.15354998    -2831186       -2831186        962.01337     -2830224       -61.598476     -59.068702     -54.606538     -0.061372681    0.42932693     3.3271766      13694.888    
   2903000   322.97005      1.4515         0.0062354473   0.0059788052   0.005528897   -58.370424      1415.1263      1415.1263      1415.1263      2.8339072e+09  0.15345605    -2829857.7     -2829857.7      961.74965     -2828895.9     -61.53908      -59.00622      -54.565971     -0.039381309    0.40717381     3.2983037      13683.966    
   2904000   322.86211      1.452          0.0062311526   0.0059740515   0.0055251123  -58.328206      1415.4149      1415.4149      1415.4149      2.8356415e+09  0.15336219    -2828529.4     -2828529.4      961.42822     -2827568       -61.496694     -58.959304     -54.528619     -0.027734234    0.3854971      3.2585528      13681.835    
   2905000   322.76913      1.4525         0.0062264317   0.0059681065   0.0055177439  -58.268878      1415.7036      1415.7036      1415.7036      2.8373766e+09  0.15326841    -2827201.3     -2827201.3      961.15135     -2826240.2     -61.450104     -58.900632     -54.455898     -0.049678185    0.38059892     3.2389822      13829.878    
   2906000   322.70915      1.453          0.0062197981   0.0059582628   0.0055080112  -58.182654      1415.9922      1415.9922      1415.9922      2.8391123e+09  0.15317471    -2825874.3     -2825874.3      960.97273     -2824913.3     -61.384635     -58.803481     -54.359844     -0.077147645    0.37981022     3.2529186      13941.312    
   2907000   322.68117      1.4535         0.006209485    0.0059471718   0.0054991416  -58.083061      1416.2808      1416.2808      1416.2808      2.8408488e+09  0.15308108    -2824549.1     -2824549.1      960.88942     -2823588.2     -61.282853     -58.694022     -54.272308     -0.084792478    0.36333492     3.2635799      13965.104    
   2908000   322.69507      1.454          0.0061968965   0.0059398773   0.0054926648  -57.996344      1416.5694      1416.5694      1416.5694      2.8425859e+09  0.15298753    -2823225.8     -2823225.8      960.93082     -2822264.9     -61.158613     -58.622031     -54.208387     -0.082859967    0.33466846     3.2391596      14026.289    
   2909000   322.75944      1.4545         0.0061878847   0.0059370834   0.005488274   -57.943061      1416.8581      1416.8581      1416.8581      2.8443238e+09  0.15289405    -2821903.9     -2821903.9      961.12251     -2820942.8     -61.069674     -58.594457     -54.165053     -0.085184944    0.30662258     3.1895922      13964.905    
   2910000   322.86427      1.455          0.0061834587   0.0059361697   0.0054842129  -57.912135      1417.1467      1417.1467      1417.1467      2.8460624e+09  0.15280065    -2820582.7     -2820582.7      961.43467     -2819621.2     -61.025993     -58.58544      -54.124973     -0.094982037    0.28849528     3.1411396      13934.069    
   2911000   322.98382      1.4555         0.0061827226   0.005934822    0.0054798383  -57.890889      1417.4353      1417.4353      1417.4353      2.8478017e+09  0.15270733    -2819261.7     -2819261.7      961.79066     -2818299.9     -61.018728     -58.57214      -54.081799     -0.10245117     0.27608264     3.1188739      13943.651    
   2912000   323.08744      1.456          0.0061846984   0.005934359    0.0054754591  -57.881459      1417.7239      1417.7239      1417.7239      2.8495417e+09  0.15261408    -2817940.6     -2817940.6      962.09922     -2816978.5     -61.038228     -58.56757      -54.038579     -0.097220545    0.26707358     3.129328       13955.112    
   2913000   323.17447      1.4565         0.0061847597   0.0059348526   0.0054731819  -57.875793      1418.0126      1418.0126      1418.0126      2.8512824e+09  0.15252091    -2816619.2     -2816619.2      962.35838     -2815656.9     -61.038832     -58.572442     -54.016105     -0.097188299    0.25363048     3.1575453      14014.834    
   2914000   323.26131      1.457          0.0061806274   0.005936674    0.0054736455  -57.869716      1418.3012      1418.3012      1418.3012      2.8530238e+09  0.15242782    -2815297.7     -2815297.7      962.61699     -2814335.1     -60.998049     -58.590417     -54.020681     -0.11360414     0.23511713     3.176223       14018.084    
   2915000   323.34152      1.4575         0.0061763464   0.0059412457   0.0054761211  -57.878816      1418.5898      1418.5898      1418.5898      2.854766e+09   0.1523348     -2813975.8     -2813975.8      962.85582     -2813013       -60.955799     -58.635537     -54.045114     -0.13062974     0.22061324     3.17697        14025.921    
   2916000   323.38843      1.458          0.0061748638   0.005944583    0.0054802041  -57.89835       1418.8784      1418.8784      1418.8784      2.8565088e+09  0.15224186    -2812653.1     -2812653.1      962.99553     -2811690.1     -60.941167     -58.668472     -54.08541      -0.13054225     0.20587485     3.1877438      14051.981    
   2917000   323.37881      1.4585         0.0061744966   0.005941479    0.0054821495  -57.89333       1419.1671      1419.1671      1419.1671      2.8582523e+09  0.15214899    -2811329.3     -2811329.3      962.96688     -2810366.3     -60.937544     -58.637838     -54.104609     -0.1086294      0.18580209     3.2362833      14070.402    
   2918000   323.31585      1.459          0.0061702873   0.0059315604   0.0054770922  -57.830216      1419.4557      1419.4557      1419.4557      2.8599966e+09  0.15205619    -2810005.4     -2810005.4      962.77939     -2809042.6     -60.896001     -58.53995      -54.054697     -0.085253075    0.17235907     3.31111        14069.211    
   2919000   323.22804      1.4595         0.0061616304   0.005919074    0.005465642   -57.722992      1419.7443      1419.7443      1419.7443      2.8617416e+09  0.15196348    -2808683       -2808683        962.5179      -2807720.5     -60.810564     -58.416719     -53.941693     -0.06977617     0.17635874     3.3761268      14052.084    
   2920000   323.13047      1.46           0.0061525437   0.0059084438   0.0054516472  -57.612089      1420.0329      1420.0329      1420.0329      2.8634872e+09  0.15187084    -2807362.8     -2807362.8      962.22736     -2806400.6     -60.720885     -58.311807     -53.803575     -0.05408605     0.20550577     3.4070524      14071.931    
   2921000   323.02803      1.4605         0.0061457571   0.0059017823   0.0054405257  -57.531261      1420.3216      1420.3216      1420.3216      2.8652336e+09  0.15177827    -2806044.2     -2806044.2      961.9223      -2805082.3     -60.653906     -58.246063     -53.693814     -0.031299119    0.26502906     3.3997506      14021.71     
   2922000   322.94219      1.461          0.0061412963   0.0058992587   0.0054344759  -57.488382      1420.6102      1420.6102      1420.6102      2.8669807e+09  0.15168578    -2804726.5     -2804726.5      961.6667      -2803764.9     -60.609882     -58.221157     -53.634107     -0.0065226931   0.31746228     3.3746162      14049.512    
   2923000   322.88278      1.4615         0.0061381741   0.0058977639   0.005430315   -57.459505      1420.8988      1420.8988      1420.8988      2.8687285e+09  0.15159336    -2803409       -2803409        961.48979     -2802447.5     -60.579068     -58.206404     -53.593042      0.0077251436   0.32125306     3.3532222      14074.778    
   2924000   322.8353       1.462          0.0061335817   0.0058949526   0.0054239929  -57.41435       1421.1874      1421.1874      1421.1874      2.870477e+09   0.15150102    -2802091.4     -2802091.4      961.3484      -2801130       -60.533745     -58.178658     -53.530648      0.0015528327   0.28889516     3.3298744      14076.711    
   2925000   322.79749      1.4625         0.0061246343   0.0058902628   0.0054140585  -57.336806      1421.4761      1421.4761      1421.4761      2.8722262e+09  0.15140875    -2800774.6     -2800774.6      961.23581     -2799813.3     -60.445441     -58.132374     -53.432603     -0.014991857    0.25120864     3.3009182      14071.504    
   2926000   322.77374      1.463          0.0061111717   0.0058829645   0.0054025507  -57.23065       1421.7647      1421.7647      1421.7647      2.8739762e+09  0.15131656    -2799459.5     -2799459.5      961.16507     -2798498.4     -60.312575     -58.060345     -53.31903      -0.032715396    0.23326507     3.2675611      14080.701    
   2927000   322.763        1.4635         0.0060976617   0.0058722219   0.0053926396  -57.11826       1422.0533      1422.0533      1422.0533      2.8757268e+09  0.15122445    -2798146.8     -2798146.8      961.1331      -2797185.7     -60.179242     -57.954324     -53.221215     -0.055263762    0.24148646     3.229445       14122.369    
   2928000   322.76277      1.464          0.0060882089   0.0058631613   0.0053883429  -57.043221      1422.3419      1422.3419      1422.3419      2.8774782e+09  0.15113241    -2796836.1     -2796836.1      961.13241     -2795875       -60.085951     -57.864903     -53.17881      -0.068042779    0.26052024     3.2066811      14101.909    
   2929000   322.786        1.4645         0.0060864423   0.0058617803   0.0053912955  -57.04258       1422.6306      1422.6306      1422.6306      2.8792303e+09  0.15104044    -2795525.8     -2795525.8      961.2016      -2794564.6     -60.068516     -57.851273     -53.20795      -0.062457228    0.27064792     3.212801       14150.1      
   2930000   322.85091      1.465          0.0060914285   0.0058669224   0.0053973132  -57.095696      1422.9192      1422.9192      1422.9192      2.880983e+09   0.15094855    -2794214       -2794214        961.39487     -2793252.6     -60.117725     -57.902022     -53.26734      -0.047771259    0.27959047     3.238199       14155.396    
   2931000   322.95447      1.4655         0.0060959079   0.0058719552   0.0054005429  -57.137614      1423.2078      1423.2078      1423.2078      2.8827365e+09  0.15085673    -2792900.5     -2792900.5      961.70327     -2791938.8     -60.161934     -57.951692     -53.299215     -0.03694707     0.29875295     3.2561768      14142.066    
   2932000   323.06965      1.466          0.0060951916   0.0058726724   0.0053993406  -57.133661      1423.4964      1423.4964      1423.4964      2.8844907e+09  0.15076498    -2791586.2     -2791586.2      962.04624     -2790624.1     -60.154864     -57.95877      -53.287348     -0.032021953    0.32023483     3.2627148      14144.713    
   2933000   323.16049      1.4665         0.0060908658   0.0058681185   0.005396479   -57.095035      1423.7851      1423.7851      1423.7851      2.8862456e+09  0.15067332    -2790272       -2790272        962.31674     -2789309.7     -60.112172     -57.913826     -53.259107     -0.028330183    0.3406466      3.2680102      14174.533    
   2934000   323.19854      1.467          0.0060856911   0.0058590042   0.0053942287  -57.040625      1424.0737      1424.0737      1424.0737      2.8880013e+09  0.15058172    -2788958.7     -2788958.7      962.43008     -2787996.3     -60.061101     -57.823876     -53.236899     -0.021751673    0.34561408     3.2760263      14155.875    
   2935000   323.16989      1.4675         0.0060811377   0.0058483028   0.0053937362  -56.98882       1424.3623      1424.3623      1424.3623      2.8897576e+09  0.1504902     -2787646.2     -2787646.2      962.34475     -2786683.8     -60.016163     -57.718261     -53.232037     -0.015546916    0.3318672      3.2769485      14163.669    
   2936000   323.0906       1.468          0.0060755486   0.0058367786   0.0053926254  -56.928868      1424.6509      1424.6509      1424.6509      2.8915146e+09  0.15039875    -2786334       -2786334        962.10864     -2785371.9     -59.961002     -57.604526     -53.221075     -0.020995144    0.31086851     3.2638474      14129.936    
   2937000   323.0041       1.4685         0.0060669528   0.0058245206   0.0053874962  -56.84339       1424.9396      1424.9396      1424.9396      2.8932724e+09  0.15030738    -2785022.8     -2785022.8      961.85106     -2784060.9     -59.876168     -57.483549     -53.170454     -0.018315914    0.30106446     3.2489895      14134.031    
   2938000   322.93746      1.469          0.0060566952   0.005814336    0.0053769493  -56.741444      1425.2282      1425.2282      1425.2282      2.8950309e+09  0.15021608    -2783713.3     -2783713.3      961.65262     -2782751.6     -59.774934     -57.383035     -53.066364      0.0044285161   0.29354795     3.2498221      14094.197    
   2939000   322.89096      1.4695         0.0060471442   0.0058074122   0.0053644764  -56.646214      1425.5168      1425.5168      1425.5168      2.8967901e+09  0.15012486    -2782405.9     -2782405.9      961.51414     -2781444.3     -59.680673     -57.314702     -52.943266      0.021886728    0.28616316     3.2585935      14038.49     
   2940000   322.87206      1.47           0.0060400413   0.0058044069   0.0053555458  -56.583581      1425.8054      1425.8054      1425.8054      2.89855e+09    0.15003371    -2781100.1     -2781100.1      961.45786     -2780138.6     -59.610573     -57.285043     -52.855127      0.015516138    0.27737247     3.2624535      14055.92     
   2941000   322.88273      1.4705         0.0060357271   0.0058045659   0.0053527494  -56.560712      1426.0941      1426.0941      1426.0941      2.9003106e+09  0.14994263    -2779794.8     -2779794.8      961.48963     -2778833.3     -59.567996     -57.286611     -52.82753      -0.0051319647   0.2743366      3.2430416      14054.883    
   2942000   322.91516      1.471          0.0060354213   0.0058065532   0.0053543242  -56.571424      1426.3827      1426.3827      1426.3827      2.9020719e+09  0.14985163    -2778488.9     -2778488.9      961.58619     -2777527.3     -59.564977     -57.306225     -52.843072     -0.013505556    0.28992701     3.2149169      14096.444    
   2943000   322.95603      1.4715         0.0060378365   0.0058071573   0.0053566085  -56.588872      1426.6713      1426.6713      1426.6713      2.9038339e+09  0.1497607     -2777182       -2777182        961.70791     -2776220.3     -59.588814     -57.312187     -52.865615     -0.0086372391   0.32322132     3.2070993      14088.024    
   2944000   322.98671      1.472          0.0060387617   0.0058040655   0.0053556965  -56.578744      1426.9599      1426.9599      1426.9599      2.9055967e+09  0.14966984    -2775874.3     -2775874.3      961.79927     -2774912.5     -59.597944     -57.281673     -52.856615     -0.014047134    0.36031178     3.2110885      14109.978    
   2945000   322.98919      1.4725         0.006034611    0.0057982883   0.0053512664  -56.53151       1427.2485      1427.2485      1427.2485      2.9073601e+09  0.14957906    -2774566.7     -2774566.7      961.80666     -2773604.9     -59.55698      -57.224656     -52.812894     -0.04333406     0.37877893     3.2141381      14105.307    
   2946000   322.94847      1.473          0.0060247595   0.0057909459   0.0053430776  -56.448007      1427.5372      1427.5372      1427.5372      2.9091243e+09  0.14948835    -2773260.3     -2773260.3      961.68538     -2772298.6     -59.459753     -57.152193     -52.732076     -0.081347615    0.35611648     3.2063994      14057.911    
   2947000   322.87464      1.4735         0.006011144    0.0057822957   0.0053306684  -56.333936      1427.8258      1427.8258      1427.8258      2.9108892e+09  0.14939772    -2771955.7     -2771955.7      961.46556     -2770994.2     -59.325378     -57.066822     -52.609607     -0.10697662     0.31732272     3.1840523      14061.379    
   2948000   322.80027      1.474          0.0059982954   0.0057748865   0.0053163148  -56.220073      1428.1144      1428.1144      1428.1144      2.9126548e+09  0.14930715    -2770653.2     -2770653.2      961.24407     -2769691.9     -59.198572     -56.993698     -52.467948     -0.10856566     0.28309431     3.1669083      14022.824    
   2949000   322.75112      1.4745         0.005990306    0.0057698563   0.0053042002  -56.137388      1428.403       1428.403       1428.403       2.9144211e+09  0.14921667    -2769352.6     -2769352.6      961.09773     -2768391.5     -59.119723     -56.944055     -52.348385     -0.091723459    0.26207498     3.1630297      14005.076    
   2950000   322.73306      1.475          0.0059881936   0.0057658176   0.0052990729  -56.100285      1428.6917      1428.6917      1428.6917      2.9161881e+09  0.14912625    -2768053.1     -2768053.1      961.04394     -2767092.1     -59.098876     -56.904196     -52.297783     -0.064367862    0.26259171     3.1658358      13660.092    
   2951000   322.73696      1.4755         0.0059886359   0.0057604901   0.005302082   -56.094113      1428.9803      1428.9803      1428.9803      2.9179559e+09  0.14903591    -2766753.5     -2766753.5      961.05555     -2765792.4     -59.103241     -56.851617     -52.327481     -0.045034067    0.28322603     3.1694006      13774.344    
   2952000   322.7549       1.476          0.0059877325   0.0057546784   0.0053080153  -56.091541      1429.2689      1429.2689      1429.2689      2.9197243e+09  0.14894564    -2765453.3     -2765453.3      961.10899     -2764492.2     -59.094325     -56.79426      -52.386038     -0.048830328    0.31365529     3.1620041      13702.952    
   2953000   322.78853      1.4765         0.0059863216   0.0057521313   0.0053127485  -56.094091      1429.5575      1429.5575      1429.5575      2.9214935e+09  0.14885544    -2764152.5     -2764152.5      961.20912     -2763191.3     -59.080401     -56.769123     -52.432751     -0.062442669    0.33422361     3.1368911      13683.971    
   2954000   322.83892      1.477          0.0059841838   0.0057528904   0.0053137635  -56.092895      1429.8462      1429.8462      1429.8462      2.9232634e+09  0.14876531    -2762851.1     -2762851.1      961.35918     -2761889.8     -59.059302     -56.776614     -52.442768     -0.055526502    0.3311599      3.1054817      13617.037