LAMMPS (23 Jun 2022 - Update 1)
OMP_NUM_THREADS environment is not set. Defaulting to 1 thread. (src/comm.cpp:98)
  using 1 OpenMP thread(s) per MPI task
# Read restart
read_restart ${read_res}
read_restart ./pgnpmf/trial2/91/equpmf71.res
Reading restart file ...
  restart file = 23 Jun 2022, LAMMPS = 23 Jun 2022
  restoring atom style atomic from restart
  orthogonal box = (1733.3362 1733.3362 1733.3362) to (2266.6638 2266.6638 2266.6638)
  2 by 1 by 2 MPI processor grid
  restoring pair style table from restart
  1000 atoms
  read_restart CPU = 0.051 seconds

# Settings

pair_style table spline 9941

pair_coeff 1 1 ./pgnpmf/N20.txt DE_GNP 75.6
pair_coeff 2 2 ./pgnpmf/N100.txt DE_GNP 115.92
WARNING: 3 of 9941 force values in table DE_GNP are inconsistent with -dE/dr.
WARNING:  Should only be flagged at inflection points (src/pair_table.cpp:463)
pair_coeff 1 2 ./pgnpmf/mixed_potential.txt DE_GNP 95.66
WARNING: 1562 of 9941 force values in table DE_GNP are inconsistent with -dE/dr.
WARNING:  Should only be flagged at inflection points (src/pair_table.cpp:463)

#Neigh_list Calc Frequency

neigh_modify delay 0 every 1 check yes

# computes
compute vor all voronoi/atom

# Saving Frequency (50 frames)
variable ts_save equal ${steps_equ}
variable ts_save equal 5000

# Dump
dump 1 all custom 100000 ./pgnpmf/${folder}/voronoi/voronoi_${usic}_${trial}.custom type x y z ix iy iz c_vor[1] c_vor[2]
dump 1 all custom 100000 ./pgnpmf/trial2/91/voronoi/voronoi_${usic}_${trial}.custom type x y z ix iy iz c_vor[1] c_vor[2]
dump 1 all custom 100000 ./pgnpmf/trial2/91/voronoi/voronoi_1_${trial}.custom type x y z ix iy iz c_vor[1] c_vor[2]
dump 1 all custom 100000 ./pgnpmf/trial2/91/voronoi/voronoi_1_1.custom type x y z ix iy iz c_vor[1] c_vor[2]
dump_modify 1 first no sort id
#dump 2 all cfg 50000 ./pgnpmf/${folder}/equilibration/trajectory/dumpgen.tens_*.cfg mass type xs ys zs fx fy fz
#dump_modify 2 element N20 N100

# thermo_style
thermo_style custom step temp press pe density ke etotal lx ly lz xlo xhi ylo yhi zlo zhi vol dt time cpu tpcpu spcpu cpuremain

# run info
timestep ${ts}
timestep 0.5
thermo 200

# fix

fix 1 all momentum 1000 linear 1 1 1 angular
variable T equal ${temp}
variable T equal 300
fix 2 all nvt temp ${T} ${T} 100.0
fix 2 all nvt temp 300 ${T} 100.0
fix 2 all nvt temp 300 300 100.0

run 100000
Generated 0 of 1 mixed pair_coeff terms from geometric mixing rule
Unused restart file global fix info:
  fix style: npt, fix ID: 5
Neighbor list info ...
  update every 1 steps, delay 0 steps, check yes
  max neighbors/atom: 2000, page size: 100000
  master list distance cutoff = 117.92
  ghost atom cutoff = 117.92
  binsize = 58.96, bins = 10 10 10
  1 neighbor lists, perpetual/occasional/extra = 1 0 0
  (1) pair table, perpetual
      attributes: half, newton on
      pair build: half/bin/atomonly/newton
      stencil: half/bin/3d
      bin: standard
Per MPI rank memory allocation (min/avg/max) = 3.115 | 3.115 | 3.115 Mbytes
   Step          Temp          Press          PotEng        Density         KinEng         TotEng           Lx             Ly             Lz            Xlo            Xhi            Ylo            Yhi            Zlo            Zhi           Volume           Dt            Time           CPU           T/CPU          S/CPU         CPULeft    
  50110000   296.34659      2.0207679     -10618758       2.6475895      882.46955     -10617875       533.32761      533.32761      533.32761      1733.3362      2266.6638      1733.3362      2266.6638      1733.3362      2266.6638      1.5169882e+08  0.5            25260000       0              0              0              0            
  50110200   300.64637      1.395779      -10618392       2.6475895      895.27355     -10617497       533.32761      533.32761      533.32761      1733.3362      2266.6638      1733.3362      2266.6638      1733.3362      2266.6638      1.5169882e+08  0.5            25260100       0.017664438    5660.8675      11321.22       8.8157312    
  50110400   311.18866      0.3313163     -10618395       2.6475895      926.66668     -10617469       533.32761      533.32761      533.32761      1733.3362      2266.6638      1733.3362      2266.6638      1733.3362      2266.6638      1.5169882e+08  0.5            25260200       0.034115986    6078.4967      12156.994      8.4954395    
  50110600   310.72555     -0.67364276    -10618398       2.6475895      925.28763     -10617473       533.32761      533.32761      533.32761      1733.3362      2266.6638      1733.3362      2266.6638      1733.3362      2266.6638      1.5169882e+08  0.5            25260300       0.048634236    6887.8868      13775.788      8.0574349    
  50110800   292.49388     -1.2626852     -10618401       2.6475895      870.99683     -10617530       533.32761      533.32761      533.32761      1733.3362      2266.6638      1733.3362      2266.6638      1733.3362      2266.6638      1.5169882e+08  0.5            25260400       0.062869838    7024.677       14049.299      7.7961243    
  50111000   293.90678     -1.3768595     -10618403       2.6475895      875.2042      -10617527       533.32761      533.32761      533.32761      1733.3362      2266.6638      1733.3362      2266.6638      1733.3362      2266.6638      1.5169882e+08  0.5            25260500       0.077160447    6997.6024      13995.255      7.6390883    
  50111200   305.71578     -0.91057473    -10618036       2.6475895      910.3694      -10617125       533.32761      533.32761      533.32761      1733.3362      2266.6638      1733.3362      2266.6638      1733.3362      2266.6638      1.5169882e+08  0.5            25260600       0.091383476    7030.8487      14061.728      7.5240696    
  50111400   307.75878     -0.70374317    -10618037       2.6475895      916.45308     -10617120       533.32761      533.32761      533.32761      1733.3362      2266.6638      1733.3362      2266.6638      1733.3362      2266.6638      1.5169882e+08  0.5            25260700       0.10560422     7031.9656      14063.884      7.4376994    
  50111600   285.83241     -0.67489842    -10618038       2.6475895      851.1601      -10617187       533.32761      533.32761      533.32761      1733.3362      2266.6638      1733.3362      2266.6638      1733.3362      2266.6638      1.5169882e+08  0.5            25260800       0.11981673     7036.0816      14072.199      7.3688506    
  50111800   287.91735     -0.29080612    -10617672       2.6475895      857.36869     -10616814       533.32761      533.32761      533.32761      1733.3362      2266.6638      1733.3362      2266.6638      1733.3362      2266.6638      1.5169882e+08  0.5            25260900       0.13401746     7041.8915      14083.812      7.3115052    
  50112000   301.7934       0.077964909   -10617675       2.6475895      898.68921     -10616776       533.32761      533.32761      533.32761      1733.3362      2266.6638      1733.3362      2266.6638      1733.3362      2266.6638      1.5169882e+08  0.5            25261000       0.14821718     7042.4102      14084.8        7.2627426    
  50112200   306.15763      0.57341117    -10617679       2.6475895      911.68513     -10616767       533.32761      533.32761      533.32761      1733.3362      2266.6638      1733.3362      2266.6638      1733.3362      2266.6638      1.5169882e+08  0.5            25261100       0.1624121      7044.7614      14089.538      7.2200443    
  50112400   298.19753      0.83959645    -10617682       2.6475895      887.98133     -10616794       533.32761      533.32761      533.32761      1733.3362      2266.6638      1733.3362      2266.6638      1733.3362      2266.6638      1.5169882e+08  0.5            25261200       0.17662854     7034.141       14068.242      7.1829744    
  50112600   287.4533       0.71563595    -10617686       2.6475895      855.98683     -10616830       533.32761      533.32761      533.32761      1733.3362      2266.6638      1733.3362      2266.6638      1733.3362      2266.6638      1.5169882e+08  0.5            25261300       0.19083576     7038.6767      14077.382      7.1490731    
  50112800   296.61544      0.5461927     -10617692       2.6475895      883.27013     -10616808       533.32761      533.32761      533.32761      1733.3362      2266.6638      1733.3362      2266.6638      1733.3362      2266.6638      1.5169882e+08  0.5            25261400       0.20505809     7031.1705      14062.33       7.118513     
  50113000   315.88876      0.88351832    -10617698       2.6475895      940.66279     -10616757       533.32761      533.32761      533.32761      1733.3362      2266.6638      1733.3362      2266.6638      1733.3362      2266.6638      1.5169882e+08  0.5            25261500       0.21950212     6923.276       13846.516      7.0973016    
  50113200   304.32938      1.8891199     -10617704       2.6475895      906.24091     -10616798       533.32761      533.32761      533.32761      1733.3362      2266.6638      1733.3362      2266.6638      1733.3362      2266.6638      1.5169882e+08  0.5            25261600       0.23374267     7022.2209      14044.52       7.0707732    
  50113400   295.22275      3.18961       -10617710       2.6475895      879.12294     -10616831       533.32761      533.32761      533.32761      1733.3362      2266.6638      1733.3362      2266.6638      1733.3362      2266.6638      1.5169882e+08  0.5            25261700       0.24797138     7028.0218      14055.994      7.0453599    
  50113600   298.11008      4.3598763     -10617716       2.6475895      887.72093     -10616829       533.32761      533.32761      533.32761      1733.3362      2266.6638      1733.3362      2266.6638      1733.3362      2266.6638      1.5169882e+08  0.5            25261800       0.26221256     7021.9211      14043.9        7.0215197    
  50113800   306.8093       5.2276843     -10617722       2.6475895      913.62572     -10616809       533.32761      533.32761      533.32761      1733.3362      2266.6638      1733.3362      2266.6638      1733.3362      2266.6638      1.5169882e+08  0.5            25261900       0.27644929     7024.0829      14048.12       6.9985804    
  50114000   310.85469      5.8094663     -10617728       2.6475895      925.67218     -10616803       533.32761      533.32761      533.32761      1733.3362      2266.6638      1733.3362      2266.6638      1733.3362      2266.6638      1.5169882e+08  0.5            25262000       0.29070684     7013.8041      14027.611      6.9770111    
  50114200   294.3924       6.0798127     -10617734       2.6475895      876.65031     -10616858       533.32761      533.32761      533.32761      1733.3362      2266.6638      1733.3362      2266.6638      1733.3362      2266.6638      1.5169882e+08  0.5            25262100       0.30495312     7019.3925      14038.765      6.9558802    
  50114400   292.20154      6.0303394     -10617741       2.6475895      870.1263      -10616870       533.32761      533.32761      533.32761      1733.3362      2266.6638      1733.3362      2266.6638      1733.3362      2266.6638      1.5169882e+08  0.5            25262200       0.31921036     7013.9571      14027.944      6.9356136    
  50114600   304.41671      5.7550607     -10617746       2.6475895      906.50098     -10616840       533.32761      533.32761      533.32761      1733.3362      2266.6638      1733.3362      2266.6638      1733.3362      2266.6638      1.5169882e+08  0.5            25262300       0.33345        7022.6273      14045.208      6.9155049    
  50114800   310.75902      5.3505747     -10617751       2.6475895      925.38731     -10616825       533.32761      533.32761      533.32761      1733.3362      2266.6638      1733.3362      2266.6638      1733.3362      2266.6638      1.5169882e+08  0.5            25262400       0.34768408     7025.4242      14050.913      6.895772     
  50115000   289.69599      4.9211685     -10617754       2.6475895      862.66518     -10616892       533.32761      533.32761      533.32761      1733.3362      2266.6638      1733.3362      2266.6638      1733.3362      2266.6638      1.5169882e+08  0.5            25262500       0.36194565     7011.8699      14023.743      6.8770033    
  50115200   289.40629      4.6576276     -10617758       2.6475895      861.80251     -10616897       533.32761      533.32761      533.32761      1733.3362      2266.6638      1733.3362      2266.6638      1733.3362      2266.6638      1.5169882e+08  0.5            25262600       0.37620048     7015.1518      14030.273      6.8584589    
  50115400   303.079        4.6957994     -10617394       2.6475895      902.5175      -10616492       533.32761      533.32761      533.32761      1733.3362      2266.6638      1733.3362      2266.6638      1733.3362      2266.6638      1.5169882e+08  0.5            25262700       0.39043275     7026.2727      14052.564      6.8398373    
  50115600   306.7755       4.331924      -10617397       2.6475895      913.52506     -10616483       533.32761      533.32761      533.32761      1733.3362      2266.6638      1733.3362      2266.6638      1733.3362      2266.6638      1.5169882e+08  0.5            25262800       0.40467478     7021.4857      14042.944      6.8216938    
  50115800   296.58365      3.8494447     -10617399       2.6475895      883.17546     -10616515       533.32761      533.32761      533.32761      1733.3362      2266.6638      1733.3362      2266.6638      1733.3362      2266.6638      1.5169882e+08  0.5            25262900       0.41893002     7014.9628      14029.931      6.8040324    
  50116000   285.58989      3.596965      -10617400       2.6475895      850.43792     -10616550       533.32761      533.32761      533.32761      1733.3362      2266.6638      1733.3362      2266.6638      1733.3362      2266.6638      1.5169882e+08  0.5            25263000       0.43319063     7012.3144      14024.653      6.7866836    
  50116200   299.44535      3.5006454     -10617403       2.6475895      891.69712     -10616511       533.32761      533.32761      533.32761      1733.3362      2266.6638      1733.3362      2266.6638      1733.3362      2266.6638      1.5169882e+08  0.5            25263100       0.44741086     7032.241       14064.462      6.7689224    
  50116400   313.77498      3.3151538     -10617406       2.6475895      934.3683      -10616471       533.32761      533.32761      533.32761      1733.3362      2266.6638      1733.3362      2266.6638      1733.3362      2266.6638      1.5169882e+08  0.5            25263200       0.46193863     6883.3334      13766.596      6.7558845    
  50116600   300.97732      3.0326537     -10617408       2.6475895      896.25906     -10616511       533.32761      533.32761      533.32761      1733.3362      2266.6638      1733.3362      2266.6638      1733.3362      2266.6638      1.5169882e+08  0.5            25263300       0.47618087     7021.3758      14042.837      6.7387099    
  50116800   292.68773      2.7198964     -10617411       2.6475895      871.57407     -10616539       533.32761      533.32761      533.32761      1733.3362      2266.6638      1733.3362      2266.6638      1733.3362      2266.6638      1.5169882e+08  0.5            25263400       0.49041926     7023.265       14046.474      6.721657     
  50117000   299.50947      2.5881097     -10617416       2.6475895      891.88806     -10616524       533.32761      533.32761      533.32761      1733.3362      2266.6638      1733.3362      2266.6638      1733.3362      2266.6638      1.5169882e+08  0.5            25263500       0.50468531     7009.6557      14019.328      6.7051317    
  50117200   312.22849      3.0512354     -10615527       2.6475895      929.76314     -10614598       533.32761      533.32761      533.32761      1733.3362      2266.6638      1733.3362      2266.6638      1733.3362      2266.6638      1.5169882e+08  0.5            25263600       0.51896224     7004.3138      14008.682      6.6888724    
  50117400   306.71409      3.2558497     -10615532       2.6475895      913.34217     -10614618       533.32761      533.32761      533.32761      1733.3362      2266.6638      1733.3362      2266.6638      1733.3362      2266.6638      1.5169882e+08  0.5            25263700       0.53323893     7004.435       14008.81       6.6727178    
  50117600   289.97202      3.5022092     -10615536       2.6475895      863.48715     -10614673       533.32761      533.32761      533.32761      1733.3362      2266.6638      1733.3362      2266.6638      1733.3362      2266.6638      1.5169882e+08  0.5            25263800       0.54750288     7010.6532      14021.307      6.6565073    
  50117800   297.2045       3.6738097     -10615543       2.6475895      885.02426     -10614658       533.32761      533.32761      533.32761      1733.3362      2266.6638      1733.3362      2266.6638      1733.3362      2266.6638      1.5169882e+08  0.5            25263900       0.56179449     6997.1422      13994.322      6.6407222    
  50118000   309.41395      3.3967705     -10615549       2.6475895      921.38191     -10614627       533.32761      533.32761      533.32761      1733.3362      2266.6638      1733.3362      2266.6638      1733.3362      2266.6638      1.5169882e+08  0.5            25264000       0.57606524     7007.3255      14014.681      6.6247731    
  50118200   303.69589      3.1529618     -10615185       2.6475895      904.3545      -10614281       533.32761      533.32761      533.32761      1733.3362      2266.6638      1733.3362      2266.6638      1733.3362      2266.6638      1.5169882e+08  0.5            25264100       0.59031331     7018.489       14036.907      6.6086524    
  50118400   288.54543      2.9121405     -10615191       2.6475895      859.23902     -10614332       533.32761      533.32761      533.32761      1733.3362      2266.6638      1733.3362      2266.6638      1733.3362      2266.6638      1.5169882e+08  0.5            25264200       0.60456134     7018.5338      14037.089      6.5926191    
  50118600   295.77128      2.7561625     -10615199       2.6475895      880.75637     -10614318       533.32761      533.32761      533.32761      1733.3362      2266.6638      1733.3362      2266.6638      1733.3362      2266.6638      1.5169882e+08  0.5            25264300       0.6188182      7014.1569      14028.353      6.5767627    
  50118800   304.93761      2.540688      -10615208       2.6475895      908.05214     -10614300       533.32761      533.32761      533.32761      1733.3362      2266.6638      1733.3362      2266.6638      1733.3362      2266.6638      1.5169882e+08  0.5            25264400       0.63303774     7032.5793      14065.135      6.5605935    
  50119000   304.48155      2.2728873     -10615219       2.6475895      906.69406     -10614312       533.32761      533.32761      533.32761      1733.3362      2266.6638      1733.3362      2266.6638      1733.3362      2266.6638      1.5169882e+08  0.5            25264500       0.64729454     7014.213       14028.428      6.5448869    
  50119200   290.51608      1.9760818     -10615231       2.6475895      865.10728     -10614366       533.32761      533.32761      533.32761      1733.3362      2266.6638      1733.3362      2266.6638      1733.3362      2266.6638      1.5169882e+08  0.5            25264600       0.66155323     7013.2562      14026.535      6.529262     
  50119400   291.7114       1.2600339     -10615611       2.6475895      868.66674     -10614742       533.32761      533.32761      533.32761      1733.3362      2266.6638      1733.3362      2266.6638      1733.3362      2266.6638      1.5169882e+08  0.5            25264700       0.67578409     7026.9738      14053.904      6.5134275    
  50119600   300.8157       0.56088168    -10615622       2.6475895      895.7778      -10614726       533.32761      533.32761      533.32761      1733.3362      2266.6638      1733.3362      2266.6638      1733.3362      2266.6638      1.5169882e+08  0.5            25264800       0.68999929     7034.7392      14069.496      6.4975119    
  50119800   303.98446     -0.2987951     -10617528       2.6475895      905.21381     -10616622       533.32761      533.32761      533.32761      1733.3362      2266.6638      1733.3362      2266.6638      1733.3362      2266.6638      1.5169882e+08  0.5            25264900       0.70423418     7024.9894      14049.994      6.4818469    
  50120000   299.18148     -0.65209744    -10617537       2.6475895      890.91136     -10616646       533.32761      533.32761      533.32761      1733.3362      2266.6638      1733.3362      2266.6638      1733.3362      2266.6638      1.5169882e+08  0.5            25265000       0.7185045      7007.5567      14015.096      6.4665581    
  50120200   291.11813     -0.72390359    -10615651       2.6475895      866.90008     -10614784       533.32761      533.32761      533.32761      1733.3362      2266.6638      1733.3362      2266.6638      1733.3362      2266.6638      1.5169882e+08  0.5            25265100       0.73278466     7002.7217      14005.463      6.4513956    
  50120400   293.38788     -0.59295687    -10615660       2.6475895      873.65901     -10614787       533.32761      533.32761      533.32761      1733.3362      2266.6638      1733.3362      2266.6638      1733.3362      2266.6638      1.5169882e+08  0.5            25265200       0.74703782     7015.9856      14031.933      6.4360353    
  50120600   314.79003     -0.071950972   -10615671       2.6475895      937.39095     -10614734       533.32761      533.32761      533.32761      1733.3362      2266.6638      1733.3362      2266.6638      1733.3362      2266.6638      1.5169882e+08  0.5            25265300       0.76132113     7001.1837      14002.391      6.4209696    
  50120800   311.12724      0.4543178     -10615682       2.6475895      926.48378     -10614756       533.32761      533.32761      533.32761      1733.3362      2266.6638      1733.3362      2266.6638      1733.3362      2266.6638      1.5169882e+08  0.5            25265400       0.77588563     6865.9971      13731.972      6.4082574    
  50121000   298.26935      1.399792      -10615692       2.6475895      888.1952      -10614804       533.32761      533.32761      533.32761      1733.3362      2266.6638      1733.3362      2266.6638      1733.3362      2266.6638      1.5169882e+08  0.5            25265500       0.79015818     7006.4638      14012.936      6.3931141    
  50121200   298.10494      2.3036413     -10615701       2.6475895      887.70561     -10614813       533.32761      533.32761      533.32761      1733.3362      2266.6638      1733.3362      2266.6638      1733.3362      2266.6638      1.5169882e+08  0.5            25265600       0.80476342     6846.8432      13693.699      6.3806402    
  50121400   301.52012      2.8872971     -10615709       2.6475895      897.87543     -10614811       533.32761      533.32761      533.32761      1733.3362      2266.6638      1733.3362      2266.6638      1733.3362      2266.6638      1.5169882e+08  0.5            25265700       0.8193952      6834.4473      13668.871      6.3682979    
  50121600   301.54307      3.2924835     -10615716       2.6475895      897.94377     -10614818       533.32761      533.32761      533.32761      1733.3362      2266.6638      1733.3362      2266.6638      1733.3362      2266.6638      1.5169882e+08  0.5            25265800       0.83404575     6825.6669      13651.337      6.3560193    
  50121800   292.0831       3.9057465     -10615723       2.6475895      869.7736      -10614853       533.32761      533.32761      533.32761      1733.3362      2266.6638      1733.3362      2266.6638      1733.3362      2266.6638      1.5169882e+08  0.5            25265900       0.84827632     7027.1432      14054.326      6.3405208    
  50122000   292.53523      4.7814947     -10615731       2.6475895      871.11997     -10614860       533.32761      533.32761      533.32761      1733.3362      2266.6638      1733.3362      2266.6638      1733.3362      2266.6638      1.5169882e+08  0.5            25266000       0.86254721     7007.2739      14014.554      6.3253603    
  50122200   310.31187      5.7043358     -10615742       2.6475895      924.05575     -10614818       533.32761      533.32761      533.32761      1733.3362      2266.6638      1733.3362      2266.6638      1733.3362      2266.6638      1.5169882e+08  0.5            25266100       0.87676312     7034.3656      14068.701      6.3098342    
  50122400   313.08945      6.4979615     -10615751       2.6475895      932.32692     -10614819       533.32761      533.32761      533.32761      1733.3362      2266.6638      1733.3362      2266.6638      1733.3362      2266.6638      1.5169882e+08  0.5            25266200       0.8913566      6852.3691      13704.732      6.2970175    
  50122600   295.98903      7.0568813     -10615761       2.6475895      881.40478     -10614880       533.32761      533.32761      533.32761      1733.3362      2266.6638      1733.3362      2266.6638      1733.3362      2266.6638      1.5169882e+08  0.5            25266300       0.90563569     7003.2518      14006.54       6.281963     
  50122800   298.99606      6.8097689     -10616141       2.6475895      890.35922     -10615251       533.32761      533.32761      533.32761      1733.3362      2266.6638      1733.3362      2266.6638      1733.3362      2266.6638      1.5169882e+08  0.5            25266400       0.91989431     7013.2867      14026.543      6.266794     
  50123000   303.35309      7.774109      -10615782       2.6475895      903.3337      -10614879       533.32761      533.32761      533.32761      1733.3362      2266.6638      1733.3362      2266.6638      1733.3362      2266.6638      1.5169882e+08  0.5            25266500       0.93414629     7016.6059      14033.178      6.2516077    
  50123200   300.76926      8.5377927     -10615791       2.6475895      895.63951     -10614895       533.32761      533.32761      533.32761      1733.3362      2266.6638      1733.3362      2266.6638      1733.3362      2266.6638      1.5169882e+08  0.5            25266600       0.94833877     7045.9725      14092.012      6.2360585    
  50123400   290.53834      8.5555501     -10615801       2.6475895      865.17356     -10614936       533.32761      533.32761      533.32761      1733.3362      2266.6638      1733.3362      2266.6638      1733.3362      2266.6638      1.5169882e+08  0.5            25266700       0.96256947     7027.0607      14054.089      6.2207975    
  50123600   293.50468      8.6113452     -10615811       2.6475895      874.00683     -10614937       533.32761      533.32761      533.32761      1733.3362      2266.6638      1733.3362      2266.6638      1733.3362      2266.6638      1.5169882e+08  0.5            25266800       0.97677033     7041.8092      14083.649      6.205377     
  50123800   316.56917      8.9368737     -10615821       2.6475895      942.68894     -10614878       533.32761      533.32761      533.32761      1733.3362      2266.6638      1733.3362      2266.6638      1733.3362      2266.6638      1.5169882e+08  0.5            25266900       0.99096484     7045.0095      14090.027      6.1899515    
  50124000   313.29466      8.933811      -10615830       2.6475895      932.938       -10614897       533.32761      533.32761      533.32761      1733.3362      2266.6638      1733.3362      2266.6638      1733.3362      2266.6638      1.5169882e+08  0.5            25267000       1.0051827      7033.3939      14066.746      6.174706     
  50124200   303.1118       8.7765164     -10615838       2.6475895      902.61517     -10614936       533.32761      533.32761      533.32761      1733.3362      2266.6638      1733.3362      2266.6638      1733.3362      2266.6638      1.5169882e+08  0.5            25267100       1.0193977      7034.8575      14069.75       6.1594707    
  50124400   298.68106      8.8472492     -10615847       2.6475895      889.42121     -10614958       533.32761      533.32761      533.32761      1733.3362      2266.6638      1733.3362      2266.6638      1733.3362      2266.6638      1.5169882e+08  0.5            25267200       1.0338875      6901.3594      13802.653      6.145899     
  50124600   296.67809      8.5906333     -10616225       2.6475895      883.4567      -10615342       533.32761      533.32761      533.32761      1733.3362      2266.6638      1733.3362      2266.6638      1733.3362      2266.6638      1.5169882e+08  0.5            25267300       1.0481033      7034.4765      14068.979      6.1306977    
  50124800   298.7548       8.8146587     -10616233       2.6475895      889.64078     -10615343       533.32761      533.32761      533.32761      1733.3362      2266.6638      1733.3362      2266.6638      1733.3362      2266.6638      1.5169882e+08  0.5            25267400       1.0623398      7024.186       14048.33       6.1156433    
  50125000   305.23798      8.8707        -10616239       2.6475895      908.94657     -10615331       533.32761      533.32761      533.32761      1733.3362      2266.6638      1733.3362      2266.6638      1733.3362      2266.6638      1.5169882e+08  0.5            25267500       1.0765787      7023.0307      14046.152      6.1006229    
  50125200   305.21133      8.5653755     -10616245       2.6475895      908.86723     -10615336       533.32761      533.32761      533.32761      1733.3362      2266.6638      1733.3362      2266.6638      1733.3362      2266.6638      1.5169882e+08  0.5            25267600       1.0908256      7019.0491      14038.05       6.0856693    
  50125400   293.03327      7.9575641     -10618145       2.6475895      872.60305     -10617272       533.32761      533.32761      533.32761      1733.3362      2266.6638      1733.3362      2266.6638      1733.3362      2266.6638      1.5169882e+08  0.5            25267700       1.1050855      7012.6753      14025.352      6.0708049    
  50125600   292.58448      7.4775347     -10618151       2.6475895      871.26661     -10617280       533.32761      533.32761      533.32761      1733.3362      2266.6638      1733.3362      2266.6638      1733.3362      2266.6638      1.5169882e+08  0.5            25267800       1.1193586      7006.1654      14012.345      6.0560277    
  50125800   309.08572      6.8464783     -10618156       2.6475895      920.40448     -10617235       533.32761      533.32761      533.32761      1733.3362      2266.6638      1733.3362      2266.6638      1733.3362      2266.6638      1.5169882e+08  0.5            25267900       1.1336053      7019.2142      14038.438      6.0411216    
  50126000   314.95558      6.5070289     -10618159       2.6475895      937.88393     -10617221       533.32761      533.32761      533.32761      1733.3362      2266.6638      1733.3362      2266.6638      1733.3362      2266.6638      1.5169882e+08  0.5            25268000       1.1478562      7017.1026      14034.191      6.026255     
  50126200   292.56024      6.7354627     -10618162       2.6475895      871.19444     -10617291       533.32761      533.32761      533.32761      1733.3362      2266.6638      1733.3362      2266.6638      1733.3362      2266.6638      1.5169882e+08  0.5            25268100       1.1621178      7011.7853      14023.579      6.0114589    
  50126400   295.71529      7.3259776     -10618167       2.6475895      880.58964     -10617287       533.32761      533.32761      533.32761      1733.3362      2266.6638      1733.3362      2266.6638      1733.3362      2266.6638      1.5169882e+08  0.5            25268200       1.1763627      7020.1105      14040.246      5.9965897    
  50126600   306.29543      7.6939389     -10618174       2.6475895      912.09548     -10617262       533.32761      533.32761      533.32761      1733.3362      2266.6638      1733.3362      2266.6638      1733.3362      2266.6638      1.5169882e+08  0.5            25268300       1.1906095      7019.1014      14038.19       5.9817463    
  50126800   306.91546      7.3884012     -10618552       2.6475895      913.94182     -10617638       533.32761      533.32761      533.32761      1733.3362      2266.6638      1733.3362      2266.6638      1733.3362      2266.6638      1.5169882e+08  0.5            25268400       1.2048781      7008.3872      14016.773      5.9670246    
  50127000   293.14706      7.1148178     -10618193       2.6475895      872.94189     -10617320       533.32761      533.32761      533.32761      1733.3362      2266.6638      1733.3362      2266.6638      1733.3362      2266.6638      1.5169882e+08  0.5            25268500       1.2191927      6985.8609      13971.707      5.9525385    
  50127200   293.69254      6.5167029     -10618199       2.6475895      874.56623     -10617325       533.32761      533.32761      533.32761      1733.3362      2266.6638      1733.3362      2266.6638      1733.3362      2266.6638      1.5169882e+08  0.5            25268600       1.2334772      7000.6009      14001.239      5.9379108    
  50127400   303.28985      5.9498306     -10618206       2.6475895      903.14539     -10617303       533.32761      533.32761      533.32761      1733.3362      2266.6638      1733.3362      2266.6638      1733.3362      2266.6638      1.5169882e+08  0.5            25268700       1.2477563      7003.2744      14006.524      5.9232656    
  50127600   305.91412      5.6940007     -10618214       2.6475895      910.96003     -10617303       533.32761      533.32761      533.32761      1733.3362      2266.6638      1733.3362      2266.6638      1733.3362      2266.6638      1.5169882e+08  0.5            25268800       1.2620145      7013.4628      14026.924      5.9085314    
  50127800   303.94766      5.8675102     -10618224       2.6475895      905.10424     -10617318       533.32761      533.32761      533.32761      1733.3362      2266.6638      1733.3362      2266.6638      1733.3362      2266.6638      1.5169882e+08  0.5            25268900       1.2762716      7014.0826      14028.199      5.8938021    
  50128000   300.81774      5.9694995     -10618232       2.6475895      895.78385     -10617337       533.32761      533.32761      533.32761      1733.3362      2266.6638      1733.3362      2266.6638      1733.3362      2266.6638      1.5169882e+08  0.5            25269000       1.2905319      7012.459       14024.842      5.8790987    
  50128200   296.91458      5.9320137     -10618241       2.6475895      884.16091     -10617357       533.32761      533.32761      533.32761      1733.3362      2266.6638      1733.3362      2266.6638      1733.3362      2266.6638      1.5169882e+08  0.5            25269100       1.3047865      7015.2852      14030.613      5.8643784    
  50128400   295.3151       6.0746695     -10618249       2.6475895      879.39794     -10617370       533.32761      533.32761      533.32761      1733.3362      2266.6638      1733.3362      2266.6638      1733.3362      2266.6638      1.5169882e+08  0.5            25269200       1.3193513      6865.8618      13731.731      5.8510449    
  50128600   298.60628      6.4548442     -10617890       2.6475895      889.19852     -10617001       533.32761      533.32761      533.32761      1733.3362      2266.6638      1733.3362      2266.6638      1733.3362      2266.6638      1.5169882e+08  0.5            25269300       1.3336382      6999.4484      13998.859      5.8364678    
  50128800   306.40983      6.3184478     -10617900       2.6475895      912.43615     -10616988       533.32761      533.32761      533.32761      1733.3362      2266.6638      1733.3362      2266.6638      1733.3362      2266.6638      1.5169882e+08  0.5            25269400       1.3479112      7006.237       14012.484      5.8218372    
  50129000   303.11582      6.1074163     -10617908       2.6475895      902.62716     -10617006       533.32761      533.32761      533.32761      1733.3362      2266.6638      1733.3362      2266.6638      1733.3362      2266.6638      1.5169882e+08  0.5            25269500       1.3621976      6999.6204      13999.216      5.807272     
  50129200   292.13537      5.7287125     -10617917       2.6475895      869.92924     -10617047       533.32761      533.32761      533.32761      1733.3362      2266.6638      1733.3362      2266.6638      1733.3362      2266.6638      1.5169882e+08  0.5            25269600       1.3764587      7012.1187      14024.285      5.792605     
  50129400   295.77316      5.6234512     -10617926       2.6475895      880.76196     -10617045       533.32761      533.32761      533.32761      1733.3362      2266.6638      1733.3362      2266.6638      1733.3362      2266.6638      1.5169882e+08  0.5            25269700       1.3907178      7013.0437      14026.092      5.7779386    
  50129600   313.56367      5.7602247     -10617936       2.6475895      933.73907     -10617002       533.32761      533.32761      533.32761      1733.3362      2266.6638      1733.3362      2266.6638      1733.3362      2266.6638      1.5169882e+08  0.5            25269800       1.404968       7017.4212      14034.807      5.7632441    
  50129800   318.7769       5.61202       -10617945       2.6475895      949.26316     -10616995       533.32761      533.32761      533.32761      1733.3362      2266.6638      1733.3362      2266.6638      1733.3362      2266.6638      1.5169882e+08  0.5            25269900       1.4192544      6999.6929      13999.383      5.7487053    
  50130000   295.66146      5.4108289     -10617951       2.6475895      880.42933     -10617071       533.32761      533.32761      533.32761      1733.3362      2266.6638      1733.3362      2266.6638      1733.3362      2266.6638      1.5169882e+08  0.5            25270000       1.4335398      7000.1765      14000.396      5.7341665    
  50130200   295.80634      5.1917846     -10617956       2.6475895      880.86076     -10617075       533.32761      533.32761      533.32761      1733.3362      2266.6638      1733.3362      2266.6638      1733.3362      2266.6638      1.5169882e+08  0.5            25270100       1.4477799      7022.4251      14044.822      5.7194546    
  50130400   304.28302      5.1201485     -10617961       2.6475895      906.10288     -10617055       533.32761      533.32761      533.32761      1733.3362      2266.6638      1733.3362      2266.6638      1733.3362      2266.6638      1.5169882e+08  0.5            25270200       1.4620347      7015.1464      14030.354      5.7048093    
  50130600   307.27624      5.363126      -10617967       2.6475895      915.01616     -10617052       533.32761      533.32761      533.32761      1733.3362      2266.6638      1733.3362      2266.6638      1733.3362      2266.6638      1.5169882e+08  0.5            25270300       1.4762935      7013.2321      14026.425      5.690187     
  50130800   293.52851      5.7447217     -10617972       2.6475895      874.07777     -10617097       533.32761      533.32761      533.32761      1733.3362      2266.6638      1733.3362      2266.6638      1733.3362      2266.6638      1.5169882e+08  0.5            25270400       1.4905534      7012.666       14025.288      5.675576     
  50131000   289.92683      6.4716849     -10617976       2.6475895      863.35259     -10617113       533.32761      533.32761      533.32761      1733.3362      2266.6638      1733.3362      2266.6638      1733.3362      2266.6638      1.5169882e+08  0.5            25270500       1.5048289      7005.0017      14010.053      5.66103      
  50131200   303.08653      7.6334984     -10617979       2.6475895      902.53994     -10617077       533.32761      533.32761      533.32761      1733.3362      2266.6638      1733.3362      2266.6638      1733.3362      2266.6638      1.5169882e+08  0.5            25270600       1.5191027      7005.8478      14011.697      5.6464831    
  50131400   307.44345      8.6030146     -10617981       2.6475895      915.5141      -10617065       533.32761      533.32761      533.32761      1733.3362      2266.6638      1733.3362      2266.6638      1733.3362      2266.6638      1.5169882e+08  0.5            25270700       1.5333832      7002.5358      14005.058      5.6319659    
  50131600   302.75391      9.087745      -10617983       2.6475895      901.54945     -10617081       533.32761      533.32761      533.32761      1733.3362      2266.6638      1733.3362      2266.6638      1733.3362      2266.6638      1.5169882e+08  0.5            25270800       1.5476311      7018.5752      14037.162      5.6173348    
  50131800   297.39527      9.4447601     -10617986       2.6475895      885.59233     -10617100       533.32761      533.32761      533.32761      1733.3362      2266.6638      1733.3362      2266.6638      1733.3362      2266.6638      1.5169882e+08  0.5            25270900       1.5618751      7020.5304      14041.057      5.6026961    
  50132000   295.65549      9.7272538     -10617989       2.6475895      880.41157     -10617108       533.32761      533.32761      533.32761      1733.3362      2266.6638      1733.3362      2266.6638      1733.3362      2266.6638      1.5169882e+08  0.5            25271000       1.576155       7002.8364      14005.649      5.5881927    
  50132200   304.42032      9.983469      -10617990       2.6475895      906.51174     -10617084       533.32761      533.32761      533.32761      1733.3362      2266.6638      1733.3362      2266.6638      1733.3362      2266.6638      1.5169882e+08  0.5            25271100       1.5904239      7008.2669      14016.544      5.5736543    
  50132400   314.89798      10.551255     -10617991       2.6475895      937.71243     -10617053       533.32761      533.32761      533.32761      1733.3362      2266.6638      1733.3362      2266.6638      1733.3362      2266.6638      1.5169882e+08  0.5            25271200       1.6046715      7018.7304      14037.45       5.559047     
  50132600   298.88439      11.438603     -10617992       2.6475895      890.02668     -10617102       533.32761      533.32761      533.32761      1733.3362      2266.6638      1733.3362      2266.6638      1733.3362      2266.6638      1.5169882e+08  0.5            25271300       1.6189385      7009.1776      14018.415      5.5445123    
  50132800   291.98532      12.215699     -10617994       2.6475895      869.48243     -10617124       533.32761      533.32761      533.32761      1733.3362      2266.6638      1733.3362      2266.6638      1733.3362      2266.6638      1.5169882e+08  0.5            25271400       1.6331944      7014.6263      14029.217      5.5299453    
  50133000   299.58772      12.716355     -10617996       2.6475895      892.12106     -10617104       533.32761      533.32761      533.32761      1733.3362      2266.6638      1733.3362      2266.6638      1733.3362      2266.6638      1.5169882e+08  0.5            25271500       1.6474477      7015.9442      14031.871      5.5153745    
  50133200   305.88726      12.839033     -10617997       2.6475895      910.88002     -10617086       533.32761      533.32761      533.32761      1733.3362      2266.6638      1733.3362      2266.6638      1733.3362      2266.6638      1.5169882e+08  0.5            25271600       1.6616799      7026.2796      14052.539      5.5007399    
  50133400   299.03124      12.765414     -10617997       2.6475895      890.46398     -10617106       533.32761      533.32761      533.32761      1733.3362      2266.6638      1733.3362      2266.6638      1733.3362      2266.6638      1.5169882e+08  0.5            25271700       1.6759066      7029.0429      14058.085      5.4860937    
  50133600   280.75882      12.780793     -10617997       2.6475895      836.05181     -10617161       533.32761      533.32761      533.32761      1733.3362      2266.6638      1733.3362      2266.6638      1733.3362      2266.6638      1.5169882e+08  0.5            25271800       1.6904193      6890.5042      13780.994      5.4723809    
  50133800   293.13813      12.905891     -10617998       2.6475895      872.9153      -10617125       533.32761      533.32761      533.32761      1733.3362      2266.6638      1733.3362      2266.6638      1733.3362      2266.6638      1.5169882e+08  0.5            25271900       1.7046632      7020.5255      14041.106      5.4577936    
  50134000   303.35214      13.341754     -10617632       2.6475895      903.33087     -10616728       533.32761      533.32761      533.32761      1733.3362      2266.6638      1733.3362      2266.6638      1733.3362      2266.6638      1.5169882e+08  0.5            25272000       1.7189591      6995.0439      13990.057      5.4433767    
  50134200   303.11814      13.382756     -10617634       2.6475895      902.63406     -10616731       533.32761      533.32761      533.32761      1733.3362      2266.6638      1733.3362      2266.6638      1733.3362      2266.6638      1.5169882e+08  0.5            25272100       1.73322        7012.1452      14024.272      5.4288526    
  50134400   295.75389      13.303753     -10617638       2.6475895      880.70458     -10616757       533.32761      533.32761      533.32761      1733.3362      2266.6638      1733.3362      2266.6638      1733.3362      2266.6638      1.5169882e+08  0.5            25272200       1.7474773      7013.9852      14028.02       5.4143209    
  50134600   288.1344       13.389926     -10617642       2.6475895      858.01503     -10616784       533.32761      533.32761      533.32761      1733.3362      2266.6638      1733.3362      2266.6638      1733.3362      2266.6638      1.5169882e+08  0.5            25272300       1.7617331      7014.6947      14029.359      5.3997895    
  50134800   297.64437      13.616338     -10617646       2.6475895      886.3341      -10616760       533.32761      533.32761      533.32761      1733.3362      2266.6638      1733.3362      2266.6638      1733.3362      2266.6638      1.5169882e+08  0.5            25272400       1.7759935      7012.4182      14024.838      5.3852765    
  50135000   313.28052      13.786492     -10617650       2.6475895      932.89591     -10616717       533.32761      533.32761      533.32761      1733.3362      2266.6638      1733.3362      2266.6638      1733.3362      2266.6638      1.5169882e+08  0.5            25272500       1.7902488      7014.9619      14029.971      5.3707519    
  50135200   303.61802      13.802579     -10617654       2.6475895      904.12261     -10616750       533.32761      533.32761      533.32761      1733.3362      2266.6638      1733.3362      2266.6638      1733.3362      2266.6638      1.5169882e+08  0.5            25272600       1.8045277      7003.322       14006.581      5.3563022    
  50135400   294.74371      13.586336     -10617658       2.6475895      877.69644     -10616780       533.32761      533.32761      533.32761      1733.3362      2266.6638      1733.3362      2266.6638      1733.3362      2266.6638      1.5169882e+08  0.5            25272700       1.8188103      7001.5523      14003.108      5.3418656    
  50135600   298.13272      13.174405     -10617662       2.6475895      887.78833     -10616775       533.32761      533.32761      533.32761      1733.3362      2266.6638      1733.3362      2266.6638      1733.3362      2266.6638      1.5169882e+08  0.5            25272800       1.8330741      7010.7393      14021.437      5.3273774    
  50135800   303.20005      12.742209     -10617665       2.6475895      902.87796     -10616762       533.32761      533.32761      533.32761      1733.3362      2266.6638      1733.3362      2266.6638      1733.3362      2266.6638      1.5169882e+08  0.5            25272900       1.8473084      7025.3028      14050.666      5.312807     
  50136000   301.45964      12.374777     -10617665       2.6475895      897.69534     -10616767       533.32761      533.32761      533.32761      1733.3362      2266.6638      1733.3362      2266.6638      1733.3362      2266.6638      1.5169882e+08  0.5            25273000       1.8615661      7013.752       14027.518      5.2983088    
  50136200   285.95133      12.152598     -10617663       2.6475895      851.51422     -10616812       533.32761      533.32761      533.32761      1733.3362      2266.6638      1733.3362      2266.6638      1733.3362      2266.6638      1.5169882e+08  0.5            25273100       1.8758127      7019.1866      14038.384      5.2837831    
  50136400   291.15834      11.94904      -10617662       2.6475895      867.01982     -10616795       533.32761      533.32761      533.32761      1733.3362      2266.6638      1733.3362      2266.6638      1733.3362      2266.6638      1.5169882e+08  0.5            25273200       1.8900392      7029.1452      14058.272      5.2692055    
  50136600   306.75099      11.588231     -10617661       2.6475895      913.45208     -10616748       533.32761      533.32761      533.32761      1733.3362      2266.6638      1733.3362      2266.6638      1733.3362      2266.6638      1.5169882e+08  0.5            25273300       1.9042751      7024.5048      14049.035      5.254659     
  50136800   304.99337      10.974977     -10617661       2.6475895      908.21817     -10616753       533.32761      533.32761      533.32761      1733.3362      2266.6638      1733.3362      2266.6638      1733.3362      2266.6638      1.5169882e+08  0.5            25273400       1.9185338      7013.2714      14026.503      5.2401795    
  50137000   294.26109      10.341019     -10617661       2.6475895      876.25929     -10616784       533.32761      533.32761      533.32761      1733.3362      2266.6638      1733.3362      2266.6638      1733.3362      2266.6638      1.5169882e+08  0.5            25273500       1.9328224      6998.5642      13997.123      5.2257844    
  50137200   292.2195       9.5285058     -10618029       2.6475895      870.17978     -10617159       533.32761      533.32761      533.32761      1733.3362      2266.6638      1733.3362      2266.6638      1733.3362      2266.6638      1.5169882e+08  0.5            25273600       1.9470663      7020.5467      14041.133      5.2112707    
  50137400   315.47907      8.9144519     -10618031       2.6475895      939.44281     -10617091       533.32761      533.32761      533.32761      1733.3362      2266.6638      1733.3362      2266.6638      1733.3362      2266.6638      1.5169882e+08  0.5            25273700       1.9612936      7028.7761      14057.526      5.1967172    
  50137600   312.20497      8.1353934     -10618033       2.6475895      929.69309     -10617104       533.32761      533.32761      533.32761      1733.3362      2266.6638      1733.3362      2266.6638      1733.3362      2266.6638      1.5169882e+08  0.5            25273800       1.9755226      7027.8766      14055.8        5.182173     
  50137800   297.87234      7.3315566     -10618037       2.6475895      887.01296     -10617150       533.32761      533.32761      533.32761      1733.3362      2266.6638      1733.3362      2266.6638      1733.3362      2266.6638      1.5169882e+08  0.5            25273900       1.9897522      7027.5955      14055.149      5.1676348    
  50138000   296.23091      6.6986197     -10618042       2.6475895      882.12507     -10617160       533.32761      533.32761      533.32761      1733.3362      2266.6638      1733.3362      2266.6638      1733.3362      2266.6638      1.5169882e+08  0.5            25274000       2.0040094      7014.0078      14028.003      5.1531718    
  50138200   302.27241      6.2822774     -10618047       2.6475895      900.11563     -10617147       533.32761      533.32761      533.32761      1733.3362      2266.6638      1733.3362      2266.6638      1733.3362      2266.6638      1.5169882e+08  0.5            25274100       2.01827        7012.3011      14024.625      5.1387208    
  50138400   310.47359      5.9611512     -10618052       2.6475895      924.53732     -10617128       533.32761      533.32761      533.32761      1733.3362      2266.6638      1733.3362      2266.6638      1733.3362      2266.6638      1.5169882e+08  0.5            25274200       2.0325146      7020.2283      14040.454      5.1242317    
  50138600   302.67868      5.7316049     -10618058       2.6475895      901.32543     -10617157       533.32761      533.32761      533.32761      1733.3362      2266.6638      1733.3362      2266.6638      1733.3362      2266.6638      1.5169882e+08  0.5            25274300       2.0467633      7018.1876      14036.394      5.1097564    
  50138800   290.96776      5.7171587     -10618065       2.6475895      866.45232     -10617199       533.32761      533.32761      533.32761      1733.3362      2266.6638      1733.3362      2266.6638      1733.3362      2266.6638      1.5169882e+08  0.5            25274400       2.0610274      7010.6213      14021.282      5.0953222    
  50139000   297.99677      5.9009672     -10618074       2.6475895      887.3835      -10617186       533.32761      533.32761      533.32761      1733.3362      2266.6638      1733.3362      2266.6638      1733.3362      2266.6638      1.5169882e+08  0.5            25274500       2.0753106      7001.1891      14002.339      5.0809375    
  50139200   310.90079      5.9054079     -10618451       2.6475895      925.80946     -10617525       533.32761      533.32761      533.32761      1733.3362      2266.6638      1733.3362      2266.6638      1733.3362      2266.6638      1.5169882e+08  0.5            25274600       2.0895828      7006.668       14013.334      5.0665272    
  50139400   302.72131      5.8636755     -10618829       2.6475895      901.45238     -10617927       533.32761      533.32761      533.32761      1733.3362      2266.6638      1733.3362      2266.6638      1733.3362      2266.6638      1.5169882e+08  0.5            25274700       2.1038375      7015.2114      14030.431      5.0520768    
  50139600   289.83292      6.2191226     -10618839       2.6475895      863.07295     -10617976       533.32761      533.32761      533.32761      1733.3362      2266.6638      1733.3362      2266.6638      1733.3362      2266.6638      1.5169882e+08  0.5            25274800       2.1181292      6997.0819      13994.102      5.0377173    
  50139800   300.47027      6.7523705     -10618850       2.6475895      894.74915     -10617955       533.32761      533.32761      533.32761      1733.3362      2266.6638      1733.3362      2266.6638      1733.3362      2266.6638      1.5169882e+08  0.5            25274900       2.1324104      7002.2142      14004.463      5.0233336    
  50140000   309.94103      7.6498718     -10618492       2.6475895      922.95147     -10617569       533.32761      533.32761      533.32761      1733.3362      2266.6638      1733.3362      2266.6638      1733.3362      2266.6638      1.5169882e+08  0.5            25275000       2.1466989      6998.5931      13997.166      5.0089688    
  50140200   298.58885      8.3057306     -10618501       2.6475895      889.1466      -10617612       533.32761      533.32761      533.32761      1733.3362      2266.6638      1733.3362      2266.6638      1733.3362      2266.6638      1.5169882e+08  0.5            25275100       2.1609649      7009.6812      14019.393      4.9945526    
  50140400   291.4214       9.1114476     -10618512       2.6475895      867.80317     -10617644       533.32761      533.32761      533.32761      1733.3362      2266.6638      1733.3362      2266.6638      1733.3362      2266.6638      1.5169882e+08  0.5            25275200       2.1752137      7018.1703      14036.342      4.9800988    
  50140600   300.4371       10.239829     -10618523       2.6475895      894.65039     -10617628       533.32761      533.32761      533.32761      1733.3362      2266.6638      1733.3362      2266.6638      1733.3362      2266.6638      1.5169882e+08  0.5            25275300       2.1894685      7015.171       14030.354      4.9656615    
  50140800   306.28851      11.554718     -10618535       2.6475895      912.07488     -10617623       533.32761      533.32761      533.32761      1733.3362      2266.6638      1733.3362      2266.6638      1733.3362      2266.6638      1.5169882e+08  0.5            25275400       2.2039855      6888.4561      13776.855      4.9518162    
  50141000   297.29619      12.84364      -10618546       2.6475895      885.29729     -10617660       533.32761      533.32761      533.32761      1733.3362      2266.6638      1733.3362      2266.6638      1733.3362      2266.6638      1.5169882e+08  0.5            25275500       2.2182856      6993.0006      13985.998      4.9374787    
  50141200   286.36717      13.941902     -10618555       2.6475895      852.75253     -10617702       533.32761      533.32761      533.32761      1733.3362      2266.6638      1733.3362      2266.6638      1733.3362      2266.6638      1.5169882e+08  0.5            25275600       2.2325603      7005.3487      14010.715      4.9230861    
  50141400   295.9939       14.737082     -10618564       2.6475895      881.41929     -10617683       533.32761      533.32761      533.32761      1733.3362      2266.6638      1733.3362      2266.6638      1733.3362      2266.6638      1.5169882e+08  0.5            25275700       2.2468155      7015.0022      14030.034      4.908652     
  50141600   303.93323      15.174779     -10618576       2.6475895      905.06126     -10617671       533.32761      533.32761      533.32761      1733.3362      2266.6638      1733.3362      2266.6638      1733.3362      2266.6638      1.5169882e+08  0.5            25275800       2.2610572      7021.6642      14043.297      4.8941913    
  50141800   303.79964      15.538632     -10618588       2.6475895      904.66346     -10617684       533.32761      533.32761      533.32761      1733.3362      2266.6638      1733.3362      2266.6638      1733.3362      2266.6638      1.5169882e+08  0.5            25275900       2.2752666      7037.5938      14075.209      4.8796638    
  50142000   293.74683      16.056148     -10618600       2.6475895      874.72789     -10617726       533.32761      533.32761      533.32761      1733.3362      2266.6638      1733.3362      2266.6638      1733.3362      2266.6638      1.5169882e+08  0.5            25276000       2.2894911      7030.1028      14060.187      4.8651727    
  50142200   292.36603      16.603335     -10618611       2.6475895      870.61611     -10617740       533.32761      533.32761      533.32761      1733.3362      2266.6638      1733.3362      2266.6638      1733.3362      2266.6638      1.5169882e+08  0.5            25276100       2.3037135      7031.1458      14062.327      4.8506804    
  50142400   314.86074      16.965183     -10618622       2.6475895      937.60151     -10617685       533.32761      533.32761      533.32761      1733.3362      2266.6638      1733.3362      2266.6638      1733.3362      2266.6638      1.5169882e+08  0.5            25276200       2.3179681      7015.2827      14030.535      4.8362585    
  50142600   321.58363      17.144288     -10618635       2.6475895      957.62114     -10617677       533.32761      533.32761      533.32761      1733.3362      2266.6638      1733.3362      2266.6638      1733.3362      2266.6638      1.5169882e+08  0.5            25276300       2.3322048      7024.1091      14048.238      4.8218016    
  50142800   306.53507      17.170147     -10618647       2.6475895      912.80908     -10617734       533.32761      533.32761      533.32761      1733.3362      2266.6638      1733.3362      2266.6638      1733.3362      2266.6638      1.5169882e+08  0.5            25276400       2.3464309      7029.324       14058.635      4.8073258    
  50143000   298.59503      16.806726     -10618660       2.6475895      889.16501     -10617771       533.32761      533.32761      533.32761      1733.3362      2266.6638      1733.3362      2266.6638      1733.3362      2266.6638      1.5169882e+08  0.5            25276500       2.3606505      7032.5555      14065.121      4.7928397    
  50143200   296.20894      16.145831     -10618673       2.6475895      882.05965     -10617791       533.32761      533.32761      533.32761      1733.3362      2266.6638      1733.3362      2266.6638      1733.3362      2266.6638      1.5169882e+08  0.5            25276600       2.3748763      7029.5024      14059.009      4.7783693    
  50143400   299.75298      15.492185     -10618687       2.6475895      892.6132      -10617794       533.32761      533.32761      533.32761      1733.3362      2266.6638      1733.3362      2266.6638      1733.3362      2266.6638      1.5169882e+08  0.5            25276700       2.3890951      7032.9388      14065.871      4.7638879    
  50143600   303.52835      14.878653     -10618699       2.6475895      903.85561     -10617796       533.32761      533.32761      533.32761      1733.3362      2266.6638      1733.3362      2266.6638      1733.3362      2266.6638      1.5169882e+08  0.5            25276800       2.4032919      7043.8037      14087.6        4.7493664    
  50143800   296.87498      14.317903     -10618712       2.6475895      884.04299     -10617828       533.32761      533.32761      533.32761      1733.3362      2266.6638      1733.3362      2266.6638      1733.3362      2266.6638      1.5169882e+08  0.5            25276900       2.4175241      7026.366       14052.733      4.7349176    
  50144000   291.69179      14.119588     -10618725       2.6475895      868.60835     -10617856       533.32761      533.32761      533.32761      1733.3362      2266.6638      1733.3362      2266.6638      1733.3362      2266.6638      1.5169882e+08  0.5            25277000       2.4317669      7021.0904      14042.224      4.7204922    
  50144200   301.42608      14.156472     -10618738       2.6475895      897.59539     -10617840       533.32761      533.32761      533.32761      1733.3362      2266.6638      1733.3362      2266.6638      1733.3362      2266.6638      1.5169882e+08  0.5            25277100       2.4459902      7030.6836      14061.325      4.7060316    
  50144400   318.43199      13.731535     -10618750       2.6475895      948.2361      -10617802       533.32761      533.32761      533.32761      1733.3362      2266.6638      1733.3362      2266.6638      1733.3362      2266.6638      1.5169882e+08  0.5            25277200       2.4602328      7021.22        14042.412      4.6916103    
  50144600   303.79113      12.950815     -10618761       2.6475895      904.6381      -10617856       533.32761      533.32761      533.32761      1733.3362      2266.6638      1733.3362      2266.6638      1733.3362      2266.6638      1.5169882e+08  0.5            25277300       2.4744216      7047.8064      14095.671      4.6770894    
  50144800   295.82522      12.524777     -10618770       2.6475895      880.91699     -10617889       533.32761      533.32761      533.32761      1733.3362      2266.6638      1733.3362      2266.6638      1733.3362      2266.6638      1.5169882e+08  0.5            25277400       2.4886036      7051.1673      14102.329      4.6625597    
  50145000   299.88556      12.648714     -10618778       2.6475895      893.00798     -10617885       533.32761      533.32761      533.32761      1733.3362      2266.6638      1733.3362      2266.6638      1733.3362      2266.6638      1.5169882e+08  0.5            25277500       2.5028332      7027.6069      14055.204      4.6481223    
  50145200   305.08768      12.57045      -10620680       2.6475895      908.49901     -10619771       533.32761      533.32761      533.32761      1733.3362      2266.6638      1733.3362      2266.6638      1733.3362      2266.6638      1.5169882e+08  0.5            25277600       2.51707        7024.0222      14048.042      4.6337007    
  50145400   299.87571      13.117206     -10620688       2.6475895      892.97866     -10619795       533.32761      533.32761      533.32761      1733.3362      2266.6638      1733.3362      2266.6638      1733.3362      2266.6638      1.5169882e+08  0.5            25277700       2.531317       7019.056       14038.096      4.6192995    
  50145600   289.19804      13.510718     -10620696       2.6475895      861.18238     -10619835       533.32761      533.32761      533.32761      1733.3362      2266.6638      1733.3362      2266.6638      1733.3362      2266.6638      1.5169882e+08  0.5            25277800       2.5455419      7029.9299      14059.853      4.6048601    
  50145800   297.04649      13.57695      -10620703       2.6475895      884.55371     -10619819       533.32761      533.32761      533.32761      1733.3362      2266.6638      1733.3362      2266.6638      1733.3362      2266.6638      1.5169882e+08  0.5            25277900       2.5597768      7024.9933      14050.004      4.590441     
  50146000   315.47754      13.440571     -10620710       2.6475895      939.43823     -10619771       533.32761      533.32761      533.32761      1733.3362      2266.6638      1733.3362      2266.6638      1733.3362      2266.6638      1.5169882e+08  0.5            25278000       2.5740452      7008.5135      14017.017      4.5760836    
  50146200   308.17263      13.585723     -10620717       2.6475895      917.68546     -10619800       533.32761      533.32761      533.32761      1733.3362      2266.6638      1733.3362      2266.6638      1733.3362      2266.6638      1.5169882e+08  0.5            25278100       2.5883194      7005.6495      14011.325      4.5617374    
  50146400   301.24103      13.86908      -10620725       2.6475895      897.04433     -10619828       533.32761      533.32761      533.32761      1733.3362      2266.6638      1733.3362      2266.6638      1733.3362      2266.6638      1.5169882e+08  0.5            25278200       2.6025988      7003.0905      14006.226      4.547401     
  50146600   299.57258      13.683086     -10620731       2.6475895      892.076       -10619839       533.32761      533.32761      533.32761      1733.3362      2266.6638      1733.3362      2266.6638      1733.3362      2266.6638      1.5169882e+08  0.5            25278300       2.6171862      6855.1772      13710.286      4.5335993    
  50146800   297.46392      13.295619     -10620736       2.6475895      885.79675     -10619850       533.32761      533.32761      533.32761      1733.3362      2266.6638      1733.3362      2266.6638      1733.3362      2266.6638      1.5169882e+08  0.5            25278400       2.6314726      6999.7238      13999.383      4.5192716    
  50147000   298.68123      13.92923      -10613362       2.6475895      889.42169     -10612473       533.32761      533.32761      533.32761      1733.3362      2266.6638      1733.3362      2266.6638      1733.3362      2266.6638      1.5169882e+08  0.5            25278500       2.6457594      6999.4705      13998.98       4.504945     
  50147200   303.95821      13.317521     -10613366       2.6475895      905.13566     -10612461       533.32761      533.32761      533.32761      1733.3362      2266.6638      1733.3362      2266.6638      1733.3362      2266.6638      1.5169882e+08  0.5            25278600       2.6600367      7004.097       14008.213      4.4906029    
  50147400   304.78175      12.503681     -10613368       2.6475895      907.58799     -10612461       533.32761      533.32761      533.32761      1733.3362      2266.6638      1733.3362      2266.6638      1733.3362      2266.6638      1.5169882e+08  0.5            25278700       2.6742974      7012.2987      14024.581      4.4762336    
  50147600   293.49461      11.900419     -10613370       2.6475895      873.97685     -10612496       533.32761      533.32761      533.32761      1733.3362      2266.6638      1733.3362      2266.6638      1733.3362      2266.6638      1.5169882e+08  0.5            25278800       2.6885375      7022.3881      14044.808      4.4618314    
  50147800   289.96863      11.113952     -10613373       2.6475895      863.47707     -10612509       533.32761      533.32761      533.32761      1733.3362      2266.6638      1733.3362      2266.6638      1733.3362      2266.6638      1.5169882e+08  0.5            25278900       2.7027695      7026.4588      14052.859      4.4474175    
  50148000   307.1474       9.9589241     -10613374       2.6475895      914.6325      -10612460       533.32761      533.32761      533.32761      1733.3362      2266.6638      1733.3362      2266.6638      1733.3362      2266.6638      1.5169882e+08  0.5            25279000       2.7170463      7004.3423      14008.756      4.4330786    
  50148200   311.31664      8.3442486     -10615270       2.6475895      927.04779     -10614343       533.32761      533.32761      533.32761      1733.3362      2266.6638      1733.3362      2266.6638      1733.3362      2266.6638      1.5169882e+08  0.5            25279100       2.7312835      7023.8782      14047.732      4.4186764    
  50148400   301.58622      6.8260004     -10617164       2.6475895      898.07225     -10616266       533.32761      533.32761      533.32761      1733.3362      2266.6638      1733.3362      2266.6638      1733.3362      2266.6638      1.5169882e+08  0.5            25279200       2.7455026      7032.7539      14065.494      4.4042469    
  50148600   297.55694      5.9177502     -10617164       2.6475895      886.07377     -10616278       533.32761      533.32761      533.32761      1733.3362      2266.6638      1733.3362      2266.6638      1733.3362      2266.6638      1.5169882e+08  0.5            25279300       2.7597149      7036.1747      14072.386      4.3898085    
  50148800   299.04205      5.1880408     -10617165       2.6475895      890.49616     -10616274       533.32761      533.32761      533.32761      1733.3362      2266.6638      1733.3362      2266.6638      1733.3362      2266.6638      1.5169882e+08  0.5            25279400       2.7739509      7024.4609      14048.909      4.37541      
  50149000   306.03204      4.5259502     -10617165       2.6475895      911.31116     -10616254       533.32761      533.32761      533.32761      1733.3362      2266.6638      1733.3362      2266.6638      1733.3362      2266.6638      1.5169882e+08  0.5            25279500       2.7882108      7012.6645      14025.304      4.3610506    
  50149200   314.82248      3.8531608     -10617167       2.6475895      937.48758     -10616229       533.32761      533.32761      533.32761      1733.3362      2266.6638      1733.3362      2266.6638      1733.3362      2266.6638      1.5169882e+08  0.5            25279600       2.8024693      7013.3609      14026.713      4.34669      
  50149400   299.37958      3.0785266     -10617169       2.6475895      891.50126     -10616277       533.32761      533.32761      533.32761      1733.3362      2266.6638      1733.3362      2266.6638      1733.3362      2266.6638      1.5169882e+08  0.5            25279700       2.8167629      6996.1499      13992.338      4.3323845    
  50149600   291.60198      2.7527364     -10617171       2.6475895      868.34089     -10616302       533.32761      533.32761      533.32761      1733.3362      2266.6638      1733.3362      2266.6638      1733.3362      2266.6638      1.5169882e+08  0.5            25279800       2.8310363      7006.0107      14012.058      4.3180481    
  50149800   300.35515      2.619909      -10617174       2.6475895      894.40634     -10616280       533.32761      533.32761      533.32761      1733.3362      2266.6638      1733.3362      2266.6638      1733.3362      2266.6638      1.5169882e+08  0.5            25279900       2.845323       6999.5308      13999.022      4.3037327    
  50150000   309.59261      2.2887524     -10617178       2.6475895      921.91392     -10616256       533.32761      533.32761      533.32761      1733.3362      2266.6638      1733.3362      2266.6638      1733.3362      2266.6638      1.5169882e+08  0.5            25280000       2.8596081      7000.2942      14000.595      4.2894149    
  50150200   296.40489      1.9043701     -10617550       2.6475895      882.64315     -10616667       533.32761      533.32761      533.32761      1733.3362      2266.6638      1733.3362      2266.6638      1733.3362      2266.6638      1.5169882e+08  0.5            25280100       2.8739009      6996.5229      13993.023      4.2751092    
  50150400   285.42142      2.5857754     -10617553       2.6475895      849.93624     -10616703       533.32761      533.32761      533.32761      1733.3362      2266.6638      1733.3362      2266.6638      1733.3362      2266.6638      1.5169882e+08  0.5            25280200       2.8882046      6991.2323      13982.471      4.2608195    
  50150600   299.2635       3.3336702     -10617556       2.6475895      891.15561     -10616665       533.32761      533.32761      533.32761      1733.3362      2266.6638      1733.3362      2266.6638      1733.3362      2266.6638      1.5169882e+08  0.5            25280300       2.9024973      6996.5762      13993.135      4.2465136    
  50150800   307.26362      3.6268862     -10617560       2.6475895      914.97861     -10616645       533.32761      533.32761      533.32761      1733.3362      2266.6638      1733.3362      2266.6638      1733.3362      2266.6638      1.5169882e+08  0.5            25280400       2.916806       6988.7058      13977.385      4.2322313    
  50151000   301.1548       3.6837114     -10617565       2.6475895      896.78758     -10616668       533.32761      533.32761      533.32761      1733.3362      2266.6638      1733.3362      2266.6638      1733.3362      2266.6638      1.5169882e+08  0.5            25280500       2.9313604      6870.8037      13741.641      4.2183019    
  50151200   291.34785      3.4891086     -10617570       2.6475895      867.58414     -10616702       533.32761      533.32761      533.32761      1733.3362      2266.6638      1733.3362      2266.6638      1733.3362      2266.6638      1.5169882e+08  0.5            25280600       2.9456298      7007.9756      14015.954      4.20396      
  50151400   294.27216      3.2287557     -10617575       2.6475895      876.29223     -10616699       533.32761      533.32761      533.32761      1733.3362      2266.6638      1733.3362      2266.6638      1733.3362      2266.6638      1.5169882e+08  0.5            25280700       2.9598717      7021.5607      14043.127      4.1895796    
  50151600   316.17569      3.264833      -10617581       2.6475895      941.51722     -10616640       533.32761      533.32761      533.32761      1733.3362      2266.6638      1733.3362      2266.6638      1733.3362      2266.6638      1.5169882e+08  0.5            25280800       2.9741045      7026.0278      14052.07       4.175194     
  50151800   308.10035      3.5744815     -10617587       2.6475895      917.47024     -10616670       533.32761      533.32761      533.32761      1733.3362      2266.6638      1733.3362      2266.6638      1733.3362      2266.6638      1.5169882e+08  0.5            25280900       2.9883702      7009.8232      14019.646      4.1608435    
  50152000   295.18482      4.2020027     -10617593       2.6475895      879.00999     -10616714       533.32761      533.32761      533.32761      1733.3362      2266.6638      1733.3362      2266.6638      1733.3362      2266.6638      1.5169882e+08  0.5            25281000       3.0026634      6996.3241      13992.631      4.1465379    
  50152200   296.66671      5.1404505     -10617599       2.6475895      883.42281     -10616715       533.32761      533.32761      533.32761      1733.3362      2266.6638      1733.3362      2266.6638      1733.3362      2266.6638      1.5169882e+08  0.5            25281100       3.0169423      7003.3583      14006.722      4.1322126    
  50152400   306.0024       6.1104003     -10617605       2.6475895      911.2229      -10616694       533.32761      533.32761      533.32761      1733.3362      2266.6638      1733.3362      2266.6638      1733.3362      2266.6638      1.5169882e+08  0.5            25281200       3.0311885      7019.4024      14038.794      4.1178436    
  50152600   310.78639      7.0094469     -10617611       2.6475895      925.46879     -10616686       533.32761      533.32761      533.32761      1733.3362      2266.6638      1733.3362      2266.6638      1733.3362      2266.6638      1.5169882e+08  0.5            25281300       3.0453998      7036.6559      14073.323      4.1034286    
  50152800   293.45863      7.8475571     -10617618       2.6475895      873.8697      -10616744       533.32761      533.32761      533.32761      1733.3362      2266.6638      1733.3362      2266.6638      1733.3362      2266.6638      1.5169882e+08  0.5            25281400       3.0596154      7034.5339      14069.088      4.0890212    
  50153000   291.99102      8.6442639     -10617625       2.6475895      869.49941     -10616755       533.32761      533.32761      533.32761      1733.3362      2266.6638      1733.3362      2266.6638      1733.3362      2266.6638      1.5169882e+08  0.5            25281500       3.0738395      7030.3045      14060.636      4.074627     
  50153200   304.64304      9.3493324     -10617631       2.6475895      907.17494     -10616724       533.32761      533.32761      533.32761      1733.3362      2266.6638      1733.3362      2266.6638      1733.3362      2266.6638      1.5169882e+08  0.5            25281600       3.0880495      7037.3091      14074.595      4.0602157    
  50153400   309.52738      9.69166       -10617636       2.6475895      921.71967     -10616715       533.32761      533.32761      533.32761      1733.3362      2266.6638      1733.3362      2266.6638      1733.3362      2266.6638      1.5169882e+08  0.5            25281700       3.1022886      7022.9123      14045.809      4.0458443    
  50153600   289.15838      9.7258687     -10617642       2.6475895      861.06428     -10616781       533.32761      533.32761      533.32761      1733.3362      2266.6638      1733.3362      2266.6638      1733.3362      2266.6638      1.5169882e+08  0.5            25281800       3.1165459      7013.9306      14027.86       4.0314977    
  50153800   289.94947      9.6448976     -10617649       2.6475895      863.42001     -10616785       533.32761      533.32761      533.32761      1733.3362      2266.6638      1733.3362      2266.6638      1733.3362      2266.6638      1.5169882e+08  0.5            25281900       3.1307858      7022.5572      14045.097      4.0171294    
  50154000   303.3881       9.3430048     -10617656       2.6475895      903.43796     -10616753       533.32761      533.32761      533.32761      1733.3362      2266.6638      1733.3362      2266.6638      1733.3362      2266.6638      1.5169882e+08  0.5            25282000       3.1450515      7009.7928      14019.59       4.0027953    
  50154200   307.60835      8.8401654     -10617664       2.6475895      916.00515     -10616748       533.32761      533.32761      533.32761      1733.3362      2266.6638      1733.3362      2266.6638      1733.3362      2266.6638      1.5169882e+08  0.5            25282100       3.15931        7013.329       14026.666      3.9884527    
  50154400   295.84848      8.5459764     -10617672       2.6475895      880.98626     -10616791       533.32761      533.32761      533.32761      1733.3362      2266.6638      1733.3362      2266.6638      1733.3362      2266.6638      1.5169882e+08  0.5            25282200       3.1736026      6996.6751      13993.354      3.9741534    
  50154600   290.07991      8.5229426     -10617678       2.6475895      863.80844     -10616815       533.32761      533.32761      533.32761      1733.3362      2266.6638      1733.3362      2266.6638      1733.3362      2266.6638      1.5169882e+08  0.5            25282300       3.1878615      7013.1799      14026.371      3.9598123    
[...]
  50199200   309.11151      12.158854     -10625542       2.6475895      920.48128     -10624622       533.32761      533.32761      533.32761      1733.3362      2266.6638      1733.3362      2266.6638      1733.3362      2266.6638      1.5169882e+08  0.5            25304600       6.3743654      7017.9531      14035.877      0.77178438   
  50199400   304.76322      11.869656     -10625538       2.6475895      907.53283     -10624631       533.32761      533.32761      533.32761      1733.3362      2266.6638      1733.3362      2266.6638      1733.3362      2266.6638      1.5169882e+08  0.5            25304700       6.3886073      7021.5291      14043.074      0.7574861    
  50199600   291.70409      11.349896     -10625904       2.6475895      868.64497     -10625035       533.32761      533.32761      533.32761      1733.3362      2266.6638      1733.3362      2266.6638      1733.3362      2266.6638      1.5169882e+08  0.5            25304800       6.4028486      7021.8373      14043.683      0.743188     
  50199800   293.8189       11.109714     -10625901       2.6475895      874.9425      -10625027       533.32761      533.32761      533.32761      1733.3362      2266.6638      1733.3362      2266.6638      1733.3362      2266.6638      1.5169882e+08  0.5            25304900       6.4171216      7006.2351      14012.434      0.72889376   
  50200000   319.18475      10.827377     -10625900       2.6475895      950.47768     -10624950       533.32761      533.32761      533.32761      1733.3362      2266.6638      1733.3362      2266.6638      1733.3362      2266.6638      1.5169882e+08  0.5            25305000       6.4490091      3136.0125      6272.012       0.7165568    
  50200200   305.71183      10.381846     -10625899       2.6475895      910.35764     -10624989       533.32761      533.32761      533.32761      1733.3362      2266.6638      1733.3362      2266.6638      1733.3362      2266.6638      1.5169882e+08  0.5            25305100       6.4635539      6875.3567      13750.68       0.70224889   
  50200400   292.93331      9.7969488     -10625898       2.6475895      872.30539     -10625026       533.32761      533.32761      533.32761      1733.3362      2266.6638      1733.3362      2266.6638      1733.3362      2266.6638      1.5169882e+08  0.5            25305200       6.4778127      7013.2257      14026.513      0.68790953   
  50200600   295.9275       9.0369332     -10625899       2.6475895      881.22155     -10625018       533.32761      533.32761      533.32761      1733.3362      2266.6638      1733.3362      2266.6638      1733.3362      2266.6638      1.5169882e+08  0.5            25305300       6.4920722      7012.8494      14025.741      0.67357062   
  50200800   308.81047      8.1009455     -10625901       2.6475895      919.58485     -10624981       533.32761      533.32761      533.32761      1733.3362      2266.6638      1733.3362      2266.6638      1733.3362      2266.6638      1.5169882e+08  0.5            25305400       6.5063457      7006.0436      14012.118      0.65923346   
  50201000   307.76485      7.2406175     -10625903       2.6475895      916.47117     -10624986       533.32761      533.32761      533.32761      1733.3362      2266.6638      1733.3362      2266.6638      1733.3362      2266.6638      1.5169882e+08  0.5            25305500       6.5206535      6989.1341      13978.216      0.6449       
  50201200   286.3373       6.6495357     -10625904       2.6475895      852.66358     -10625052       533.32761      533.32761      533.32761      1733.3362      2266.6638      1733.3362      2266.6638      1733.3362      2266.6638      1.5169882e+08  0.5            25305600       6.5349136      7012.6055      14025.245      0.63056203   
  50201400   292.33318      6.3722908     -10625906       2.6475895      870.51829     -10625035       533.32761      533.32761      533.32761      1733.3362      2266.6638      1733.3362      2266.6638      1733.3362      2266.6638      1.5169882e+08  0.5            25305700       6.5491754      7011.7524      14023.514      0.61622456   
  50201600   304.1454       6.3694133     -10625907       2.6475895      905.69306     -10625002       533.32761      533.32761      533.32761      1733.3362      2266.6638      1733.3362      2266.6638      1733.3362      2266.6638      1.5169882e+08  0.5            25305800       6.5634131      7023.6137      14047.183      0.60188522   
  50201800   305.04043      6.5528063     -10625909       2.6475895      908.35832     -10625000       533.32761      533.32761      533.32761      1733.3362      2266.6638      1733.3362      2266.6638      1733.3362      2266.6638      1.5169882e+08  0.5            25305900       6.5776617      7018.2171      14036.438      0.5875473    
  50202000   294.3722       7.0438278     -10625541       2.6475895      876.59014     -10624664       533.32761      533.32761      533.32761      1733.3362      2266.6638      1733.3362      2266.6638      1733.3362      2266.6638      1.5169882e+08  0.5            25306000       6.5919057      7020.4915      14040.996      0.57320936   
  50202200   282.1226       7.2623296     -10625542       2.6475895      840.11291     -10624702       533.32761      533.32761      533.32761      1733.3362      2266.6638      1733.3362      2266.6638      1733.3362      2266.6638      1.5169882e+08  0.5            25306100       6.6061664      7012.2785      14024.593      0.55887324   
  50202400   296.58733      7.3913234     -10625544       2.6475895      883.18641     -10624661       533.32761      533.32761      533.32761      1733.3362      2266.6638      1733.3362      2266.6638      1733.3362      2266.6638      1.5169882e+08  0.5            25306200       6.6204204      7015.5706      14031.094      0.5445369    
  50202600   310.73785      7.2405614     -10625547       2.6475895      925.32426     -10624621       533.32761      533.32761      533.32761      1733.3362      2266.6638      1733.3362      2266.6638      1733.3362      2266.6638      1.5169882e+08  0.5            25306300       6.6346795      7013.0732      14026.183      0.53020132   
  50202800   301.56674      6.7108332     -10625549       2.6475895      898.01426     -10624651       533.32761      533.32761      533.32761      1733.3362      2266.6638      1733.3362      2266.6638      1733.3362      2266.6638      1.5169882e+08  0.5            25306400       6.648917       7023.6902      14047.353      0.5158644    
  50203000   291.90605      5.9313692     -10625551       2.6475895      869.24636     -10624682       533.32761      533.32761      533.32761      1733.3362      2266.6638      1733.3362      2266.6638      1733.3362      2266.6638      1.5169882e+08  0.5            25306500       6.6631789      7011.7416      14023.514      0.50152973   
  50203200   297.64992      5.1452333     -10625553       2.6475895      886.35065     -10624667       533.32761      533.32761      533.32761      1733.3362      2266.6638      1733.3362      2266.6638      1733.3362      2266.6638      1.5169882e+08  0.5            25306600       6.6774275      7018.2151      14036.376      0.48719442   
  50203400   313.63618      4.5248288     -10625555       2.6475895      933.95498     -10624621       533.32761      533.32761      533.32761      1733.3362      2266.6638      1733.3362      2266.6638      1733.3362      2266.6638      1.5169882e+08  0.5            25306700       6.6916905      7011.1295      14022.291      0.47286049   
  50203600   306.93572      4.0517509     -10625556       2.6475895      914.00215     -10624642       533.32761      533.32761      533.32761      1733.3362      2266.6638      1733.3362      2266.6638      1733.3362      2266.6638      1.5169882e+08  0.5            25306800       6.7059285      7023.4702      14046.958      0.45852515   
  50203800   287.81492      3.7091987     -10625558       2.6475895      857.06368     -10624701       533.32761      533.32761      533.32761      1733.3362      2266.6638      1733.3362      2266.6638      1733.3362      2266.6638      1.5169882e+08  0.5            25306900       6.7202071      7003.4568      14006.884      0.44419292   
  50204000   297.97305      3.5224951     -10625560       2.6475895      887.31285     -10624673       533.32761      533.32761      533.32761      1733.3362      2266.6638      1733.3362      2266.6638      1733.3362      2266.6638      1.5169882e+08  0.5            25307000       6.7344838      7004.4473      14008.929      0.42986079   
  50204200   308.9102       3.5290722     -10625562       2.6475895      919.88182     -10624643       533.32761      533.32761      533.32761      1733.3362      2266.6638      1733.3362      2266.6638      1733.3362      2266.6638      1.5169882e+08  0.5            25307100       6.748709       7029.7347      14059.421      0.41552573   
  50204400   302.55472      3.7738233     -10625564       2.6475895      900.9563      -10624663       533.32761      533.32761      533.32761      1733.3362      2266.6638      1733.3362      2266.6638      1733.3362      2266.6638      1.5169882e+08  0.5            25307200       6.7629347      7029.5741      14059.125      0.40119116   
  50204600   289.38587      4.2438473     -10625565       2.6475895      861.74169     -10624703       533.32761      533.32761      533.32761      1733.3362      2266.6638      1733.3362      2266.6638      1733.3362      2266.6638      1.5169882e+08  0.5            25307300       6.777181       7019.326       14038.672      0.38685823   
  50204800   294.74569      4.8162198     -10625566       2.6475895      877.70234     -10624688       533.32761      533.32761      533.32761      1733.3362      2266.6638      1733.3362      2266.6638      1733.3362      2266.6638      1.5169882e+08  0.5            25307400       6.7914182      7023.8954      14047.812      0.37252515   
  50205000   307.929        5.3479926     -10625566       2.6475895      916.95998     -10624649       533.32761      533.32761      533.32761      1733.3362      2266.6638      1733.3362      2266.6638      1733.3362      2266.6638      1.5169882e+08  0.5            25307500       6.805662       7020.5807      14041.163      0.35819284   
  50205200   305.36774      5.7849922     -10625567       2.6475895      909.33298     -10624658       533.32761      533.32761      533.32761      1733.3362      2266.6638      1733.3362      2266.6638      1733.3362      2266.6638      1.5169882e+08  0.5            25307600       6.8199328      7007.3289      14014.69       0.34386225   
  50205400   297.34273      6.1840216     -10625568       2.6475895      885.43586     -10624683       533.32761      533.32761      533.32761      1733.3362      2266.6638      1733.3362      2266.6638      1733.3362      2266.6638      1.5169882e+08  0.5            25307700       6.8342289      6994.924       13989.765      0.32953315   
  50205600   293.74475      6.5471567     -10625570       2.6475895      874.7217      -10624695       533.32761      533.32761      533.32761      1733.3362      2266.6638      1733.3362      2266.6638      1733.3362      2266.6638      1.5169882e+08  0.5            25307800       6.8484638      7024.9617      14049.971      0.31520135   
  50205800   302.59582      6.9127464     -10625572       2.6475895      901.07867     -10624671       533.32761      533.32761      533.32761      1733.3362      2266.6638      1733.3362      2266.6638      1733.3362      2266.6638      1.5169882e+08  0.5            25307900       6.8627327      7008.258       14016.499      0.30087146   
  50206000   313.49383      7.2633795     -10625573       2.6475895      933.53109     -10624639       533.32761      533.32761      533.32761      1733.3362      2266.6638      1733.3362      2266.6638      1733.3362      2266.6638      1.5169882e+08  0.5            25308000       6.876974       7021.8092      14043.64       0.28654066   
  50206200   298.0207       7.2648758     -10625942       2.6475895      887.45474     -10625054       533.32761      533.32761      533.32761      1733.3362      2266.6638      1733.3362      2266.6638      1733.3362      2266.6638      1.5169882e+08  0.5            25308100       6.8912402      7009.6119      14019.239      0.27221123   
  50206400   288.3855       7.5167563     -10625941       2.6475895      858.76277     -10625082       533.32761      533.32761      533.32761      1733.3362      2266.6638      1733.3362      2266.6638      1733.3362      2266.6638      1.5169882e+08  0.5            25308200       6.9054788      7023.1604      14046.309      0.25788102   
  50206600   298.13005      7.8024428     -10625939       2.6475895      887.78039     -10625051       533.32761      533.32761      533.32761      1733.3362      2266.6638      1733.3362      2266.6638      1733.3362      2266.6638      1.5169882e+08  0.5            25308300       6.9197748      6994.9445      13989.882      0.24355322   
  50206800   305.14365      8.0522548     -10625937       2.6475895      908.66568     -10625028       533.32761      533.32761      533.32761      1733.3362      2266.6638      1733.3362      2266.6638      1733.3362      2266.6638      1.5169882e+08  0.5            25308400       6.9340315      7014.2538      14028.556      0.22922424   
  50207000   301.45109      8.2139771     -10625934       2.6475895      897.66986     -10625036       533.32761      533.32761      533.32761      1733.3362      2266.6638      1733.3362      2266.6638      1733.3362      2266.6638      1.5169882e+08  0.5            25308500       6.948276       7020.2613      14040.475      0.21489519   
  50207200   287.96632      8.3072713     -10625930       2.6475895      857.51453     -10625073       533.32761      533.32761      533.32761      1733.3362      2266.6638      1733.3362      2266.6638      1733.3362      2266.6638      1.5169882e+08  0.5            25308600       6.9625197      7020.6324      14041.268      0.20056647   
  50207400   278.13073      8.1328944     -10626297       2.6475895      828.22582     -10625468       533.32761      533.32761      533.32761      1733.3362      2266.6638      1733.3362      2266.6638      1733.3362      2266.6638      1.5169882e+08  0.5            25308700       6.9767505      7027.0178      14054.042      0.18623774   
  50207600   299.90814      8.315585      -10626295       2.6475895      893.07523     -10625402       533.32761      533.32761      533.32761      1733.3362      2266.6638      1733.3362      2266.6638      1733.3362      2266.6638      1.5169882e+08  0.5            25308800       6.9910278      7004.1539      14008.336      0.17191056   
  50207800   304.99586      8.4531478     -10626294       2.6475895      908.2256      -10625386       533.32761      533.32761      533.32761      1733.3362      2266.6638      1733.3362      2266.6638      1733.3362      2266.6638      1.5169882e+08  0.5            25308900       7.0053206      6996.4994      13992.995      0.15758394   
  50208000   299.83102      8.4458912     -10626294       2.6475895      892.84558     -10625401       533.32761      533.32761      533.32761      1733.3362      2266.6638      1733.3362      2266.6638      1733.3362      2266.6638      1.5169882e+08  0.5            25309000       7.019892       6862.7482      13725.457      0.14326314   
  50208200   292.59519      8.4281841     -10626294       2.6475895      871.2985      -10625423       533.32761      533.32761      533.32761      1733.3362      2266.6638      1733.3362      2266.6638      1733.3362      2266.6638      1.5169882e+08  0.5            25309100       7.03415        7013.5523      14027.109      0.12893558   
  50208400   297.33963      8.4832516     -10626296       2.6475895      885.42664     -10625411       533.32761      533.32761      533.32761      1733.3362      2266.6638      1733.3362      2266.6638      1733.3362      2266.6638      1.5169882e+08  0.5            25309200       7.0483808      7027.0548      14054.112      0.11460785   
  50208600   314.45111      8.5917209     -10626298       2.6475895      936.38171     -10625362       533.32761      533.32761      533.32761      1733.3362      2266.6638      1733.3362      2266.6638      1733.3362      2266.6638      1.5169882e+08  0.5            25309300       7.0626261      7019.8754      14039.77       0.10028072   
  50208800   306.66229      8.7351745     -10626300       2.6475895      913.18792     -10625387       533.32761      533.32761      533.32761      1733.3362      2266.6638      1733.3362      2266.6638      1733.3362      2266.6638      1.5169882e+08  0.5            25309400       7.0768602      7025.4054      14050.799      0.085953791  
  50209000   295.19123      8.8881173     -10626302       2.6475895      879.02908     -10625423       533.32761      533.32761      533.32761      1733.3362      2266.6638      1733.3362      2266.6638      1733.3362      2266.6638      1.5169882e+08  0.5            25309500       7.0910884      7028.3004      14056.604      0.071627174  
  50209200   298.183        9.1362334     -10626306       2.6475895      887.93807     -10625418       533.32761      533.32761      533.32761      1733.3362      2266.6638      1733.3362      2266.6638      1733.3362      2266.6638      1.5169882e+08  0.5            25309600       7.1052985      7037.2378      14074.46       0.05730081   
  50209400   303.83896      9.5932051     -10626309       2.6475895      904.78054     -10625404       533.32761      533.32761      533.32761      1733.3362      2266.6638      1733.3362      2266.6638      1733.3362      2266.6638      1.5169882e+08  0.5            25309700       7.1195302      7026.5561      14053.131      0.042975043  
  50209600   303.27475      10.240824     -10626311       2.6475895      903.10041     -10625408       533.32761      533.32761      533.32761      1733.3362      2266.6638      1733.3362      2266.6638      1733.3362      2266.6638      1.5169882e+08  0.5            25309800       7.1337411      7036.8426      14073.713      0.02864957   
  50209800   288.45621      10.963762     -10626312       2.6475895      858.97335     -10625453       533.32761      533.32761      533.32761      1733.3362      2266.6638      1733.3362      2266.6638      1733.3362      2266.6638      1.5169882e+08  0.5            25309900       7.1479324      7046.5618      14093.079      0.014324518  
  50210000   289.31156      11.657387     -10626313       2.6475895      861.52041     -10625452       533.32761      533.32761      533.32761      1733.3362      2266.6638      1733.3362      2266.6638      1733.3362      2266.6638      1.5169882e+08  0.5            25310000       7.1621435      7036.804       14073.6        0            
Loop time of 7.16219 on 4 procs for 100000 steps with 1000 atoms

Performance: 603.168 ns/day, 0.040 hours/ns, 13962.219 timesteps/s
99.9% CPU use with 4 MPI tasks x 1 OpenMP threads

MPI task timing breakdown:
Section |  min time  |  avg time  |  max time  |%varavg| %total
---------------------------------------------------------------
Pair    | 4.2209     | 4.3498     | 4.5305     |   5.4 | 60.73
Neigh   | 0.0039927  | 0.0042133  | 0.0043173  |   0.2 |  0.06
Comm    | 1.7229     | 1.9065     | 2.0376     |   8.3 | 26.62
Output  | 0.029109   | 0.033756   | 0.047562   |   4.3 |  0.47
Modify  | 0.56362    | 0.57204    | 0.58958    |   1.4 |  7.99
Other   |            | 0.2959     |            |       |  4.13

Nlocal:            250 ave         255 max         242 min
Histogram: 1 0 0 0 1 0 0 0 0 2
Nghost:        1012.25 ave        1021 max         999 min
Histogram: 1 0 0 0 0 1 0 0 1 1
Neighs:         1720.5 ave        1796 max        1659 min
Histogram: 1 0 0 1 1 0 0 0 0 1

Total # of neighbors = 6882
Ave neighs/atom = 6.882
Neighbor list builds = 19
Dangerous builds = 0

# run_style
run_style verlet


Total wall time: 0:00:07
