LAMMPS (23 Jun 2022 - Update 1)
OMP_NUM_THREADS environment is not set. Defaulting to 1 thread. (src/comm.cpp:98)
  using 1 OpenMP thread(s) per MPI task
# Read restart
read_restart ${read_res}
read_restart ./pgnpmf/9010/equpmf35.res
Reading restart file ...
  restart file = 23 Jun 2022, LAMMPS = 23 Jun 2022
  restoring atom style atomic from restart
  orthogonal box = (1731.3689 1731.3689 1731.3689) to (2268.6311 2268.6311 2268.6311)
  2 by 1 by 2 MPI processor grid
  restoring pair style table from restart
  1000 atoms
  read_restart CPU = 0.007 seconds

# Settings

pair_style table spline 9941

pair_coeff 1 1 ./pgnpmf/N20.txt DE_GNP 75.6
pair_coeff 2 2 ./pgnpmf/N100.txt DE_GNP 115.92
WARNING: 3 of 9941 force values in table DE_GNP are inconsistent with -dE/dr.
WARNING:  Should only be flagged at inflection points (src/pair_table.cpp:463)
pair_coeff 1 2 ./pgnpmf/mixed_potential.txt DE_GNP 95.66
WARNING: 1562 of 9941 force values in table DE_GNP are inconsistent with -dE/dr.
WARNING:  Should only be flagged at inflection points (src/pair_table.cpp:463)

#Neigh_list Calc Frequency

neigh_modify delay 0 every 1 check yes

# Saving Frequency (50 frames)

variable ts_save equal ${steps_equ}
variable ts_save equal 5000

# Dump
#dump 1 all custom ${ts_save} ./pgnpmf/${folder}/equilibration/trajectory/trajectory_${usic}_${trial}.equ.custom type x y z ix iy iz
#dump_modify 1 first no sort id
dump 2 all cfg 50000 ./pgnpmf/${folder}/equilibration/trajectory/dumpgen.tens_*.cfg mass type xs ys zs fx fy fz
dump 2 all cfg 50000 ./pgnpmf/9010/equilibration/trajectory/dumpgen.tens_*.cfg mass type xs ys zs fx fy fz
dump_modify 2 element N20 N100

# thermo_style
thermo_style custom step temp press pe density ke etotal lx ly lz xlo xhi ylo yhi zlo zhi vol dt time cpu tpcpu spcpu cpuremain

# run info
timestep ${ts}
timestep 0.1
thermo 10000


# fix

fix 1 all momentum 1000 linear 1 1 1 angular
variable T equal ${temp}
variable T equal 300
fix 2 all nvt temp ${T} 370000 100.0
fix 2 all nvt temp 300 370000 100.0

run 200000
Generated 0 of 1 mixed pair_coeff terms from geometric mixing rule
Unused restart file global fix info:
  fix style: npt, fix ID: 5
Neighbor list info ...
  update every 1 steps, delay 0 steps, check yes
  max neighbors/atom: 2000, page size: 100000
  master list distance cutoff = 117.92
  ghost atom cutoff = 117.92
  binsize = 58.96, bins = 10 10 10
  1 neighbor lists, perpetual/occasional/extra = 1 0 0
  (1) pair table, perpetual
      attributes: half, newton on
      pair build: half/bin/atomonly/newton
      stencil: half/bin/3d
      bin: standard
Per MPI rank memory allocation (min/avg/max) = 3.097 | 3.097 | 3.097 Mbytes
   Step          Temp          Press          PotEng        Density         KinEng         TotEng           Lx             Ly             Lz            Xlo            Xhi            Ylo            Yhi            Zlo            Zhi           Volume           Dt            Time           CPU           T/CPU          S/CPU         CPULeft    
  43010000   300.06971     -3.0644013     -10355096       2.5898463      893.55637     -10354202       537.26221      537.26221      537.26221      1731.3689      2268.6311      1731.3689      2268.6311      1731.3689      2268.6311      1.550811e+08   0.1            5210000        0              0              0              0            
  43020000   19991.018     -1.7933201     -10358139       2.5898463      59529.838     -10298609       537.26221      537.26221      537.26221      1731.3689      2268.6311      1731.3689      2268.6311      1731.3689      2268.6311      1.550811e+08   0.1            5211000        0.57180144     1748.8571      17488.549      10.864266    
  43030000   36730.876      14.909715     -10364047       2.5898463      109378.28     -10254669       537.26221      537.26221      537.26221      1731.3689      2268.6311      1731.3689      2268.6311      1731.3689      2268.6311      1.550811e+08   0.1            5212000        1.1461582      1741.0783      17410.781      10.315442    
  43040000   54616.357      133.15871     -10353910       2.5898463      162638.19     -10191272       537.26221      537.26221      537.26221      1731.3689      2268.6311      1731.3689      2268.6311      1731.3689      2268.6311      1.550811e+08   0.1            5213000        1.7185454      1747.0694      17470.694      9.7384351    
  43050000   74735.579      295.61088     -10321088       2.5898463      222549.79     -10098538       537.26221      537.26221      537.26221      1731.3689      2268.6311      1731.3689      2268.6311      1731.3689      2268.6311      1.550811e+08   0.1            5214000        2.2933293      1739.7841      17397.842      9.1733252    
  43060000   93718.887      498.2518      -10294095       2.5898463      279078.84     -10015016       537.26221      537.26221      537.26221      1731.3689      2268.6311      1731.3689      2268.6311      1731.3689      2268.6311      1.550811e+08   0.1            5215000        2.8668648      1743.5713      17435.712      8.6006004    
  43070000   110790.12      758.04621     -10256919       2.5898463      329914.07     -9927004.6      537.26221      537.26221      537.26221      1731.3689      2268.6311      1731.3689      2268.6311      1731.3689      2268.6311      1.550811e+08   0.1            5216000        3.4384744      1749.4457      17494.457      8.0231116    
  43080000   128969.63      1017.1548     -10209163       2.5898463      384049.54     -9825113.9      537.26221      537.26221      537.26221      1731.3689      2268.6311      1731.3689      2268.6311      1731.3689      2268.6311      1.550811e+08   0.1            5217000        4.0060149      1761.9887      17619.888      7.4397457    
  43090000   149165.86      1307.7301     -10166572       2.5898463      444190.45     -9722381        537.26221      537.26221      537.26221      1731.3689      2268.6311      1731.3689      2268.6311      1731.3689      2268.6311      1.550811e+08   0.1            5218000        4.5762812      1753.5668      17535.669      6.8644248    
  43100000   167919.27      1605.576      -10105934       2.5898463      500034.9      -9605899.1      537.26221      537.26221      537.26221      1731.3689      2268.6311      1731.3689      2268.6311      1731.3689      2268.6311      1.550811e+08   0.1            5219000        5.1577649      1719.7388      17197.388      6.3039372    
  43110000   187931.21      1911.2373     -10055510       2.5898463      559627.06     -9495883.2      537.26221      537.26221      537.26221      1731.3689      2268.6311      1731.3689      2268.6311      1731.3689      2268.6311      1.550811e+08   0.1            5220000        5.7342806      1734.5581      17345.578      5.7342827    
  43120000   203057.59      2248.9347     -10001121       2.5898463      604670.83     -9396450        537.26221      537.26221      537.26221      1731.3689      2268.6311      1731.3689      2268.6311      1731.3689      2268.6311      1.550811e+08   0.1            5221000        6.3100557      1736.789       17367.889      5.1627746    
  43130000   211856.82      2571.1502     -9943256.2      2.5898463      630873.42     -9312382.8      537.26221      537.26221      537.26221      1731.3689      2268.6311      1731.3689      2268.6311      1731.3689      2268.6311      1.550811e+08   0.1            5222000        6.8855855      1737.5298      17375.299      4.5903917    
  43140000   242597.77      2852.0375     -9898813.7      2.5898463      722414.72     -9176399        537.26221      537.26221      537.26221      1731.3689      2268.6311      1731.3689      2268.6311      1731.3689      2268.6311      1.550811e+08   0.1            5223000        7.4618329      1735.3657      17353.658      4.0179111    
  43150000   259541.45      3105.4379     -9845027.6      2.5898463      772870.13     -9072157.5      537.26221      537.26221      537.26221      1731.3689      2268.6311      1731.3689      2268.6311      1731.3689      2268.6311      1.550811e+08   0.1            5224000        8.0373685      1737.5116      17375.116      3.4445874    
  43160000   288349.77      3467.318      -9751356.4      2.5898463      858656.38     -8892700        537.26221      537.26221      537.26221      1731.3689      2268.6311      1731.3689      2268.6311      1731.3689      2268.6311      1.550811e+08   0.1            5225000        8.6130007      1737.2206      17372.206      2.8710009    
  43170000   293914.19      3886.8283     -9671302        2.5898463      875226.28     -8796075.7      537.26221      537.26221      537.26221      1731.3689      2268.6311      1731.3689      2268.6311      1731.3689      2268.6311      1.550811e+08   0.1            5226000        9.1933678      1723.0475      17230.475      2.2983424    
  43180000   321364.39      4215.9235     -9609885.1      2.5898463      956968.27     -8652916.9      537.26221      537.26221      537.26221      1731.3689      2268.6311      1731.3689      2268.6311      1731.3689      2268.6311      1.550811e+08   0.1            5227000        9.7758837      1716.6912      17166.913      1.7251563    
  43190000   323993.07      4380.5314     -9588240.5      2.5898463      964796.04     -8623444.5      537.26221      537.26221      537.26221      1731.3689      2268.6311      1731.3689      2268.6311      1731.3689      2268.6311      1.550811e+08   0.1            5228000        10.357044      1720.6943      17206.943      1.1507829    
  43200000   350136.07      4587.9832     -9545449.7      2.5898463      1042645.4     -8502804.2      537.26221      537.26221      537.26221      1731.3689      2268.6311      1731.3689      2268.6311      1731.3689      2268.6311      1.550811e+08   0.1            5229000        10.941487      1711.0317      17110.318      0.57586785   
  43210000   363467.17      4825.0925     -9498351.5      2.5898463      1082343.2     -8416008.4      537.26221      537.26221      537.26221      1731.3689      2268.6311      1731.3689      2268.6311      1731.3689      2268.6311      1.550811e+08   0.1            5230000        11.516884      1737.9295      17379.293      0            
Loop time of 11.5169 on 4 procs for 200000 steps with 1000 atoms

Performance: 150.040 ns/day, 0.160 hours/ns, 17365.728 timesteps/s
99.7% CPU use with 4 MPI tasks x 1 OpenMP threads

MPI task timing breakdown:
Section |  min time  |  avg time  |  max time  |%varavg| %total
---------------------------------------------------------------
Pair    | 6.1565     | 6.704      | 6.9634     |  12.6 | 58.21
Neigh   | 0.015356   | 0.016052   | 0.016655   |   0.4 |  0.14
Comm    | 3.1549     | 3.4112     | 3.9683     |  18.0 | 29.62
Output  | 0.0066827  | 0.0069404  | 0.0077059  |   0.5 |  0.06
Modify  | 0.90386    | 0.93469    | 0.9703     |   2.4 |  8.12
Other   |            | 0.444      |            |       |  3.85

Nlocal:            250 ave         258 max         241 min
Histogram: 1 0 0 1 0 0 0 1 0 1
Nghost:         1042.5 ave        1049 max        1031 min
Histogram: 1 0 0 0 0 0 0 1 1 1
Neighs:         1721.5 ave        1781 max        1628 min
Histogram: 1 0 0 0 0 0 1 1 0 1

Total # of neighbors = 6886
Ave neighs/atom = 6.886
Neighbor list builds = 78
Dangerous builds = 0

unfix 2

fix 3 all nvt temp 370000 370000 $(100.0*dt) #iso 1.0 1.0 $(1000.0*dt)
fix 3 all nvt temp 370000 370000 10 

run 500000
Generated 0 of 1 mixed pair_coeff terms from geometric mixing rule
Per MPI rank memory allocation (min/avg/max) = 4.363 | 4.363 | 4.363 Mbytes
   Step          Temp          Press          PotEng        Density         KinEng         TotEng           Lx             Ly             Lz            Xlo            Xhi            Ylo            Yhi            Zlo            Zhi           Volume           Dt            Time           CPU           T/CPU          S/CPU         CPULeft    
  43210000   363467.17      4825.0925     -9498351.5      2.5898463      1082343.2     -8416008.4      537.26221      537.26221      537.26221      1731.3689      2268.6311      1731.3689      2268.6311      1731.3689      2268.6311      1.550811e+08   0.1            5230000        0              0              0              0            
  43220000   362828.03      5083.4252     -9441921.5      2.5898463      1080439.9     -8361481.6      537.26221      537.26221      537.26221      1731.3689      2268.6311      1731.3689      2268.6311      1731.3689      2268.6311      1.550811e+08   0.1            5231000        0.57517358     1738.6039      17386.015      28.183611    
  43230000   363535.8       5113.6659     -9417341.8      2.5898463      1082547.5     -8334794.2      537.26221      537.26221      537.26221      1731.3689      2268.6311      1731.3689      2268.6311      1731.3689      2268.6311      1.550811e+08   0.1            5232000        1.1501506      1739.2         17391.999      27.603666    
  43240000   376627.71      5106.0465     -9394690        2.5898463      1121533       -8273157        537.26221      537.26221      537.26221      1731.3689      2268.6311      1731.3689      2268.6311      1731.3689      2268.6311      1.550811e+08   0.1            5233000        1.7316752      1719.618       17196.182      27.129609    
  43250000   375755.6       5059.3555     -9408088.7      2.5898463      1118936       -8289152.6      537.26221      537.26221      537.26221      1731.3689      2268.6311      1731.3689      2268.6311      1731.3689      2268.6311      1.550811e+08   0.1            5234000        2.3139792      1717.3159      17173.161      26.610783    
  43260000   351018.1       4936.7713     -9403240.8      2.5898463      1045272       -8357968.8      537.26221      537.26221      537.26221      1731.3689      2268.6311      1731.3689      2268.6311      1731.3689      2268.6311      1.550811e+08   0.1            5235000        2.8981886      1711.715       17117.148      26.083715    
  43270000   371512.5       5007.3745     -9394038.5      2.5898463      1106300.8     -8287737.7      537.26221      537.26221      537.26221      1731.3689      2268.6311      1731.3689      2268.6311      1731.3689      2268.6311      1.550811e+08   0.1            5236000        3.4796873      1719.6941      17196.941      25.517722    
  43280000   371861.52      5021.9137     -9370367.6      2.5898463      1107340.1     -8263027.5      537.26221      537.26221      537.26221      1731.3689      2268.6311      1731.3689      2268.6311      1731.3689      2268.6311      1.550811e+08   0.1            5237000        4.0611806      1719.7103      17197.101      24.947265    
  43290000   352775.93      4945.9724     -9406083.1      2.5898463      1050506.5     -8355576.6      537.26221      537.26221      537.26221      1731.3689      2268.6311      1731.3689      2268.6311      1731.3689      2268.6311      1.550811e+08   0.1            5238000        4.6361278      1739.2903      17392.905      24.339682    
  43300000   364708.92      4979.2073     -9394513.9      2.5898463      1086040.9     -8308473        537.26221      537.26221      537.26221      1731.3689      2268.6311      1731.3689      2268.6311      1731.3689      2268.6311      1.550811e+08   0.1            5239000        5.2139336      1730.6853      17306.855      23.752373    
  43310000   363669.58      4914.6752     -9409599.7      2.5898463      1082945.9     -8326653.8      537.26221      537.26221      537.26221      1731.3689      2268.6311      1731.3689      2268.6311      1731.3689      2268.6311      1.550811e+08   0.1            5240000        5.7901998      1735.3091      17353.09       23.160807    
  43320000   362664.18      4904.2909     -9430249.3      2.5898463      1079952       -8350297.3      537.26221      537.26221      537.26221      1731.3689      2268.6311      1731.3689      2268.6311      1731.3689      2268.6311      1.550811e+08   0.1            5241000        6.363156       1745.3338      17453.339      22.560288    
  43330000   398972.76      4835.5433     -9443824.1      2.5898463      1188072.8     -8255751.3      537.26221      537.26221      537.26221      1731.3689      2268.6311      1731.3689      2268.6311      1731.3689      2268.6311      1.550811e+08   0.1            5242000        6.9376343      1740.71        17407.098      21.969182    
  43340000   377331.15      4764.284      -9460658.9      2.5898463      1123627.7     -8337031.2      537.26221      537.26221      537.26221      1731.3689      2268.6311      1731.3689      2268.6311      1731.3689      2268.6311      1.550811e+08   0.1            5243000        7.5154853      1730.55        17305.5        21.390233    
  43350000   384710.87      4699.1835     -9503513.5      2.5898463      1145603.3     -8357910.2      537.26221      537.26221      537.26221      1731.3689      2268.6311      1731.3689      2268.6311      1731.3689      2268.6311      1.550811e+08   0.1            5244000        8.0983811      1715.5724      17155.726      20.824414    
  43360000   351277.76      4667.0203     -9482818.6      2.5898463      1046045.2     -8436773.4      537.26221      537.26221      537.26221      1731.3689      2268.6311      1731.3689      2268.6311      1731.3689      2268.6311      1.550811e+08   0.1            5245000        8.6808819      1716.7357      17167.357      20.255396    
  43370000   383921.01      4763.4444     -9451729.8      2.5898463      1143251.2     -8308478.6      537.26221      537.26221      537.26221      1731.3689      2268.6311      1731.3689      2268.6311      1731.3689      2268.6311      1.550811e+08   0.1            5246000        9.2635266      1716.312       17163.12       19.684998    
  43380000   374141.6       4785.8793     -9470912.1      2.5898463      1114129.8     -8356782.3      537.26221      537.26221      537.26221      1731.3689      2268.6311      1731.3689      2268.6311      1731.3689      2268.6311      1.550811e+08   0.1            5247000        9.8473928      1712.7213      17127.213      19.115531    
  43390000   368125.99      4824.3338     -9458369.5      2.5898463      1096216.3     -8362153.2      537.26221      537.26221      537.26221      1731.3689      2268.6311      1731.3689      2268.6311      1731.3689      2268.6311      1.550811e+08   0.1            5248000        10.430092      1716.1492      17161.493      18.542391    
  43400000   373900.23      4763.0776     -9469827.6      2.5898463      1113411       -8356416.6      537.26221      537.26221      537.26221      1731.3689      2268.6311      1731.3689      2268.6311      1731.3689      2268.6311      1.550811e+08   0.1            5249000        11.01285       1715.9807      17159.808      17.968337    
  43410000   347459.34      4726.6599     -9451928.4      2.5898463      1034674.6     -8417253.8      537.26221      537.26221      537.26221      1731.3689      2268.6311      1731.3689      2268.6311      1731.3689      2268.6311      1.550811e+08   0.1            5250000        11.592236      1725.9638      17259.638      17.388357    
  43420000   370509.37      4758.7536     -9452725.8      2.5898463      1103313.6     -8349412.1      537.26221      537.26221      537.26221      1731.3689      2268.6311      1731.3689      2268.6311      1731.3689      2268.6311      1.550811e+08   0.1            5251000        12.16971       1731.6804      17316.802      16.805793    
  43430000   375163.2       4712.1186     -9489062        2.5898463      1117171.9     -8371890.1      537.26221      537.26221      537.26221      1731.3689      2268.6311      1731.3689      2268.6311      1731.3689      2268.6311      1.550811e+08   0.1            5252000        12.748476      1727.8127      17278.128      16.225336    
  43440000   346939.23      4772.223      -9437401.5      2.5898463      1033125.8     -8404275.7      537.26221      537.26221      537.26221      1731.3689      2268.6311      1731.3689      2268.6311      1731.3689      2268.6311      1.550811e+08   0.1            5253000        13.330988      1716.7022      17167.022      15.649424    
  43450000   367686.03      4853.187      -9438351.3      2.5898463      1094906.2     -8343445.1      537.26221      537.26221      537.26221      1731.3689      2268.6311      1731.3689      2268.6311      1731.3689      2268.6311      1.550811e+08   0.1            5254000        13.914978      1712.3591      17123.59       15.074562    
  43460000   371281.87      4706.4072     -9477358.8      2.5898463      1105614       -8371744.8      537.26221      537.26221      537.26221      1731.3689      2268.6311      1731.3689      2268.6311      1731.3689      2268.6311      1.550811e+08   0.1            5255000        14.496795      1718.7523      17187.524      14.496798    
  43470000   371383.02      4625.198      -9479599.3      2.5898463      1105915.2     -8373684.1      537.26221      537.26221      537.26221      1731.3689      2268.6311      1731.3689      2268.6311      1731.3689      2268.6311      1.550811e+08   0.1            5256000        15.078795      1718.2157      17182.155      13.918889    
  43480000   369793.32      4584.4565     -9434950        2.5898463      1101181.4     -8333768.6      537.26221      537.26221      537.26221      1731.3689      2268.6311      1731.3689      2268.6311      1731.3689      2268.6311      1.550811e+08   0.1            5257000        15.65517       1734.9794      17349.796      13.335888    
  43490000   368724.13      4606.031      -9469401.2      2.5898463      1097997.5     -8371403.7      537.26221      537.26221      537.26221      1731.3689      2268.6311      1731.3689      2268.6311      1731.3689      2268.6311      1.550811e+08   0.1            5258000        16.227788      1746.3647      17463.648      12.750407    
  43500000   378546.34      4644.6524     -9431760.3      2.5898463      1127246.4     -8304513.9      537.26221      537.26221      537.26221      1731.3689      2268.6311      1731.3689      2268.6311      1731.3689      2268.6311      1.550811e+08   0.1            5259000        16.80289       1738.8226      17388.225      12.167612    
  43510000   357105.85      4653.4125     -9445605.6      2.5898463      1063400.2     -8382205.4      537.26221      537.26221      537.26221      1731.3689      2268.6311      1731.3689      2268.6311      1731.3689      2268.6311      1.550811e+08   0.1            5260000        17.377796      1739.4151      17394.151      11.585199    
  43520000   378781.61      4657.5704     -9429725.3      2.5898463      1127947       -8301778.3      537.26221      537.26221      537.26221      1731.3689      2268.6311      1731.3689      2268.6311      1731.3689      2268.6311      1.550811e+08   0.1            5261000        17.953765      1736.2058      17362.059      11.003922    
  43530000   353941.9       4508.648      -9507927.3      2.5898463      1053978.5     -8453948.8      537.26221      537.26221      537.26221      1731.3689      2268.6311      1731.3689      2268.6311      1731.3689      2268.6311      1.550811e+08   0.1            5262000        18.530721      1733.2342      17332.341      10.423532    
  43540000   385419.58      4571.6566     -9517181.8      2.5898463      1147713.7     -8369468.1      537.26221      537.26221      537.26221      1731.3689      2268.6311      1731.3689      2268.6311      1731.3689      2268.6311      1.550811e+08   0.1            5263000        19.107693      1733.1861      17331.86       9.8433581    
  43550000   366375.82      4643.9598     -9496442.3      2.5898463      1091004.6     -8405437.7      537.26221      537.26221      537.26221      1731.3689      2268.6311      1731.3689      2268.6311      1731.3689      2268.6311      1.550811e+08   0.1            5264000        19.687739      1723.9999      17240          9.2648196    
  43560000   372717.81      4645.2587     -9480716.7      2.5898463      1109890       -8370826.7      537.26221      537.26221      537.26221      1731.3689      2268.6311      1731.3689      2268.6311      1731.3689      2268.6311      1.550811e+08   0.1            5265000        20.266492      1727.8538      17278.538      8.6856403    
  43570000   360148.3       4580.9872     -9518432.5      2.5898463      1072460.1     -8445972.4      537.26221      537.26221      537.26221      1731.3689      2268.6311      1731.3689      2268.6311      1731.3689      2268.6311      1.550811e+08   0.1            5266000        20.846921      1722.8637      17228.638      8.1071368    
  43580000   357892.98      4489.2615     -9551317        2.5898463      1065744.2     -8485572.8      537.26221      537.26221      537.26221      1731.3689      2268.6311      1731.3689      2268.6311      1731.3689      2268.6311      1.550811e+08   0.1            5267000        21.431165      1711.6119      17116.117      7.5298698    
  43590000   361306.24      4545.4778     -9537450.8      2.5898463      1075908.3     -8461542.5      537.26221      537.26221      537.26221      1731.3689      2268.6311      1731.3689      2268.6311      1731.3689      2268.6311      1.550811e+08   0.1            5268000        22.01734       1705.9764      17059.762      6.952845     
  43600000   379380.07      4617.1468     -9494318.2      2.5898463      1129729.1     -8364589.1      537.26221      537.26221      537.26221      1731.3689      2268.6311      1731.3689      2268.6311      1731.3689      2268.6311      1.550811e+08   0.1            5269000        22.604351      1703.5455      17035.458      6.3755868    
  43610000   378839.96      4610.1025     -9476524.6      2.5898463      1128120.7     -8348403.9      537.26221      537.26221      537.26221      1731.3689      2268.6311      1731.3689      2268.6311      1731.3689      2268.6311      1.550811e+08   0.1            5270000        23.1891        1710.1345      17101.345      5.7972757    
  43620000   365789.61      4575.5293     -9453435.8      2.5898463      1089259       -8364176.8      537.26221      537.26221      537.26221      1731.3689      2268.6311      1731.3689      2268.6311      1731.3689      2268.6311      1.550811e+08   0.1            5271000        23.770742      1719.2727      17192.727      5.2179682    
  43630000   371772.01      4588.9218     -9437885.6      2.5898463      1107073.6     -8330812        537.26221      537.26221      537.26221      1731.3689      2268.6311      1731.3689      2268.6311      1731.3689      2268.6311      1.550811e+08   0.1            5272000        24.348615      1730.4843      17304.842      4.6378318    
  43640000   381153.67      4551.7513     -9460195.5      2.5898463      1135010.5     -8325184.9      537.26221      537.26221      537.26221      1731.3689      2268.6311      1731.3689      2268.6311      1731.3689      2268.6311      1.550811e+08   0.1            5273000        24.927464      1727.5654      17275.655      4.0579596    
  43650000   382072.46      4401.8948     -9515948.9      2.5898463      1137746.5     -8378202.3      537.26221      537.26221      537.26221      1731.3689      2268.6311      1731.3689      2268.6311      1731.3689      2268.6311      1.550811e+08   0.1            5274000        25.5095        1718.1064      17181.064      3.4785685    
  43660000   360650.51      4558.9677     -9441827.2      2.5898463      1073955.6     -8367871.5      537.26221      537.26221      537.26221      1731.3689      2268.6311      1731.3689      2268.6311      1731.3689      2268.6311      1.550811e+08   0.1            5275000        26.090248      1721.9171      17219.169      2.8989167    
  43670000   354011.46      4518.3119     -9441045        2.5898463      1054185.7     -8386859.4      537.26221      537.26221      537.26221      1731.3689      2268.6311      1731.3689      2268.6311      1731.3689      2268.6311      1.550811e+08   0.1            5276000        26.670474      1723.4674      17234.677      2.3191718    
  43680000   354147.8       4425.5909     -9477682.1      2.5898463      1054591.7     -8423090.4      537.26221      537.26221      537.26221      1731.3689      2268.6311      1731.3689      2268.6311      1731.3689      2268.6311      1.550811e+08   0.1            5277000        27.249147      1728.0905      17280.902      1.7393074    
  43690000   378229.21      4460.0907     -9504480.2      2.5898463      1126302       -8378178.2      537.26221      537.26221      537.26221      1731.3689      2268.6311      1731.3689      2268.6311      1731.3689      2268.6311      1.550811e+08   0.1            5278000        27.827915      1727.8094      17278.095      1.1594965    
  43700000   365414.23      4463.5395     -9509896        2.5898463      1088141.2     -8421754.8      537.26221      537.26221      537.26221      1731.3689      2268.6311      1731.3689      2268.6311      1731.3689      2268.6311      1.550811e+08   0.1            5279000        28.409696      1718.8584      17188.584      0.57978976   
  43710000   375197.4       4524.8808     -9493158        2.5898463      1117273.8     -8375884.2      537.26221      537.26221      537.26221      1731.3689      2268.6311      1731.3689      2268.6311      1731.3689      2268.6311      1.550811e+08   0.1            5280000        28.996159      1705.1385      17051.385      0            
Loop time of 28.9962 on 4 procs for 500000 steps with 1000 atoms

Performance: 148.985 ns/day, 0.161 hours/ns, 17243.623 timesteps/s
99.7% CPU use with 4 MPI tasks x 1 OpenMP threads

MPI task timing breakdown:
Section |  min time  |  avg time  |  max time  |%varavg| %total
---------------------------------------------------------------
Pair    | 15.722     | 16.963     | 17.585     |  17.8 | 58.50
Neigh   | 0.048202   | 0.050764   | 0.052711   |   0.7 |  0.18
Comm    | 7.9037     | 8.4954     | 9.7448     |  25.4 | 29.30
Output  | 0.017251   | 0.017868   | 0.019699   |   0.8 |  0.06
Modify  | 2.3043     | 2.3544     | 2.433      |   3.4 |  8.12
Other   |            | 1.114      |            |       |  3.84

Nlocal:            250 ave         258 max         236 min
Histogram: 1 0 0 0 0 0 1 0 0 2
Nghost:         1041.5 ave        1051 max        1034 min
Histogram: 1 0 1 0 0 1 0 0 0 1
Neighs:        1722.75 ave        1800 max        1589 min
Histogram: 1 0 0 0 0 1 0 0 0 2

Total # of neighbors = 6891
Ave neighs/atom = 6.891
Neighbor list builds = 246
Dangerous builds = 0

unfix 3

fix 4 all nvt temp 370000 ${T} $(100.0*dt)
fix 4 all nvt temp 370000 300 $(100.0*dt)
fix 4 all nvt temp 370000 300 10

run 200000
Generated 0 of 1 mixed pair_coeff terms from geometric mixing rule
Per MPI rank memory allocation (min/avg/max) = 4.363 | 4.364 | 4.364 Mbytes
   Step          Temp          Press          PotEng        Density         KinEng         TotEng           Lx             Ly             Lz            Xlo            Xhi            Ylo            Yhi            Zlo            Zhi           Volume           Dt            Time           CPU           T/CPU          S/CPU         CPULeft    
  43710000   375197.4       4524.8808     -9493158        2.5898463      1117273.8     -8375884.2      537.26221      537.26221      537.26221      1731.3689      2268.6311      1731.3689      2268.6311      1731.3689      2268.6311      1.550811e+08   0.1            5280000        0              0              0              0            
  43720000   358219.69      4463.3938     -9514172.9      2.5898463      1066717.1     -8447455.8      537.26221      537.26221      537.26221      1731.3689      2268.6311      1731.3689      2268.6311      1731.3689      2268.6311      1.550811e+08   0.1            5281000        0.58941069     1696.6083      16966.061      11.198842    
  43730000   327535.65      4437.4733     -9508539.7      2.5898463      975345.23     -8533194.5      537.26221      537.26221      537.26221      1731.3689      2268.6311      1731.3689      2268.6311      1731.3689      2268.6311      1.550811e+08   0.1            5282000        1.1750528      1707.5277      17075.276      10.575493    
  43740000   313720.87      4264.4546     -9551592.1      2.5898463      934207.17     -8617385        537.26221      537.26221      537.26221      1731.3689      2268.6311      1731.3689      2268.6311      1731.3689      2268.6311      1.550811e+08   0.1            5283000        1.7587671      1713.1671      17131.672      9.9663576    
  43750000   303957.94      4054.2418     -9620713.2      2.5898463      905134.85     -8715578.3      537.26221      537.26221      537.26221      1731.3689      2268.6311      1731.3689      2268.6311      1731.3689      2268.6311      1.550811e+08   0.1            5284000        2.3428457      1712.0981      17120.982      9.3713905    
  43760000   276390.93      3945.0483     -9609439.5      2.5898463      823045        -8786394.5      537.26221      537.26221      537.26221      1731.3689      2268.6311      1731.3689      2268.6311      1731.3689      2268.6311      1.550811e+08   0.1            5285000        2.9237182      1721.5483      17215.482      8.7711606    
  43770000   259612.89      3780.9767     -9652080.8      2.5898463      773082.86     -8878997.9      537.26221      537.26221      537.26221      1731.3689      2268.6311      1731.3689      2268.6311      1731.3689      2268.6311      1.550811e+08   0.1            5286000        3.5056972      1718.2749      17182.75       8.1799648    
  43780000   237493.34      3547.9069     -9663067.3      2.5898463      707214.6      -8955852.7      537.26221      537.26221      537.26221      1731.3689      2268.6311      1731.3689      2268.6311      1731.3689      2268.6311      1.550811e+08   0.1            5287000        4.0884869      1715.8845      17158.842      7.5929083    
  43790000   216575.16      3256.5732     -9771712.1      2.5898463      644923.86     -9126788.3      537.26221      537.26221      537.26221      1731.3689      2268.6311      1731.3689      2268.6311      1731.3689      2268.6311      1.550811e+08   0.1            5288000        4.6707215      1717.5212      17175.213      7.0060852    
  43800000   208574.58      3010.0345     -9826049.1      2.5898463      621099.49     -9204949.6      537.26221      537.26221      537.26221      1731.3689      2268.6311      1731.3689      2268.6311      1731.3689      2268.6311      1.550811e+08   0.1            5289000        5.2566753      1706.6191      17066.191      6.4248278    
  43810000   181238.28      2728.3116     -9898559.2      2.5898463      539696.65     -9358862.6      537.26221      537.26221      537.26221      1731.3689      2268.6311      1731.3689      2268.6311      1731.3689      2268.6311      1.550811e+08   0.1            5290000        5.8367407      1723.9435      17239.434      5.8367428    
  43820000   165174.66      2450.6178     -9928990.3      2.5898463      491861.93     -9437128.4      537.26221      537.26221      537.26221      1731.3689      2268.6311      1731.3689      2268.6311      1731.3689      2268.6311      1.550811e+08   0.1            5291000        6.4094508      1746.0843      17460.843      5.2440977    
  43830000   158895.65      2205.4673     -9955026.8      2.5898463      473164.11     -9481862.7      537.26221      537.26221      537.26221      1731.3689      2268.6311      1731.3689      2268.6311      1731.3689      2268.6311      1.550811e+08   0.1            5292000        6.9799927      1752.7198      17527.199      4.6533297    
  43840000   128087.24      1920.7146     -10014269       2.5898463      381421.93     -9632847.4      537.26221      537.26221      537.26221      1731.3689      2268.6311      1731.3689      2268.6311      1731.3689      2268.6311      1.550811e+08   0.1            5293000        7.5534054      1743.9444      17439.444      4.0672193    
  43850000   112154.74      1646.755      -10086022       2.5898463      333977.67     -9752044.6      537.26221      537.26221      537.26221      1731.3689      2268.6311      1731.3689      2268.6311      1731.3689      2268.6311      1.550811e+08   0.1            5294000        8.1259629      1746.5495      17465.494      3.4825564    
  43860000   88966.951      1393.9746     -10116398       2.5898463      264928.39     -9851469.5      537.26221      537.26221      537.26221      1731.3689      2268.6311      1731.3689      2268.6311      1731.3689      2268.6311      1.550811e+08   0.1            5295000        8.6959706      1754.3623      17543.623      2.8986575    
  43870000   74981.918      1193.23       -10156114       2.5898463      223283.35     -9932831        537.26221      537.26221      537.26221      1731.3689      2268.6311      1731.3689      2268.6311      1731.3689      2268.6311      1.550811e+08   0.1            5296000        9.2653103      1756.4205      17564.206      2.3163281    
  43880000   57732.318      966.70087     -10203828       2.5898463      171916.98     -10031911       537.26221      537.26221      537.26221      1731.3689      2268.6311      1731.3689      2268.6311      1731.3689      2268.6311      1.550811e+08   0.1            5297000        9.833393       1760.3072      17603.069      1.735305     
  43890000   36381.872      738.09397     -10252223       2.5898463      108339        -10143884       537.26221      537.26221      537.26221      1731.3689      2268.6311      1731.3689      2268.6311      1731.3689      2268.6311      1.550811e+08   0.1            5298000        10.404725      1750.2955      17502.956      1.1560808    
  43900000   18732.893      516.87042     -10285095       2.5898463      55783.355     -10229311       537.26221      537.26221      537.26221      1731.3689      2268.6311      1731.3689      2268.6311      1731.3689      2268.6311      1.550811e+08   0.1            5299000        10.981017      1735.2302      17352.304      0.57794839   
  43910000   525.57391      350.2433      -10314753       2.5898463      1565.0694     -10313188       537.26221      537.26221      537.26221      1731.3689      2268.6311      1731.3689      2268.6311      1731.3689      2268.6311      1.550811e+08   0.1            5300000        11.556666      1737.1707      17371.706      0            
Loop time of 11.5567 on 4 procs for 200000 steps with 1000 atoms

Performance: 149.523 ns/day, 0.161 hours/ns, 17305.949 timesteps/s
99.7% CPU use with 4 MPI tasks x 1 OpenMP threads

MPI task timing breakdown:
Section |  min time  |  avg time  |  max time  |%varavg| %total
---------------------------------------------------------------
Pair    | 6.2553     | 6.7324     | 7.0523     |  11.7 | 58.26
Neigh   | 0.012469   | 0.012999   | 0.013465   |   0.3 |  0.11
Comm    | 3.1309     | 3.4272     | 3.8988     |  16.2 | 29.66
Output  | 0.0095924  | 0.0098364  | 0.010559   |   0.4 |  0.09
Modify  | 0.90468    | 0.93216    | 0.96465    |   2.3 |  8.07
Other   |            | 0.4421     |            |       |  3.83

Nlocal:            250 ave         257 max         242 min
Histogram: 1 0 0 0 1 0 0 1 0 1
Nghost:        1033.75 ave        1046 max        1024 min
Histogram: 1 1 0 0 0 0 1 0 0 1
Neighs:         1715.5 ave        1760 max        1639 min
Histogram: 1 0 0 0 0 1 0 0 0 2

Total # of neighbors = 6862
Ave neighs/atom = 6.862
Neighbor list builds = 64
Dangerous builds = 0

unfix 4

fix 5 all npt temp ${T} ${T} $(100.0*dt) iso 1.0 1.0 $(1000.0*dt)
fix 5 all npt temp 300 ${T} $(100.0*dt) iso 1.0 1.0 $(1000.0*dt)
fix 5 all npt temp 300 300 $(100.0*dt) iso 1.0 1.0 $(1000.0*dt)
fix 5 all npt temp 300 300 10 iso 1.0 1.0 $(1000.0*dt)
fix 5 all npt temp 300 300 10 iso 1.0 1.0 100

run 300000
Generated 0 of 1 mixed pair_coeff terms from geometric mixing rule
Per MPI rank memory allocation (min/avg/max) = 4.363 | 4.364 | 4.364 Mbytes
   Step          Temp          Press          PotEng        Density         KinEng         TotEng           Lx             Ly             Lz            Xlo            Xhi            Ylo            Yhi            Zlo            Zhi           Volume           Dt            Time           CPU           T/CPU          S/CPU         CPULeft    
  43910000   525.57391      350.2433      -10314753       2.5898463      1565.0694     -10313188       537.26221      537.26221      537.26221      1731.3689      2268.6311      1731.3689      2268.6311      1731.3689      2268.6311      1.550811e+08   0.1            5300000        0              0              0              0            
  43920000   312.24936     -5.1122148     -10311220       2.5770031      929.82529     -10310290       538.15326      538.15326      538.15326      1730.9234      2269.0766      1730.9234      2269.0766      1730.9234      2269.0766      1.5585399e+08  0.1            5301000        0.68178384     1466.7393      14667.377      19.771792    
  43930000   310.64355      0.83324677    -10317982       2.5782919      925.04345     -10317057       538.06357      538.06357      538.06357      1730.9682      2269.0318      1730.9682      2269.0318      1730.9682      2269.0318      1.5577608e+08  0.1            5302000        1.3606199      1473.11        14731.099      19.048706    
  43940000   309.34948      3.0775127     -10324550       2.5795235      921.18993     -10323628       537.97793      537.97793      537.97793      1731.011       2268.989       1731.011       2268.989       1731.011       2268.989       1.5570171e+08  0.1            5303000        2.0387459      1474.6523      14746.525      18.34873     
  43950000   308.32888      1.5797414     -10330358       2.5807235      918.15076     -10329440       537.89453      537.89453      537.89453      1731.0527      2268.9473      1731.0527      2268.9473      1731.0527      2268.9473      1.5562931e+08  0.1            5304000        2.7184123      1471.3099      14713.1        17.669692    
  43960000   307.33027     -0.97407922    -10334450       2.581521       915.17707     -10333535       537.83913      537.83913      537.83913      1731.0804      2268.9196      1731.0804      2268.9196      1731.0804      2268.9196      1.5558123e+08  0.1            5305000        3.396118       1475.5668      14755.666      16.9806      
  43970000   306.58029      3.5000149     -10337614       2.5825302      912.94376     -10336701       537.76906      537.76906      537.76906      1731.1155      2268.8845      1731.1155      2268.8845      1731.1155      2268.8845      1.5552043e+08  0.1            5306000        4.0738136      1475.5888      14755.89       16.295262    
  43980000   305.98689      1.2329746     -10341471       2.5833363      911.1767      -10340560       537.71312      537.71312      537.71312      1731.1434      2268.8566      1731.1434      2268.8566      1731.1434      2268.8566      1.554719e+08   0.1            5307000        4.750041       1478.7923      14787.923      15.607284    
  43990000   305.45079      12.419667     -10346087       2.5843088      909.58028     -10345178       537.64567      537.64567      537.64567      1731.1772      2268.8228      1731.1772      2268.8228      1731.1772      2268.8228      1.554134e+08   0.1            5308000        5.4269438      1477.3171      14773.171      14.924101    
  44000000   304.99753     -3.5443439     -10348921       2.5842901      908.23056     -10348013       537.64696      537.64696      537.64696      1731.1765      2268.8235      1731.1765      2268.8235      1731.1765      2268.8235      1.5541452e+08  0.1            5309000        6.1053073      1474.1359      14741.359      14.245721    
  44010000   304.65546     -2.4699117     -10351890       2.5849911      907.21194     -10350983       537.59836      537.59836      537.59836      1731.2008      2268.7992      1731.2008      2268.7992      1731.2008      2268.7992      1.5537238e+08  0.1            5310000        6.7823035      1477.1131      14771.129      13.564611    
  44020000   304.3114       2.4761576     -10357280       2.5858695      906.18738     -10356374       537.53748      537.53748      537.53748      1731.2313      2268.7687      1731.2313      2268.7687      1731.2313      2268.7687      1.5531959e+08  0.1            5311000        7.4587845      1478.2382      14782.383      12.883358    
  44030000   304.03484     -3.172279      -10356488       2.5860884      905.36384     -10355582       537.52231      537.52231      537.52231      1731.2388      2268.7612      1731.2388      2268.7612      1731.2388      2268.7612      1.5530645e+08  0.1            5312000        8.135461       1477.8107      14778.108      12.203195    
  44040000   303.79821      5.6187181     -10358489       2.5869154      904.65919     -10357585       537.46503      537.46503      537.46503      1731.2675      2268.7325      1731.2675      2268.7325      1731.2675      2268.7325      1.552568e+08   0.1            5313000        8.8119385      1478.246       14782.459      11.523307    
  44050000   303.68475     -0.78110455    -10362243       2.5872787      904.32132     -10361338       537.43987      537.43987      537.43987      1731.2801      2268.7199      1731.2801      2268.7199      1731.2801      2268.7199      1.55235e+08    0.1            5314000        9.4898128      1475.1996      14751.996      10.845503    
  44060000   303.48214      2.4005923     -10367442       2.5878374      903.718       -10366538       537.40119      537.40119      537.40119      1731.2994      2268.7006      1731.2994      2268.7006      1731.2994      2268.7006      1.5520149e+08  0.1            5315000        10.166632      1477.4991      14774.991      10.166634    
  44070000   303.25643     -1.4419963     -10369512       2.5881336      903.04586     -10368609       537.38069      537.38069      537.38069      1731.3097      2268.6903      1731.3097      2268.6903      1731.3097      2268.6903      1.5518372e+08  0.1            5316000        10.844151      1475.9743      14759.743      9.4886337    
  44080000   303.02711     -12.01106      -10374825       2.5884031      902.36297     -10373923       537.36204      537.36204      537.36204      1731.319       2268.681       1731.319       2268.681       1731.319       2268.681       1.5516757e+08  0.1            5317000        11.52158       1476.1676      14761.675      8.8106221    
  44090000   303.21299      7.5070217     -10377809       2.5893094      902.9165      -10376906       537.29934      537.29934      537.29934      1731.3503      2268.6497      1731.3503      2268.6497      1731.3503      2268.6497      1.5511325e+08  0.1            5318000        12.199895      1474.2429      14742.431      8.1332646    
  44100000   297.76869     -3.0013552     -10381164       2.58936        886.70431     -10380278       537.29584      537.29584      537.29584      1731.3521      2268.6479      1731.3521      2268.6479      1731.3521      2268.6479      1.5511023e+08  0.1            5319000        12.879162      1472.1743      14721.742      7.4563583    
  44110000   296.78841     -1.8887118     -10383659       2.5897658      883.78521     -10382775       537.26777      537.26777      537.26777      1731.3661      2268.6339      1731.3661      2268.6339      1731.3661      2268.6339      1.5508592e+08  0.1            5320000        13.557433      1474.3379      14743.379      6.7787174    
  44120000   306.49283     -9.7389606     -10385365       2.5899886      912.68332     -10384452       537.25237      537.25237      537.25237      1731.3738      2268.6262      1731.3738      2268.6262      1731.3738      2268.6262      1.5507258e+08  0.1            5321000        14.235469      1474.8465      14748.467      6.1009163    
  44130000   302.08958      2.985432      -10395515       2.5908053      899.57119     -10394615       537.1959       537.1959       537.1959       1731.402       2268.598       1731.402       2268.598       1731.402       2268.598       1.5502369e+08  0.1            5322000        14.912931      1476.0987      14760.985      5.4228847    
  44140000   295.06311      4.7650027     -10389383       2.5912349      878.64756     -10388504       537.16621      537.16621      537.16621      1731.4169      2268.5831      1731.4169      2268.5831      1731.4169      2268.5831      1.5499799e+08  0.1            5323000        15.589467      1478.1177      14781.178      4.744621     
  44150000   309.28607     -3.9483631     -10393252       2.5914405      921.00109     -10392331       537.15201      537.15201      537.15201      1731.424       2268.576       1731.424       2268.576       1731.424       2268.576       1.5498569e+08  0.1            5324000        16.26654       1476.9447      14769.447      4.0666356    
  44160000   303.89543     -7.5016238     -10397879       2.5915997      904.94869     -10396974       537.14101      537.14101      537.14101      1731.4295      2268.5705      1731.4295      2268.5705      1731.4295      2268.5705      1.5497618e+08  0.1            5325000        16.943589      1476.9993      14769.994      3.3887182    
  44170000   297.53237     -6.828222      -10398694       2.5920085      886.00058     -10397808       537.11277      537.11277      537.11277      1731.4436      2268.5564      1731.4436      2268.5564      1731.4436      2268.5564      1.5495173e+08  0.1            5326000        17.621419      1475.2954      14752.955      2.7109879    
  44180000   291.51691      1.744031      -10400217       2.5925627      868.08759     -10399349       537.07449      537.07449      537.07449      1731.4628      2268.5372      1731.4628      2268.5372      1731.4628      2268.5372      1.5491861e+08  0.1            5327000        18.297393      1479.3464      14793.465      2.0330439    
  44190000   304.87738      0.015537208   -10400612       2.592881       907.87277     -10399704       537.05252      537.05252      537.05252      1731.4737      2268.5263      1731.4737      2268.5263      1731.4737      2268.5263      1.5489959e+08  0.1            5328000        18.973579      1478.8829      14788.829      1.3552558    
  44200000   301.52206      2.8785368     -10402820       2.5931801      897.88121     -10401922       537.03187      537.03187      537.03187      1731.4841      2268.5159      1731.4841      2268.5159      1731.4841      2268.5159      1.5488173e+08  0.1            5329000        19.651438      1475.2327      14752.326      0.67763588   
  44210000   302.66871     -5.9974759     -10404621       2.593156       901.29574     -10403720       537.03353      537.03353      537.03353      1731.4832      2268.5168      1731.4832      2268.5168      1731.4832      2268.5168      1.5488317e+08  0.1            5330000        20.328507      1476.9561      14769.561      0            
Loop time of 20.3286 on 4 procs for 300000 steps with 1000 atoms

Performance: 127.505 ns/day, 0.188 hours/ns, 14757.563 timesteps/s
99.7% CPU use with 4 MPI tasks x 1 OpenMP threads

MPI task timing breakdown:
Section |  min time  |  avg time  |  max time  |%varavg| %total
---------------------------------------------------------------
Pair    | 10.433     | 11.128     | 11.566     |  13.0 | 54.74
Neigh   | 0.0039024  | 0.0040536  | 0.0042392  |   0.2 |  0.02
Comm    | 4.5787     | 4.9844     | 5.6618     |  19.3 | 24.52
Output  | 0.0076524  | 0.007988   | 0.0089825  |   0.6 |  0.04
Modify  | 3.4338     | 3.4877     | 3.5358     |   2.2 | 17.16
Other   |            | 0.7169     |            |       |  3.53

Nlocal:            250 ave         260 max         241 min
Histogram: 1 0 0 1 0 1 0 0 0 1
Nghost:        1028.75 ave        1044 max        1015 min
Histogram: 1 0 1 0 0 0 1 0 0 1
Neighs:        1717.75 ave        1758 max        1620 min
Histogram: 1 0 0 0 0 0 0 0 0 3

Total # of neighbors = 6871
Ave neighs/atom = 6.871
Neighbor list builds = 20
Dangerous builds = 2

# run_style
run_style verlet

# write restart
write_restart ${write_res}
write_restart ./pgnpmf/9010/equpmf36.res
System init for write_restart ...
Generated 0 of 1 mixed pair_coeff terms from geometric mixing rule

Total wall time: 0:01:12
