LAMMPS (23 Jun 2022 - Update 1)
OMP_NUM_THREADS environment is not set. Defaulting to 1 thread. (src/comm.cpp:98)
  using 1 OpenMP thread(s) per MPI task
# Read restart
read_restart ${read_res}
read_restart ./pgnpmf/9010/equpmf56.res
Reading restart file ...
  restart file = 23 Jun 2022, LAMMPS = 23 Jun 2022
  restoring atom style atomic from restart
  orthogonal box = (1731.9421 1731.9421 1731.9421) to (2268.0579 2268.0579 2268.0579)
  1 by 2 by 2 MPI processor grid
  restoring pair style table from restart
  1000 atoms
  read_restart CPU = 0.005 seconds

# Settings

pair_style table spline 9941

pair_coeff 1 1 ./pgnpmf/N20.txt DE_GNP 75.6
pair_coeff 2 2 ./pgnpmf/N100.txt DE_GNP 115.92
WARNING: 3 of 9941 force values in table DE_GNP are inconsistent with -dE/dr.
WARNING:  Should only be flagged at inflection points (src/pair_table.cpp:463)
pair_coeff 1 2 ./pgnpmf/mixed_potential.txt DE_GNP 95.66
WARNING: 1562 of 9941 force values in table DE_GNP are inconsistent with -dE/dr.
WARNING:  Should only be flagged at inflection points (src/pair_table.cpp:463)

#Neigh_list Calc Frequency

neigh_modify delay 0 every 1 check yes

# Saving Frequency (50 frames)

variable ts_save equal ${steps_equ}
variable ts_save equal 5000

# Dump
#dump 1 all custom ${ts_save} ./pgnpmf/${folder}/equilibration/trajectory/trajectory_${usic}_${trial}.equ.custom type x y z ix iy iz
#dump_modify 1 first no sort id
dump 2 all cfg 50000 ./pgnpmf/${folder}/equilibration/trajectory/dumpgen.tens_*.cfg mass type xs ys zs fx fy fz
dump 2 all cfg 50000 ./pgnpmf/9010/equilibration/trajectory/dumpgen.tens_*.cfg mass type xs ys zs fx fy fz
dump_modify 2 element N20 N100

# thermo_style
thermo_style custom step temp press pe density ke etotal lx ly lz xlo xhi ylo yhi zlo zhi vol dt time cpu tpcpu spcpu cpuremain

# run info
timestep ${ts}
timestep 0.1
thermo 10000


# fix

fix 1 all momentum 1000 linear 1 1 1 angular
variable T equal ${temp}
variable T equal 300
fix 2 all nvt temp ${T} 370000 100.0
fix 2 all nvt temp 300 370000 100.0

run 200000
Generated 0 of 1 mixed pair_coeff terms from geometric mixing rule
Unused restart file global fix info:
  fix style: npt, fix ID: 5
Neighbor list info ...
  update every 1 steps, delay 0 steps, check yes
  max neighbors/atom: 2000, page size: 100000
  master list distance cutoff = 117.92
  ghost atom cutoff = 117.92
  binsize = 58.96, bins = 10 10 10
  1 neighbor lists, perpetual/occasional/extra = 1 0 0
  (1) pair table, perpetual
      attributes: half, newton on
      pair build: half/bin/atomonly/newton
      stencil: half/bin/3d
      bin: standard
Per MPI rank memory allocation (min/avg/max) = 3.097 | 3.097 | 3.098 Mbytes
   Step          Temp          Press          PotEng        Density         KinEng         TotEng           Lx             Ly             Lz            Xlo            Xhi            Ylo            Yhi            Zlo            Zhi           Volume           Dt            Time           CPU           T/CPU          S/CPU         CPULeft    
  68210000   298.11582      9.4370077     -10421893       2.6064951      887.73802     -10421006       536.11585      536.11585      536.11585      1731.9421      2268.0579      1731.9421      2268.0579      1731.9421      2268.0579      1.5409053e+08  0.1            7730000        0              0              0              0            
  68220000   19973.217     -8.1863214     -10427392       2.6064951      59476.829     -10367915       536.11585      536.11585      536.11585      1731.9421      2268.0579      1731.9421      2268.0579      1731.9421      2268.0579      1.5409053e+08  0.1            7731000        0.58192838     1718.4228      17184.204      11.056681    
  68230000   36786.52       24.891738     -10435480       2.6064951      109543.97     -10325936       536.11585      536.11585      536.11585      1731.9421      2268.0579      1731.9421      2268.0579      1731.9421      2268.0579      1.5409053e+08  0.1            7732000        1.1667454      1709.937       17099.371      10.500726    
  68240000   54703.252      132.76889     -10426417       2.6064951      162896.94     -10263520       536.11585      536.11585      536.11585      1731.9421      2268.0579      1731.9421      2268.0579      1731.9421      2268.0579      1.5409053e+08  0.1            7733000        1.751009       1711.5561      17115.562      9.9223956    
  68250000   74687.92       301.62763     -10402768       2.6064951      222407.87     -10180360       536.11585      536.11585      536.11585      1731.9421      2268.0579      1731.9421      2268.0579      1731.9421      2268.0579      1.5409053e+08  0.1            7734000        2.3367672      1707.1888      17071.889      9.3470768    
  68260000   93667.67       510.14682     -10370356       2.6064951      278926.33     -10091430       536.11585      536.11585      536.11585      1731.9421      2268.0579      1731.9421      2268.0579      1731.9421      2268.0579      1.5409053e+08  0.1            7735000        2.9206437      1712.6913      17126.911      8.7619369    
  68270000   110839.81      771.93812     -10357361       2.6064951      330062.04     -10027299       536.11585      536.11585      536.11585      1731.9421      2268.0579      1731.9421      2268.0579      1731.9421      2268.0579      1.5409053e+08  0.1            7736000        3.5062045      1707.7643      17077.646      8.1811485    
  68280000   129012.89      1039.9223     -10314263       2.6064951      384178.35     -9930084.6      536.11585      536.11585      536.11585      1731.9421      2268.0579      1731.9421      2268.0579      1731.9421      2268.0579      1.5409053e+08  0.1            7737000        4.0931992      1703.593       17035.927      7.6016595    
  68290000   148983.98      1360.2081     -10263012       2.6064951      443648.86     -9819362.8      536.11585      536.11585      536.11585      1731.9421      2268.0579      1731.9421      2268.0579      1731.9421      2268.0579      1.5409053e+08  0.1            7738000        4.6788457      1707.5148      17075.15       7.0182714    
  68300000   167734.77      1713.7236     -10187214       2.6064951      499485.5      -9687728.6      536.11585      536.11585      536.11585      1731.9421      2268.0579      1731.9421      2268.0579      1731.9421      2268.0579      1.5409053e+08  0.1            7739000        5.2697253      1692.3922      16923.922      6.4407778    
  68310000   185759.61      1992.7791     -10130945       2.6064951      553160.4      -9577784.4      536.11585      536.11585      536.11585      1731.9421      2268.0579      1731.9421      2268.0579      1731.9421      2268.0579      1.5409053e+08  0.1            7740000        5.8654419      1678.6506      16786.506      5.8654438    
  68320000   209795.37      2323.0685     -10070610       2.6064951      624734.79     -9445875.6      536.11585      536.11585      536.11585      1731.9421      2268.0579      1731.9421      2268.0579      1731.9421      2268.0579      1.5409053e+08  0.1            7741000        6.4662386      1664.4565      16644.565      5.2905605    
  68330000   223641.41      2658.6117     -10031123       2.6064951      665965.92     -9365156.8      536.11585      536.11585      536.11585      1731.9421      2268.0579      1731.9421      2268.0579      1731.9421      2268.0579      1.5409053e+08  0.1            7742000        7.0671999      1664.0007      16640.007      4.7114679    
  68340000   233645.06      2973.4462     -9970298.5      2.6064951      695755.09     -9274543.4      536.11585      536.11585      536.11585      1731.9421      2268.0579      1731.9421      2268.0579      1731.9421      2268.0579      1.5409053e+08  0.1            7743000        7.6671373      1666.8405      16668.407      4.1284596    
  68350000   249613.15      3294.7971     -9921643.8      2.6064951      743305.35     -9178338.4      536.11585      536.11585      536.11585      1731.9421      2268.0579      1731.9421      2268.0579      1731.9421      2268.0579      1.5409053e+08  0.1            7744000        8.2749802      1645.1617      16451.617      3.5464209    
  68360000   278191.84      3609.2584     -9849983.2      2.6064951      828407.79     -9021575.5      536.11585      536.11585      536.11585      1731.9421      2268.0579      1731.9421      2268.0579      1731.9421      2268.0579      1.5409053e+08  0.1            7745000        8.8835131      1643.2967      16432.965      2.9611717    
  68370000   299413.06      3859.6118     -9811669.5      2.6064951      891600.98     -8920068.5      536.11585      536.11585      536.11585      1731.9421      2268.0579      1731.9421      2268.0579      1731.9421      2268.0579      1.5409053e+08  0.1            7746000        9.4904068      1647.7348      16477.348      2.3726022    
  68380000   314958.65      4047.9426     -9763749.5      2.6064951      937893.09     -8825856.4      536.11585      536.11585      536.11585      1731.9421      2268.0579      1731.9421      2268.0579      1731.9421      2268.0579      1.5409053e+08  0.1            7747000        10.096235      1650.6338      16506.339      1.7816888    
  68390000   331955.47      4241.2769     -9728239        2.6064951      988506.71     -8739732.3      536.11585      536.11585      536.11585      1731.9421      2268.0579      1731.9421      2268.0579      1731.9421      2268.0579      1.5409053e+08  0.1            7748000        10.698815      1659.528       16595.283      1.1887575    
  68400000   337855.89      4586.3266     -9635631.8      2.6064951      1006077.2     -8629554.7      536.11585      536.11585      536.11585      1731.9421      2268.0579      1731.9421      2268.0579      1731.9421      2268.0579      1.5409053e+08  0.1            7749000        11.295494      1675.944       16759.436      0.59449981   
  68410000   379631.86      4917.4824     -9557398.7      2.6064951      1130478.9     -8426919.9      536.11585      536.11585      536.11585      1731.9421      2268.0579      1731.9421      2268.0579      1731.9421      2268.0579      1.5409053e+08  0.1            7750000        11.885729      1694.2405      16942.409      0            
Loop time of 11.8857 on 4 procs for 200000 steps with 1000 atoms

Performance: 145.384 ns/day, 0.165 hours/ns, 16826.873 timesteps/s
99.7% CPU use with 4 MPI tasks x 1 OpenMP threads

MPI task timing breakdown:
Section |  min time  |  avg time  |  max time  |%varavg| %total
---------------------------------------------------------------
Pair    | 6.3823     | 6.6965     | 7.1269     |  10.5 | 56.34
Neigh   | 0.016215   | 0.016927   | 0.017945   |   0.5 |  0.14
Comm    | 3.3785     | 3.7697     | 4.0578     |  12.7 | 31.72
Output  | 0.00725    | 0.0073505  | 0.0076485  |   0.2 |  0.06
Modify  | 0.90413    | 0.95175    | 1.0023     |   4.0 |  8.01
Other   |            | 0.4435     |            |       |  3.73

Nlocal:            250 ave         259 max         246 min
Histogram: 2 1 0 0 0 0 0 0 0 1
Nghost:        1032.75 ave        1035 max        1026 min
Histogram: 1 0 0 0 0 0 0 0 0 3
Neighs:           1733 ave        1839 max        1632 min
Histogram: 1 0 0 0 2 0 0 0 0 1

Total # of neighbors = 6932
Ave neighs/atom = 6.932
Neighbor list builds = 82
Dangerous builds = 0

unfix 2

fix 3 all nvt temp 370000 370000 $(100.0*dt) #iso 1.0 1.0 $(1000.0*dt)
fix 3 all nvt temp 370000 370000 10 

run 500000
Generated 0 of 1 mixed pair_coeff terms from geometric mixing rule
Per MPI rank memory allocation (min/avg/max) = 4.363 | 4.364 | 4.364 Mbytes
   Step          Temp          Press          PotEng        Density         KinEng         TotEng           Lx             Ly             Lz            Xlo            Xhi            Ylo            Yhi            Zlo            Zhi           Volume           Dt            Time           CPU           T/CPU          S/CPU         CPULeft    
  68410000   379631.86      4917.4824     -9557398.7      2.6064951      1130478.9     -8426919.9      536.11585      536.11585      536.11585      1731.9421      2268.0579      1731.9421      2268.0579      1731.9421      2268.0579      1.5409053e+08  0.1            7750000        0              0              0              0            
  68420000   367138.91      5074.2953     -9508187.6      2.6064951      1093277       -8414910.6      536.11585      536.11585      536.11585      1731.9421      2268.0579      1731.9421      2268.0579      1731.9421      2268.0579      1.5409053e+08  0.1            7751000        0.59183602     1689.6557      16896.535      29.00007     
  68430000   373935.28      5101.0032     -9491731.5      2.6064951      1113515.4     -8378216.1      536.11585      536.11585      536.11585      1731.9421      2268.0579      1731.9421      2268.0579      1731.9421      2268.0579      1.5409053e+08  0.1            7752000        1.1825441      1692.8836      16928.837      28.381107    
  68440000   381397.39      5121.7706     -9447959.6      2.6064951      1135736.3     -8312223.3      536.11585      536.11585      536.11585      1731.9421      2268.0579      1731.9421      2268.0579      1731.9421      2268.0579      1.5409053e+08  0.1            7753000        1.7718834      1696.8154      16968.156      27.759537    
  68450000   374439.14      5010.8689     -9447920.8      2.6064951      1115015.8     -8332905        536.11585      536.11585      536.11585      1731.9421      2268.0579      1731.9421      2268.0579      1731.9421      2268.0579      1.5409053e+08  0.1            7754000        2.3623567      1693.5569      16935.567      27.167125    
  68460000   364263.37      5098.1333     -9459546.7      2.6064951      1084714.1     -8374832.6      536.11585      536.11585      536.11585      1731.9421      2268.0579      1731.9421      2268.0579      1731.9421      2268.0579      1.5409053e+08  0.1            7755000        2.9482953      1706.6634      17066.634      26.534676    
  68470000   378113.23      5264.7222     -9451503.3      2.6064951      1125956.6     -8325546.6      536.11585      536.11585      536.11585      1731.9421      2268.0579      1731.9421      2268.0579      1731.9421      2268.0579      1.5409053e+08  0.1            7756000        3.5421677      1683.8634      16838.635      25.975911    
  68480000   365595.08      5223.5641     -9445671        2.6064951      1088679.7     -8356991.3      536.11585      536.11585      536.11585      1731.9421      2268.0579      1731.9421      2268.0579      1731.9421      2268.0579      1.5409053e+08  0.1            7757000        4.1346133      1687.9189      16879.188      25.39835     
  68490000   378447.09      4969.367      -9533003.9      2.6064951      1126950.8     -8406053.1      536.11585      536.11585      536.11585      1731.9421      2268.0579      1731.9421      2268.0579      1731.9421      2268.0579      1.5409053e+08  0.1            7758000        4.7262209      1690.3096      16903.098      24.812669    
  68500000   362622.78      4920.8263     -9518537.4      2.6064951      1079828.7     -8438708.7      536.11585      536.11585      536.11585      1731.9421      2268.0579      1731.9421      2268.0579      1731.9421      2268.0579      1.5409053e+08  0.1            7759000        5.3176875      1690.7122      16907.121      24.22503     
  68510000   376675.66      5026.8276     -9494578        2.6064951      1121675.8     -8372902.2      536.11585      536.11585      536.11585      1731.9421      2268.0579      1731.9421      2268.0579      1731.9421      2268.0579      1.5409053e+08  0.1            7760000        5.9102824      1687.4937      16874.937      23.641137    
  68520000   365597.8       5093.1171     -9449164.6      2.6064951      1088687.8     -8360476.8      536.11585      536.11585      536.11585      1731.9421      2268.0579      1731.9421      2268.0579      1731.9421      2268.0579      1.5409053e+08  0.1            7761000        6.5047895      1682.0655      16820.657      23.062442    
  68530000   384464.62      5079.798      -9434908.5      2.6064951      1144870       -8290038.6      536.11585      536.11585      536.11585      1731.9421      2268.0579      1731.9421      2268.0579      1731.9421      2268.0579      1.5409053e+08  0.1            7762000        7.0994299      1681.6888      16816.885      22.481534    
  68540000   354038.32      4967.8218     -9431869.9      2.6064951      1054265.7     -8377604.2      536.11585      536.11585      536.11585      1731.9421      2268.0579      1731.9421      2268.0579      1731.9421      2268.0579      1.5409053e+08  0.1            7763000        7.6933928      1683.6069      16836.071      21.896585    
  68550000   350877.1       4956.3536     -9446623.9      2.6064951      1044852.1     -8401771.9      536.11585      536.11585      536.11585      1731.9421      2268.0579      1731.9421      2268.0579      1731.9421      2268.0579      1.5409053e+08  0.1            7764000        8.2875332      1683.1036      16831.035      21.310805    
  68560000   383798.96      5017.2825     -9435603.4      2.6064951      1142887.8     -8292715.6      536.11585      536.11585      536.11585      1731.9421      2268.0579      1731.9421      2268.0579      1731.9421      2268.0579      1.5409053e+08  0.1            7765000        8.8853837      1672.659       16726.589      20.732567    
  68570000   366867.47      4900.7873     -9473716.6      2.6064951      1092468.7     -8381247.9      536.11585      536.11585      536.11585      1731.9421      2268.0579      1731.9421      2268.0579      1731.9421      2268.0579      1.5409053e+08  0.1            7766000        9.4792271      1683.9456      16839.457      20.143362    
  68580000   368306.7       4895.1727     -9455376.7      2.6064951      1096754.5     -8358622.2      536.11585      536.11585      536.11585      1731.9421      2268.0579      1731.9421      2268.0579      1731.9421      2268.0579      1.5409053e+08  0.1            7767000        10.066609      1702.4691      17024.69       19.541069    
  68590000   368676.73      4883.218      -9440734.9      2.6064951      1097856.4     -8342878.5      536.11585      536.11585      536.11585      1731.9421      2268.0579      1731.9421      2268.0579      1731.9421      2268.0579      1.5409053e+08  0.1            7768000        10.652349      1707.2426      17072.428      18.937513    
  68600000   384446.52      4660.5093     -9491980.6      2.6064951      1144816.1     -8347164.5      536.11585      536.11585      536.11585      1731.9421      2268.0579      1731.9421      2268.0579      1731.9421      2268.0579      1.5409053e+08  0.1            7769000        11.240453      1700.3803      17003.804      18.339689    
  68610000   364775.22      4697.0744     -9464919.5      2.6064951      1086238.3     -8378681.2      536.11585      536.11585      536.11585      1731.9421      2268.0579      1731.9421      2268.0579      1731.9421      2268.0579      1.5409053e+08  0.1            7770000        11.827403      1703.7218      17037.218      17.741108    
  68620000   366697.9       4745.1855     -9458274        2.6064951      1091963.7     -8366310.2      536.11585      536.11585      536.11585      1731.9421      2268.0579      1731.9421      2268.0579      1731.9421      2268.0579      1.5409053e+08  0.1            7771000        12.4186        1691.4831      16914.83       17.149498    
  68630000   381971.85      4667.2895     -9490227.2      2.6064951      1137446.9     -8352780.3      536.11585      536.11585      536.11585      1731.9421      2268.0579      1731.9421      2268.0579      1731.9421      2268.0579      1.5409053e+08  0.1            7772000        13.00816       1696.181       16961.811      16.555842    
  68640000   377144.17      4604.0338     -9523712.7      2.6064951      1123070.9     -8400641.7      536.11585      536.11585      536.11585      1731.9421      2268.0579      1731.9421      2268.0579      1731.9421      2268.0579      1.5409053e+08  0.1            7773000        13.597556      1696.6507      16966.507      15.962351    
  68650000   381135.59      4582.9779     -9569646.5      2.6064951      1134956.7     -8434689.8      536.11585      536.11585      536.11585      1731.9421      2268.0579      1731.9421      2268.0579      1731.9421      2268.0579      1.5409053e+08  0.1            7774000        14.188828      1691.2694      16912.695      15.371233    
  68660000   367607.24      4660.4548     -9544537.1      2.6064951      1094671.6     -8449865.5      536.11585      536.11585      536.11585      1731.9421      2268.0579      1731.9421      2268.0579      1731.9421      2268.0579      1.5409053e+08  0.1            7775000        14.779428      1693.1935      16931.934      14.77943     
  68670000   359331.97      4764.2845     -9496304.1      2.6064951      1070029.2     -8426274.9      536.11585      536.11585      536.11585      1731.9421      2268.0579      1731.9421      2268.0579      1731.9421      2268.0579      1.5409053e+08  0.1            7776000        15.370528      1691.7614      16917.615      14.188182    
  68680000   363286.02      4657.7286     -9532024.9      2.6064951      1081803.7     -8450221.2      536.11585      536.11585      536.11585      1731.9421      2268.0579      1731.9421      2268.0579      1731.9421      2268.0579      1.5409053e+08  0.1            7777000        15.962534      1689.1711      16891.71       13.597716    
  68690000   390033.9       4717.8898     -9488172.9      2.6064951      1161454.4     -8326718.6      536.11585      536.11585      536.11585      1731.9421      2268.0579      1731.9421      2268.0579      1731.9421      2268.0579      1.5409053e+08  0.1            7778000        16.559512      1675.1051      16751.052      13.011047    
  68700000   364549.81      4723.526      -9462891.6      2.6064951      1085567.1     -8377324.5      536.11585      536.11585      536.11585      1731.9421      2268.0579      1731.9421      2268.0579      1731.9421      2268.0579      1.5409053e+08  0.1            7779000        17.160897      1662.8272      16628.27       12.426858    
  68710000   368453.32      4651.7677     -9505568.1      2.6064951      1097191.1     -8408377.1      536.11585      536.11585      536.11585      1731.9421      2268.0579      1731.9421      2268.0579      1731.9421      2268.0579      1.5409053e+08  0.1            7780000        17.753053      1688.7455      16887.456      11.83537     
  68720000   371373.49      4758.3065     -9461233.6      2.6064951      1105886.8     -8355346.7      536.11585      536.11585      536.11585      1731.9421      2268.0579      1731.9421      2268.0579      1731.9421      2268.0579      1.5409053e+08  0.1            7781000        18.348003      1680.8119      16808.12       11.245552    
  68730000   358659.15      4840.815      -9477341.7      2.6064951      1068025.7     -8409316        536.11585      536.11585      536.11585      1731.9421      2268.0579      1731.9421      2268.0579      1731.9421      2268.0579      1.5409053e+08  0.1            7782000        18.938731      1692.8263      16928.262      10.653038    
  68740000   385316.93      4910.3116     -9438532.1      2.6064951      1147408       -8291124.1      536.11585      536.11585      536.11585      1731.9421      2268.0579      1731.9421      2268.0579      1731.9421      2268.0579      1.5409053e+08  0.1            7783000        19.528844      1694.5916      16945.917      10.060315    
  68750000   358658.78      4853.4528     -9467325.5      2.6064951      1068024.6     -8399300.9      536.11585      536.11585      536.11585      1731.9421      2268.0579      1731.9421      2268.0579      1731.9421      2268.0579      1.5409053e+08  0.1            7784000        20.121776      1686.5339      16865.339      9.4690721    
  68760000   387805.49      4891.6548     -9471156.8      2.6064951      1154818.5     -8316338.3      536.11585      536.11585      536.11585      1731.9421      2268.0579      1731.9421      2268.0579      1731.9421      2268.0579      1.5409053e+08  0.1            7785000        20.713195      1690.8483      16908.48       8.8770846    
  68770000   354494.99      4770.0345     -9489216.4      2.6064951      1055625.6     -8433590.8      536.11585      536.11585      536.11585      1731.9421      2268.0579      1731.9421      2268.0579      1731.9421      2268.0579      1.5409053e+08  0.1            7786000        21.305101      1689.4589      16894.59       8.2853178    
  68780000   349407.94      4594.1903     -9530954        2.6064951      1040477.2     -8490476.8      536.11585      536.11585      536.11585      1731.9421      2268.0579      1731.9421      2268.0579      1731.9421      2268.0579      1.5409053e+08  0.1            7787000        21.896264      1691.581       16915.813      7.6932826    
  68790000   373562.68      4633.88       -9518691.8      2.6064951      1112405.9     -8406285.9      536.11585      536.11585      536.11585      1731.9421      2268.0579      1731.9421      2268.0579      1731.9421      2268.0579      1.5409053e+08  0.1            7788000        22.486044      1695.5461      16955.461      7.1008567    
  68800000   375172.13      4699.2176     -9479908.7      2.6064951      1117198.5     -8362710.1      536.11585      536.11585      536.11585      1731.9421      2268.0579      1731.9421      2268.0579      1731.9421      2268.0579      1.5409053e+08  0.1            7789000        23.075575      1696.2624      16962.623      6.5084963    
  68810000   388218.74      4641.9314     -9487879.7      2.6064951      1156049.1     -8331830.6      536.11585      536.11585      536.11585      1731.9421      2268.0579      1731.9421      2268.0579      1731.9421      2268.0579      1.5409053e+08  0.1            7790000        23.665105      1696.2681      16962.683      5.9162768    
  68820000   361567.11      4609.8299     -9504268.1      2.6064951      1076685.1     -8427583        536.11585      536.11585      536.11585      1731.9421      2268.0579      1731.9421      2268.0579      1731.9421      2268.0579      1.5409053e+08  0.1            7791000        24.254498      1696.6596      16966.594      5.3241587    
  68830000   379527.3       4665.6263     -9489302.8      2.6064951      1130167.5     -8359135.3      536.11585      536.11585      536.11585      1731.9421      2268.0579      1731.9421      2268.0579      1731.9421      2268.0579      1.5409053e+08  0.1            7792000        24.84332       1698.3059      16983.062      4.7320614    
  68840000   376922.8       4578.8779     -9526978.4      2.6064951      1122411.7     -8404566.7      536.11585      536.11585      536.11585      1731.9421      2268.0579      1731.9421      2268.0579      1731.9421      2268.0579      1.5409053e+08  0.1            7793000        25.443188      1667.0351      16670.35       4.1419147    
  68850000   365988.02      4518.4704     -9545178.6      2.6064951      1089849.8     -8455328.8      536.11585      536.11585      536.11585      1731.9421      2268.0579      1731.9421      2268.0579      1731.9421      2268.0579      1.5409053e+08  0.1            7794000        26.040985      1672.8084      16728.084      3.5510437    
  68860000   366735.1       4686.259      -9509878        2.6064951      1092074.5     -8417803.5      536.11585      536.11585      536.11585      1731.9421      2268.0579      1731.9421      2268.0579      1731.9421      2268.0579      1.5409053e+08  0.1            7795000        26.635547      1681.9094      16819.093      2.9595055    
  68870000   355038.54      4691.1836     -9481899.5      2.6064951      1057244.2     -8424655.3      536.11585      536.11585      536.11585      1731.9421      2268.0579      1731.9421      2268.0579      1731.9421      2268.0579      1.5409053e+08  0.1            7796000        27.226012      1693.5811      16935.811      2.3674795    
  68880000   355774.94      4533.0204     -9515687.8      2.6064951      1059437       -8456250.8      536.11585      536.11585      536.11585      1731.9421      2268.0579      1731.9421      2268.0579      1731.9421      2268.0579      1.5409053e+08  0.1            7797000        27.814404      1699.5476      16995.475      1.7753876    
  68890000   372856.69      4426.6577     -9551690        2.6064951      1110303.6     -8441386.4      536.11585      536.11585      536.11585      1731.9421      2268.0579      1731.9421      2268.0579      1731.9421      2268.0579      1.5409053e+08  0.1            7798000        28.402728      1699.7435      16997.436      1.1834471    
  68900000   366432.85      4549.4506     -9512242.6      2.6064951      1091174.4     -8421068.1      536.11585      536.11585      536.11585      1731.9421      2268.0579      1731.9421      2268.0579      1731.9421      2268.0579      1.5409053e+08  0.1            7799000        28.9976        1681.0332      16810.331      0.5917878    
  68910000   362098.66      4600.7477     -9494067.1      2.6064951      1078268       -8415799.1      536.11585      536.11585      536.11585      1731.9421      2268.0579      1731.9421      2268.0579      1731.9421      2268.0579      1.5409053e+08  0.1            7800000        29.586147      1699.099       16990.99       0            
Loop time of 29.5862 on 4 procs for 500000 steps with 1000 atoms

Performance: 146.014 ns/day, 0.164 hours/ns, 16899.788 timesteps/s
99.7% CPU use with 4 MPI tasks x 1 OpenMP threads

MPI task timing breakdown:
Section |  min time  |  avg time  |  max time  |%varavg| %total
---------------------------------------------------------------
Pair    | 16.162     | 16.921     | 17.811     |  14.5 | 57.19
Neigh   | 0.049994   | 0.051346   | 0.054137   |   0.7 |  0.17
Comm    | 8.3021     | 9.124      | 9.8424     |  18.3 | 30.84
Output  | 0.01832    | 0.018479   | 0.018943   |   0.2 |  0.06
Modify  | 2.2815     | 2.3553     | 2.4422     |   4.3 |  7.96
Other   |            | 1.117      |            |       |  3.77

Nlocal:            250 ave         259 max         245 min
Histogram: 1 1 1 0 0 0 0 0 0 1
Nghost:        1036.25 ave        1052 max        1026 min
Histogram: 2 0 0 0 0 1 0 0 0 1
Neighs:         1730.5 ave        1834 max        1677 min
Histogram: 1 1 1 0 0 0 0 0 0 1

Total # of neighbors = 6922
Ave neighs/atom = 6.922
Neighbor list builds = 249
Dangerous builds = 0

unfix 3

fix 4 all nvt temp 370000 ${T} $(100.0*dt)
fix 4 all nvt temp 370000 300 $(100.0*dt)
fix 4 all nvt temp 370000 300 10

run 200000
Generated 0 of 1 mixed pair_coeff terms from geometric mixing rule
Per MPI rank memory allocation (min/avg/max) = 4.363 | 4.364 | 4.364 Mbytes
   Step          Temp          Press          PotEng        Density         KinEng         TotEng           Lx             Ly             Lz            Xlo            Xhi            Ylo            Yhi            Zlo            Zhi           Volume           Dt            Time           CPU           T/CPU          S/CPU         CPULeft    
  68910000   362098.66      4600.7477     -9494067.1      2.6064951      1078268       -8415799.1      536.11585      536.11585      536.11585      1731.9421      2268.0579      1731.9421      2268.0579      1731.9421      2268.0579      1.5409053e+08  0.1            7800000        0              0              0              0            
  68920000   345186.45      4542.6091     -9522792.1      2.6064951      1027906.3     -8494885.8      536.11585      536.11585      536.11585      1731.9421      2268.0579      1731.9421      2268.0579      1731.9421      2268.0579      1.5409053e+08  0.1            7801000        0.5876926      1701.5683      17015.662      11.166198    
  68930000   328265.28      4443.3026     -9565318.3      2.6064951      977517.94     -8587800.4      536.11585      536.11585      536.11585      1731.9421      2268.0579      1731.9421      2268.0579      1731.9421      2268.0579      1.5409053e+08  0.1            7802000        1.1753613      1701.6392      17016.391      10.578269    
  68940000   310056.89      4270.4233     -9600144.4      2.6064951      923296.47     -8676847.9      536.11585      536.11585      536.11585      1731.9421      2268.0579      1731.9421      2268.0579      1731.9421      2268.0579      1.5409053e+08  0.1            7803000        1.7628963      1702.0265      17020.266      9.9897562    
  68950000   289652.11      4207.7456     -9602340.4      2.6064951      862534.54     -8739805.9      536.11585      536.11585      536.11585      1731.9421      2268.0579      1731.9421      2268.0579      1731.9421      2268.0579      1.5409053e+08  0.1            7804000        2.3544077      1690.5846      16905.844      9.4176384    
  68960000   285007.15      3856.8432     -9696742.6      2.6064951      848702.64     -8848040        536.11585      536.11585      536.11585      1731.9421      2268.0579      1731.9421      2268.0579      1731.9421      2268.0579      1.5409053e+08  0.1            7805000        2.9464673      1689.0189      16890.192      8.8394075    
  68970000   261651.22      3591.9        -9752845.8      2.6064951      779152.65     -8973693.2      536.11585      536.11585      536.11585      1731.9421      2268.0579      1731.9421      2268.0579      1731.9421      2268.0579      1.5409053e+08  0.1            7806000        3.5393388      1686.7063      16867.062      8.2584614    
  68980000   237377.54      3442.2937     -9785463.6      2.6064951      706869.79     -9078593.8      536.11585      536.11585      536.11585      1731.9421      2268.0579      1731.9421      2268.0579      1731.9421      2268.0579      1.5409053e+08  0.1            7807000        4.1267559      1702.3679      17023.678      7.6639787    
  68990000   228005.52      3182.1301     -9861134.5      2.6064951      678961.49     -9182173        536.11585      536.11585      536.11585      1731.9421      2268.0579      1731.9421      2268.0579      1731.9421      2268.0579      1.5409053e+08  0.1            7808000        4.7112196      1710.9703      17109.705      7.0668321    
  69000000   201688.42      3003.2165     -9881674        2.6064951      600593.67     -9281080.3      536.11585      536.11585      536.11585      1731.9421      2268.0579      1731.9421      2268.0579      1731.9421      2268.0579      1.5409053e+08  0.1            7809000        5.2997562      1699.1294      16991.292      6.4774822    
  69010000   181865.12      2713.0867     -9945997.3      2.6064951      541563.27     -9404434        536.11585      536.11585      536.11585      1731.9421      2268.0579      1731.9421      2268.0579      1731.9421      2268.0579      1.5409053e+08  0.1            7810000        5.8914054      1690.191       16901.908      5.8914073    
  69020000   168734.01      2432.4082     -9984663.8      2.6064951      502461.06     -9482202.8      536.11585      536.11585      536.11585      1731.9421      2268.0579      1731.9421      2268.0579      1731.9421      2268.0579      1.5409053e+08  0.1            7811000        6.4818744      1693.5691      16935.694      5.3033533    
  69030000   149816.93      2126.0931     -10030994       2.6064951      446129.24     -9584864.4      536.11585      536.11585      536.11585      1731.9421      2268.0579      1731.9421      2268.0579      1731.9421      2268.0579      1.5409053e+08  0.1            7812000        7.0716035      1695.6938      16956.936      4.7144036    
  69040000   130971.3       1859.994      -10066363       2.6064951      390010.17     -9676352.6      536.11585      536.11585      536.11585      1731.9421      2268.0579      1731.9421      2268.0579      1731.9421      2268.0579      1.5409053e+08  0.1            7813000        7.661296       1695.7989      16957.99       4.1253143    
  69050000   111051.78      1559.1751     -10123843       2.6064951      330693.25     -9793150.1      536.11585      536.11585      536.11585      1731.9421      2268.0579      1731.9421      2268.0579      1731.9421      2268.0579      1.5409053e+08  0.1            7814000        8.2510615      1695.589       16955.888      3.5361701    
  69060000   94836.765      1304.8755     -10165127       2.6064951      282407.69     -9882719.5      536.11585      536.11585      536.11585      1731.9421      2268.0579      1731.9421      2268.0579      1731.9421      2268.0579      1.5409053e+08  0.1            7815000        8.839276       1700.0603      17000.607      2.9464259    
  69070000   74203.551      1085.4682     -10220915       2.6064951      220965.5      -9999949.9      536.11585      536.11585      536.11585      1731.9421      2268.0579      1731.9421      2268.0579      1731.9421      2268.0579      1.5409053e+08  0.1            7816000        9.4277729      1699.2444      16992.441      2.3569437    
  69080000   55308.004      852.96934     -10268908       2.6064951      164697.79     -10104211       536.11585      536.11585      536.11585      1731.9421      2268.0579      1731.9421      2268.0579      1731.9421      2268.0579      1.5409053e+08  0.1            7817000        10.016278      1699.2192      16992.191      1.7675789    
  69090000   37727.575      634.81937     -10295295       2.6064951      112346.27     -10182949       536.11585      536.11585      536.11585      1731.9421      2268.0579      1731.9421      2268.0579      1731.9421      2268.0579      1.5409053e+08  0.1            7818000        10.60642       1694.5079      16945.079      1.1784914    
  69100000   18871.606      403.57744     -10331516       2.6064951      56196.419     -10275320       536.11585      536.11585      536.11585      1731.9421      2268.0579      1731.9421      2268.0579      1731.9421      2268.0579      1.5409053e+08  0.1            7819000        11.196677      1694.1774      16941.774      0.58929891   
  69110000   525.49844      235.47678     -10352881       2.6064951      1564.8446     -10351316       536.11585      536.11585      536.11585      1731.9421      2268.0579      1731.9421      2268.0579      1731.9421      2268.0579      1.5409053e+08  0.1            7820000        11.784784      1700.3707      17003.708      0            
Loop time of 11.7848 on 4 procs for 200000 steps with 1000 atoms

Performance: 146.629 ns/day, 0.164 hours/ns, 16971.004 timesteps/s
99.7% CPU use with 4 MPI tasks x 1 OpenMP threads

MPI task timing breakdown:
Section |  min time  |  avg time  |  max time  |%varavg| %total
---------------------------------------------------------------
Pair    | 6.4708     | 6.7189     | 7.0479     |   9.1 | 57.01
Neigh   | 0.013792   | 0.014186   | 0.014993   |   0.4 |  0.12
Comm    | 3.3592     | 3.6545     | 3.8773     |  10.9 | 31.01
Output  | 0.0056239  | 0.0056809  | 0.0058423  |   0.1 |  0.05
Modify  | 0.90346    | 0.94505    | 0.99599    |   3.8 |  8.02
Other   |            | 0.4465     |            |       |  3.79

Nlocal:            250 ave         259 max         243 min
Histogram: 1 0 1 0 0 1 0 0 0 1
Nghost:           1029 ave        1035 max        1018 min
Histogram: 1 0 0 0 0 0 1 0 0 2
Neighs:        1719.25 ave        1829 max        1644 min
Histogram: 1 1 0 0 1 0 0 0 0 1

Total # of neighbors = 6877
Ave neighs/atom = 6.877
Neighbor list builds = 70
Dangerous builds = 0

unfix 4

fix 5 all npt temp ${T} ${T} $(100.0*dt) iso 1.0 1.0 $(1000.0*dt)
fix 5 all npt temp 300 ${T} $(100.0*dt) iso 1.0 1.0 $(1000.0*dt)
fix 5 all npt temp 300 300 $(100.0*dt) iso 1.0 1.0 $(1000.0*dt)
fix 5 all npt temp 300 300 10 iso 1.0 1.0 $(1000.0*dt)
fix 5 all npt temp 300 300 10 iso 1.0 1.0 100

run 300000
Generated 0 of 1 mixed pair_coeff terms from geometric mixing rule
Per MPI rank memory allocation (min/avg/max) = 4.363 | 4.364 | 4.364 Mbytes
   Step          Temp          Press          PotEng        Density         KinEng         TotEng           Lx             Ly             Lz            Xlo            Xhi            Ylo            Yhi            Zlo            Zhi           Volume           Dt            Time           CPU           T/CPU          S/CPU         CPULeft    
  69110000   525.49844      235.47678     -10352881       2.6064951      1564.8446     -10351316       536.11585      536.11585      536.11585      1731.9421      2268.0579      1731.9421      2268.0579      1731.9421      2268.0579      1.5409053e+08  0.1            7820000        0              0              0              0            
  69120000   312.27589     -9.2382325     -10349683       2.5981632      929.90428     -10348754       536.68832      536.68832      536.68832      1731.6558      2268.3442      1731.6558      2268.3442      1731.6558      2268.3442      1.5458467e+08  0.1            7821000        0.69582548     1437.1409      14371.394      20.178997    
  69130000   310.74214     -1.1658861     -10357338       2.5997278      925.33704     -10356412       536.58064      536.58064      536.58064      1731.7097      2268.2903      1731.7097      2268.2903      1731.7097      2268.2903      1.5449164e+08  0.1            7822000        1.3886576      1443.3512      14433.512      19.441233    
  69140000   309.45958      4.2523898     -10368991       2.6012139      921.51777     -10368069       536.47843      536.47843      536.47843      1731.7608      2268.2392      1731.7608      2268.2392      1731.7608      2268.2392      1.5440338e+08  0.1            7823000        2.0820838      1442.1145      14421.145      18.738772    
  69150000   308.29016     -1.4890401     -10378396       2.6020976      918.03546     -10377478       536.41769      536.41769      536.41769      1731.7912      2268.2088      1731.7912      2268.2088      1731.7912      2268.2088      1.5435094e+08  0.1            7824000        2.7768275      1439.3799      14393.798      18.049392    
  69160000   307.37098      1.0790932     -10383748       2.6034014      915.2983      -10382833       536.32813      536.32813      536.32813      1731.8359      2268.1641      1731.8359      2268.1641      1731.8359      2268.1641      1.5427364e+08  0.1            7825000        3.4696571      1443.3562      14433.563      17.348295    
  69170000   306.70356      2.2971666     -10393475       2.6044669      913.31084     -10392561       536.25498      536.25498      536.25498      1731.8725      2268.1275      1731.8725      2268.1275      1731.8725      2268.1275      1.5421052e+08  0.1            7826000        4.1631621      1441.9508      14419.508      16.652656    
  69180000   306.08009      2.9562854     -10397908       2.6054055      911.45425     -10396996       536.19058      536.19058      536.19058      1731.9047      2268.0953      1731.9047      2268.0953      1731.9047      2268.0953      1.5415497e+08  0.1            7827000        4.8568635      1441.5425      14415.424      15.958272    
  69190000   305.59607      9.8951394     -10405211       2.6064952      910.01291     -10404301       536.11585      536.11585      536.11585      1731.9421      2268.0579      1731.9421      2268.0579      1731.9421      2268.0579      1.5409052e+08  0.1            7828000        5.5511543      1440.3185      14403.186      15.26568     
  69200000   305.19178      3.1069096     -10413179       2.6071453      908.80899     -10412271       536.07128      536.07128      536.07128      1731.9644      2268.0356      1731.9644      2268.0356      1731.9644      2268.0356      1.540521e+08   0.1            7829000        6.246308       1438.5305      14385.306      14.574723    
  69210000   304.91016     -0.04916701    -10416393       2.6076045      907.97038     -10415485       536.03981      536.03981      536.03981      1731.9801      2268.0199      1731.9801      2268.0199      1731.9801      2268.0199      1.5402497e+08  0.1            7830000        6.9398657      1441.8414      14418.414      13.879735    
  69220000   304.58651     -7.5942103     -10419059       2.6080822      907.00661     -10418152       536.00708      536.00708      536.00708      1731.9965      2268.0035      1731.9965      2268.0035      1731.9965      2268.0035      1.5399676e+08  0.1            7831000        7.6329176      1442.8934      14428.933      13.184134    
  69230000   304.27882     -5.6822116     -10423765       2.6086679      906.09036     -10422859       535.96696      535.96696      535.96696      1732.0165      2267.9835      1732.0165      2267.9835      1732.0165      2267.9835      1.5396218e+08  0.1            7832000        8.3255812      1443.7021      14437.023      12.488375    
  69240000   304.14022     -3.6929254     -10429835       2.6094276      905.67763     -10428929       535.91495      535.91495      535.91495      1732.0425      2267.9575      1732.0425      2267.9575      1732.0425      2267.9575      1.5391736e+08  0.1            7833000        9.0185806      1443.0028      14430.028      11.793531    
  69250000   303.85876      1.1527267     -10433923       2.6101179      904.83949     -10433018       535.8677       535.8677       535.8677       1732.0662      2267.9338      1732.0662      2267.9338      1732.0662      2267.9338      1.5387665e+08  0.1            7834000        9.7130239      1440.0022      14400.022      11.100601    
  69260000   303.74121     -0.34076451    -10437456       2.6107057      904.48945     -10436551       535.82748      535.82748      535.82748      1732.0863      2267.9137      1732.0863      2267.9137      1732.0863      2267.9137      1.5384201e+08  0.1            7835000        10.404178      1446.8539      14468.538      10.404181    
  69270000   303.62847      7.2872857     -10440976       2.6116045      904.15373     -10440071       535.766        535.766        535.766        1732.117       2267.883       1732.117       2267.883       1732.117       2267.883       1.5378906e+08  0.1            7836000        11.09532       1446.8808      14468.807      9.7084073    
  69280000   303.52484      2.8541561     -10443609       2.6119634      903.84515     -10442705       535.74146      535.74146      535.74146      1732.1293      2267.8707      1732.1293      2267.8707      1732.1293      2267.8707      1.5376793e+08  0.1            7837000        11.785976      1447.8991      14478.992      9.012807     
  69290000   303.33786     -3.2474431     -10446145       2.6123066      903.28836     -10445242       535.718        535.718        535.718        1732.141       2267.859       1732.141       2267.859       1732.141       2267.859       1.5374773e+08  0.1            7838000        12.477844      1445.3621      14453.621      8.3185644    
  69300000   303.23796     -1.7618959     -10445965       2.6126394      902.99086     -10445062       535.69525      535.69525      535.69525      1732.1524      2267.8476      1732.1524      2267.8476      1732.1524      2267.8476      1.5372814e+08  0.1            7839000        13.172657      1439.2377      14392.378      7.6262762    
  69310000   302.5574       5.6854147     -10447635       2.6131301      900.96428     -10446734       535.66172      535.66172      535.66172      1732.1691      2267.8309      1732.1691      2267.8309      1732.1691      2267.8309      1.5369928e+08  0.1            7840000        13.865433      1443.4666      14434.665      6.9327178    
  69320000   302.98064     -4.8560757     -10448809       2.6132831      902.22462     -10447907       535.65127      535.65127      535.65127      1732.1744      2267.8256      1732.1744      2267.8256      1732.1744      2267.8256      1.5369028e+08  0.1            7841000        14.558128      1443.6378      14436.379      6.2391986    
  69330000   300.22397     -11.884708     -10449940       2.6136249      894.01572     -10449046       535.62791      535.62791      535.62791      1732.186       2267.814       1732.186       2267.814       1732.186       2267.814       1.5367018e+08  0.1            7842000        15.252046      1441.0919      14410.918      5.5461994    
  69340000   300.09339      5.3552578     -10451752       2.614403       893.62687     -10450859       535.57477      535.57477      535.57477      1732.2126      2267.7874      1732.2126      2267.7874      1732.2126      2267.7874      1.5362444e+08  0.1            7843000        15.947873      1437.14        14371.4        4.853701     
  69350000   313.30188      5.1531256     -10451934       2.6145608      932.9595      -10451001       535.564        535.564        535.564        1732.218       2267.782       1732.218       2267.782       1732.218       2267.782       1.5361518e+08  0.1            7844000        16.645684      1433.0508      14330.508      4.1614217    
  69360000   319.59274     -3.451029      -10448148       2.614587       951.69261     -10447197       535.56221      535.56221      535.56221      1732.2189      2267.7811      1732.2189      2267.7811      1732.2189      2267.7811      1.5361363e+08  0.1            7845000        17.340669      1438.8803      14388.804      3.4681343    
  69370000   297.65386     -0.56369919    -10449776       2.6148282      886.36237     -10448890       535.54574      535.54574      535.54574      1732.2271      2267.7729      1732.2271      2267.7729      1732.2271      2267.7729      1.5359946e+08  0.1            7846000        18.035772      1438.6373      14386.373      2.7747344    
  69380000   301.58173      14.118169     -10450615       2.6155655      898.05888     -10449717       535.49541      535.49541      535.49541      1732.2523      2267.7477      1732.2523      2267.7477      1732.2523      2267.7477      1.5355616e+08  0.1            7847000        18.729474      1441.5404      14415.402      2.0810529    
  69390000   292.27012     -3.7032621     -10457403       2.6153736      870.33051     -10456533       535.5085       535.5085       535.5085       1732.2457      2267.7543      1732.2457      2267.7543      1732.2457      2267.7543      1.5356743e+08  0.1            7848000        19.422444      1443.0636      14430.638      1.3873176    
  69400000   283.97982      3.0987187     -10458154       2.6158156      845.64341     -10457309       535.47834      535.47834      535.47834      1732.2608      2267.7392      1732.2608      2267.7392      1732.2608      2267.7392      1.5354148e+08  0.1            7849000        20.116364      1441.0882      14410.881      0.69366781   
  69410000   295.71383     -1.1903733     -10459249       2.6157801      880.58528     -10458368       535.48076      535.48076      535.48076      1732.2596      2267.7404      1732.2596      2267.7404      1732.2596      2267.7404      1.5354357e+08  0.1            7850000        20.809678      1442.3477      14423.477      0            
Loop time of 20.8097 on 4 procs for 300000 steps with 1000 atoms

Performance: 124.557 ns/day, 0.193 hours/ns, 14416.355 timesteps/s
99.7% CPU use with 4 MPI tasks x 1 OpenMP threads

MPI task timing breakdown:
Section |  min time  |  avg time  |  max time  |%varavg| %total
---------------------------------------------------------------
Pair    | 10.707     | 11.124     | 11.682     |  11.9 | 53.46
Neigh   | 0.0045412  | 0.0046849  | 0.004949   |   0.2 |  0.02
Comm    | 4.9574     | 5.3864     | 5.7257     |  13.1 | 25.88
Output  | 0.00898    | 0.0090716  | 0.0093341  |   0.2 |  0.04
Modify  | 3.4926     | 3.57       | 3.6666     |   3.6 | 17.16
Other   |            | 0.7152     |            |       |  3.44

Nlocal:            250 ave         261 max         241 min
Histogram: 1 0 0 1 0 1 0 0 0 1
Nghost:        1029.75 ave        1036 max        1018 min
Histogram: 1 0 0 0 0 0 0 1 1 1
Neighs:         1721.5 ave        1835 max        1642 min
Histogram: 1 1 0 0 0 1 0 0 0 1

Total # of neighbors = 6886
Ave neighs/atom = 6.886
Neighbor list builds = 23
Dangerous builds = 0

# run_style
run_style verlet

# write restart
write_restart ${write_res}
write_restart ./pgnpmf/9010/equpmf57.res
System init for write_restart ...
Generated 0 of 1 mixed pair_coeff terms from geometric mixing rule

Total wall time: 0:01:14
