LAMMPS (23 Jun 2022 - Update 1)
OMP_NUM_THREADS environment is not set. Defaulting to 1 thread. (src/comm.cpp:98)
  using 1 OpenMP thread(s) per MPI task
# Read restart
read_restart ${read_res}
read_restart ./pgnpmf/9010/equpmf16.res
Reading restart file ...
  restart file = 23 Jun 2022, LAMMPS = 23 Jun 2022
  restoring atom style atomic from restart
  orthogonal box = (1683.4337 1683.4337 1683.4337) to (2316.5663 2316.5663 2316.5663)
  1 by 2 by 2 MPI processor grid
  restoring pair style table from restart
  1000 atoms
  read_restart CPU = 0.007 seconds

# Settings

pair_style table spline 9941

pair_coeff 1 1 ./pgnpmf/N20.txt DE_GNP 75.6
pair_coeff 2 2 ./pgnpmf/N100.txt DE_GNP 115.92
WARNING: 3 of 9941 force values in table DE_GNP are inconsistent with -dE/dr.
WARNING:  Should only be flagged at inflection points (src/pair_table.cpp:463)
pair_coeff 1 2 ./pgnpmf/mixed_potential.txt DE_GNP 95.66
WARNING: 1562 of 9941 force values in table DE_GNP are inconsistent with -dE/dr.
WARNING:  Should only be flagged at inflection points (src/pair_table.cpp:463)

#Neigh_list Calc Frequency

neigh_modify delay 0 every 1 check yes

# Saving Frequency (50 frames)

variable ts_save equal ${steps_equ}
variable ts_save equal 5000

# Dump
#dump 1 all custom ${ts_save} ./pgnpmf/${folder}/equilibration/trajectory/trajectory_${usic}_${trial}.equ.custom type x y z ix iy iz
#dump_modify 1 first no sort id
dump 2 all cfg 50000 ./pgnpmf/${folder}/equilibration/trajectory/dumpgen.tens_*.cfg mass type xs ys zs fx fy fz
dump 2 all cfg 50000 ./pgnpmf/9010/equilibration/trajectory/dumpgen.tens_*.cfg mass type xs ys zs fx fy fz
dump_modify 2 element N20 N100

# thermo_style
thermo_style custom step temp press pe density ke etotal lx ly lz xlo xhi ylo yhi zlo zhi vol dt time cpu tpcpu spcpu cpuremain

# run info
timestep ${ts}
timestep 0.1
thermo 10000


# fix

fix 1 all momentum 1000 linear 1 1 1 angular
variable T equal ${temp}
variable T equal 300
fix 2 all nvt temp ${T} 370000 100.0
fix 2 all nvt temp 300 370000 100.0

run 200000
Generated 0 of 1 mixed pair_coeff terms from geometric mixing rule
Unused restart file global fix info:
  fix style: npt, fix ID: 5
Neighbor list info ...
  update every 1 steps, delay 0 steps, check yes
  max neighbors/atom: 2000, page size: 100000
  master list distance cutoff = 117.92
  ghost atom cutoff = 117.92
  binsize = 58.96, bins = 11 11 11
  1 neighbor lists, perpetual/occasional/extra = 1 0 0
  (1) pair table, perpetual
      attributes: half, newton on
      pair build: half/bin/atomonly/newton
      stencil: half/bin/3d
      bin: standard
Per MPI rank memory allocation (min/avg/max) = 3.086 | 3.086 | 3.086 Mbytes
   Step          Temp          Press          PotEng        Density         KinEng         TotEng           Lx             Ly             Lz            Xlo            Xhi            Ylo            Yhi            Zlo            Zhi           Volume           Dt            Time           CPU           T/CPU          S/CPU         CPULeft    
  20210000   309.91626     -1.2235978     -6720483.8      1.5825189      922.8777      -6719560.9      633.13257      633.13257      633.13257      1683.4337      2316.5663      1683.4337      2316.5663      1683.4337      2316.5663      2.5379553e+08  0.1            2930000        0              0              0              0            
  20220000   17867.668     -145.96277     -6749029.8      1.5825189      53206.864     -6695822.9      633.13257      633.13257      633.13257      1683.4337      2316.5663      1683.4337      2316.5663      1683.4337      2316.5663      2.5379553e+08  0.1            2931000        0.4420684      2262.0907      22620.866      8.3993394    
  20230000   38098.659     -368.08734     -6785062.6      1.5825189      113451.3      -6671611.3      633.13257      633.13257      633.13257      1683.4337      2316.5663      1683.4337      2316.5663      1683.4337      2316.5663      2.5379553e+08  0.1            2932000        0.88133953     2276.4984      22764.989      7.9320733    
  20240000   56872.925     -538.22171     -6807547.8      1.5825189      169357.86     -6638190        633.13257      633.13257      633.13257      1683.4337      2316.5663      1683.4337      2316.5663      1683.4337      2316.5663      2.5379553e+08  0.1            2933000        1.3210638      2274.1529      22741.528      7.4860388    
  20250000   73433.538     -609.9586      -6801120        1.5825189      218672.54     -6582447.5      633.13257      633.13257      633.13257      1683.4337      2316.5663      1683.4337      2316.5663      1683.4337      2316.5663      2.5379553e+08  0.1            2934000        1.762355       2266.077       22660.767      7.049428     
  20260000   92161.093     -591.31181     -6794923        1.5825189      274440        -6520483        633.13257      633.13257      633.13257      1683.4337      2316.5663      1683.4337      2316.5663      1683.4337      2316.5663      2.5379553e+08  0.1            2935000        2.2021942      2273.5586      22735.587      6.6065884    
  20270000   112909.82     -512.85673     -6792327.3      1.5825189      336226.17     -6456101.2      633.13257      633.13257      633.13257      1683.4337      2316.5663      1683.4337      2316.5663      1683.4337      2316.5663      2.5379553e+08  0.1            2936000        2.6434672      2266.1708      22661.71       6.1680946    
  20280000   127746.56     -385.02233     -6797672.2      1.5825189      380407.43     -6417264.8      633.13257      633.13257      633.13257      1683.4337      2316.5663      1683.4337      2316.5663      1683.4337      2316.5663      2.5379553e+08  0.1            2937000        3.0853482      2263.0525      22630.524      5.7299359    
  20290000   150196.46     -226.19921     -6785906.7      1.5825189      447259.4      -6338647.3      633.13257      633.13257      633.13257      1683.4337      2316.5663      1683.4337      2316.5663      1683.4337      2316.5663      2.5379553e+08  0.1            2938000        3.5251139      2273.9385      22739.389      5.2876736    
  20300000   166842.51     -84.673042     -6783081.9      1.5825189      496828.5      -6286253.4      633.13257      633.13257      633.13257      1683.4337      2316.5663      1683.4337      2316.5663      1683.4337      2316.5663      2.5379553e+08  0.1            2939000        3.9656131      2270.1507      22701.509      4.8468628    
  20310000   187724.57      8.1693855     -6783349.8      1.5825189      559011.71     -6224338.1      633.13257      633.13257      633.13257      1683.4337      2316.5663      1683.4337      2316.5663      1683.4337      2316.5663      2.5379553e+08  0.1            2940000        4.4065092      2268.1087      22681.083      4.4065112    
  20320000   202430.83      95.80859      -6781175.7      1.5825189      602804.43     -6178371.3      633.13257      633.13257      633.13257      1683.4337      2316.5663      1683.4337      2316.5663      1683.4337      2316.5663      2.5379553e+08  0.1            2941000        4.848941       2260.2351      22602.353      3.967317     
  20330000   220922.73      167.23892     -6776143.1      1.5825189      657870.17     -6118273        633.13257      633.13257      633.13257      1683.4337      2316.5663      1683.4337      2316.5663      1683.4337      2316.5663      2.5379553e+08  0.1            2942000        5.2911955      2261.1415      22611.415      3.5274649    
  20340000   249157.41      206.52435     -6773596.8      1.5825189      741948.21     -6031648.6      633.13257      633.13257      633.13257      1683.4337      2316.5663      1683.4337      2316.5663      1683.4337      2316.5663      2.5379553e+08  0.1            2943000        5.7341499      2257.569       22575.689      3.0876202    
  20350000   243137.8       266.16498     -6765532.9      1.5825189      724022.84     -6041510.1      633.13257      633.13257      633.13257      1683.4337      2316.5663      1683.4337      2316.5663      1683.4337      2316.5663      2.5379553e+08  0.1            2944000        6.1791498      2247.1917      22471.917      2.6482079    
  20360000   269080.73      322.09158     -6779242.5      1.5825189      801276.45     -5977966        633.13257      633.13257      633.13257      1683.4337      2316.5663      1683.4337      2316.5663      1683.4337      2316.5663      2.5379553e+08  0.1            2945000        6.6258147      2238.8147      22388.149      2.2086055    
  20370000   309851.27      393.27483     -6757361.7      1.5825189      922684.18     -5834677.5      633.13257      633.13257      633.13257      1683.4337      2316.5663      1683.4337      2316.5663      1683.4337      2316.5663      2.5379553e+08  0.1            2946000        7.0715057      2243.7066      22437.062      1.7678769    
  20380000   315533.84      440.65523     -6747165.5      1.5825189      939605.89     -5807559.6      633.13257      633.13257      633.13257      1683.4337      2316.5663      1683.4337      2316.5663      1683.4337      2316.5663      2.5379553e+08  0.1            2947000        7.5177956      2240.6962      22406.966      1.3266701    
  20390000   328657.83      465.11282     -6743562.4      1.5825189      978686.91     -5764875.5      633.13257      633.13257      633.13257      1683.4337      2316.5663      1683.4337      2316.5663      1683.4337      2316.5663      2.5379553e+08  0.1            2948000        7.96454        2238.4163      22384.16       0.88494911   
  20400000   346703.76      519.50063     -6729426.8      1.5825189      1032424.6     -5697002.2      633.13257      633.13257      633.13257      1683.4337      2316.5663      1683.4337      2316.5663      1683.4337      2316.5663      2.5379553e+08  0.1            2949000        8.4166596      2211.804       22118.041      0.44298219   
  20410000   355973.91      548.6419      -6694777.1      1.5825189      1060029.5     -5634747.6      633.13257      633.13257      633.13257      1683.4337      2316.5663      1683.4337      2316.5663      1683.4337      2316.5663      2.5379553e+08  0.1            2950000        8.8685809      2212.7746      22127.746      0            
Loop time of 8.8686 on 4 procs for 200000 steps with 1000 atoms

Performance: 194.845 ns/day, 0.123 hours/ns, 22551.471 timesteps/s
99.6% CPU use with 4 MPI tasks x 1 OpenMP threads

MPI task timing breakdown:
Section |  min time  |  avg time  |  max time  |%varavg| %total
---------------------------------------------------------------
Pair    | 4.2533     | 4.5032     | 4.7605     |   8.5 | 50.78
Neigh   | 0.011581   | 0.011808   | 0.01216    |   0.2 |  0.13
Comm    | 2.7663     | 2.987      | 3.2848     |  10.8 | 33.68
Output  | 0.0056805  | 0.0058471  | 0.0063375  |   0.4 |  0.07
Modify  | 0.86501    | 0.9427     | 1.0104     |   6.7 | 10.63
Other   |            | 0.418      |            |       |  4.71

Nlocal:            250 ave         257 max         245 min
Histogram: 1 0 0 2 0 0 0 0 0 1
Nghost:            788 ave         796 max         781 min
Histogram: 1 0 0 0 2 0 0 0 0 1
Neighs:        1144.75 ave        1202 max        1082 min
Histogram: 1 0 0 1 0 0 0 1 0 1

Total # of neighbors = 4579
Ave neighs/atom = 4.579
Neighbor list builds = 65
Dangerous builds = 0

unfix 2

fix 3 all nvt temp 370000 370000 $(100.0*dt) #iso 1.0 1.0 $(1000.0*dt)
fix 3 all nvt temp 370000 370000 10 

run 500000
Generated 0 of 1 mixed pair_coeff terms from geometric mixing rule
Per MPI rank memory allocation (min/avg/max) = 4.352 | 4.352 | 4.352 Mbytes
   Step          Temp          Press          PotEng        Density         KinEng         TotEng           Lx             Ly             Lz            Xlo            Xhi            Ylo            Yhi            Zlo            Zhi           Volume           Dt            Time           CPU           T/CPU          S/CPU         CPULeft    
  20410000   355973.91      548.6419      -6694777.1      1.5825189      1060029.5     -5634747.6      633.13257      633.13257      633.13257      1683.4337      2316.5663      1683.4337      2316.5663      1683.4337      2316.5663      2.5379553e+08  0.1            2950000        0              0              0              0            
  20420000   382878.41      572.82365     -6682558.9      1.5825189      1140146.5     -5542412.4      633.13257      633.13257      633.13257      1683.4337      2316.5663      1683.4337      2316.5663      1683.4337      2316.5663      2.5379553e+08  0.1            2951000        0.45272384     2208.8497      22088.461      22.183566    
  20430000   357685.04      540.26827     -6673268.4      1.5825189      1065125       -5608143.4      633.13257      633.13257      633.13257      1683.4337      2316.5663      1683.4337      2316.5663      1683.4337      2316.5663      2.5379553e+08  0.1            2952000        0.90745103     2199.1206      21991.205      21.778873    
  20440000   368415.46      529.95611     -6656279.3      1.5825189      1097078.3     -5559200.9      633.13257      633.13257      633.13257      1683.4337      2316.5663      1683.4337      2316.5663      1683.4337      2316.5663      2.5379553e+08  0.1            2953000        1.3617656      2201.1186      22011.185      21.334358    
  20450000   360087.26      456.69255     -6675674.9      1.5825189      1072278.4     -5603396.5      633.13257      633.13257      633.13257      1683.4337      2316.5663      1683.4337      2316.5663      1683.4337      2316.5663      2.5379553e+08  0.1            2954000        1.8157973      2202.4894      22024.896      20.881691    
  20460000   370148.94      421.92893     -6703002.1      1.5825189      1102240.3     -5600761.8      633.13257      633.13257      633.13257      1683.4337      2316.5663      1683.4337      2316.5663      1683.4337      2316.5663      2.5379553e+08  0.1            2955000        2.2696682      2203.2701      22032.7        20.427031    
  20470000   365644.7       455.59154     -6675830.4      1.5825189      1088827.5     -5587002.9      633.13257      633.13257      633.13257      1683.4337      2316.5663      1683.4337      2316.5663      1683.4337      2316.5663      2.5379553e+08  0.1            2956000        2.7236393      2202.7832      22027.833      19.973368    
  20480000   360965.84      420.96468     -6670755.6      1.5825189      1074894.6     -5595861        633.13257      633.13257      633.13257      1683.4337      2316.5663      1683.4337      2316.5663      1683.4337      2316.5663      2.5379553e+08  0.1            2957000        3.1741276      2219.8134      22198.135      19.498224    
  20490000   373335.99      397.22914     -6647427.6      1.5825189      1111730.8     -5535696.8      633.13257      633.13257      633.13257      1683.4337      2316.5663      1683.4337      2316.5663      1683.4337      2316.5663      2.5379553e+08  0.1            2958000        3.6256482      2214.738       22147.379      19.034663    
  20500000   361629.39      317.83545     -6639841.6      1.5825189      1076870.6     -5562971        633.13257      633.13257      633.13257      1683.4337      2316.5663      1683.4337      2316.5663      1683.4337      2316.5663      2.5379553e+08  0.1            2959000        4.075343       2223.7303      22237.303      18.56546     
  20510000   364416.82      237.52044     -6667918.3      1.5825189      1085171.1     -5582747.2      633.13257      633.13257      633.13257      1683.4337      2316.5663      1683.4337      2316.5663      1683.4337      2316.5663      2.5379553e+08  0.1            2960000        4.5201286      2248.2744      22482.744      18.080522    
  20520000   371299.65      299.53773     -6652368.5      1.5825189      1105667       -5546701.5      633.13257      633.13257      633.13257      1683.4337      2316.5663      1683.4337      2316.5663      1683.4337      2316.5663      2.5379553e+08  0.1            2961000        4.9678104      2233.7293      22337.295      17.613153    
  20530000   372568.59      391.4983      -6593224.8      1.5825189      1109445.6     -5483779.2      633.13257      633.13257      633.13257      1683.4337      2316.5663      1683.4337      2316.5663      1683.4337      2316.5663      2.5379553e+08  0.1            2962000        5.4178512      2222.0209      22220.204      17.156535    
  20540000   351408.55      386.07437     -6564588.1      1.5825189      1046434.7     -5518153.4      633.13257      633.13257      633.13257      1683.4337      2316.5663      1683.4337      2316.5663      1683.4337      2316.5663      2.5379553e+08  0.1            2963000        5.8650376      2236.2037      22362.04       16.692805    
  20550000   375839.5       325.70234     -6561024.8      1.5825189      1119185.8     -5441839        633.13257      633.13257      633.13257      1683.4337      2316.5663      1683.4337      2316.5663      1683.4337      2316.5663      2.5379553e+08  0.1            2964000        6.3122638      2236.0053      22360.056      16.23154     
  20560000   368773.96      264.84283     -6562448.6      1.5825189      1098145.9     -5464302.7      633.13257      633.13257      633.13257      1683.4337      2316.5663      1683.4337      2316.5663      1683.4337      2316.5663      2.5379553e+08  0.1            2965000        6.7613589      2226.6997      22266.996      15.776508    
  20570000   377072.33      225.82964     -6550798.9      1.5825189      1122857       -5427941.9      633.13257      633.13257      633.13257      1683.4337      2316.5663      1683.4337      2316.5663      1683.4337      2316.5663      2.5379553e+08  0.1            2966000        7.2113191      2222.419       22224.189      15.324057    
  20580000   375209.74      221.30947     -6525152.6      1.5825189      1117310.5     -5407842        633.13257      633.13257      633.13257      1683.4337      2316.5663      1683.4337      2316.5663      1683.4337      2316.5663      2.5379553e+08  0.1            2967000        7.6602962      2227.285       22272.849      14.86999     
  20590000   376073.18      303.5699      -6483229.1      1.5825189      1119881.7     -5363347.4      633.13257      633.13257      633.13257      1683.4337      2316.5663      1683.4337      2316.5663      1683.4337      2316.5663      2.5379553e+08  0.1            2968000        8.110448       2221.4723      22214.725      14.418578    
  20600000   374074         355.96319     -6477729.3      1.5825189      1113928.5     -5363800.8      633.13257      633.13257      633.13257      1683.4337      2316.5663      1683.4337      2316.5663      1683.4337      2316.5663      2.5379553e+08  0.1            2969000        8.5618246      2215.4449      22154.448      13.969296    
  20610000   367471.65      321.13776     -6487550.1      1.5825189      1094267.8     -5393282.3      633.13257      633.13257      633.13257      1683.4337      2316.5663      1683.4337      2316.5663      1683.4337      2316.5663      2.5379553e+08  0.1            2970000        9.0123746      2219.5098      22195.098      13.518565    
  20620000   362799.61      294.48963     -6479419.2      1.5825189      1080355.3     -5399063.9      633.13257      633.13257      633.13257      1683.4337      2316.5663      1683.4337      2316.5663      1683.4337      2316.5663      2.5379553e+08  0.1            2971000        9.4635163      2216.5985      22165.981      13.068668    
  20630000   372822.62      330.30016     -6475444.6      1.5825189      1110202.1     -5365242.5      633.13257      633.13257      633.13257      1683.4337      2316.5663      1683.4337      2316.5663      1683.4337      2316.5663      2.5379553e+08  0.1            2972000        9.915953       2210.254       22102.542      12.620306    
  20640000   378582.58      353.33781     -6451494.1      1.5825189      1127354.3     -5324139.8      633.13257      633.13257      633.13257      1683.4337      2316.5663      1683.4337      2316.5663      1683.4337      2316.5663      2.5379553e+08  0.1            2973000        10.367195      2216.1033      22161.036      12.170188    
  20650000   380232.07      361.86927     -6448047.1      1.5825189      1132266.2     -5315780.9      633.13257      633.13257      633.13257      1683.4337      2316.5663      1683.4337      2316.5663      1683.4337      2316.5663      2.5379553e+08  0.1            2974000        10.81783       2219.0935      22190.935      11.719318    
  20660000   369981.47      313.80898     -6461968.3      1.5825189      1101741.6     -5360226.6      633.13257      633.13257      633.13257      1683.4337      2316.5663      1683.4337      2316.5663      1683.4337      2316.5663      2.5379553e+08  0.1            2975000        11.267624      2223.2378      22232.378      11.267626    
  20670000   370601.03      266.13626     -6452606.7      1.5825189      1103586.6     -5349020.1      633.13257      633.13257      633.13257      1683.4337      2316.5663      1683.4337      2316.5663      1683.4337      2316.5663      2.5379553e+08  0.1            2976000        11.716532      2227.629       22276.287      10.815262    
  20680000   382455.42      321.18198     -6444328.6      1.5825189      1138886.9     -5305441.7      633.13257      633.13257      633.13257      1683.4337      2316.5663      1683.4337      2316.5663      1683.4337      2316.5663      2.5379553e+08  0.1            2977000        12.163542      2237.0859      22370.861      10.361538    
  20690000   372863.79      418.81243     -6408993.3      1.5825189      1110324.7     -5298668.6      633.13257      633.13257      633.13257      1683.4337      2316.5663      1683.4337      2316.5663      1683.4337      2316.5663      2.5379553e+08  0.1            2978000        12.612361      2228.0674      22280.674      9.9097143    
  20700000   361844.6       410.60439     -6403566.4      1.5825189      1077511.4     -5326054.9      633.13257      633.13257      633.13257      1683.4337      2316.5663      1683.4337      2316.5663      1683.4337      2316.5663      2.5379553e+08  0.1            2979000        13.064004      2214.1389      22141.392      9.4601426    
  20710000   376618.2       334.54036     -6410178.4      1.5825189      1121504.7     -5288673.7      633.13257      633.13257      633.13257      1683.4337      2316.5663      1683.4337      2316.5663      1683.4337      2316.5663      2.5379553e+08  0.1            2980000        13.51494       2217.6096      22176.097      9.0099616    
  20720000   360844.2       307.1386      -6396586.3      1.5825189      1074532.4     -5322053.9      633.13257      633.13257      633.13257      1683.4337      2316.5663      1683.4337      2316.5663      1683.4337      2316.5663      2.5379553e+08  0.1            2981000        13.968562      2204.4787      22044.784      8.5613782    
  20730000   367790.38      341.07207     -6398396.9      1.5825189      1095217       -5303180        633.13257      633.13257      633.13257      1683.4337      2316.5663      1683.4337      2316.5663      1683.4337      2316.5663      2.5379553e+08  0.1            2982000        14.426261      2184.8416      21848.419      8.1147732    
  20740000   368918.12      349.38976     -6375505.7      1.5825189      1098575.2     -5276930.5      633.13257      633.13257      633.13257      1683.4337      2316.5663      1683.4337      2316.5663      1683.4337      2316.5663      2.5379553e+08  0.1            2983000        14.882304      2192.778       21927.778      7.6666425    
  20750000   356832.48      351.29536     -6334844.1      1.5825189      1062586.2     -5272257.9      633.13257      633.13257      633.13257      1683.4337      2316.5663      1683.4337      2316.5663      1683.4337      2316.5663      2.5379553e+08  0.1            2984000        15.339371      2187.8631      21878.634      7.2185285    
  20760000   375474.79      384.51644     -6321853.5      1.5825189      1118099.8     -5203753.6      633.13257      633.13257      633.13257      1683.4337      2316.5663      1683.4337      2316.5663      1683.4337      2316.5663      2.5379553e+08  0.1            2985000        15.791315      2212.6647      22126.646      6.7677072    
  20770000   379430.43      370.09471     -6319494.4      1.5825189      1129879       -5189615.4      633.13257      633.13257      633.13257      1683.4337      2316.5663      1683.4337      2316.5663      1683.4337      2316.5663      2.5379553e+08  0.1            2986000        16.243744      2210.2888      22102.888      6.3170125    
  20780000   362196.29      337.60376     -6314531.5      1.5825189      1078558.7     -5235972.8      633.13257      633.13257      633.13257      1683.4337      2316.5663      1683.4337      2316.5663      1683.4337      2316.5663      2.5379553e+08  0.1            2987000        16.694272      2219.6175      22196.173      5.8655559    
  20790000   384169.3       333.57346     -6334275.5      1.5825189      1143990.6     -5190285        633.13257      633.13257      633.13257      1683.4337      2316.5663      1683.4337      2316.5663      1683.4337      2316.5663      2.5379553e+08  0.1            2988000        17.143513      2225.9795      22259.797      5.4137415    
  20800000   368418.5       388.69444     -6345641.2      1.5825189      1097087.4     -5248553.9      633.13257      633.13257      633.13257      1683.4337      2316.5663      1683.4337      2316.5663      1683.4337      2316.5663      2.5379553e+08  0.1            2989000        17.594665      2216.544       22165.436      4.9625986    
  20810000   362812.48      453.94356     -6328038.5      1.5825189      1080393.6     -5247644.9      633.13257      633.13257      633.13257      1683.4337      2316.5663      1683.4337      2316.5663      1683.4337      2316.5663      2.5379553e+08  0.1            2990000        18.046352      2213.9229      22139.231      4.5115887    
  20820000   364679.29      453.37887     -6333291.4      1.5825189      1085952.6     -5247338.8      633.13257      633.13257      633.13257      1683.4337      2316.5663      1683.4337      2316.5663      1683.4337      2316.5663      2.5379553e+08  0.1            2991000        18.495999      2223.9689      22239.691      4.0600978    
  20830000   375870.78      401.59383     -6325092.3      1.5825189      1119279       -5205813.3      633.13257      633.13257      633.13257      1683.4337      2316.5663      1683.4337      2316.5663      1683.4337      2316.5663      2.5379553e+08  0.1            2992000        18.94737       2215.471       22154.707      3.6090233    
  20840000   369520.44      327.27936     -6331653        1.5825189      1100368.8     -5231284.2      633.13257      633.13257      633.13257      1683.4337      2316.5663      1683.4337      2316.5663      1683.4337      2316.5663      2.5379553e+08  0.1            2993000        19.402722      2196.1023      21961.023      3.1585831    
  20850000   378920.14      279.91856     -6348289.7      1.5825189      1128359.5     -5219930.2      633.13257      633.13257      633.13257      1683.4337      2316.5663      1683.4337      2316.5663      1683.4337      2316.5663      2.5379553e+08  0.1            2994000        19.856496      2203.7422      22037.424      2.7077043    
  20860000   361064.61      275.88566     -6339080.9      1.5825189      1075188.8     -5263892.2      633.13257      633.13257      633.13257      1683.4337      2316.5663      1683.4337      2316.5663      1683.4337      2316.5663      2.5379553e+08  0.1            2995000        20.304671      2231.2727      22312.723      2.2560748    
  20870000   374934.43      359.7754      -6296650        1.5825189      1116490.7     -5180159.3      633.13257      633.13257      633.13257      1683.4337      2316.5663      1683.4337      2316.5663      1683.4337      2316.5663      2.5379553e+08  0.1            2996000        20.751693      2237.0246      22370.246      1.8044952    
  20880000   370315.13      393.86386     -6286636.6      1.5825189      1102735.2     -5183901.4      633.13257      633.13257      633.13257      1683.4337      2316.5663      1683.4337      2316.5663      1683.4337      2316.5663      2.5379553e+08  0.1            2997000        21.198553      2237.8365      22378.369      1.3530993    
  20890000   364078.95      314.15776     -6302658.2      1.5825189      1084165       -5218493.2      633.13257      633.13257      633.13257      1683.4337      2316.5663      1683.4337      2316.5663      1683.4337      2316.5663      2.5379553e+08  0.1            2998000        21.64422       2243.8268      22438.267      0.90184261   
  20900000   365937.2       313.66579     -6277320.9      1.5825189      1089698.5     -5187622.4      633.13257      633.13257      633.13257      1683.4337      2316.5663      1683.4337      2316.5663      1683.4337      2316.5663      2.5379553e+08  0.1            2999000        22.092346      2231.5187      22315.188      0.45086424   
  20910000   366531.62      363.69404     -6263663.5      1.5825189      1091468.6     -5172194.9      633.13257      633.13257      633.13257      1683.4337      2316.5663      1683.4337      2316.5663      1683.4337      2316.5663      2.5379553e+08  0.1            3000000        22.540811      2229.8276      22298.275      0            
Loop time of 22.5408 on 4 procs for 500000 steps with 1000 atoms

Performance: 191.652 ns/day, 0.125 hours/ns, 22181.964 timesteps/s
99.7% CPU use with 4 MPI tasks x 1 OpenMP threads

MPI task timing breakdown:
Section |  min time  |  avg time  |  max time  |%varavg| %total
---------------------------------------------------------------
Pair    | 11.325     | 11.625     | 12.245     |  10.7 | 51.58
Neigh   | 0.043173   | 0.044184   | 0.04543    |   0.4 |  0.20
Comm    | 6.9319     | 7.4469     | 7.8574     |  12.2 | 33.04
Output  | 0.015172   | 0.015319   | 0.015748   |   0.2 |  0.07
Modify  | 2.2082     | 2.3718     | 2.5427     |   9.7 | 10.52
Other   |            | 1.037      |            |       |  4.60

Nlocal:            250 ave         254 max         245 min
Histogram: 1 0 0 0 0 1 1 0 0 1
Nghost:          797.5 ave         805 max         788 min
Histogram: 1 0 1 0 0 0 0 0 0 2
Neighs:        1131.75 ave        1154 max        1111 min
Histogram: 1 0 0 0 1 1 0 0 0 1

Total # of neighbors = 4527
Ave neighs/atom = 4.527
Neighbor list builds = 250
Dangerous builds = 0

unfix 3

fix 4 all nvt temp 370000 ${T} $(100.0*dt)
fix 4 all nvt temp 370000 300 $(100.0*dt)
fix 4 all nvt temp 370000 300 10

run 200000
Generated 0 of 1 mixed pair_coeff terms from geometric mixing rule
Per MPI rank memory allocation (min/avg/max) = 4.352 | 4.352 | 4.352 Mbytes
   Step          Temp          Press          PotEng        Density         KinEng         TotEng           Lx             Ly             Lz            Xlo            Xhi            Ylo            Yhi            Zlo            Zhi           Volume           Dt            Time           CPU           T/CPU          S/CPU         CPULeft    
  20910000   366531.62      363.69404     -6263663.5      1.5825189      1091468.6     -5172194.9      633.13257      633.13257      633.13257      1683.4337      2316.5663      1683.4337      2316.5663      1683.4337      2316.5663      2.5379553e+08  0.1            3000000        0              0              0              0            
  20920000   343049.78      347.18964     -6292807.9      1.5825189      1021543.7     -5271264.3      633.13257      633.13257      633.13257      1683.4337      2316.5663      1683.4337      2316.5663      1683.4337      2316.5663      2.5379553e+08  0.1            3001000        0.45270521     2208.9401      22089.361      8.6014399    
  20930000   328292.88      274.71779     -6296699        1.5825189      977600.14     -5319098.9      633.13257      633.13257      633.13257      1683.4337      2316.5663      1683.4337      2316.5663      1683.4337      2316.5663      2.5379553e+08  0.1            3002000        0.90029669     2234.1804      22341.81       8.1026881    
  20940000   334141.17      180.33003     -6319890.2      1.5825189      995015.36     -5324874.8      633.13257      633.13257      633.13257      1683.4337      2316.5663      1683.4337      2316.5663      1683.4337      2316.5663      2.5379553e+08  0.1            3003000        1.3459947      2243.6722      22436.721      7.6273141    
  20950000   279450.47      96.970382     -6353537.9      1.5825189      832155.78     -5521382.1      633.13257      633.13257      633.13257      1683.4337      2316.5663      1683.4337      2316.5663      1683.4337      2316.5663      2.5379553e+08  0.1            3004000        1.7921914      2241.1639      22411.64       7.1687733    
  20960000   288604.2       88.881914     -6341889.7      1.5825189      859414.02     -5482475.7      633.13257      633.13257      633.13257      1683.4337      2316.5663      1683.4337      2316.5663      1683.4337      2316.5663      2.5379553e+08  0.1            3005000        2.2381906      2242.1564      22421.562      6.7145777    
  20970000   251075.72      59.832607     -6349289.1      1.5825189      747660.61     -5601628.5      633.13257      633.13257      633.13257      1683.4337      2316.5663      1683.4337      2316.5663      1683.4337      2316.5663      2.5379553e+08  0.1            3006000        2.684802       2239.0828      22390.828      6.2645426    
  20980000   229580.72      14.836853     -6387589.8      1.5825189      683652.18     -5703937.6      633.13257      633.13257      633.13257      1683.4337      2316.5663      1683.4337      2316.5663      1683.4337      2316.5663      2.5379553e+08  0.1            3007000        3.1315264      2238.5172      22385.17       5.8156955    
  20990000   219505.84     -52.005333     -6407716        1.5825189      653650.9      -5754065.1      633.13257      633.13257      633.13257      1683.4337      2316.5663      1683.4337      2316.5663      1683.4337      2316.5663      2.5379553e+08  0.1            3008000        3.5792645      2233.4482      22334.485      5.3688996    
  21000000   206070.18     -131.73135     -6433296.2      1.5825189      613641.8      -5819654.4      633.13257      633.13257      633.13257      1683.4337      2316.5663      1683.4337      2316.5663      1683.4337      2316.5663      2.5379553e+08  0.1            3009000        4.0306245      2215.5263      22155.262      4.9263212    
  21010000   181855.79     -181.19667     -6434631.4      1.5825189      541535.49     -5893096        633.13257      633.13257      633.13257      1683.4337      2316.5663      1683.4337      2316.5663      1683.4337      2316.5663      2.5379553e+08  0.1            3010000        4.4803269      2223.6931      22236.93       4.4803288    
  21020000   166529.74     -213.66369     -6440584.1      1.5825189      495897.14     -5944687        633.13257      633.13257      633.13257      1683.4337      2316.5663      1683.4337      2316.5663      1683.4337      2316.5663      2.5379553e+08  0.1            3011000        4.9282838      2232.3578      22323.579      4.0322337    
  21030000   145701.26     -252.98167     -6462384.1      1.5825189      433873.49     -6028510.6      633.13257      633.13257      633.13257      1683.4337      2316.5663      1683.4337      2316.5663      1683.4337      2316.5663      2.5379553e+08  0.1            3012000        5.3765787      2230.6742      22306.742      3.5843871    
  21040000   132328.99     -301.27394     -6471087.7      1.5825189      394053.14     -6077034.5      633.13257      633.13257      633.13257      1683.4337      2316.5663      1683.4337      2316.5663      1683.4337      2316.5663      2.5379553e+08  0.1            3013000        5.8240603      2234.729       22347.289      3.1360335    
  21050000   111431.36     -374.67827     -6480358        1.5825189      331823.58     -6148534.5      633.13257      633.13257      633.13257      1683.4337      2316.5663      1683.4337      2316.5663      1683.4337      2316.5663      2.5379553e+08  0.1            3014000        6.2712984      2235.9454      22359.455      2.6877001    
  21060000   86530.783     -435.64973     -6515804.1      1.5825189      257673.9      -6258130.2      633.13257      633.13257      633.13257      1683.4337      2316.5663      1683.4337      2316.5663      1683.4337      2316.5663      2.5379553e+08  0.1            3015000        6.7192111      2232.578       22325.776      2.2397377    
  21070000   76538.84      -481.38044     -6526841.2      1.5825189      227919.6      -6298921.6      633.13257      633.13257      633.13257      1683.4337      2316.5663      1683.4337      2316.5663      1683.4337      2316.5663      2.5379553e+08  0.1            3016000        7.1673371      2231.5153      22315.156      1.7918347    
  21080000   54635.677     -545.44773     -6541058.6      1.5825189      162695.72     -6378362.8      633.13257      633.13257      633.13257      1683.4337      2316.5663      1683.4337      2316.5663      1683.4337      2316.5663      2.5379553e+08  0.1            3017000        7.6147849      2234.8972      22348.973      1.3437859    
  21090000   37663.862     -617.80401     -6559023.9      1.5825189      112156.55     -6446867.4      633.13257      633.13257      633.13257      1683.4337      2316.5663      1683.4337      2316.5663      1683.4337      2316.5663      2.5379553e+08  0.1            3018000        8.0586956      2252.7052      22527.052      0.89541084   
  21100000   19508.865     -692.46283     -6581134.9      1.5825189      58094.069     -6523040.9      633.13257      633.13257      633.13257      1683.4337      2316.5663      1683.4337      2316.5663      1683.4337      2316.5663      2.5379553e+08  0.1            3019000        8.5036846      2247.2464      22472.463      0.44756245   
  21110000   511.55657     -751.20325     -6602757.1      1.5825189      1523.3281     -6601233.8      633.13257      633.13257      633.13257      1683.4337      2316.5663      1683.4337      2316.5663      1683.4337      2316.5663      2.5379553e+08  0.1            3020000        8.9460326      2260.6639      22606.639      0            
Loop time of 8.94605 on 4 procs for 200000 steps with 1000 atoms

Performance: 193.158 ns/day, 0.124 hours/ns, 22356.232 timesteps/s
99.7% CPU use with 4 MPI tasks x 1 OpenMP threads

MPI task timing breakdown:
Section |  min time  |  avg time  |  max time  |%varavg| %total
---------------------------------------------------------------
Pair    | 4.315      | 4.5993     | 4.8831     |   9.6 | 51.41
Neigh   | 0.011263   | 0.011687   | 0.012259   |   0.3 |  0.13
Comm    | 2.7426     | 2.9887     | 3.2456     |  10.4 | 33.41
Output  | 0.0051237  | 0.0051768  | 0.0053304  |   0.1 |  0.06
Modify  | 0.87804    | 0.92845    | 0.9713     |   3.8 | 10.38
Other   |            | 0.4127     |            |       |  4.61

Nlocal:            250 ave         261 max         242 min
Histogram: 1 1 0 0 0 1 0 0 0 1
Nghost:          796.5 ave         804 max         780 min
Histogram: 1 0 0 0 0 0 0 1 0 2
Neighs:           1120 ave        1166 max        1083 min
Histogram: 2 0 0 0 0 0 0 1 0 1

Total # of neighbors = 4480
Ave neighs/atom = 4.48
Neighbor list builds = 67
Dangerous builds = 0

unfix 4

fix 5 all npt temp ${T} ${T} $(100.0*dt) iso 1.0 1.0 $(1000.0*dt)
fix 5 all npt temp 300 ${T} $(100.0*dt) iso 1.0 1.0 $(1000.0*dt)
fix 5 all npt temp 300 300 $(100.0*dt) iso 1.0 1.0 $(1000.0*dt)
fix 5 all npt temp 300 300 10 iso 1.0 1.0 $(1000.0*dt)
fix 5 all npt temp 300 300 10 iso 1.0 1.0 100

run 300000
Generated 0 of 1 mixed pair_coeff terms from geometric mixing rule
Per MPI rank memory allocation (min/avg/max) = 4.352 | 4.352 | 4.352 Mbytes
   Step          Temp          Press          PotEng        Density         KinEng         TotEng           Lx             Ly             Lz            Xlo            Xhi            Ylo            Yhi            Zlo            Zhi           Volume           Dt            Time           CPU           T/CPU          S/CPU         CPULeft    
  21110000   511.55657     -751.20325     -6602757.1      1.5825189      1523.3281     -6601233.8      633.13257      633.13257      633.13257      1683.4337      2316.5663      1683.4337      2316.5663      1683.4337      2316.5663      2.5379553e+08  0.1            3020000        0              0              0              0            
  21120000   320.00079      1.4450991     -6821127.1      1.6703169      952.90771     -6820174.2      621.83905      621.83905      621.83905      1689.0805      2310.9195      1689.0805      2310.9195      1689.0805      2310.9195      2.4045509e+08  0.1            3021000        0.56021998     1785.0111      17850.087      16.246441    
  21130000   319.28142      0.38490718    -6846645.9      1.6748281      950.76556     -6845695.1      621.28023      621.28023      621.28023      1689.3599      2310.6401      1689.3599      2310.6401      1689.3599      2310.6401      2.3980742e+08  0.1            3022000        1.1146454      1803.6697      18036.699      15.605063    
  21140000   318.45481      0.56662815    -6862074.7      1.6793508      948.30405     -6861126.4      620.72201      620.72201      620.72201      1689.639       2310.361       1689.639       2310.361       1689.639       2310.361       2.3916159e+08  0.1            3023000        1.6710301      1797.3174      17973.173      15.039289    
  21150000   317.6917      -0.84142522    -6879953        1.6833114      946.03164     -6879007        620.2348       620.2348       620.2348       1689.8826      2310.1174      1689.8826      2310.1174      1689.8826      2310.1174      2.3859888e+08  0.1            3024000        2.2280119      1795.3911      17953.912      14.482089    
  21160000   317.05503     -0.19855453    -6896668.8      1.687471       944.13573     -6895724.7      619.72476      619.72476      619.72476      1690.1376      2309.8624      1690.1376      2309.8624      1690.1376      2309.8624      2.3801073e+08  0.1            3025000        2.7847646      1796.1295      17961.294      13.923833    
  21170000   316.48915      3.1615694     -6915900.2      1.6917001      942.45065     -6914957.7      619.20791      619.20791      619.20791      1690.396       2309.604       1690.396       2309.604       1690.396       2309.604       2.3741572e+08  0.1            3026000        3.3418258      1795.135       17951.347      13.367311    
  21180000   315.93908     -0.30980246    -6929891.7      1.6954403      940.81262     -6928950.9      618.75224      618.75224      618.75224      1690.6239      2309.3761      1690.6239      2309.3761      1690.6239      2309.3761      2.3689198e+08  0.1            3027000        3.8997803      1792.2609      17922.61       12.81357     
  21190000   315.57316      2.5080783     -6951337.4      1.6998113      939.72298     -6950397.7      618.22143      618.22143      618.22143      1690.8893      2309.1107      1690.8893      2309.1107      1690.8893      2309.1107      2.3628283e+08  0.1            3028000        4.4580932      1791.1102      17911.103      12.259761    
  21200000   315.02204      3.5281015     -6962459.7      1.7033028      938.08184     -6961521.6      617.79871      617.79871      617.79871      1691.1006      2308.8994      1691.1006      2308.8994      1691.1006      2308.8994      2.3579848e+08  0.1            3029000        5.0169721      1789.2963      17892.963      11.706273    
  21210000   314.77866      2.8319535     -6980815.1      1.7072079      937.3571      -6979877.7      617.3273       617.3273       617.3273       1691.3363      2308.6637      1691.3363      2308.6637      1691.3363      2308.6637      2.3525911e+08  0.1            3030000        5.5772028      1784.9789      17849.79       11.15441     
  21220000   314.26112      4.3340011     -7002928.2      1.7105365      935.81595     -7001992.4      616.92662      616.92662      616.92662      1691.5367      2308.4633      1691.5367      2308.4633      1691.5367      2308.4633      2.3480131e+08  0.1            3031000        6.1372035      1785.7123      17857.124      10.600627    
  21230000   313.98933      3.6583298     -7016649.4      1.7143001      935.00662     -7015714.4      616.47481      616.47481      616.47481      1691.7626      2308.2374      1691.7626      2308.2374      1691.7626      2308.2374      2.3428582e+08  0.1            3032000        6.6973998      1785.0882      17850.88       10.046103    
  21240000   313.72486     -1.3015373     -7036467.6      1.7177445      934.21907     -7035533.3      616.06249      616.06249      616.06249      1691.9688      2308.0312      1691.9688      2308.0312      1691.9688      2308.0312      2.3381604e+08  0.1            3033000        7.2573804      1785.7763      17857.764      9.490423     
  21250000   313.22046     -2.5635834     -7055328.9      1.7205953      932.71704     -7054396.2      615.72206      615.72206      615.72206      1692.139       2307.861       1692.139       2307.861       1692.139       2307.861       2.3342864e+08  0.1            3034000        7.8184721      1782.2401      17822.402      8.9353987    
  21260000   313.03787     -0.27815631    -7068444.6      1.724055       932.17331     -7067512.4      615.30991      615.30991      615.30991      1692.345       2307.655       1692.345       2307.655       1692.345       2307.655       2.329602e+08   0.1            3035000        8.3778409      1787.7289      17877.286      8.3778429    
  21270000   312.79398     -0.99959775    -7086745.6      1.7274166      931.44706     -7085814.1      614.91052      614.91052      614.91052      1692.5447      2307.4553      1692.5447      2307.4553      1692.5447      2307.4553      2.3250686e+08  0.1            3036000        8.9366716      1789.4506      17894.508      7.8195894    
  21280000   312.59405      1.8233758     -7099877.2      1.730951       930.85171     -7098946.3      614.49171      614.49171      614.49171      1692.7541      2307.2459      1692.7541      2307.2459      1692.7541      2307.2459      2.3203211e+08  0.1            3037000        9.4959227      1788.1059      17881.058      7.2615894    
  21290000   312.30431      0.74743886    -7114058        1.7339087      929.98892     -7113128        614.14211      614.14211      614.14211      1692.9289      2307.0711      1692.9289      2307.0711      1692.9289      2307.0711      2.316363e+08   0.1            3038000        10.055091      1788.369       17883.69       6.7033956    
  21300000   311.96505      1.2667855     -7121973.9      1.7366037      928.97865     -7121044.9      613.82425      613.82425      613.82425      1693.0879      2306.9121      1693.0879      2306.9121      1693.0879      2306.9121      2.3127683e+08  0.1            3039000        10.616597      1780.9243      17809.243      6.1464523    
  21310000   311.79058     -0.63799207    -7138994.6      1.7396752      928.4591      -7138066.1      613.4628       613.4628       613.4628       1693.2686      2306.7314      1693.2686      2306.7314      1693.2686      2306.7314      2.308685e+08   0.1            3040000        11.178853      1778.5505      17785.508      5.5894275    
  21320000   311.57858     -1.2532267     -7154168.9      1.7427341      927.8278      -7153241.1      613.10366      613.10366      613.10366      1693.4482      2306.5518      1693.4482      2306.5518      1693.4482      2306.5518      2.3046328e+08  0.1            3041000        11.742024      1775.658       17756.576      5.0322971    
  21330000   311.4574       2.2655439     -7165834        1.7461351      927.46695     -7164906.5      612.70535      612.70535      612.70535      1693.6473      2306.3527      1693.6473      2306.3527      1693.6473      2306.3527      2.3001439e+08  0.1            3042000        12.307095      1769.6908      17696.91       4.475308     
  21340000   311.25337      3.2087823     -7175492.5      1.7489993      926.85939     -7174565.6      612.37071      612.37071      612.37071      1693.8146      2306.1854      1693.8146      2306.1854      1693.8146      2306.1854      2.2963772e+08  0.1            3043000        12.871379      1772.1554      17721.554      3.917377     
  21350000   311.08746      4.2861226     -7183536.8      1.7519481      926.36534     -7182610.4      612.02695      612.02695      612.02695      1693.9865      2306.0135      1693.9865      2306.0135      1693.9865      2306.0135      2.2925121e+08  0.1            3044000        13.437943      1765.0274      17650.274      3.3594863    
  21360000   310.79008      0.9698067     -7195581.7      1.7543641      925.4798      -7194656.2      611.74587      611.74587      611.74587      1694.1271      2305.8729      1694.1271      2305.8729      1694.1271      2305.8729      2.289355e+08   0.1            3045000        14.001673      1773.8981      17738.981      2.8003351    
  21370000   310.6798       0.51504255    -7210944.1      1.7572728      925.1514      -7210018.9      611.40815      611.40815      611.40815      1694.2959      2305.7041      1694.2959      2305.7041      1694.2959      2305.7041      2.2855655e+08  0.1            3046000        14.564909      1775.4566      17754.567      2.2407555    
  21380000   310.52334      3.0249111     -7219336.3      1.760182       924.68547     -7218411.6      611.07112      611.07112      611.07112      1694.4644      2305.5356      1694.4644      2305.5356      1694.4644      2305.5356      2.2817879e+08  0.1            3047000        15.128913      1773.0341      17730.338      1.6809906    
  21390000   310.34525      1.927706      -7229183.4      1.7628235      924.15517     -7228259.3      610.76575      610.76575      610.76575      1694.6171      2305.3829      1694.6171      2305.3829      1694.6171      2305.3829      2.2783688e+08  0.1            3048000        15.694668      1767.551       17675.512      1.1210479    
  21400000   310.11849     -2.9897339     -7236264.7      1.7650071      923.4799      -7235341.2      610.51378      610.51378      610.51378      1694.7431      2305.2569      1694.7431      2305.2569      1694.7431      2305.2569      2.2755502e+08  0.1            3049000        16.262446      1761.2518      17612.518      0.56077408   
  21410000   309.96793      2.2780936     -7247011        1.7677609      923.03158     -7246088        610.19659      610.19659      610.19659      1694.9017      2305.0983      1694.9017      2305.0983      1694.9017      2305.0983      2.2720052e+08  0.1            3050000        16.83067       1759.8704      17598.703      0            
Loop time of 16.8307 on 4 procs for 300000 steps with 1000 atoms

Performance: 154.004 ns/day, 0.156 hours/ns, 17824.581 timesteps/s
99.7% CPU use with 4 MPI tasks x 1 OpenMP threads

MPI task timing breakdown:
Section |  min time  |  avg time  |  max time  |%varavg| %total
---------------------------------------------------------------
Pair    | 7.7392     | 8.1891     | 8.5683     |  11.9 | 48.66
Neigh   | 0.008046   | 0.0083468  | 0.0088492  |   0.4 |  0.05
Comm    | 4.1373     | 4.4555     | 4.8632     |  13.6 | 26.47
Output  | 0.010727   | 0.010819   | 0.011086   |   0.1 |  0.06
Modify  | 3.4054     | 3.501      | 3.5699     |   3.2 | 20.80
Other   |            | 0.666      |            |       |  3.96

Nlocal:            250 ave         260 max         244 min
Histogram: 1 1 0 1 0 0 0 0 0 1
Nghost:         836.75 ave         841 max         828 min
Histogram: 1 0 0 0 0 0 0 0 2 1
Neighs:        1214.75 ave        1271 max        1186 min
Histogram: 2 0 0 1 0 0 0 0 0 1

Total # of neighbors = 4859
Ave neighs/atom = 4.859
Neighbor list builds = 48
Dangerous builds = 17

# run_style
run_style verlet

# write restart
write_restart ${write_res}
write_restart ./pgnpmf/9010/equpmf17.res
System init for write_restart ...
Generated 0 of 1 mixed pair_coeff terms from geometric mixing rule

Total wall time: 0:00:57
