ITEM: TIMESTEP
0
ITEM: NUMBER OF ATOMS
1000
ITEM: BOX BOUNDS pp pp pp
-1.0000000000000000e+02 5.1000000000000000e+03
-1.0000000000000000e+02 5.1000000000000000e+03
-1.0000000000000000e+02 5.1000000000000000e+03
ITEM: ATOMS type x y z ix iy iz
1 1255.64 928.44 1324.79 0 0 0
1 2703.09 4999.46 1419.02 0 0 0
1 1506.65 98.502 1488.52 0 0 0
1 0.394 3856.7 3037.39 0 0 0
1 4527.97 4218.76 3082 0 0 0
1 1069.57 730.837 1169.56 0 0 0
1 652.098 1186.1 1006.57 0 0 0
1 2556.37 1936.69 2708.88 0 0 0
1 2833.98 2887.15 4279.14 0 0 0
1 2424.85 4266.6 828.31 0 0 0
1 2088.74 4431.52 3781.53 0 0 0
1 675.682 2720.76 4599.71 0 0 0
1 4301.67 4428.1 4875.18 0 0 0
1 1240.84 3532.92 880.917 0 0 0
1 1880.26 872.25 3415.16 0 0 0
1 1.333 0.97 3006.73 0 0 0
1 0.04 4999.97 2428.14 0 0 0
1 2093.78 2316.55 3085.76 0 0 0
1 1812.46 4765.29 2058.44 0 0 0
1 2087.91 1784.84 2813.45 0 0 0
1 1540.41 0.387 1272.22 0 0 0
1 3898.82 1087.26 3758.6 0 0 0
1 4271.08 273.23 3578.9 0 0 0
1 0.172 3204.77 1661.95 0 0 0
1 1118.14 1725.14 1116.95 0 0 0
1 2162.92 292.963 2469.56 0 0 0
1 897.368 3463.09 3322.86 0 0 0
1 3530.46 3510.46 1568.94 0 0 0
1 1730.83 2903.86 884.011 0 0 0
1 3907.62 422.015 589.142 0 0 0
1 1973.88 1726.93 3289.41 0 0 0
1 158.062 2649.23 839.463 0 0 0
1 3512.67 2707.24 3838.38 0 0 0
1 3758.44 2771.99 2836.91 0 0 0
1 1809.26 2481.8 3798.07 0 0 0
1 4897.82 2771.75 2325.18 0 0 0
1 2488.94 3210.84 2641.09 0 0 0
1 4998.43 209.759 2091.49 0 0 0
1 158.237 710.424 82.952 0 0 0
1 330.431 3248.05 4555.62 0 0 0
1 2953.01 3826.45 499.284 0 0 0
1 647.173 3922.47 1897.79 0 0 0
1 1203.11 306.286 4997.32 0 0 0
1 1334.65 4236.53 0.001 0 0 0
1 1925 883.982 1394.84 0 0 0
1 2368.3 4654.66 2253.24 0 0 0
1 1496.48 848.88 3794.11 0 0 0
1 3591.45 2802.55 716.224 0 0 0
1 4.499 1.956 1819.08 0 0 0
1 1430.35 407.924 0 0 0 0
1 684.427 506.786 934.049 0 0 0
1 1625.06 3210.01 1564.63 0 0 0
1 3170.5 1600.84 4232.91 0 0 0
1 946.912 2365.49 2360.55 0 0 0
1 2628.48 2367.65 1195.58 0 0 0
1 1556.75 7.728 741.019 0 0 0
1 74.298 792.011 553.915 0 0 0
1 1750.24 2068.24 1078.03 0 0 0
1 67.63 1465.58 3044.41 0 0 0
1 38.298 2138.23 3.136 0 0 0
1 146.318 0 1845.16 0 0 0
1 861.197 2175.48 0 0 0 0
1 1080.26 132.986 3105.06 0 0 0
1 261.014 1882.6 2539.85 0 0 0
1 0 457.282 230.554 0 0 0
1 1783.24 441.426 0 0 0 0
1 3942.42 14.867 2486.14 0 0 0
1 0 0 1037.27 0 0 0
1 22.004 390.364 1064.06 0 0 0
1 2591.7 3038.57 3303.64 0 0 0
1 2688.53 4008.41 2697.61 0 0 0
1 1498.46 297.691 729.918 0 0 0
1 4963.01 1554.85 4524.45 0 0 0
1 1077.62 1341.64 986.045 0 0 0
1 1158.87 2661.86 1107.24 0 0 0
1 2761.63 5000 1826.66 0 0 0
1 666.929 712.752 649.656 0 0 0
1 755.305 692.218 1205.34 0 0 0
1 0 1769.39 565.079 0 0 0
1 339.584 1072.01 340.388 0 0 0
1 534.895 680.639 481.176 0 0 0
1 675.068 40.586 1834.59 0 0 0
1 0 338.472 196.982 0 0 0
1 2138.33 2023.45 1423.71 0 0 0
1 339.14 762.392 813.661 0 0 0
1 168.068 1792.31 797.927 0 0 0
1 624.666 307.821 919.986 0 0 0
1 199.595 924.41 444.446 0 0 0
1 41.807 1141.44 649.959 0 0 0
1 103.1 616.904 808.254 0 0 0
1 487.608 3157.47 2647.24 0 0 0
1 315.515 818.56 84.102 0 0 0
1 439.965 4916.13 441.652 0 0 0
1 1361.54 6.925 253.58 0 0 0
1 4418.42 889.123 0 0 0 0
1 97.046 835.921 876.969 0 0 0
1 3213.44 0 1460.11 0 0 0
1 596.772 877.858 794.42 0 0 0
1 1905.12 2782.45 1134.28 0 0 0
1 3865.26 2643.57 2381.79 0 0 0
1 727.55 2290.23 3356.01 0 0 0
1 210.539 71.252 1070.48 0 0 0
1 1.763 1663.31 790.163 0 0 0
1 1508.76 114.013 313.249 0 0 0
1 510.052 2128.43 1116.42 0 0 0
1 367.046 1620.08 5000 0 0 0
1 399.631 949.248 540.554 0 0 0
1 991.783 1398.33 344.378 0 0 0
1 197.646 937.937 564.056 0 0 0
1 1551.62 871.99 311.836 0 0 0
1 1172.57 500.202 454.266 0 0 0
1 27.723 4990.13 3775.57 0 0 0
1 776.037 880.396 2.477 0 0 0
1 874.148 830.818 711.17 0 0 0
1 10.255 506.694 996.08 0 0 0
1 786.357 616.808 1119.14 0 0 0
1 523.309 107.617 1118.29 0 0 0
1 421.556 8.306 820.137 0 0 0
1 566.952 1278.15 1265.27 0 0 0
1 2713.73 3693.96 4936.95 0 0 0
1 531.005 3283.2 0 0 0 0
1 627.292 12.614 736.435 0 0 0
1 0 1222.98 728.17 0 0 0
1 1457.13 2736.95 92.154 0 0 0
1 478.332 80.156 588.257 0 0 0
1 2359.4 2034.95 1481.57 0 0 0
1 1559.99 710.05 3144.65 0 0 0
1 497.491 888.255 577.218 0 0 0
1 703.128 237.726 860.227 0 0 0
1 1402.57 1008.84 1077.08 0 0 0
1 625.436 437.51 445.308 0 0 0
1 198.949 1128.65 574.416 0 0 0
1 567.02 402.779 344.938 0 0 0
1 1980.78 577.873 2607.8 0 0 0
1 1213.35 826.09 1391.37 0 0 0
1 780.668 1875.4 987.276 0 0 0
1 166.442 622.188 1210.86 0 0 0
1 986.945 129.385 741.554 0 0 0
1 286.489 2485.86 1261.57 0 0 0
1 454.354 554.582 466.295 0 0 0
1 248.298 604.59 1929.58 0 0 0
1 0.016 317.331 314.833 0 0 0
1 781.637 776.634 216.367 0 0 0
1 776.533 1096.84 1995.92 0 0 0
1 114.16 378.092 473.515 0 0 0
1 1931.37 814.938 385.451 0 0 0
1 1469.49 855.527 4386.77 0 0 0
1 0 508.165 1480.45 0 0 0
1 1263.28 695.234 936.65 0 0 0
1 78.351 108.163 1308.47 0 0 0
1 1325.44 390.666 97.911 0 0 0
1 0 0 753.61 0 0 0
1 723.37 382.431 962.742 0 0 0
1 1131.96 853.708 1225.83 0 0 0
1 655.076 239.141 511.974 0 0 0
1 938.439 822.817 813.973 0 0 0
1 1044.28 487.618 588.084 0 0 0
1 157.524 35.153 1285.84 0 0 0
1 1014.31 1002.01 927.684 0 0 0
1 1113.46 1958.46 4456.24 0 0 0
1 183.724 853.886 324.53 0 0 0
1 3098.49 2831.24 2435.96 0 0 0
1 1.359 3123.38 0.444 0 0 0
1 2896.14 2880.69 559.625 0 0 0
1 237.764 593.21 303.581 0 0 0
1 1473.78 4101.97 1434.3 0 0 0
1 178.526 1306.26 295.683 0 0 0
1 490.141 835.499 454.906 0 0 0
1 457.567 870.055 185.259 0 0 0
1 1887.82 3182.39 203.088 0 0 0
1 187.292 3801.34 2064.26 0 0 0
1 5000 2769.76 464.628 0 0 0
1 1927.04 320.309 867.261 0 0 0
1 348.05 839.145 200.798 0 0 0
1 1128.39 256.026 1288.87 0 0 0
1 802.015 810.313 1102.95 0 0 0
1 986.018 3845.86 1338.68 0 0 0
1 3039.61 2700.61 3451.94 0 0 0
1 88.65 902.8 663.904 0 0 0
1 398.323 901.043 662.892 0 0 0
1 371.714 37.547 589.702 0 0 0
1 1159.99 0 629.574 0 0 0
1 148.379 890.793 3525.13 0 0 0
1 201.634 510.148 875.355 0 0 0
1 286.086 615.293 885.126 0 0 0
1 1597.65 697.822 1319 0 0 0
1 505.606 1286.82 682.211 0 0 0
1 0 1835.51 194.727 0 0 0
1 483.405 1052.69 609.904 0 0 0
1 67.788 4184.71 5000 0 0 0
1 881.594 996.094 4547.24 0 0 0
1 251.986 1404.25 544.514 0 0 0
1 1088.97 919.999 51.723 0 0 0
1 1074.29 3.505 973.928 0 0 0
1 427.333 765.015 577.681 0 0 0
1 727.96 3.857 1106.37 0 0 0
1 92.73 1340.93 583.078 0 0 0
1 0 2371.96 1660.17 0 0 0
1 584.75 1043.67 756 0 0 0
1 2355.89 4131.36 4851.21 0 0 0
1 625.237 49.052 1150.35 0 0 0
1 890.586 1053.46 1581.15 0 0 0
1 236.655 414.939 989.304 0 0 0
1 1019.79 345.215 6.081 0 0 0
1 194.114 660.101 1091.88 0 0 0
1 0 1198.31 867.377 0 0 0
1 0 261.812 1103.1 0 0 0
1 325.241 573.072 166.807 0 0 0
1 31.262 218.472 914.249 0 0 0
1 440.848 1600.47 30.41 0 0 0
1 1170.06 894.309 1073.91 0 0 0
1 72.2 198.722 1157.02 0 0 0
1 256.282 1982.4 853.463 0 0 0
1 2677.73 366.204 3712.14 0 0 0
1 1032.26 618.467 1442.59 0 0 0
1 247.582 502.286 219.84 0 0 0
1 667.27 384.785 535.896 0 0 0
1 583.577 1127.22 12.191 0 0 0
1 975.098 129.476 1112.11 0 0 0
1 179.917 841.52 616.049 0 0 0
1 1102.09 1382.62 1236.03 0 0 0
1 81.655 88.97 1034.32 0 0 0
1 1127.62 0 1122.27 0 0 0
1 1863.69 3140.09 1778.53 0 0 0
1 1461.78 462.844 229.677 0 0 0
1 832.67 1048.39 747.841 0 0 0
1 0 294.302 464.948 0 0 0
1 126.849 1290.63 153.194 0 0 0
1 394.838 3.476 487.642 0 0 0
1 753.66 794.08 627.219 0 0 0
1 826.543 783.066 1378.54 0 0 0
1 169.288 165.833 997.514 0 0 0
1 2528.39 2996.55 3590.29 0 0 0
1 508.655 1399.16 573.159 0 0 0
1 691.865 1838.47 1044.71 0 0 0
1 1600.16 1265.92 4101.58 0 0 0
1 119.337 265.88 441.409 0 0 0
1 519.687 978.09 1469.08 0 0 0
1 862.45 1618.97 340.314 0 0 0
1 373.123 181.177 1695.74 0 0 0
1 647.633 61.871 288.501 0 0 0
1 1180.92 761.969 834.285 0 0 0
1 67.811 260.919 131.916 0 0 0
1 1011.68 1069.5 777.601 0 0 0
1 546.784 1130.05 675.514 0 0 0
1 2611.62 1715.56 3952.74 0 0 0
1 651.744 1076.63 535.013 0 0 0
1 751.245 946.1 1070.41 0 0 0
1 539.426 1149.86 1142.96 0 0 0
1 313.501 787.314 364.485 0 0 0
1 784.302 527.813 1989.27 0 0 0
1 354.966 947.089 1229.65 0 0 0
1 73.739 137.324 182.448 0 0 0
1 945.373 806.372 551.751 0 0 0
1 2567.93 4721.8 2682.46 0 0 0
1 0 664.781 852.44 0 0 0
1 228.586 1221.37 1165.24 0 0 0
1 1013.76 1396.3 875.151 0 0 0
1 2620.94 3082.26 2595.45 0 0 0
1 569.85 935.846 490.405 0 0 0
1 1005.26 368.4 530.038 0 0 0
1 970.762 1229.39 7.259 0 0 0
1 1220.87 427.543 728.112 0 0 0
1 1115.92 1935.31 3499.95 0 0 0
1 602.529 634.779 742.094 0 0 0
1 0 783.33 925.78 0 0 0
1 481.885 1187.89 947.407 0 0 0
1 462.026 4.979 1219.54 0 0 0
1 580.944 577.778 907.082 0 0 0
1 911.687 544.552 726.381 0 0 0
1 870.389 328.768 1358.76 0 0 0
1 1178.46 136.376 583.519 0 0 0
1 59.676 261.855 1258.97 0 0 0
1 1567.29 860.905 1252.68 0 0 0
1 0 161.741 1003.16 0 0 0
1 939.913 1147.84 517.793 0 0 0
1 1834.83 3278.24 2975.86 0 0 0
1 1137.25 1172.03 950.85 0 0 0
1 1304.59 3988.04 1427.44 0 0 0
1 1297.13 890.196 590.176 0 0 0
1 9.978 499.646 1354.09 0 0 0
1 853.202 503.541 0 0 0 0
1 1319.31 1961.04 486.628 0 0 0
1 58.935 125.037 471.092 0 0 0
1 309.437 2797.73 0 0 0 0
1 799.542 623.847 1411.08 0 0 0
1 843.46 711.811 340.261 0 0 0
1 1119.28 700.833 720.337 0 0 0
1 62.255 276.298 1012.49 0 0 0
1 436.206 1565.39 765.035 0 0 0
1 737.948 232.685 744.171 0 0 0
1 656.935 165.902 346.673 0 0 0
1 799.641 3120.54 0.001 0 0 0
1 1250.81 491.099 255.548 0 0 0
1 472.013 1189.7 0 0 0 0
1 239.022 693.575 366.377 0 0 0
1 373.602 725.828 71.515 0 0 0
1 133.208 799.832 737.908 0 0 0
1 118.499 350.241 189.807 0 0 0
1 205.467 548.137 1302.29 0 0 0
1 817.279 2109.74 3908.76 0 0 0
1 663.121 1163.85 1114.87 0 0 0
1 841.708 899.321 947.32 0 0 0
1 1237.92 732.508 251.786 0 0 0
1 121.695 2533.31 243.29 0 0 0
1 777.064 454.532 1242.11 0 0 0
1 227.685 1540.83 403.359 0 0 0
1 3693.77 2633.92 3743.39 0 0 0
1 1107.39 588.541 673.497 0 0 0
1 886.011 719.76 0 0 0 0
1 0.008 1591.82 4122.89 0 0 0
1 668.975 939.816 1165.75 0 0 0
1 1801.45 412.194 431.393 0 0 0
1 952.269 1320.6 764.39 0 0 0
1 732.017 0 2463.45 0 0 0
1 932.753 3599.72 5000 0 0 0
1 83.035 114.089 919.613 0 0 0
1 1175.09 460.7 343.078 0 0 0
1 189.404 52.461 666.954 0 0 0
1 775.24 1137.57 495.802 0 0 0
1 1419.27 889.087 1066.65 0 0 0
1 626.557 215.841 776.909 0 0 0
1 1571.96 2420.08 1554.04 0 0 0
1 905.503 601.215 0.308 0 0 0
1 1843.33 1113.71 923.188 0 0 0
1 5000 3476.68 661.746 0 0 0
1 123.573 354.772 965.315 0 0 0
1 1061.95 437.334 956.094 0 0 0
1 1138.98 1153.3 804.82 0 0 0
1 531.909 1377.11 829.299 0 0 0
1 1420.24 887.517 0 0 0 0
1 1212.09 1236.67 304.943 0 0 0
1 885.493 379.658 37.735 0 0 0
1 2233.72 2217.28 0 0 0 0
1 207.914 1494.33 68.048 0 0 0
1 351.328 1165.66 485.295 0 0 0
1 1569.8 335.227 0 0 0 0
1 20.675 577.952 482.585 0 0 0
1 868.001 170.874 1087.18 0 0 0
1 1304.22 1015.92 968.43 0 0 0
1 654.174 617.656 0 0 0 0
1 825.889 239.363 854.109 0 0 0
1 1024.81 297.755 1299.07 0 0 0
1 1196.6 1056.38 309.676 0 0 0
1 1117.72 1829.22 250.636 0 0 0
1 0 218.833 210.332 0 0 0
1 790.535 1457.17 245.212 0 0 0
1 33.672 810.834 1316.18 0 0 0
1 96.979 490.449 1261.45 0 0 0
1 667.078 974.201 428.324 0 0 0
1 756.473 400.686 1114.92 0 0 0
1 863.576 392.236 1058.97 0 0 0
1 4655.04 96.713 2617.44 0 0 0
1 4059.32 641.472 3280.05 0 0 0
1 116.875 1194.59 231.45 0 0 0
1 89.125 1433.43 244.582 0 0 0
1 490.479 4981.68 2754.78 0 0 0
1 412.286 915.599 410.815 0 0 0
1 686.815 1063.91 1.676 0 0 0
1 2716.78 577.583 4592.41 0 0 0
1 4.264 462.901 793.1 0 0 0
1 239.491 592.1 96.953 0 0 0
1 550.692 675.948 1363.11 0 0 0
1 995.541 265.261 568.087 0 0 0
1 1014.85 519.733 470.765 0 0 0
1 456.571 564.824 31.593 0 0 0
1 412.562 152.69 1099.72 0 0 0
1 2322.68 3099.41 1309.97 0 0 0
1 998.722 917.827 1760.51 0 0 0
1 872.728 631.653 892.707 0 0 0
1 364.142 974.048 757.424 0 0 0
1 637.864 659.281 545.19 0 0 0
1 1803.51 2199.86 338.5 0 0 0
1 2651.29 3768.68 1087.44 0 0 0
1 1045.55 534.022 1146.69 0 0 0
1 24.197 695.628 497.669 0 0 0
1 72.747 398.003 287.948 0 0 0
1 1952.94 178.107 663.961 0 0 0
1 275.733 1047.75 1075.15 0 0 0
1 194.809 987.636 210.782 0 0 0
1 782.801 422.332 25.148 0 0 0
1 393.978 362.505 780.475 0 0 0
1 460.198 786.277 818.408 0 0 0
1 1693.88 1651.85 1098.26 0 0 0
1 917.595 6.635 799.704 0 0 0
1 3875.19 103.775 3394.2 0 0 0
1 1828.98 842.698 575.168 0 0 0
1 327.995 865.938 875.706 0 0 0
1 1337.04 2617.46 3822.24 0 0 0
1 3.674 736.401 389.284 0 0 0
1 0 109.63 1106.84 0 0 0
1 475.521 456.326 303.883 0 0 0
1 2400.43 0 1699.74 0 0 0
1 2415.25 2432.27 2581.34 0 0 0
1 1126.26 0 479.868 0 0 0
1 1240.38 746.194 613.802 0 0 0
1 1420.14 170.71 1010.38 0 0 0
1 1107.06 984.953 849.243 0 0 0
1 462.235 471.981 877.833 0 0 0
1 0 156.1 1511.5 0 0 0
1 770.942 157.067 458.017 0 0 0
1 2149.02 2940.8 3158.45 0 0 0
1 1308.72 651.454 394.937 0 0 0
1 2589.06 2394.68 2457.63 0 0 0
1 253.679 1226.01 580.423 0 0 0
1 899.119 536.335 95.006 0 0 0
1 4038.93 598.504 2331.92 0 0 0
1 840.992 1489.6 415.495 0 0 0
1 144.08 252.44 909.797 0 0 0
1 3187.42 2342.13 3504 0 0 0
1 862.323 24.696 689.353 0 0 0
1 861.935 3183.89 1032.04 0 0 0
1 1719.87 1527.79 2077.51 0 0 0
1 3526.34 3314 3352.95 0 0 0
1 1033 823.441 309.92 0 0 0
1 510.614 26.227 757.818 0 0 0
1 3175.48 1863.36 1398.53 0 0 0
1 270.551 0 611.133 0 0 0
1 1046.19 866.507 898.958 0 0 0
1 757.025 306.23 6.023 0 0 0
1 1404.2 3973.37 2143.83 0 0 0
1 2918.3 1700.21 2128.97 0 0 0
1 633.683 700.9 1250.79 0 0 0
1 0 1608.34 107.739 0 0 0
1 1593.11 880.414 0 0 0 0
1 172.05 177.468 724.384 0 0 0
1 92.222 205.362 810.914 0 0 0
1 8.234 1346.69 189.589 0 0 0
1 1726.84 1151.87 492.523 0 0 0
1 880.974 266.376 1015.67 0 0 0
1 482.344 1313.77 497.259 0 0 0
1 1042.75 104.541 856.086 0 0 0
1 1491.61 448.004 803.946 0 0 0
1 857.889 511.402 838.356 0 0 0
1 135.284 187.997 84.537 0 0 0
1 0 1506.95 818.147 0 0 0
1 432.047 638.57 109.897 0 0 0
1 668.42 875.52 374.766 0 0 0
1 0 1711.83 2982.75 0 0 0
1 2685.77 3031.81 2869.76 0 0 0
1 4357.61 1017.37 1030.58 0 0 0
1 1165.92 985.855 207.766 0 0 0
1 1897.09 781.799 275.292 0 0 0
1 276.022 1 1896.27 0 0 0
1 3920.81 1230.84 2752.67 0 0 0
1 1753.19 1389.91 4839.47 0 0 0
1 4194.51 823.044 458.022 0 0 0
1 3626.28 2733.64 1381.82 0 0 0
1 1171.95 0 753.901 0 0 0
1 733.382 1479.06 1448.62 0 0 0
1 1095.71 436.44 505.031 0 0 0
1 33.167 132.535 3880.09 0 0 0
1 1535.55 3326.19 3888.46 0 0 0
1 498.301 944.32 818.11 0 0 0
1 176.433 518.466 617.4 0 0 0
1 518.496 379.307 1211.88 0 0 0
1 572.377 1370.77 403.649 0 0 0
1 0.825 961.202 699.567 0 0 0
1 2261.98 1296.86 4864.16 0 0 0
1 1053.77 688.504 1027.25 0 0 0
1 3698.84 0 3577.34 0 0 0
1 256.909 83.372 535.712 0 0 0
1 1140.85 763.128 979.935 0 0 0
1 2712.49 1273.04 1369.22 0 0 0
1 960.66 342.827 787.774 0 0 0
1 1286.85 1009.07 218.966 0 0 0
1 878.551 429.695 148.351 0 0 0
1 910.557 95.889 470.503 0 0 0
1 2234.12 1017.1 1554.53 0 0 0
1 686.648 23.277 1249.9 0 0 0
1 3084.41 4290.07 1044.51 0 0 0
1 622.841 183.148 670.412 0 0 0
1 740.642 168.971 210.578 0 0 0
1 359.276 4778.56 872.967 0 0 0
1 404.856 874.475 782.792 0 0 0
1 484.471 1431.85 266.57 0 0 0
1 1070.54 336.07 110.496 0 0 0
1 402.592 1711.85 29.717 0 0 0
1 0.001 0 3551.45 0 0 0
1 1454.58 3190.42 480.639 0 0 0
1 674.828 937.005 6.657 0 0 0
1 1680.32 2251.1 1709.85 0 0 0
1 571.882 304.734 1100.26 0 0 0
1 285.465 1275.51 455.238 0 0 0
1 37.264 429.881 130.718 0 0 0
1 949.91 1857.51 0 0 0 0
1 488.773 1036.62 1245.92 0 0 0
1 517.584 341.935 21.718 0 0 0
1 61.936 310.517 559.444 0 0 0
1 764.605 814.241 102.987 0 0 0
1 1381.33 138.308 0.443 0 0 0
1 966.598 1598.2 259.988 0 0 0
1 3007.6 3771.27 2432.7 0 0 0
1 1358.82 765.182 470.343 0 0 0
1 337.979 551.076 983.446 0 0 0
1 2861.9 0 355.268 0 0 0
1 0 1115.66 1111.91 0 0 0
1 776.601 1013.27 96.831 0 0 0
1 638.223 2202.51 880.774 0 0 0
1 1112.15 128.854 132.724 0 0 0
1 39.673 1680.2 1212.15 0 0 0
1 126.827 0 1080.86 0 0 0
1 939.143 387.34 244.281 0 0 0
1 3608.51 1372.31 2085.23 0 0 0
1 658.276 398.18 673.403 0 0 0
1 853.353 947.73 683.957 0 0 0
1 1365.15 975.017 644.312 0 0 0
1 1015.12 223.706 0.292 0 0 0
1 0 1265.08 579.704 0 0 0
1 304.334 468.464 917.881 0 0 0
1 924.618 263.382 297.246 0 0 0
1 1065.84 451.069 397.553 0 0 0
1 761.114 1096.54 1609.37 0 0 0
1 485.72 1309.78 0 0 0 0
1 1343.62 610.468 126.742 0 0 0
1 0 1015.68 4314.59 0 0 0
1 390.019 510.804 1414.75 0 0 0
1 1398.63 0 1324.32 0 0 0
1 430.973 1329.87 1006.05 0 0 0
1 151.058 574.676 211.28 0 0 0
1 1286.09 928.812 347.088 0 0 0
1 1403.36 2421.88 3845.26 0 0 0
1 1888.94 2522.03 1834.48 0 0 0
1 609.057 139.31 1039.02 0 0 0
1 952.939 79.465 617.962 0 0 0
1 1215.39 33.026 535.391 0 0 0
1 4707.3 2071.48 354.815 0 0 0
1 217.504 281.482 200.608 0 0 0
1 257.397 235.233 1170.79 0 0 0
1 354.002 1361.77 21.754 0 0 0
1 1558.4 366.107 454.724 0 0 0
1 420.136 270.104 525.145 0 0 0
1 118.855 10.187 868.995 0 0 0
1 323.781 357.825 488.187 0 0 0
1 744.451 349.418 250.933 0 0 0
1 88.688 1134.77 841.521 0 0 0
1 906.856 513.041 417.712 0 0 0
1 561.096 541.165 515.791 0 0 0
1 1225.75 84.977 75.179 0 0 0
1 717.139 668.127 1333.11 0 0 0
1 132.209 1238.45 56.506 0 0 0
1 951.061 724.615 640.771 0 0 0
1 1670.43 3067.48 203.154 0 0 0
1 1185.95 937.39 1.702 0 0 0
1 338.875 0 1406.24 0 0 0
1 1260.01 42.803 1544.38 0 0 0
1 863.685 111.725 773.408 0 0 0
1 814.863 206.442 1348.69 0 0 0
1 1002.84 1070.57 622.852 0 0 0
1 1014.52 873.931 1015.51 0 0 0
1 1991.94 4265.99 0 0 0 0
1 186.616 2291.73 811.411 0 0 0
1 2523.4 1698.55 719.263 0 0 0
1 338.569 1186.4 864.481 0 0 0
1 700.526 103.619 767.989 0 0 0
1 940.815 1203.35 113.574 0 0 0
1 1785.15 1952.5 363.076 0 0 0
1 848.798 862.839 597.859 0 0 0
1 208.498 117.138 845.107 0 0 0
1 524.58 688.196 37.862 0 0 0
1 694.735 68.116 1001.97 0 0 0
1 1401.65 853.081 2194.1 0 0 0
1 779.336 110.362 1061.6 0 0 0
1 212.72 73.717 232.879 0 0 0
1 1197.22 881.957 136.7 0 0 0
1 445.089 0 662.611 0 0 0
1 70.538 692.818 1264.08 0 0 0
1 910.81 67.23 310.411 0 0 0
1 709.612 2314.11 3657.1 0 0 0
1 471.969 724.354 1250.02 0 0 0
1 833.71 3592.1 2348.49 0 0 0
1 572.983 314.676 441.961 0 0 0
1 577.59 1265.84 826.348 0 0 0
1 603.227 1250.88 932.295 0 0 0
1 0 619.677 1347.7 0 0 0
1 1302.96 0 1213.03 0 0 0
1 78.643 642.79 1123.63 0 0 0
1 915.797 2036.25 3265.13 0 0 0
1 697.52 287.598 643.754 0 0 0
1 1306.27 567.409 1519.43 0 0 0
1 177.609 3414.26 2003.59 0 0 0
1 703.15 302.117 106.81 0 0 0
1 760.718 603.699 1526.45 0 0 0
1 269.13 1038.17 1225.17 0 0 0
1 577.826 471.955 1303.65 0 0 0
1 145.829 881.255 213.695 0 0 0
1 901.939 4999.07 1063.88 0 0 0
1 880.204 1061.11 637.266 0 0 0
1 878.187 1582.38 484.04 0 0 0
1 2407.95 448.093 2484.08 0 0 0
1 495.249 2376.04 1975.94 0 0 0
1 1141.94 266.16 183.669 0 0 0
1 110.832 286.48 711.988 0 0 0
1 1123.98 1065.39 494.608 0 0 0
1 485.442 407.851 1098.3 0 0 0
1 2114.66 682.188 2419.31 0 0 0
1 1015.36 364.756 1049.69 0 0 0
1 1949.41 1545.01 2373.51 0 0 0
1 2166.67 982.478 626.133 0 0 0
1 2468.1 3815.65 2566.19 0 0 0
1 960.751 454.907 0 0 0 0
1 247.191 759.28 10.347 0 0 0
1 1435.26 2475.76 842.635 0 0 0
1 1653.69 841.8 1101.61 0 0 0
1 1891.98 637.211 695.135 0 0 0
1 1501.32 25.398 141.03 0 0 0
1 33.689 1337.49 718.133 0 0 0
1 985.413 614.986 602.788 0 0 0
1 426.996 4007.34 4553.09 0 0 0
1 1008.56 0 870.983 0 0 0
1 3379.4 3012.43 3194.94 0 0 0
1 21.97 678.825 1022.98 0 0 0
1 2581.73 758.115 504.723 0 0 0
1 828.387 899.363 784.136 0 0 0
1 13.369 375.137 1257.6 0 0 0
1 1483.49 0 276.058 0 0 0
1 957.54 204.087 443.547 0 0 0
1 1083.91 1364.62 591.886 0 0 0
1 1792.31 62.911 342.553 0 0 0
1 1740.84 1105.16 2424.46 0 0 0
1 1745.73 1237.04 618.017 0 0 0
1 1198.46 969.325 489.408 0 0 0
1 1514.66 555.469 1748.58 0 0 0
1 285.161 259.596 441.343 0 0 0
1 352.141 3442.85 790.377 0 0 0
1 30.824 544.224 138.698 0 0 0
1 1058.68 778.528 628.78 0 0 0
1 2290.08 480.083 1261.98 0 0 0
1 99.671 688.778 319.976 0 0 0
1 169.853 180.484 1107.7 0 0 0
1 479.646 834.708 1200.98 0 0 0
1 53.341 1466.94 937.648 0 0 0
1 106.921 497.96 815.857 0 0 0
1 0 1468 0.272 0 0 0
1 446.183 1563.15 1127.77 0 0 0
1 373.161 485.811 1297.19 0 0 0
1 523.509 1534.54 80.677 0 0 0
1 320.694 66.884 105.958 0 0 0
1 304.721 2973.49 920.189 0 0 0
1 616.214 2003.59 1686.85 0 0 0
1 1000.78 439.156 102.045 0 0 0
1 358.939 684.532 291.513 0 0 0
1 1116.54 1883.45 1937.3 0 0 0
1 868.628 718.51 108.888 0 0 0
1 3525.59 3199.87 1943.99 0 0 0
1 1052.78 19.598 563.745 0 0 0
1 2797.9 3902.52 2081.54 0 0 0
1 128.183 1115.48 148.607 0 0 0
1 680.107 823.866 724.887 0 0 0
1 233.485 282.019 705.079 0 0 0
1 99.88 742.303 947.286 0 0 0
1 479.701 1918.54 4535.53 0 0 0
1 927.376 767.54 295.629 0 0 0
1 310.687 44.056 1012.54 0 0 0
1 2115.37 1767.38 2106.29 0 0 0
1 210.858 1037.67 830.781 0 0 0
1 3264.99 4249.54 606.366 0 0 0
1 1289.73 191.138 610.204 0 0 0
1 395.741 527.605 657.58 0 0 0
1 239.127 835.251 951.875 0 0 0
1 291.819 148.796 1092.98 0 0 0
1 817.535 888.67 196.331 0 0 0
1 2608.05 682.523 2896.07 0 0 0
1 3075.2 1054.42 1443.15 0 0 0
1 72.504 454.32 914.107 0 0 0
1 184.427 452.451 1373.37 0 0 0
1 422.795 87.332 998.405 0 0 0
1 334.661 113.318 899.088 0 0 0
1 300.566 971.015 644.437 0 0 0
1 465.339 0 1829.6 0 0 0
1 1789.66 1588.69 1880.57 0 0 0
1 0 1077 3274.5 0 0 0
1 2391.73 566.904 3242.22 0 0 0
1 3493.05 314.556 0 0 0 0
1 254.982 11.912 1174.75 0 0 0
1 1528.73 442.462 1813.99 0 0 0
1 1904.84 178.573 292.997 0 0 0
1 1791.25 0 828.25 0 0 0
1 0.002 3078.49 3230.42 0 0 0
1 1110.82 670.617 902.176 0 0 0
1 2631.33 2746.56 3420.56 0 0 0
1 3989.55 4156.88 3673.7 0 0 0
1 1182.18 1056.21 911.873 0 0 0
1 1521.71 1106.32 1123.43 0 0 0
1 1274.53 3144.91 574.621 0 0 0
1 578.865 546.37 36.703 0 0 0
1 4240.88 2476.06 1967.38 0 0 0
1 757.936 2716.5 798.09 0 0 0
1 286.53 1673.28 303.721 0 0 0
1 1141.63 3762.85 4355.06 0 0 0
1 2034.4 2256.73 4144.51 0 0 0
1 211.724 1076.4 2486.79 0 0 0
1 462.615 452.163 596.75 0 0 0
1 978.893 982.425 560.754 0 0 0
1 3165.23 3421.47 3.861 0 0 0
1 3312.21 584.407 3225.5 0 0 0
1 2865.01 564.634 1841.69 0 0 0
1 3026.9 3609.9 3680.89 0 0 0
1 3272.82 1994.89 2392.41 0 0 0
1 0 1603.11 1120.31 0 0 0
2 1871.46 1597.9 1.479 0 0 0
2 4584.38 0.048 3503.13 0 0 0
2 3906.22 2664.08 1.477 0 0 0
2 751.811 3036.48 2633.81 0 0 0
2 2113.75 2446.67 4288.51 0 0 0
2 4999.44 2497.48 4997.99 0 0 0
2 11.604 2781.96 8.258 0 0 0
2 2716.66 0.043 3696 0 0 0
2 1453.73 5000 5000 0 0 0
2 241.48 1719.33 2021.8 0 0 0
2 1.059 4691.06 2661.85 0 0 0
2 1600.65 4998.93 1.596 0 0 0
2 4999.81 3388.77 1.741 0 0 0
2 3.213 129.371 1877.31 0 0 0
2 1.919 4997.84 1.551 0 0 0
2 559.922 131.473 3838.96 0 0 0
2 1480.38 1.839 3.495 0 0 0
2 0.001 1272.55 1578.37 0 0 0
2 1350.99 1091.7 5000 0 0 0
2 3239.27 1353.77 4999.99 0 0 0
2 4999.88 4992.16 7.14 0 0 0
2 1433.07 0.014 460.239 0 0 0
2 8.724 958.177 4.723 0 0 0
2 247.64 4378.68 5000 0 0 0
2 4977.92 3622.41 2691.69 0 0 0
2 2157.5 5000 774.722 0 0 0
2 1531.95 133.605 2516.9 0 0 0
2 451.542 3714.84 0 0 0 0
2 2848.37 3346.87 459.83 0 0 0
2 4054.79 57.682 1872.9 0 0 0
2 1801.82 1789.49 1676.69 0 0 0
2 1812 1629.65 2112.15 0 0 0
2 2556.55 429.771 1206.13 0 0 0
2 191.395 968.056 1803.61 0 0 0
2 1208.74 1893.19 623.713 0 0 0
2 688.259 1147.45 348.586 0 0 0
2 3077.56 3985.43 4730.98 0 0 0
2 875.136 1212.31 372.691 0 0 0
2 0 4455.35 2079.86 0 0 0
2 659.955 586.107 426.031 0 0 0
2 0 2003.05 154.148 0 0 0
2 1678.22 197.795 343.757 0 0 0
2 437.699 1026.51 1095.78 0 0 0
2 143.036 196.881 297.634 0 0 0
2 1067.14 877.148 746.76 0 0 0
2 2473.63 3142.21 2341.82 0 0 0
2 1041.31 461.546 731.377 0 0 0
2 681.74 2087.61 1384.75 0 0 0
2 958.536 657.81 403.055 0 0 0
2 643.292 550.674 1170.31 0 0 0
2 0 746.462 0 0 0 0
2 1114.58 230.93 475.694 0 0 0
2 774.717 146.447 640.185 0 0 0
2 23.573 1453.21 1453.64 0 0 0
2 844.665 280.482 165.145 0 0 0
2 722.488 611.931 849.786 0 0 0
2 834.488 830.919 441.267 0 0 0
2 140.773 357.451 1156.19 0 0 0
2 819.265 665.065 526.809 0 0 0
2 2828.53 4202.25 1715.82 0 0 0
2 370.87 139.29 457.169 0 0 0
2 459.112 569.175 1199.5 0 0 0
2 1089.61 1112.09 132.481 0 0 0
2 1394.41 827.817 300.973 0 0 0
2 0 981.51 1012 0 0 0
2 153.882 1107.38 991.123 0 0 0
2 833.417 400.412 722.956 0 0 0
2 928.641 666.389 1147 0 0 0
2 179.171 1211.19 766.361 0 0 0
2 913.476 364.121 393.938 0 0 0
2 784.705 990.117 539.485 0 0 0
2 573.798 1241.37 219.914 0 0 0
2 129.663 592.136 963.094 0 0 0
2 770.682 460.022 464.6 0 0 0
2 170.302 1174.99 392.962 0 0 0
2 203.167 355.784 348.642 0 0 0
2 1055.57 1943.62 1540.05 0 0 0
2 1280.34 550.225 643.764 0 0 0
2 447.178 1581.02 303.261 0 0 0
2 283.705 206.651 5.206 0 0 0
2 190.109 985.091 62.742 0 0 0
2 1050.9 506.267 233.335 0 0 0
2 322.793 507.678 536.138 0 0 0
2 753.82 460.148 3827.67 0 0 0
2 123.594 1368.28 0 0 0 0
2 324.074 717.828 666.202 0 0 0
2 910.542 235.389 691.008 0 0 0
2 1469.73 260.1 345.532 0 0 0
2 1182.8 432.148 124.501 0 0 0
2 574.577 0 1029.35 0 0 0
2 749.525 804.474 862.473 0 0 0
2 605.765 1229.15 548.146 0 0 0
2 355.971 497.865 789.75 0 0 0
2 292.753 0 750.179 0 0 0
2 796.869 1556.63 730.564 0 0 0
2 705.225 737.078 361.79 0 0 0
2 557.087 950.93 128.661 0 0 0
2 676.509 176.866 1632.71 0 0 0
2 460.128 2569.08 4119.03 0 0 0
2 1095.73 228.819 678.784 0 0 0
2 676.847 425.295 820.442 0 0 0
2 222.054 588.131 733.659 0 0 0
2 1276.17 340.296 257.603 0 0 0
2 1122.51 139.901 318.048 0 0 0
2 1181.42 330.548 1047.6 0 0 0
2 1341.82 1499.84 2638.59 0 0 0
2 116.956 2994.51 1475.9 0 0 0
2 5000 381.639 4638.1 0 0 0
2 98.955 1012.94 1148.3 0 0 0
2 0 33.039 383.425 0 0 0
2 209.151 716.813 213.36 0 0 0
2 1199.31 798.163 16.17 0 0 0
2 0 909.87 538.7 0 0 0
2 940.457 638.651 212.333 0 0 0
2 1030.86 0 283.008 0 0 0
2 452.395 803.663 309.232 0 0 0
2 838.132 497.786 280.568 0 0 0
2 84.995 73.145 1621.07 0 0 0
2 2540.09 2586.28 1770.99 0 0 0
2 727.848 709.149 1010.61 0 0 0
2 0 4305.45 1982.69 0 0 0
2 1310.83 527.828 460.794 0 0 0
2 1019.9 739.887 1314.54 0 0 0
2 421.826 1200.82 359.344 0 0 0
2 760.592 597.756 122.46 0 0 0
2 706.595 964.597 821.676 0 0 0
2 4908.59 1606.51 1858.2 0 0 0
2 420.471 776.388 968.831 0 0 0
2 1134.34 607.802 363.485 0 0 0
2 369.377 682.841 460.413 0 0 0
2 895.135 1210.71 671.61 0 0 0
2 57.316 989.51 843.354 0 0 0
2 108.843 664.117 632.046 0 0 0
2 740.077 20.799 466.886 0 0 0
2 4035.24 3766.93 2755.53 0 0 0
2 592.605 740.304 885.261 0 0 0
2 1643.34 1425.39 936.218 0 0 0
2 444.267 0 352.624 0 0 0
2 1189.93 593.993 177.475 0 0 0
2 996.473 652.073 800.699 0 0 0
2 945.977 74.579 974.823 0 0 0
2 398.592 430.999 83.028 0 0 0
2 4064.58 3255.99 338.118 0 0 0
2 398.692 294.941 1157.06 0 0 0
2 1055.91 3681.69 3170.57 0 0 0
2 823.772 670.156 708.202 0 0 0
2 82.395 1232.93 2650.58 0 0 0
2 443.267 398.665 1545.52 0 0 0
2 3222.02 3494.03 642.878 0 0 0
2 86.263 2627.74 10.267 0 0 0
2 874.006 1508.41 2129.18 0 0 0
2 1116.27 666.573 540.087 0 0 0
2 768.766 785.99 1830.75 0 0 0
2 680.764 546.302 637.756 0 0 0
2 1169.74 503.731 860.662 0 0 0
2 526.746 323.749 802.186 0 0 0
2 997.549 564.485 983.321 0 0 0
2 1312.54 832.343 1197.91 0 0 0
2 302.595 927.844 324.013 0 0 0
2 569.873 122.469 873.476 0 0 0
2 503.059 626.981 339.398 0 0 0
2 195.793 375.161 808.671 0 0 0
2 99.231 547.147 340.724 0 0 0
2 467.039 412.383 442.68 0 0 0
2 4.304 1134.31 2.33 0 0 0
2 1302.02 269.351 429.314 0 0 0
2 456.853 1092.48 826.544 0 0 0
2 307.637 145.074 662.713 0 0 0
2 610.268 1073.27 917.786 0 0 0
2 1223.25 360.573 582.814 0 0 0
2 431.836 649.156 816.637 0 0 0
2 1253.97 106.381 420.735 0 0 0
2 31.625 1083.18 293.225 0 0 0
2 472.587 596.246 1014.96 0 0 0
2 1269.7 1209.86 1608.69 0 0 0
2 152.7 191.902 572.289 0 0 0
2 512.85 102.324 188.476 0 0 0
2 866.259 373.115 905.619 0 0 0
2 2969.62 484.843 176.843 0 0 0
2 891.53 0 1122.45 0 0 0
2 787.724 28.642 237.365 0 0 0
2 40.055 1326.99 1289.15 0 0 0
2 62.642 0 2164.54 0 0 0
2 45.85 438.471 614.271 0 0 0
2 362.89 1120.37 55.304 0 0 0
2 1100.04 330.407 852.004 0 0 0
2 287.817 1035.88 483.206 0 0 0
2 784.19 110.847 890.788 0 0 0
2 1172.86 808.112 372.854 0 0 0
2 649.761 3843.1 2361.26 0 0 0
2 1209.19 1331.05 85.306 0 0 0
2 1265.63 910.614 790.02 0 0 0
2 177.571 2187.13 0 0 0 0
2 74.836 2929.28 68.491 0 0 0
2 367.18 305.444 651.714 0 0 0
2 576.312 434.766 986.367 0 0 0
2 630.504 952.005 640.152 0 0 0
2 722.374 1453.27 539.618 0 0 0
2 703.85 299.712 393.703 0 0 0
2 168.89 53.125 101.446 0 0 0
2 4997.89 1172.26 5000 0 0 0
2 478.287 243.464 963.561 0 0 0
2 546.818 298.92 625.274 0 0 0
2 476.251 629.883 599.116 0 0 0
2 2517.87 2832.92 1940.62 0 0 0
2 351.891 507.06 360.484 0 0 0
2 691.182 1027.86 213.341 0 0 0
2 202.577 372.806 582.976 0 0 0
2 650.459 821.144 503.989 0 0 0
2 528.229 499.331 736.061 0 0 0
2 199.877 723.637 850.263 0 0 0
2 1075.03 880.789 514.787 0 0 0
2 138.096 766.274 431.93 0 0 0
2 613.025 794.025 229.435 0 0 0
2 717.545 249.106 1039.56 0 0 0
2 1392.14 371.042 1865.01 0 0 0
2 0 643.934 232.4 0 0 0
2 560.038 960.151 316.748 0 0 0
2 793.779 512.013 1021.33 0 0 0
2 618.458 285.779 228.346 0 0 0
2 601.988 263.781 1356.32 0 0 0
2 0 424.979 405.443 0 0 0
2 483.75 165.036 710.582 0 0 0
2 1064.55 324.223 301.146 0 0 0
2 1133.88 2780.09 1757.39 0 0 0
2 251.613 279.625 1023.53 0 0 0
2 902.27 494.165 577.876 0 0 0
2 479.657 1052.22 458.34 0 0 0
2 1127.93 1610.99 498.253 0 0 0
2 341.959 694.087 1123.29 0 0 0
2 797.841 970.903 333.017 0 0 0
2 42.222 338.59 18.278 0 0 0
2 294.679 878.575 1088.82 0 0 0
2 303.158 1098.78 733.17 0 0 0
2 1513.79 4620.08 290.435 0 0 0
2 2430.72 3203.02 1576.36 0 0 0
2 635.702 1534.57 410.208 0 0 0
2 765.738 1185.99 158.324 0 0 0
2 852.095 1100.13 918.813 0 0 0
2 947.738 542.072 1312.78 0 0 0
2 334.707 1006.21 939.042 0 0 0
2 570.379 722.618 1112.09 0 0 0
2 1084.78 788.938 184.237 0 0 0
2 395.497 391.696 991.916 0 0 0
2 1009.42 196.394 200.639 0 0 0
2 448.428 1107.06 216.333 0 0 0
2 0 841.38 260.438 0 0 0
2 197.115 427.038 1562.04 0 0 0
2 0 2567.98 513.622 0 0 0
2 944.148 372.425 1192.71 0 0 0
2 294.624 836.823 535.922 0 0 0
2 819.162 315.067 558.267 0 0 0
2 629.319 870.658 1014.21 0 0 0
2 2878.7 1579.26 1536.04 0 0 0
2 183.271 605.464 481.309 0 0 0
2 141.558 0.007 527.312 0 0 0
2 274.744 22.508 350.307 0 0 0
2 974.461 952.354 365.976 0 0 0
2 1329.78 0 114.633 0 0 0
2 1028.17 0 706.056 0 0 0
2 725.564 217.789 1223.73 0 0 0
2 1108.58 66.337 0 0 0 0
2 647.084 757.607 50.234 0 0 0
2 2700.35 5000 3717.01 0 0 0
2 1128.93 2412.78 0 0 0 0
2 817.151 178.087 327.477 0 0 0
2 412.128 303.767 312.117 0 0 0