ITEM: TIMESTEP
0
ITEM: NUMBER OF ATOMS
1000
ITEM: BOX BOUNDS pp pp pp
-1.0000000000000000e+02 4.1000000000000000e+03
-1.0000000000000000e+02 4.1000000000000000e+03
-1.0000000000000000e+02 4.1000000000000000e+03
ITEM: ATOMS type x y z ix iy iz
1 224.258 565.59 136.575 0 0 0
1 618.992 633.11 326.646 0 0 0
1 50.454 792.841 341.826 0 0 0
1 644.7 849.081 950.005 0 0 0
1 32.481 484.521 753.154 0 0 0
1 733.383 21.19 766.974 0 0 0
1 425.386 894.181 601.835 0 0 0
1 729.476 345.745 725.997 0 0 0
1 499.66 785.101 383.864 0 0 0
1 310.114 742.336 534.02 0 0 0
1 191.202 827.842 183.72 0 0 0
1 479.153 710.046 721.408 0 0 0
1 910.92 775.461 774.522 0 0 0
1 544.537 124.195 245.379 0 0 0
1 790.522 295.648 958.372 0 0 0
1 617.714 832.325 1.576 0 0 0
1 383.638 653.253 14.122 0 0 0
1 78.911 354.312 0.203 0 0 0
1 681.072 88.461 432.418 0 0 0
1 301.088 857.648 28.058 0 0 0
1 497.824 334.342 172.703 0 0 0
1 122.485 66.78 513.997 0 0 0
1 757.004 804.649 569.218 0 0 0
1 262.291 965.857 288.489 0 0 0
1 317.164 900.453 658.872 0 0 0
1 19.391 1.908 895.312 0 0 0
1 800.104 614.776 592.687 0 0 0
1 504.755 548.117 153.103 0 0 0
1 584.242 47.086 693.467 0 0 0
1 558.085 762.92 808.77 0 0 0
1 409.357 366.447 604.229 0 0 0
1 577.149 465.643 386.842 0 0 0
1 63.173 413.186 352.44 0 0 0
1 835.338 299.798 253.008 0 0 0
1 1.102 304.982 360.338 0 0 0
1 877.661 177.494 960.527 0 0 0
1 896.192 994.674 369.231 0 0 0
1 772.932 652.24 109.962 0 0 0
1 794.27 234.194 701.247 0 0 0
1 6.828 920.379 608.657 0 0 0
1 374.772 492.525 439.609 0 0 0
1 522.534 446.877 216.954 0 0 0
1 802.496 854.667 260.648 0 0 0
1 450.299 89.349 626.135 0 0 0
1 473.639 402.199 351.004 0 0 0
1 145.754 805.481 848.044 0 0 0
1 126.783 892.644 388.115 0 0 0
1 302.261 499.825 956.091 0 0 0
1 303.643 277.438 674.058 0 0 0
1 793.129 810.292 444.852 0 0 0
1 363.826 353.775 197.476 0 0 0
1 533.126 747.069 605.961 0 0 0
1 738.043 921.362 866.614 0 0 0
1 370.685 768.09 125.719 0 0 0
1 538.531 393.867 478.554 0 0 0
1 571.173 373.164 772.624 0 0 0
1 587.781 302.696 408.651 0 0 0
1 351.93 489.942 756.827 0 0 0
1 212.754 201.158 283.57 0 0 0
1 208.809 310.88 133.031 0 0 0
1 386.08 643.103 825.656 0 0 0
1 777.471 836.738 956.951 0 0 0
1 909.804 347.236 441.175 0 0 0
1 163.201 969.953 10.995 0 0 0
1 408.319 201.852 309.889 0 0 0
1 446.702 4.872 290.026 0 0 0
1 261.534 217.152 923.22 0 0 0
1 753.92 183.49 548.257 0 0 0
1 111.34 294.447 904.431 0 0 0
1 429.929 955.859 941.783 0 0 0
1 488.481 539.664 591.516 0 0 0
1 610.257 166.924 613.708 0 0 0
1 775.537 682.005 707.368 0 0 0
1 737.954 695.642 327.422 0 0 0
1 584.253 923.03 827.32 0 0 0
1 254.156 786.336 652.609 0 0 0
1 972.887 935.103 525.543 0 0 0
1 430.28 834.836 283.085 0 0 0
1 362.229 477.51 241.62 0 0 0
1 697.79 425.947 156.917 0 0 0
1 212.979 176.621 428.147 0 0 0
1 103.943 513.305 267.549 0 0 0
1 390.242 660.165 261.494 0 0 0
1 574.992 632.374 805.894 0 0 0
1 297.866 792.847 324.35 0 0 0
1 153.445 626.399 347.999 0 0 0
1 45.67 968.933 319.109 0 0 0
1 951.243 661.89 280.006 0 0 0
1 65.072 684.942 182.089 0 0 0
1 173.338 454.324 818.507 0 0 0
1 170.861 701.579 726.431 0 0 0
1 934.56 432.83 886.227 0 0 0
1 648.47 894.137 130.692 0 0 0
1 446.872 475.627 73.639 0 0 0
1 485.623 576.446 467.01 0 0 0
1 880.736 794.2 629.067 0 0 0
1 633.42 570.932 175.845 0 0 0
1 11.369 452.98 19.357 0 0 0
1 937.106 829.817 452.71 0 0 0
1 312.551 293.914 345.188 0 0 0
1 2913.73 42.719 27.211 0 0 0
1 2515.55 218.516 579.858 0 0 0
1 2002.26 1821.58 174.44 0 0 0
1 3025.34 104.181 1896.84 0 0 0
1 2770.29 320.773 594.902 0 0 0
1 2388.92 259.044 0 0 0 0
1 2867.16 484.741 232.244 0 0 0
1 2808.82 893.923 301.313 0 0 0
1 2531.18 333.523 382.79 0 0 0
1 2841.97 171.1 78.545 0 0 0
1 2417.55 181.514 452.855 0 0 0
1 2318.85 333.286 499.959 0 0 0
1 2563.52 996.721 235.693 0 0 0
1 3021.29 353.026 955.937 0 0 0
1 2373.1 397.032 343.385 0 0 0
1 2996.87 858.849 608.951 0 0 0
1 2390.26 248.359 325.64 0 0 0
1 2648.42 328.31 170.565 0 0 0
1 2419.49 446.637 703.529 0 0 0
1 2741.12 168.929 719.594 0 0 0
1 2536.22 120.094 670.963 0 0 0
1 2367.52 104.191 637.497 0 0 0
1 2641.16 316.244 309.774 0 0 0
1 2786.53 681.779 451.805 0 0 0
1 2840.1 843.092 640.159 0 0 0
1 2619.89 24.277 809.606 0 0 0
1 2724.91 815.514 396.981 0 0 0
1 2817.18 895.935 800.99 0 0 0
1 3057.9 348.305 744.068 0 0 0
1 2523.89 409.139 818.868 0 0 0
1 3029.98 754.393 549.909 0 0 0
1 2577.67 620.624 67.805 0 0 0
1 2396.88 204.734 1934.64 0 0 0
1 2782.41 273.674 185.824 0 0 0
1 2629.12 176.737 866.471 0 0 0
1 2547.92 833.898 420.281 0 0 0
1 2431.37 830.259 331.212 0 0 0
1 2422.52 878.972 55.417 0 0 0
1 3010.26 157.693 752.877 0 0 0
1 2731.23 292.694 785.396 0 0 0
1 2457.81 577.624 254.789 0 0 0
1 2540.79 284.643 13.878 0 0 0
1 3011.2 803.54 868.611 0 0 0
1 2946.92 456.484 807.507 0 0 0
1 2532.76 454.673 147.353 0 0 0
1 2782.97 754.029 550.374 0 0 0
1 2716.33 177.785 389.991 0 0 0
1 3017.22 630.532 591.496 0 0 0
1 2426.98 36.006 942.737 0 0 0
1 2987.61 285 456.182 0 0 0
1 2544.26 450.712 275.672 0 0 0
1 2815.41 823.238 907.425 0 0 0
1 3010.74 765.521 114.875 0 0 0
1 3000.42 169.285 314.551 0 0 0
1 2477.13 772.148 20.795 0 0 0
1 2976.35 305.887 822.761 0 0 0
1 2784.82 3.841 275.27 0 0 0
1 3052.51 660.208 289.333 0 0 0
1 2347.63 385.091 826.69 0 0 0
1 2710.32 721.199 915.777 0 0 0
1 2365.5 1034.84 242.666 0 0 0
1 2307.45 855.928 348.609 0 0 0
1 2687.51 89.329 972.899 0 0 0
1 2601.64 131.918 146.147 0 0 0
1 2838.79 28.822 576.087 0 0 0
1 2031.91 1989.48 72.407 0 0 0
1 3076.06 1002.94 883.377 0 0 0
1 2882.93 39.785 880.402 0 0 0
1 2397.79 149.131 173.476 0 0 0
1 2712.91 130.137 95.172 0 0 0
1 2578.98 889.757 87.903 0 0 0
1 2503.6 62.089 0 0 0 0
1 2646.87 90.632 711.041 0 0 0
1 2908.38 988.248 33.56 0 0 0
1 2362.28 815.711 532.728 0 0 0
1 2465.65 780.809 740.928 0 0 0
1 2933.74 856.023 140.018 0 0 0
1 2466.89 491.041 953.498 0 0 0
1 2654.23 811.109 500.783 0 0 0
1 2843.45 353.91 774.426 0 0 0
1 2888.03 252.8 725.08 0 0 0
1 2418.41 815.484 944.125 0 0 0
1 2784.41 476.975 894.157 0 0 0
1 2446.31 535.093 92.766 0 0 0
1 2660.17 8.857 368.073 0 0 0
1 2469.17 359.756 491.496 0 0 0
1 3029.58 1004.16 543.302 0 0 0
1 2631.53 314.536 698.603 0 0 0
1 2557.59 732.277 485.659 0 0 0
1 2318.44 725.538 433.606 0 0 0
1 2717.88 439.892 458.356 0 0 0
1 3012.61 165.236 100.073 0 0 0
1 2488.9 209.524 931.33 0 0 0
1 2997.77 547.962 59.975 0 0 0
1 2710.44 889.689 665.005 0 0 0
1 2611.2 134.694 22.477 0 0 0
1 2952.56 120.192 599.178 0 0 0
1 2323.69 622.212 174.877 0 0 0
1 3005.6 483.217 314.947 0 0 0
1 2343.6 697.753 712.705 0 0 0
1 589.04 2767.52 949.473 0 0 0
1 177.349 2106.06 1997.36 0 0 0
1 1015.18 3998.58 1999.54 0 0 0
1 317.611 3937.13 124.504 0 0 0
1 557.776 2803.62 624.499 0 0 0
1 578.077 2897.31 517.048 0 0 0
1 1917.37 2250.72 1884.66 0 0 0
1 830.64 2850.22 483.312 0 0 0
1 380.9 2947.25 600.316 0 0 0
1 268.38 3418.84 1540.53 0 0 0
1 544.244 2947.08 897.432 0 0 0
1 835.909 2419.61 812.14 0 0 0
1 864.999 2858.95 141.518 0 0 0
1 174.72 2523.58 467.568 0 0 0
1 461.682 2335.08 603.395 0 0 0
1 1.815 2967.71 792.423 0 0 0
1 38.591 2568.48 515.273 0 0 0
1 741.136 2694.97 416.266 0 0 0
1 316.82 2543.41 925.573 0 0 0
1 266.929 2715.54 500.434 0 0 0
1 670.563 2786.15 522.419 0 0 0
1 237.851 3002.48 169.236 0 0 0
1 363.006 2714.84 971.268 0 0 0
1 18.165 2864.96 626.198 0 0 0
1 245.842 2824.11 180.1 0 0 0
1 138.087 2532.44 582.693 0 0 0
1 182.502 2385.64 328.102 0 0 0
1 492.661 2678.74 388.291 0 0 0
1 621.583 2750.81 176.04 0 0 0
1 520.202 2427.66 438.1 0 0 0
1 438.808 2913.62 21.85 0 0 0
1 711.36 2884.21 148.299 0 0 0
1 471.452 2778.89 923.129 0 0 0
1 703.727 2728.53 635.136 0 0 0
1 697.474 2514.43 374.949 0 0 0
1 665.813 2964.32 383.292 0 0 0
1 248.403 2906.86 85.961 0 0 0
1 317.961 2342.25 526.602 0 0 0
1 932.033 2773.42 403.363 0 0 0
1 689.632 2464.27 498.692 0 0 0
1 605.591 2681.28 722.102 0 0 0
1 111.856 3610.11 443.237 0 0 0
1 276.291 2925.41 817.095 0 0 0
1 67.474 2864.02 509.772 0 0 0
1 923.731 2517.9 614.075 0 0 0
1 18.386 2678.38 21.835 0 0 0
1 809.955 2883.43 649.583 0 0 0
1 486.007 2710.99 518.905 0 0 0
1 637.576 2637.56 967.858 0 0 0
1 227.154 2682.56 390.969 0 0 0
1 225.494 2496.51 286.164 0 0 0
1 779.903 2296.35 881.429 0 0 0
1 652.363 2527 233.967 0 0 0
1 641.895 2728.6 24.496 0 0 0
1 0.242 2511.96 794.323 0 0 0
1 523.735 2440.05 627.407 0 0 0
1 469.351 2476.8 69.752 0 0 0
1 716.364 2859.14 727.416 0 0 0
1 1011.98 2842.93 81.516 0 0 0
1 396.054 2901.24 942.901 0 0 0
1 150.164 2932.5 814.902 0 0 0
1 255.149 2749.36 842.07 0 0 0
1 734.048 2647.88 58.006 0 0 0
1 358.085 2469.79 551.379 0 0 0
1 215.244 2748.47 695.695 0 0 0
1 748.39 2782.95 5.864 0 0 0
1 869.927 2679.63 316.288 0 0 0
1 680.535 2349.75 958.855 0 0 0
1 859.509 2353.01 712.852 0 0 0
1 370.786 2631.18 320.91 0 0 0
1 0 2462.88 415.989 0 0 0
1 638.87 2938.6 68.038 0 0 0
1 733.034 2624.52 580.685 0 0 0
1 400.875 2475.67 865.345 0 0 0
1 1105.72 2725.7 355.46 0 0 0
1 853.557 2474.07 467.537 0 0 0
1 731.398 2530.99 946.476 0 0 0
1 90.504 2687.94 528.274 0 0 0
1 576.881 2859.51 385.311 0 0 0
1 637.745 2750.82 305.771 0 0 0
1 887.757 2564.11 255.127 0 0 0
1 887.531 2573.62 997.09 0 0 0
1 861.672 2941.39 24.984 0 0 0
1 529.616 2451.9 846.647 0 0 0
1 714.728 2911.19 494.602 0 0 0
1 91.491 2827.66 859.645 0 0 0
1 934.906 2380.41 935.165 0 0 0
1 304.55 2647.06 592.845 0 0 0
1 682.581 2429.24 623.404 0 0 0
1 758.632 3017.92 215.355 0 0 0
1 754.414 2432.41 239.032 0 0 0
1 6.508 2653.01 764.769 0 0 0
1 42.964 2818.48 339.382 0 0 0
1 445.562 2828.48 138.712 0 0 0
1 403.507 2377.2 89.539 0 0 0
1 869.706 3008.92 688.215 0 0 0
1 476.803 2564.87 215.136 0 0 0
1 780.413 2525.05 833.56 0 0 0
1 425.424 2324.33 466.819 0 0 0
1 798.905 2721.48 827.48 0 0 0
1 157.485 366.197 2044.3 0 0 0
1 13.157 112.187 3786.53 0 0 0
1 797.771 330.357 2505.88 0 0 0
1 150.019 942.195 2665.28 0 0 0
1 312.338 309.12 2556.79 0 0 0
1 119.048 69.806 2383.45 0 0 0
1 208.891 1067.06 2619.66 0 0 0
1 508.819 696.061 2599.3 0 0 0
1 460.148 319.016 2773.33 0 0 0
1 583.798 815.565 2531.36 0 0 0
1 568.84 837.085 2888.26 0 0 0
1 394.037 753.435 2803.63 0 0 0
1 217.028 257.589 2980.25 0 0 0
1 510.423 522.092 2854.07 0 0 0
1 299.832 88.277 2638.77 0 0 0
1 865.677 18.026 2665.06 0 0 0
1 683.651 791.796 2720.02 0 0 0
1 22.682 1017.69 2707.31 0 0 0
1 376.513 457.096 2547.08 0 0 0
1 941.007 275.532 2638.36 0 0 0
1 876.51 124.946 2893.34 0 0 0
1 640.699 880.54 2994.41 0 0 0
1 140.959 804.414 2946.39 0 0 0
1 237.319 977.054 2892.44 0 0 0
1 632.389 561.477 2882.84 0 0 0
1 848.861 658.411 2452.51 0 0 0
1 330.358 892.929 2525.84 0 0 0
1 894.545 253.238 2511.07 0 0 0
1 169.924 134.788 2471.95 0 0 0
1 800.41 733.198 2626.61 0 0 0
1 249.531 105.328 2751.23 0 0 0
1 233.828 819.347 2454.4 0 0 0
1 107.223 306.625 2719.62 0 0 0
1 133.183 292.724 2491.88 0 0 0
1 392.459 477.829 2973.78 0 0 0
1 282.345 754.394 2733.12 0 0 0
1 252.968 352.824 2444.96 0 0 0
1 96.829 894.244 2823.26 0 0 0
1 351.569 160.753 2391.26 0 0 0
1 61.309 612.875 2652.77 0 0 0
1 432.597 835.502 2557.07 0 0 0
1 688.454 223.417 2703.16 0 0 0
1 46.006 728.931 2789.58 0 0 0
1 493.271 873.16 2343.28 0 0 0
1 114.542 756.715 2477.67 0 0 0
1 21.786 1.508 2360.57 0 0 0
1 890.255 169.679 2775.21 0 0 0
1 141.91 566.951 2764.64 0 0 0
1 798.286 176.462 2413.77 0 0 0
1 924.626 94.974 2444.1 0 0 0
1 793.942 378.922 2731.94 0 0 0
1 607.254 266.142 2346.81 0 0 0
1 323.628 845.084 2323.69 0 0 0
1 885.913 829.78 2452.35 0 0 0
1 15.132 837.202 2519.69 0 0 0
1 560.914 935.143 2470.67 0 0 0
1 423.931 153.976 2673.65 0 0 0
1 972.457 911.642 2706.6 0 0 0
1 52.58 367.431 2991.57 0 0 0
1 211.304 495.216 2480.89 0 0 0
1 205.719 210.449 2590.9 0 0 0
1 963.909 623.705 2605.24 0 0 0
1 851.261 485.424 2461.14 0 0 0
1 173.491 15.326 2580.92 0 0 0
1 488.63 538.75 2322.86 0 0 0
1 505.354 746.25 2354.67 0 0 0
1 88.72 158.024 2667.49 0 0 0
1 889.17 506.444 2798.64 0 0 0
1 955.84 368.098 2479.61 0 0 0
1 1978.46 1963 2000 0 0 0
1 873.072 528.655 2991.94 0 0 0
1 288.287 546.701 2651.86 0 0 0
1 969.96 293.431 2867.36 0 0 0
1 603.82 627.854 2405.87 0 0 0
1 89.174 244.643 2346.35 0 0 0
1 14.674 956.726 2488.25 0 0 0
1 665.317 361.074 2464.06 0 0 0
1 23.647 210.531 2782.13 0 0 0
1 500.891 161.773 2866.04 0 0 0
1 745.076 591.862 2650.29 0 0 0
1 920.373 275.844 2392.75 0 0 0
1 223.737 358.081 2642.82 0 0 0
1 761.949 516.896 2385.8 0 0 0
1 334.905 582.27 2544.99 0 0 0
1 265.273 666.102 2834.18 0 0 0
1 179.05 728.771 2581.43 0 0 0
1 385.656 523.381 2724.6 0 0 0
1 575.782 588.689 2612.99 0 0 0
1 13.639 41.607 2934.89 0 0 0
1 834.883 911.521 2548.7 0 0 0
1 509.523 427.387 2538.83 0 0 0
1 89.199 648.823 2427.78 0 0 0
1 403.853 269.17 2958.27 0 0 0
1 387.822 177.288 2788.48 0 0 0
1 876.303 333.867 2941.26 0 0 0
1 371.331 0 2594.34 0 0 0
1 633.321 166.143 2946.36 0 0 0
1 695.283 8.972 2882.09 0 0 0
1 312.584 919.02 2660.72 0 0 0
1 804.849 652.6 2992.19 0 0 0
1 2904.05 3003.55 476.349 0 0 0
1 2745.17 3571.44 152.211 0 0 0
1 3047.31 2795.62 638.757 0 0 0
1 2975.62 2837.37 218.76 0 0 0
1 2884.6 3140.97 223.392 0 0 0
1 2554.84 2596.68 670.025 0 0 0
1 2754.26 3108.19 5.782 0 0 0
1 2441.07 2752.2 177.416 0 0 0
1 2892.03 2545.82 685.122 0 0 0
1 2843.18 2519.62 541.778 0 0 0
1 2480.67 2943.51 546.354 0 0 0
1 2593.77 2708.83 340.609 0 0 0
1 2686.52 2685.08 633.168 0 0 0
1 2348.47 2573.47 828.667 0 0 0
1 2567.54 2882.32 413.472 0 0 0
1 3095.41 2896.4 244.896 0 0 0
1 2571.14 2947.69 943.179 0 0 0
1 2434.41 2873.52 444.15 0 0 0
1 2372.16 2694 388.167 0 0 0
1 2894.86 3074.53 583.243 0 0 0
1 2727.06 2955.03 536.436 0 0 0
1 3106.77 2879.98 518.575 0 0 0
1 2735.1 2433.25 588.231 0 0 0
1 2336.44 2437.95 120.377 0 0 0
1 2427.52 3121.72 881.225 0 0 0
1 2970.66 2616.97 408.161 0 0 0
1 2536.09 2920.21 820.446 0 0 0
1 3077.78 2752.64 145.811 0 0 0
1 2738.57 2483.67 781.627 0 0 0
1 3094.14 3102.23 969.408 0 0 0
1 2796.32 2776.19 407.184 0 0 0
1 2605.52 2835.67 700.001 0 0 0
1 2731.1 2806.78 265.125 0 0 0
1 2668.68 2949.8 402.711 0 0 0
1 3152.54 2433.49 141.024 0 0 0
1 3020.47 2998.23 587.647 0 0 0
1 2538.64 2368.09 356.712 0 0 0
1 2570.44 2596.2 413.545 0 0 0
1 2498.47 2509.65 841.649 0 0 0
1 2704.43 3065.5 397.43 0 0 0
1 3054.54 2828.71 385.381 0 0 0
1 2618.72 2497.59 791.402 0 0 0
1 3098.2 2582.62 253.722 0 0 0
1 2555.24 2642.61 167.679 0 0 0
1 2426.27 2577.74 162.508 0 0 0
1 2932.04 2951.66 240.331 0 0 0
1 2431.36 2268.3 478.097 0 0 0
1 2542.9 3022.71 54.577 0 0 0
1 2124.36 2253.77 211.129 0 0 0
1 2483.5 2487.56 44.106 0 0 0
1 2601.42 3015.65 187.208 0 0 0
1 2599.89 2756.32 568.779 0 0 0
1 2751.04 2577.14 629.883 0 0 0
1 2452.96 2643.18 877.72 0 0 0
1 3082.78 2479.74 405.246 0 0 0
1 2552.86 3098.3 523.334 0 0 0
1 2499.28 2474.52 501.989 0 0 0
1 2960.3 2709.97 732.346 0 0 0
1 3913.99 3947.64 1954.31 0 0 0
1 2760.31 2796.28 544.481 0 0 0
1 3080.82 2410.73 553.021 0 0 0
1 2691.33 2714.64 412.59 0 0 0
1 2766.06 2902.55 348.62 0 0 0
1 2398.08 2988.82 955.005 0 0 0
1 2889.45 2693.48 919.934 0 0 0
1 2989.06 2931.61 412.074 0 0 0
1 2458.07 3009.29 311.59 0 0 0
1 2582.28 2867.23 270.903 0 0 0
1 2453.26 2534.82 647.674 0 0 0
1 2672.79 2447 313.574 0 0 0
1 2405.1 2777.84 545.621 0 0 0
1 3029.09 3125.09 242.592 0 0 0
1 3012.02 3115.95 107.674 0 0 0
1 3010.15 2520.3 123.18 0 0 0
1 2724.32 3090.28 183.585 0 0 0
1 3076.97 3099.62 831.266 0 0 0
1 3124.16 2915.8 858.72 0 0 0
1 2524.49 2704.38 790.797 0 0 0
1 2957.91 2396.9 163.047 0 0 0
1 2999.85 2971.72 956.075 0 0 0
1 3145.16 3037.74 279.715 0 0 0
1 2416.27 3083.53 150.504 0 0 0
1 2403.51 3022.28 491.74 0 0 0
1 3059.26 2575.85 877.137 0 0 0
1 2591.16 2422.09 963.133 0 0 0
1 2740.87 2813.06 662.916 0 0 0
1 2905.68 2861.75 356.065 0 0 0
1 2575.16 2549.93 301.821 0 0 0
1 2564.28 2643.86 541.83 0 0 0
1 2914.1 2818.03 505.516 0 0 0
1 2785.74 2622.64 40.558 0 0 0
1 2753.49 2585.58 482.53 0 0 0
1 3047.89 2727.33 0 0 0 0
1 3168.4 2787.96 574.551 0 0 0
1 2624.92 3139.88 886.679 0 0 0
1 2929.28 2761.77 64.13 0 0 0
1 2913.51 2399.15 670.926 0 0 0
1 2422.97 2599.48 475.172 0 0 0
1 2421.75 2815.72 914.93 0 0 0
1 2859.21 2593.23 842.876 0 0 0
1 2305.86 163.224 2466.94 0 0 0
1 2068.28 1083.89 2083.3 0 0 0
1 3765.35 412.919 3971.99 0 0 0
1 2774.74 661.268 2343.93 0 0 0
1 2385.26 256.51 2324.41 0 0 0
1 2586.89 472.984 2747.24 0 0 0
1 2647.28 356.635 2721.48 0 0 0
1 2330.6 388.098 2830.19 0 0 0
1 2430.45 726.121 2784.52 0 0 0
1 2560.18 876.503 2979.42 0 0 0
1 2632.97 652.955 2409.09 0 0 0
1 2541.85 385.303 2834.24 0 0 0
1 2273.5 376.576 2427.29 0 0 0
1 2677.79 0.279 2678.17 0 0 0
1 2546.68 553.003 2509.58 0 0 0
1 2334.24 541.413 2838.76 0 0 0
1 2474.82 492.15 2611.91 0 0 0
1 2320.89 8.615 2642.78 0 0 0
1 2824.5 687.928 2908.97 0 0 0
1 2698.36 234.108 2466.68 0 0 0
1 2495.74 826.484 2823.67 0 0 0
1 2514.12 722.007 2549.93 0 0 0
1 2449.04 2.556 2453.46 0 0 0
1 2280.42 271.285 2857.55 0 0 0
1 3991.21 618.548 3972.8 0 0 0
1 2645.17 1058.76 2760.96 0 0 0
1 2471.9 531.475 2729.36 0 0 0
1 2388.89 894.193 2416.5 0 0 0
1 2302.94 674.898 2876.77 0 0 0
1 2766.51 583.389 2719.27 0 0 0
1 2648.3 892.631 2750.82 0 0 0
1 2562.04 583.495 2339.57 0 0 0
1 2601.39 618.21 2629.46 0 0 0
1 2427.6 817.117 2555.71 0 0 0
1 2507.06 683.714 2288.19 0 0 0
1 2350.6 421.641 2675.49 0 0 0
1 2752.37 580.762 2874.22 0 0 0
1 2392.36 313.721 2482.53 0 0 0
1 2682.4 693.771 2723.2 0 0 0
1 2448.33 450.485 2358.15 0 0 0
1 2547.36 838.36 2547.65 0 0 0
1 2648.05 788.822 2502.27 0 0 0
1 2713.88 0.121 2540.67 0 0 0
1 2454.87 602.233 2831.83 0 0 0
1 2302.89 269.623 2648.29 0 0 0
1 2799.14 59.005 2729.33 0 0 0
1 2766.59 127.669 2562.72 0 0 0
1 2334.97 576.459 2603.3 0 0 0
1 2422.09 969.077 2617.26 0 0 0
1 2630.29 464.091 2382.06 0 0 0
1 2742.95 912.774 2331.63 0 0 0
1 2704.8 319.092 2841.49 0 0 0
1 2485.92 364.006 2719.51 0 0 0
1 2426.77 18.686 2762.94 0 0 0
1 2500.24 403.999 2477.65 0 0 0
1 2433.88 376.63 2591.47 0 0 0
1 2795.28 412.367 2556.57 0 0 0
1 2726.48 429.545 2285.05 0 0 0
1 2721.54 792.129 2303.85 0 0 0
1 2308.45 842.015 2525.73 0 0 0
1 2441.65 158.63 2370.03 0 0 0
1 2579.11 303.872 2273.84 0 0 0
1 2352.6 145.718 2757.73 0 0 0
1 2692.77 63.202 2268.51 0 0 0
1 2613.2 975.247 2360.11 0 0 0
1 2663.89 340.881 2421.37 0 0 0
1 2810.5 453.73 2888.64 0 0 0
1 2734.34 882.857 2537.63 0 0 0
1 2694.5 194.386 2639.99 0 0 0
1 2861.42 159.375 2439.62 0 0 0
1 2783.55 219.99 2355.26 0 0 0
1 2487.4 157.253 2609.2 0 0 0
1 2876.62 509.53 2640.64 0 0 0
1 2782.56 50.881 2890.84 0 0 0
1 2886.6 173.398 2798.31 0 0 0
1 2791.79 884.952 2880.35 0 0 0
1 2620.26 97.581 2517.43 0 0 0
1 2826.04 714.609 2641.9 0 0 0
1 2758.51 270.311 2726.09 0 0 0
1 2471.31 921.905 2737.4 0 0 0
1 2644.01 108.592 2818.68 0 0 0
1 2581.73 229.638 2577.92 0 0 0
1 2460.57 713.312 2435.86 0 0 0
1 2624.63 512.949 2897.33 0 0 0
1 2573.08 181.641 2405.55 0 0 0
1 2805.31 537.911 2528.94 0 0 0
1 2856.68 704.772 2483.55 0 0 0
1 2471.1 591.666 2422.71 0 0 0
1 2497.29 298.359 2418.7 0 0 0
1 2332.78 779.908 2303.26 0 0 0
1 2902.04 266.191 2479.54 0 0 0
1 2396.38 205.809 2870.4 0 0 0
1 2213.54 952.581 2885.64 0 0 0
1 2644.78 749.248 2844.66 0 0 0
1 2720.38 512.901 2446.47 0 0 0
1 2980.96 617.992 2741.96 0 0 0
1 2756.44 297.768 2557.36 0 0 0
1 2359.05 843.175 2768.6 0 0 0
1 2079.3 155.123 2085.15 0 0 0
1 2556.51 98.412 2735.71 0 0 0
1 1061.92 2761.19 2549.56 0 0 0
1 1355.36 2060.65 2110.98 0 0 0
1 993.495 3408.2 2665.93 0 0 0
1 8.89 3989.06 2089.14 0 0 0
1 151.26 3726.35 2088.44 0 0 0
1 242.43 2356.54 2425.27 0 0 0
1 1939.1 3745.09 3351.58 0 0 0
1 507.875 3375.05 2001.33 0 0 0
1 0.71 2882.83 2000.25 0 0 0
1 1009.08 2874.59 2772.12 0 0 0
1 30.672 2959.57 2469.38 0 0 0
1 789.158 2796.59 2696.19 0 0 0
1 893.872 2910.03 2760.74 0 0 0
1 520.272 2323.96 2590.34 0 0 0
1 33.604 2785.62 2354.85 0 0 0
1 564.501 2657.65 2773.19 0 0 0
1 365.256 2346.56 3440.07 0 0 0
1 701.402 2659.46 2287.56 0 0 0
1 271.262 2819.2 2785.14 0 0 0
1 363.365 2864.47 2991.68 0 0 0
1 635.593 2627.61 2869.92 0 0 0
1 899.6 2975.99 2644.85 0 0 0
1 964.934 2683.27 2868.72 0 0 0
1 1922.17 3499.62 3848.34 0 0 0
1 443.54 2578.74 2765.39 0 0 0
1 326.687 2470.1 2280.7 0 0 0
1 457.935 2349.14 2373.12 0 0 0
1 543.91 2791.21 2946.09 0 0 0
1 983.748 2331.02 2632.81 0 0 0
1 342.601 2912.28 2572.91 0 0 0
1 5.601 2932.18 2891.22 0 0 0
1 615.562 2259.64 2725.85 0 0 0
1 999.849 2484.78 2620.22 0 0 0
1 338.218 2494.79 2894.24 0 0 0
1 0.219 2877.1 3138.79 0 0 0
1 343.459 3001.22 2412.96 0 0 0
1 827.695 2488.4 2306.09 0 0 0
1 249.177 2826.77 2318.2 0 0 0
1 1018.82 2282.96 2829.94 0 0 0
1 861.31 2706.72 2623.25 0 0 0
1 346.935 2003.92 2094.11 0 0 0
1 130.593 3518.05 2000.3 0 0 0
1 788.534 2505.59 2001.11 0 0 0
1 761.197 2434.66 2472.94 0 0 0
1 840.113 2437.28 2624.33 0 0 0
1 113.942 2864.66 2848.91 0 0 0
1 379.513 3247.26 2413.91 0 0 0
1 532.531 2662.22 2554.62 0 0 0
1 639.055 2000.38 2118.18 0 0 0
1 565.945 2193.51 2507.75 0 0 0
1 512.927 2936.93 2502.25 0 0 0
1 178.671 2488.72 2727.29 0 0 0
1 640.731 2689.03 2470.83 0 0 0
1 1.969 2299.87 3175.66 0 0 0
1 102.081 2442.12 2954.51 0 0 0
1 1819.03 2056.87 3976.13 0 0 0
1 875.733 2890.36 2880.16 0 0 0
1 16.638 2638.52 3016.88 0 0 0
1 1999.9 3996.54 2001.43 0 0 0
1 236.859 2830.74 2464.05 0 0 0
1 327.24 2945.46 2832.02 0 0 0
1 688.017 2270.79 2554.95 0 0 0
1 558.901 2870.21 2638.72 0 0 0
1 757.332 2546.09 2576.28 0 0 0
1 910.619 3083.45 3070.09 0 0 0
1 691.2 2820.14 2856.17 0 0 0
1 135.723 2341.39 2547.38 0 0 0
1 324.187 2772.58 2883.66 0 0 0
1 146.135 2762.85 2276.18 0 0 0
1 235.926 2828.99 2646.18 0 0 0
1 967.875 2415.96 2941.49 0 0 0
1 667.661 2132.57 2784.72 0 0 0
1 5.14 2806.85 2471.83 0 0 0
1 343.431 2402.75 2635.58 0 0 0
1 1917.29 2037 2261.85 0 0 0
1 335.952 2659.81 2838.47 0 0 0
1 459.761 2407.1 2506.65 0 0 0
1 1996.28 2216.69 3998.66 0 0 0
1 417.932 2728.16 2348.18 0 0 0
1 570.152 2593.12 2670.97 0 0 0
1 458.154 2883.97 2776.5 0 0 0
1 574.691 2802.4 2323.49 0 0 0
1 1203.06 2001.33 3999.48 0 0 0
1 587.651 3205.88 2637.19 0 0 0
1 996.563 2499.72 2826.54 0 0 0
1 216.164 2473.05 2453.81 0 0 0
1 222.871 2504.02 2601 0 0 0
1 572.408 2397.31 2325.61 0 0 0
1 13.211 2723.34 2618.72 0 0 0
1 947.298 2676.55 2483.31 0 0 0
1 125.554 2205.11 2555.28 0 0 0
1 147.189 2547.09 2885.3 0 0 0
1 497.26 2503 2904.8 0 0 0
1 729.689 2419.32 2872.67 0 0 0
1 2.473 3350.22 2002.51 0 0 0
1 570.104 2484.57 2571.69 0 0 0
1 0.006 2847.28 2643.32 0 0 0
1 2.24 2002.76 3996.82 0 0 0
1 958.984 2566.75 2923.45 0 0 0
1 894.917 2544.5 2640.7 0 0 0
1 2503.44 2851.76 2624.09 0 0 0
1 2780.63 2383.86 2434.12 0 0 0
1 2558.62 2278.61 2827.52 0 0 0
1 2530.96 2706.16 2748.14 0 0 0
1 2775.68 2637.68 2621.45 0 0 0
1 2351.42 2800.24 2439.57 0 0 0
1 2791.64 2364.31 2769.59 0 0 0
1 2838.29 2498.78 2563.76 0 0 0
1 2579.61 2585.7 2509.03 0 0 0
1 2906.23 2661.45 2611.7 0 0 0
1 2639.08 2829.11 2510.39 0 0 0
1 2404.84 2359.9 2753.43 0 0 0
1 2738.87 2258.53 2743.5 0 0 0
1 2649.72 2705.1 2531.47 0 0 0
1 2873.66 2555.99 2857.85 0 0 0
1 2521.29 2383.74 2727.96 0 0 0
1 2824.24 2662.54 2816.03 0 0 0
1 2437.95 2776.42 2294.57 0 0 0
1 2806.26 2837.2 2630.7 0 0 0
1 2781.3 2781.97 2772.54 0 0 0
1 2596.72 2792.84 2916.32 0 0 0
1 2375.67 2524.97 2441.32 0 0 0
1 2603.59 2633.6 2617.62 0 0 0
1 2294.61 2433.44 2867.82 0 0 0
1 2494.84 2285.49 2403.28 0 0 0
1 2476.62 2321.41 2907.07 0 0 0
1 2423.1 2521.5 2903.36 0 0 0
1 2709.33 2684.44 2783.29 0 0 0
1 2764.28 2333.54 2324.79 0 0 0
1 2329.02 2684.87 2299.26 0 0 0
1 2525.91 2523.86 2408.11 0 0 0
1 2537.03 2506.26 2282.98 0 0 0
1 2562.64 2464.5 2506.97 0 0 0
1 2667.91 2637.63 2431.95 0 0 0
1 2962.21 2746.63 2770.27 0 0 0
1 2878.26 2852.91 2757.98 0 0 0
1 2782.11 2277.26 2512.74 0 0 0
1 2305.87 2748.99 2722.11 0 0 0
1 2520.58 2667.18 2405.39 0 0 0
1 2397.16 2800.63 2575.25 0 0 0
1 2700.86 2560.79 2763.84 0 0 0
1 2396.22 2671.26 2407.64 0 0 0
1 2328.83 2586.51 2548.47 0 0 0
1 2889.22 2576 2391.33 0 0 0
1 2633.4 2428.19 2751.59 0 0 0
1 2521.79 2642.15 2277.46 0 0 0
1 2664.53 2813.98 2764.36 0 0 0
1 2308.74 2292.42 2807.12 0 0 0
1 2677.41 2359.04 2652.96 0 0 0
1 2887.39 2441.04 2752.67 0 0 0
1 2560.72 2807.95 2420.64 0 0 0
1 2323.99 2564.85 2829.51 0 0 0
1 2328.51 2462.61 2755.38 0 0 0
1 2652.98 2550.45 2323.39 0 0 0
1 2284.4 2682.53 2452.5 0 0 0
1 2609.03 2496.35 2653.07 0 0 0
1 2774.32 2505.41 2392.61 0 0 0
1 2744.53 2911.08 2749.14 0 0 0
1 2894.28 2809.7 2501.65 0 0 0
1 2323.22 2482.9 2635.56 0 0 0
1 2878.86 2288.22 2600.97 0 0 0
1 2550.09 2381.19 2608.09 0 0 0
1 2451.92 2609.83 2809.55 0 0 0
1 2584.79 2378.95 2423.46 0 0 0
1 2444.15 2892.08 2501.99 0 0 0
1 2662.91 2405.53 2541.37 0 0 0
1 2306.8 2442.96 2497.79 0 0 0
1 2382.76 2310.9 2441.16 0 0 0
1 2431.42 2435.26 2662.17 0 0 0
1 2472.26 2777.06 2831.41 0 0 0
1 2912.18 2548.07 2663.19 0 0 0
1 2824.75 2545.09 2747.5 0 0 0
1 2462.08 2760.86 2477.72 0 0 0
1 2696.53 2577.25 2545.31 0 0 0
1 2888.24 2293.54 2787.13 0 0 0
1 2707.46 2376.87 2881.56 0 0 0
1 2457.39 2501.14 2555.96 0 0 0
1 2809.83 2388.86 2641.52 0 0 0
1 2767.01 2754.14 2510.41 0 0 0
1 2853.66 2608.18 2514.39 0 0 0
1 2801.19 2454.19 2286.32 0 0 0
1 2547.61 2880.1 2847 0 0 0
1 2367.14 2841.13 2854.07 0 0 0
1 2438.7 2577.71 2343.7 0 0 0
1 2464.85 2479.7 2775.89 0 0 0
1 2518.23 2429.56 2872.22 0 0 0
1 2531.14 2359 2304.94 0 0 0
1 2632.29 2431.09 2318.31 0 0 0
1 2453.54 2431.97 2442.15 0 0 0
1 2421.76 2783.68 2718.47 0 0 0
1 2748.63 2497.78 2856.59 0 0 0
1 2496.7 2538.78 2668.32 0 0 0
1 2724.22 2471.84 2681.81 0 0 0
1 2607.07 2510.03 2889.4 0 0 0
1 2580.55 2637.3 2869.4 0 0 0
1 2266.65 2518.39 2387.34 0 0 0
1 2654.01 2504.83 2435.74 0 0 0
1 2447.77 2345.35 2554.33 0 0 0
1 2559.37 2555.31 2775.69 0 0 0
1 2301.55 2832.7 2334.21 0 0 0
2 557.24 524.363 740.071 0 0 0
2 914.878 145.595 79.685 0 0 0
2 744.473 561.586 778.729 0 0 0
2 188.784 569.128 861.793 0 0 0
2 592.866 773.147 236.304 0 0 0
2 699.409 200.959 820.327 0 0 0
2 913.946 177.209 336.931 0 0 0
2 316.527 262.672 515.131 0 0 0
2 346.557 564.347 122.627 0 0 0
2 466.894 694.733 122.804 0 0 0
2 232.395 915.821 771.592 0 0 0
2 387.305 798.079 826.744 0 0 0
2 196.173 126.73 147.998 0 0 0
2 648.711 366.237 39.513 0 0 0
2 819.179 485.885 102.697 0 0 0
2 23.861 515.897 443.88 0 0 0
2 546.96 965.404 327.457 0 0 0
2 668.062 345.396 609.288 0 0 0
2 137.319 730.765 272.045 0 0 0
2 655.001 630.164 572.147 0 0 0
2 694.769 951.463 465.488 0 0 0
2 246.9 444.212 127.623 0 0 0
2 663.56 935.972 278.927 0 0 0
2 354.649 1022.52 425.172 0 0 0
2 814.524 908.461 534.478 0 0 0
2 2958.24 429.741 524.878 0 0 0
2 2923.75 461.9 679.127 0 0 0
2 2735.62 497.921 139.868 0 0 0
2 2400.24 925.526 169.463 0 0 0
2 2822.08 39.346 114.402 0 0 0
2 2614.62 806.402 895.234 0 0 0
2 2604.89 76.87 575.56 0 0 0
2 2434.92 153.219 798.666 0 0 0
2 2959.07 726.062 746.084 0 0 0
2 2524.2 233.557 245.848 0 0 0
2 2599.06 509.656 774.503 0 0 0
2 3101.53 482.863 555.623 0 0 0
2 2760.85 594.945 277.56 0 0 0
2 2560.1 792.969 203.456 0 0 0
2 2563.06 41.097 918.38 0 0 0
2 2951.05 241.176 183.049 0 0 0
2 2606.17 235.529 446.302 0 0 0
2 2858.76 87.314 741.458 0 0 0
2 2755.21 767.438 191.688 0 0 0
2 3036.64 110.792 878.516 0 0 0
2 2501.34 86.831 327.688 0 0 0
2 2911.83 644.045 417.523 0 0 0
2 2893.5 977.655 895.504 0 0 0
2 2769.74 204.858 284.818 0 0 0
2 2880.95 585.864 67.473 0 0 0
2 0.021 2282.45 1998.45 0 0 0
2 1064.64 2318.7 146.619 0 0 0
2 17.395 3105.53 1685.21 0 0 0
2 746.66 2778.34 200.677 0 0 0
2 603.135 2585.13 498.723 0 0 0
2 495.93 2337.7 238.983 0 0 0
2 90.687 2449.47 180.351 0 0 0
2 832.314 2528.56 137.957 0 0 0
2 93.748 2662.91 139.163 0 0 0
2 193.234 2826.27 447.165 0 0 0
2 161.8 2621.37 305.53 0 0 0
2 487.324 2548.26 475.429 0 0 0
2 308.26 2828.09 283.685 0 0 0
2 285.723 2363.7 214.789 0 0 0
2 921.87 2789.28 744.198 0 0 0
2 228.958 2490.26 73.903 0 0 0
2 209.279 2565.59 693.68 0 0 0
2 596.082 2237.49 518.994 0 0 0
2 622.475 2356.77 339.831 0 0 0
2 834.271 2580.5 385.958 0 0 0
2 157.795 2405.3 530.932 0 0 0
2 75.417 2678.8 648.001 0 0 0
2 0 2618.03 298.504 0 0 0
2 620.98 2347.78 176.053 0 0 0
2 356.927 2586.14 200.281 0 0 0
2 196.595 698.23 2315.22 0 0 0
2 1997.29 3.144 3972.67 0 0 0
2 711.891 720.671 2851.51 0 0 0
2 1032.31 603.743 2506.94 0 0 0
2 239.524 290.03 2775.11 0 0 0
2 603.746 83.614 2455.74 0 0 0
2 62.022 769.409 2675.72 0 0 0
2 5.268 72.724 2557 0 0 0
2 954.766 774.511 2364.34 0 0 0
2 150.966 935.915 2458.49 0 0 0
2 957.83 949.041 2561.47 0 0 0
2 976.552 596.821 2326.49 0 0 0
2 681.257 309.244 2592.28 0 0 0
2 875.657 823.216 2875.19 0 0 0
2 531.798 86.742 2741.71 0 0 0
2 697.072 186.058 2526.05 0 0 0
2 881.888 535.422 2590.32 0 0 0
2 669.716 705.695 2614.45 0 0 0
2 441.879 143.436 2495.74 0 0 0
2 520.122 783.206 2697.78 0 0 0
2 426.537 261.181 2583.1 0 0 0
2 20.475 484.752 2464.6 0 0 0
2 417.611 51.632 2323.29 0 0 0
2 1092.99 945.869 2585.82 0 0 0
2 128.077 496.634 2653.74 0 0 0
2 2853.43 2363.4 484.327 0 0 0
2 3170.88 2239.41 525.683 0 0 0
2 2504.28 3979.64 22.571 0 0 0
2 2483.75 2803.49 734.552 0 0 0
2 2441.16 2642.54 263.639 0 0 0
2 2316.53 2451.53 1127.02 0 0 0
2 3392.89 2483.82 0 0 0 0
2 2293.19 2588.85 186.075 0 0 0
2 3569.42 2000 377.441 0 0 0
2 2762.83 2722.86 765.941 0 0 0
2 2264.92 2427.82 608.637 0 0 0
2 2407.95 2481.37 390.967 0 0 0
2 2707.94 2853.82 0 0 0 0
2 3217.65 2656.89 972.794 0 0 0
2 2558.47 2732.82 457.541 0 0 0
2 2000.01 3946.92 8.031 0 0 0
2 4000 4000 986.565 0 0 0
2 2666.72 2287.06 240.852 0 0 0
2 2019.8 2649.11 425.973 0 0 0
2 2832.47 2427.18 218.54 0 0 0
2 2028.01 2595.02 1799.67 0 0 0
2 2014.58 3107.44 13.223 0 0 0
2 2845.98 2831.5 1643.53 0 0 0
2 2420.45 2647.39 701.131 0 0 0
2 2722.95 2632.2 195.406 0 0 0
2 2727.98 987.009 2917.03 0 0 0
2 2524.59 801.93 2384.01 0 0 0
2 2555.41 997.802 2852.08 0 0 0
2 2968.75 628.748 2955.63 0 0 0
2 2545.82 478.154 3024.2 0 0 0
2 2539.76 601.654 2985.29 0 0 0
2 2753.73 65.94 2445.97 0 0 0
2 2537.96 290.517 2910.19 0 0 0
2 2814.37 832.842 2757.67 0 0 0
2 2950.51 104.902 2642.86 0 0 0
2 2746.04 763.252 2964.35 0 0 0
2 2969.27 498.806 2490.52 0 0 0
2 2913.62 243.204 3017.03 0 0 0
2 2518.72 355.288 3032.64 0 0 0
2 3005.64 389.888 2558.89 0 0 0
2 2542.09 157.158 2879.75 0 0 0
2 2706.03 283.827 2967.3 0 0 0
2 3011.05 174.059 2855.78 0 0 0
2 2742.7 489.401 2639.01 0 0 0
2 2595.44 487.055 2620.27 0 0 0
2 2528.6 231.563 2755.34 0 0 0
2 2615.8 392.478 2930.39 0 0 0
2 2690.74 159.651 2925.97 0 0 0