ITEM: TIMESTEP
0
ITEM: NUMBER OF ATOMS
1000
ITEM: BOX BOUNDS pp pp pp
-1.0000000000000000e+02 5.1000000000000000e+03
-1.0000000000000000e+02 5.1000000000000000e+03
-1.0000000000000000e+02 5.1000000000000000e+03
ITEM: ATOMS type x y z ix iy iz
1 2097.63 2659.76 891.937 0 0 0
1 2947.94 1832.42 3656.97 0 0 0
1 1834.44 883.111 3225.15 0 0 0
1 2374.46 1257.32 572.171 0 0 0
1 2891.71 708.169 2455.74 0 0 0
1 2206.54 3370.63 2840.12 0 0 0
1 540.21 2323.34 103.995 0 0 0
1 1684.29 2796.68 2930.57 0 0 0
1 1748.12 2564.69 2156.41 0 0 0
1 2874.37 116.709 1247.76 0 0 0
1 787.234 298.599 501.652 0 0 0
1 941.517 247.297 125.275 0 0 0
1 990.047 227.548 349.744 0 0 0
1 967.342 949.717 228.455 0 0 0
1 431.034 359.718 321.471 0 0 0
1 876.666 352.744 569.713 0 0 0
1 43.256 1026.97 760.99 0 0 0
1 148.822 854.34 658.583 0 0 0
1 899.691 245.955 548.563 0 0 0
1 775.156 455.124 179.598 0 0 0
1 851.282 217.751 319.62 0 0 0
1 474.692 605.275 914.572 0 0 0
1 67.967 495.582 634.73 0 0 0
1 360.277 959.132 760.689 0 0 0
1 213.211 248.078 508.131 0 0 0
1 725.046 389.991 964.222 0 0 0
1 580.897 442.183 77.268 0 0 0
1 449.474 748.441 827.614 0 0 0
1 396.648 785.226 141.632 0 0 0
1 769.601 522.459 563.376 0 0 0
1 416.668 717.882 945.26 0 0 0
1 849.657 626.876 632.317 0 0 0
1 445.256 130.451 445.074 0 0 0
1 122.77 757.295 575.89 0 0 0
1 730.964 155.637 828.907 0 0 0
1 30.065 812.415 130.049 0 0 0
1 748.607 427.812 509.95 0 0 0
1 1360.86 1993.47 2552.13 0 0 0
1 3724.26 4532.14 2673.78 0 0 0
1 147.891 588.664 883.517 0 0 0
1 717.624 525.934 35.209 0 0 0
1 729.187 1459.02 32.644 0 0 0
1 726.342 314.817 759.608 0 0 0
1 385.635 665.954 760.255 0 0 0
1 692.932 991.886 127.098 0 0 0
1 431.196 480.315 900.332 0 0 0
1 142.242 30.667 331.676 0 0 0
1 863.497 472.859 630.533 0 0 0
1 54.822 97.431 543.509 0 0 0
1 278.698 562.802 517.018 0 0 0
1 33.33 949.403 873.74 0 0 0
1 498.713 639.036 800.491 0 0 0
1 309.982 154.49 76.958 0 0 0
1 124.644 871.605 852.364 0 0 0
1 294.315 600.688 149.451 0 0 0
1 293.225 355.102 475.07 0 0 0
1 587.646 555.761 481.572 0 0 0
1 97.958 458.532 99.135 0 0 0
1 35.341 85.612 317.901 0 0 0
1 678.352 506.469 789.272 0 0 0
1 179.54 542.13 745.745 0 0 0
1 30.85 878 234.497 0 0 0
1 866.053 571.814 745.63 0 0 0
1 1000.21 542.067 934.098 0 0 0
1 42.546 695.14 656.939 0 0 0
1 544.77 461.607 544.907 0 0 0
1 821.231 228.406 119.679 0 0 0
1 345.576 447.179 310.344 0 0 0
1 2.831 384.818 927.149 0 0 0
1 880.351 464.208 431.602 0 0 0
1 68.684 461.787 461.042 0 0 0
1 313.887 195.838 561.904 0 0 0
1 206.664 972.246 784.639 0 0 0
1 208.611 939.798 357.505 0 0 0
1 835.634 500.005 41.711 0 0 0
1 149.348 655.681 778.429 0 0 0
1 880.476 342.535 794.91 0 0 0
1 931.78 683.003 837.574 0 0 0
1 906.136 137.468 88.311 0 0 0
1 247.286 910.621 616.131 0 0 0
1 431.043 84.86 788.046 0 0 0
1 901.617 1242.29 200.588 0 0 0
1 510.762 314.799 151.28 0 0 0
1 1659.75 280.095 4379.19 0 0 0
1 325.251 755.63 676.914 0 0 0
1 454.8 742.111 688.223 0 0 0
1 348.251 310.604 875.039 0 0 0
1 1207.6 2261.46 1271.59 0 0 0
1 95.656 984.144 596.647 0 0 0
1 453.149 355.728 935 0 0 0
1 634.719 258.038 370.403 0 0 0
1 337.772 812.998 28.575 0 0 0
1 2923.86 2422.09 310.471 0 0 0
1 988.209 268.559 235.5 0 0 0
1 87.396 179.971 37.668 0 0 0
1 213.884 754.368 748.193 0 0 0
1 711.997 143.41 361.217 0 0 0
1 442.046 468.998 721.538 0 0 0
1 307.179 1009.1 142.206 0 0 0
1 596.551 138.383 395.427 0 0 0
1 168.575 466.812 545.637 0 0 0
1 248.974 40.707 952.323 0 0 0
1 40.254 811.391 690.273 0 0 0
1 986.802 314.422 466.226 0 0 0
1 451.585 715.013 439.447 0 0 0
1 943.062 2.955 737.913 0 0 0
1 408.658 932.174 618.764 0 0 0
1 637.928 867.141 431.919 0 0 0
1 557.032 388.69 645.28 0 0 0
1 486.511 583.247 592.918 0 0 0
1 302.266 1367.95 106.244 0 0 0
1 637.099 443.326 367.52 0 0 0
1 949.34 878.798 101.892 0 0 0
1 550.972 848.263 727.495 0 0 0
1 0.273 476.876 815.67 0 0 0
1 803.824 597.385 974.933 0 0 0
1 362.701 141.554 972.188 0 0 0
1 660.256 748.179 36.638 0 0 0
1 52.959 613.014 391.547 0 0 0
1 7.512 283.8 327.292 0 0 0
1 144.791 423.589 694.707 0 0 0
1 800.683 214.59 431.044 0 0 0
1 2568.6 1154.2 4251.06 0 0 0
1 505.049 20.896 171.168 0 0 0
1 566.407 377.167 779.11 0 0 0
1 302.885 764.971 352.504 0 0 0
1 381.897 622.347 538.428 0 0 0
1 720.74 804.051 688.971 0 0 0
1 316.549 148.379 443.474 0 0 0
1 642.169 632.682 709.558 0 0 0
1 512.494 332.488 431.775 0 0 0
1 196.424 1015.27 530.45 0 0 0
1 712.5 557.448 163.131 0 0 0
1 189.459 140.502 74.029 0 0 0
1 941.173 809.368 805.816 0 0 0
1 182.874 371.055 89.242 0 0 0
1 33.846 94.323 758.122 0 0 0
1 985.128 162.184 757.566 0 0 0
1 605.888 782.369 350.301 0 0 0
1 340.069 741.309 554.009 0 0 0
1 578.592 860.679 253.279 0 0 0
1 529.523 849.026 572.891 0 0 0
1 811.197 432.914 733.561 0 0 0
1 518.861 857.632 959.437 0 0 0
1 725.992 145.797 168.58 0 0 0
1 194.827 543.586 74.539 0 0 0
1 408.627 631.35 107.055 0 0 0
1 332.066 522.813 765.154 0 0 0
1 902.51 569.262 866.684 0 0 0
1 355.85 285.949 397.996 0 0 0
1 1046.87 678.394 142.311 0 0 0
1 17.28 586.929 765.565 0 0 0
1 566.321 487.163 883.939 0 0 0
1 529.097 939.624 338.856 0 0 0
1 633.492 635.801 72.637 0 0 0
1 807.469 105.745 301.781 0 0 0
1 546.023 589.652 142.554 0 0 0
1 257.048 244.017 918.866 0 0 0
1 711.378 616.182 897.39 0 0 0
1 212.853 246.691 694.108 0 0 0
1 22.608 966.333 338.278 0 0 0
1 665.928 339.709 556.508 0 0 0
1 345.203 139.839 722.474 0 0 0
1 334.529 367.578 33.329 0 0 0
1 648.044 677.19 305.063 0 0 0
1 479.333 353.635 26.41 0 0 0
1 850.358 217.435 803.296 0 0 0
1 649.244 723.155 490.116 0 0 0
1 475.022 909.233 106.972 0 0 0
1 119.659 2784.94 3809.02 0 0 0
1 576.754 137.115 172.893 0 0 0
1 429.493 45.409 312.036 0 0 0
1 951.368 137.429 632.149 0 0 0
1 334.966 882.875 178.931 0 0 0
1 756.856 727.012 325.297 0 0 0
1 848.325 791.428 1047.85 0 0 0
1 947.076 65.499 831.336 0 0 0
1 547.094 949.639 496.241 0 0 0
1 2.484 593.111 605.698 0 0 0
1 930.861 12.507 1234.69 0 0 0
1 281.962 52.162 641.505 0 0 0
1 823.086 128.116 625.666 0 0 0
1 800.469 148.989 28.515 0 0 0
1 139.494 373.72 408.661 0 0 0
1 785.632 687.056 768.182 0 0 0
1 693.848 583.167 429.818 0 0 0
1 533.551 571.127 345.513 0 0 0
1 198.892 827.48 313.548 0 0 0
1 289.79 1088.92 594.046 0 0 0
1 647.484 65.547 464.06 0 0 0
1 650.747 865.604 123.675 0 0 0
1 475.297 596.151 461.889 0 0 0
1 268.825 259.845 33.926 0 0 0
1 3474.41 3096.55 3212.12 0 0 0
1 303.577 813.979 464.273 0 0 0
1 873.361 150.582 902.284 0 0 0
1 122.95 1019.2 391.727 0 0 0
1 835.189 3619.95 3493.22 0 0 0
1 1673.49 708.62 386.798 0 0 0
1 215.002 519.926 196.697 0 0 0
2 4999.26 1862.81 1.21 0 0 0
2 864.985 0.002 546.458 0 0 0
2 2085.16 4003.52 1919.01 0 0 0
2 2914.95 1724.25 0.009 0 0 0
2 3761.77 3700.95 4996.98 0 0 0
2 182.017 4994 4992.21 0 0 0
2 4998.92 2237.58 3456.02 0 0 0
2 4447.58 0 4056.59 0 0 0
2 2212.69 4707.3 3464.38 0 0 0
2 4902.95 46.852 152.867 0 0 0
2 2.764 3.676 4995.16 0 0 0
2 1631.38 3759.93 1.293 0 0 0
2 1406.39 116.088 2142.99 0 0 0
2 1979.52 871.207 4999.99 0 0 0
2 4999.22 4999 2744.4 0 0 0
2 4201.14 3166.17 2422.05 0 0 0
2 1633.78 1364.51 3824.98 0 0 0
2 2403.95 5000 2028.21 0 0 0
2 4998.35 4997.43 3.005 0 0 0
2 4999.99 5000 2305.3 0 0 0
2 1.136 284.309 1.011 0 0 0
2 1600.79 4498.68 4994.41 0 0 0
2 3143.18 0 4895.02 0 0 0
2 2380.17 4998.2 4449.99 0 0 0
2 1882.38 2520.02 4996.65 0 0 0
2 5000 0.174 2786.71 0 0 0
2 5000 4893.65 2923.55 0 0 0
2 1787.93 237.621 4240.32 0 0 0
2 2.373 1475.86 0.813 0 0 0
2 2682.03 3057.05 138.853 0 0 0
2 0 1758.76 1783.78 0 0 0
2 2568.87 4995.14 134.512 0 0 0
2 1749.48 476.635 1.212 0 0 0
2 4998.41 2655.6 3626.4 0 0 0
2 0.001 3862.82 2882.13 0 0 0
2 4433.67 4784.03 0 0 0 0
2 2.086 1929.42 4104.48 0 0 0
2 1722.06 4407.01 796.62 0 0 0
2 1938.48 5000 2812.44 0 0 0
2 1103.32 4999.99 1555.02 0 0 0
2 1.379 3679.65 4993.4 0 0 0
2 650.881 4997.4 1785.58 0 0 0
2 2157.08 836 1.248 0 0 0
2 2281.41 2343.49 7.759 0 0 0
2 2691.8 1627.98 2.145 0 0 0
2 3510.98 0.5 4997.89 0 0 0
2 4990.67 4.921 13.41 0 0 0
2 3056.44 0.637 3.461 0 0 0
2 6.794 4996.38 1020.21 0 0 0
2 1820.22 2730.74 3508.94 0 0 0
2 4997.8 0.085 4997.51 0 0 0
2 0.357 4999.12 1795.34 0 0 0
2 1.959 4450.89 2835.21 0 0 0
2 3115.1 4998.07 2279.12 0 0 0
2 6.931 515.515 4997.67 0 0 0
2 4835.83 4935.16 4950.41 0 0 0
2 5000 1176.26 278.513 0 0 0
2 45.189 4883.88 69.783 0 0 0
2 4539.42 526.684 4321.29 0 0 0
2 2966.2 4988.02 2197.72 0 0 0
2 1659.41 1157.46 730.929 0 0 0
2 4999.63 666.293 414.598 0 0 0
2 3169.91 2062.45 4351.02 0 0 0
2 3000.34 1338.41 2582.96 0 0 0
2 4276.94 1.864 2856.78 0 0 0
2 160.255 2273.03 3737.99 0 0 0
2 1359.07 1886.82 3060.09 0 0 0
2 42.949 4697.65 21.862 0 0 0
2 1525.22 2036.62 4272.24 0 0 0
2 0 3763.39 1178.62 0 0 0
2 977.236 1855.86 1709.65 0 0 0
2 838.741 929.74 1877.39 0 0 0
2 701.545 4953.27 75.693 0 0 0
2 5000 3716.9 3038.99 0 0 0
2 3494.43 2773.02 1859.44 0 0 0
2 66.533 503.729 1133.4 0 0 0
2 578.353 3483.28 0 0 0 0
2 4187.24 0 232.27 0 0 0
2 0 3896.04 309.004 0 0 0
2 2629.24 320.789 30.877 0 0 0
2 1499.6 3238.75 4563.55 0 0 0
2 4998.85 236.789 47.872 0 0 0
2 3820.56 1898.43 1033.1 0 0 0
2 222.324 3361.3 0 0 0 0
2 1433.89 3607.29 1372.68 0 0 0
2 902.823 2597.69 1129.39 0 0 0
2 2125.51 0 1706.3 0 0 0
2 2621.25 3558.2 3061.84 0 0 0
2 0 375.675 2036.94 0 0 0
2 0 4400.55 5000 0 0 0
2 1670.82 2.47 2941.98 0 0 0
2 0 2841.84 206.304 0 0 0
2 2419.25 22.444 54.917 0 0 0
2 2548.02 161.145 1169.68 0 0 0
2 100.455 989.574 3085.07 0 0 0
2 2348.39 419.167 2317.68 0 0 0
2 1363.62 58.175 2433.24 0 0 0
2 3831.14 2547.23 3148.68 0 0 0
2 3049.16 4625.62 0 0 0 0
2 3453.37 1130.39 4354.85 0 0 0
2 194.937 1508.35 3483.19 0 0 0
2 5000 1957.8 4892.99 0 0 0
2 25.069 5000 2574.93 0 0 0
2 3236.27 414.262 3962.43 0 0 0
2 5000 3326.58 2082.86 0 0 0
2 551.266 32.063 2334.34 0 0 0
2 3583.13 2487.37 4041.24 0 0 0
2 800.486 4706.03 133.012 0 0 0
2 18.768 2331.9 1981.44 0 0 0
2 2374.28 1817.36 1655.66 0 0 0
2 201.54 3683.49 0 0 0 0
2 79.95 4802.04 2569.68 0 0 0
2 0 1757.81 1313.11 0 0 0
2 1389.71 1225.63 3279.34 0 0 0
2 3647.01 410.496 0 0 0 0
2 0 2820.15 819.123 0 0 0
2 3113.78 47.572 156.584 0 0 0
2 0 4999.42 2367.24 0 0 0
2 577.338 32.602 1099.37 0 0 0
2 2567.83 38.847 2517.56 0 0 0
2 2248.78 3278.8 5000 0 0 0
2 447.339 2158.58 1841.13 0 0 0
2 389.877 3219.34 2029.51 0 0 0
2 1927.46 85.062 704.948 0 0 0
2 728.96 0 889.026 0 0 0
2 3690.59 1341.98 3086.21 0 0 0
2 2.348 747.061 2761.07 0 0 0
2 1407.06 525.749 2169.76 0 0 0
2 1603.88 1685.61 0 0 0 0
2 3.403 2000.19 1520.6 0 0 0
2 1501.08 1882.32 0 0 0 0
2 3326.56 4883.15 3324.03 0 0 0
2 2074.8 1626.48 1367.85 0 0 0
2 4898.86 170.124 1941.24 0 0 0
2 2740.92 0 4436.06 0 0 0
2 433.15 827.706 291.961 0 0 0
2 2306.39 2512.3 18.891 0 0 0
2 1217.88 1983.88 852.283 0 0 0
2 577.795 4728.68 4933.87 0 0 0
2 2501.4 951.024 1526.49 0 0 0
2 0 4344.81 3.568 0 0 0
2 3516.52 2291.59 3590.15 0 0 0
2 4075.78 557.207 61.065 0 0 0
2 1130.97 3933.31 1535.91 0 0 0
2 1713.28 3270.64 3889.36 0 0 0
2 4875.6 4760.5 138.12 0 0 0
2 0 3468.93 2185.66 0 0 0
2 5.535 1076.78 1141.75 0 0 0
2 3534.83 824.354 2120.9 0 0 0
2 1397.85 759.303 0.832 0 0 0
2 1535.24 1737.1 4545.39 0 0 0
2 1760.26 1316.32 1692.2 0 0 0
2 935.904 417.091 149.428 0 0 0
2 3060.87 1908.12 433.288 0 0 0
2 1082.57 2936.34 472.714 0 0 0
2 3346.91 5000 544.122 0 0 0
2 2744.52 739.716 1688.27 0 0 0
2 2623.85 5000 2414.18 0 0 0
2 4621.25 0 3074.77 0 0 0
2 861.299 1531.28 0 0 0 0
2 68.267 178.186 1377.46 0 0 0
2 2741.26 0 987.298 0 0 0
2 667.666 299.349 183.868 0 0 0
2 2823.83 4.343 4044.26 0 0 0
2 1198.26 437.975 585.266 0 0 0
2 2455.58 1683.53 61.418 0 0 0
2 2023.06 1490.65 951.806 0 0 0
2 505.609 2599.29 1644.71 0 0 0
2 747.587 2133.55 2221.38 0 0 0
2 893.091 2779.48 649.358 0 0 0
2 0 2077.53 285.769 0 0 0
2 4999.97 882.344 3497.55 0 0 0
2 2388.91 1829.25 1041.46 0 0 0
2 1.83 1425.54 163.204 0 0 0
2 2619.18 454.898 1408.29 0 0 0
2 92.996 661.784 224.461 0 0 0
2 1135.8 2206.25 2551.19 0 0 0
2 4356.77 3240.4 1389.82 0 0 0
2 41.811 1961.59 2241.5 0 0 0
2 565.727 2010.13 1271.48 0 0 0
2 1280.5 4415.16 5000 0 0 0
2 1075.46 63.831 1777.1 0 0 0
2 512.567 984.939 1388.14 0 0 0
2 1889.41 1915.35 3865.89 0 0 0
2 1913.09 417.979 1209.09 0 0 0
2 3755.02 1329.85 3459.91 0 0 0
2 1174.51 4204.36 3068.54 0 0 0
2 715.391 1557.95 1198.7 0 0 0
2 834.209 4872.23 1646.79 0 0 0
2 3917.36 4679.96 2942.03 0 0 0
2 3175.1 1679.68 0 0 0 0
2 901.427 2559.92 1375.66 0 0 0
2 109.806 1259.02 1115.91 0 0 0
2 2708.32 1097.47 10.995 0 0 0
2 1655.82 3901.84 3032.18 0 0 0
2 2542.24 684.545 549.438 0 0 0
2 874.568 1929.73 36.279 0 0 0
2 1847.3 155.34 225.112 0 0 0
2 4669 3866.26 1941.1 0 0 0
2 2556.31 547.876 3039.91 0 0 0
2 1568.67 46.884 1948.83 0 0 0
2 114.249 1845.23 911.181 0 0 0
2 1096.7 859.698 160.403 0 0 0
2 2444.12 3294.82 1029.3 0 0 0
2 0 2297.26 339.27 0 0 0
2 42.072 1285.89 596.013 0 0 0
2 2033.41 15.157 1023.38 0 0 0
2 1122.21 611.697 1518.34 0 0 0
2 601.017 509.647 5000 0 0 0
2 1271.34 1237.52 1427.77 0 0 0
2 162.743 3018.3 3080.78 0 0 0
2 25.811 47.134 1583.44 0 0 0
2 0 1381.73 861.156 0 0 0
2 2435.9 2286.29 53.986 0 0 0
2 1736.69 1373.26 497.845 0 0 0
2 367.44 722.515 2783.63 0 0 0
2 145.241 0 4061.61 0 0 0
2 822.793 134.032 1053.95 0 0 0
2 1359.78 829.454 1232.23 0 0 0
2 1006.39 1026.01 13.042 0 0 0
2 874.829 15.45 2574.65 0 0 0
2 0 2649.88 237.706 0 0 0
2 1746.33 2180.91 1174.61 0 0 0
2 10.209 922.403 1261.55 0 0 0
2 3108.17 2270.78 1033.98 0 0 0
2 2740.97 2734.15 3654.09 0 0 0
2 1319.61 1427.92 2684.39 0 0 0
2 269.682 2733.88 1646.46 0 0 0
2 1729.63 1351.42 3.595 0 0 0
2 833.808 1147.18 868.892 0 0 0
2 612.633 0 1882.35 0 0 0
2 0 3284.49 1648.66 0 0 0
2 3697.03 1360.02 3284.59 0 0 0
2 1342.44 270.962 2559.95 0 0 0
2 936.911 2764.02 304.486 0 0 0
2 25.987 1256.14 1311.08 0 0 0
2 1955.06 5000 698.568 0 0 0
2 5.372 3045.07 1588.98 0 0 0
2 0 2350.13 720.587 0 0 0
2 2177.81 4999.94 3242.69 0 0 0
2 1644.86 2017.44 0.678 0 0 0
2 181.237 228.287 1216.44 0 0 0
2 1886.76 1107.48 66.448 0 0 0
2 1199.83 1105.61 1841.42 0 0 0
2 1.936 651.404 2291.83 0 0 0
2 736.432 1511.84 623.99 0 0 0
2 4050.02 1222.75 3094.77 0 0 0
2 0 589.822 1824.95 0 0 0
2 1682.92 182.339 779.883 0 0 0
2 331.401 2228.13 156.244 0 0 0
2 3739.86 10.023 3095.11 0 0 0
2 1095.11 4300.05 1063.33 0 0 0
2 3124.6 5000 2839.46 0 0 0
2 758.347 2223.94 1528.55 0 0 0
2 2636.32 1659.41 1202.95 0 0 0
2 2709.02 718.537 19.91 0 0 0
2 440.684 1310.62 27.666 0 0 0
2 0 899.639 4420.09 0 0 0
2 1689.96 45.826 523.606 0 0 0
2 1197.02 1421.66 2306.89 0 0 0
2 1569.02 1149.55 386.494 0 0 0
2 693.712 1897.91 186.517 0 0 0
2 819.653 1724.83 1060.93 0 0 0
2 1116.65 907.224 394.334 0 0 0
2 2150.92 127.524 0 0 0 0
2 1095.3 1428.06 1472.83 0 0 0
2 1214.18 253.178 481.252 0 0 0
2 3370.24 0 4892.43 0 0 0
2 86.806 1138.47 253.78 0 0 0
2 486.254 6.391 2553.58 0 0 0
2 454.256 92.716 600.002 0 0 0
2 1496.73 1131.36 1118.62 0 0 0
2 1707.53 1844.28 1917.48 0 0 0
2 4026.73 3359.99 1016.1 0 0 0
2 1738.43 0 709.098 0 0 0
2 312.645 0 3512.54 0 0 0
2 3143.87 0 638.447 0 0 0
2 19.21 1138.05 2330.05 0 0 0
2 98.156 1022.91 107.204 0 0 0
2 269.11 1329.17 2246.71 0 0 0
2 41.484 0 4481.86 0 0 0
2 154.107 1432.97 360.812 0 0 0
2 119.111 475.45 1937.04 0 0 0
2 1632.93 1446.61 3618.32 0 0 0
2 1774.64 1019.68 1008.77 0 0 0
2 3420.32 4988.01 913.13 0 0 0
2 342.383 1502.03 1880.61 0 0 0
2 2003.01 2800.49 1807.77 0 0 0
2 50.231 764.952 438.315 0 0 0
2 33.715 2071.28 71.31 0 0 0
2 339.654 59.675 2395.11 0 0 0
2 1704.58 109.755 5000 0 0 0
2 486.592 1186.07 1856.81 0 0 0
2 1963.86 1382.93 307.797 0 0 0
2 0 1331.63 2305.79 0 0 0
2 165.283 2325.69 441.991 0 0 0
2 0 485.879 2386.42 0 0 0
2 1351.11 2436.12 26.084 0 0 0
2 2346.99 4999.99 3182.83 0 0 0
2 3250.65 36.178 287.506 0 0 0
2 1422.17 1475.61 1482.15 0 0 0
2 1491.63 3377.5 1762.69 0 0 0
2 581.272 774.889 1396.5 0 0 0
2 102.377 253.48 914.12 0 0 0
2 3791.82 2578.92 110.113 0 0 0
2 941.271 0 2754.53 0 0 0
2 2034.09 510.609 740.961 0 0 0
2 2007.26 50.78 2175.86 0 0 0
2 4629.64 40.96 1231.35 0 0 0
2 541.672 189.994 861.306 0 0 0
2 3625.7 79.183 560.632 0 0 0
2 2819.57 0 436.928 0 0 0
2 2596.62 1473.9 252.978 0 0 0
2 456.732 1372.42 738.439 0 0 0
2 3889.2 13.27 729.498 0 0 0
2 2304.17 683.064 804.386 0 0 0
2 2703.86 809.037 781.278 0 0 0
2 1928.78 3.818 2363.57 0 0 0
2 2192.55 4999.99 4025.76 0 0 0
2 53.218 2758.63 0 0 0 0
2 2287.45 284.983 1480.48 0 0 0
2 1467.12 1220 903.653 0 0 0
2 1000.2 1904.92 4730.08 0 0 0
2 887.564 0 1672.24 0 0 0
2 857.546 1102.98 1783.31 0 0 0
2 1057.81 408.311 1360.94 0 0 0
2 360.347 1062.76 3073.09 0 0 0
2 1735.12 389.788 146.663 0 0 0
2 182.222 0 3016.35 0 0 0
2 385.819 2942.79 512.405 0 0 0
2 270.833 1714.45 0 0 0 0
2 1570.75 156.575 1248.81 0 0 0
2 1598.34 1528.85 2909.34 0 0 0
2 1260.82 860.01 0 0 0 0
2 197.104 4100.28 3456.74 0 0 0
2 171.823 692.243 3958.6 0 0 0
2 890.891 182.061 2119.61 0 0 0
2 4993.69 2476.94 4997.26 0 0 0
2 1439.46 373.16 184.546 0 0 0
2 1400.08 1962.84 2749.58 0 0 0
2 0.019 1367.08 1558.17 0 0 0
2 2397.14 1605.76 650.588 0 0 0
2 0 4166.27 204.213 0 0 0
2 2598.31 1798.95 103.355 0 0 0
2 187.011 430.142 1324.99 0 0 0
2 1998.04 768.281 1030.73 0 0 0
2 3796.52 633.322 401.644 0 0 0
2 2068.46 2512.81 243.442 0 0 0
2 1568.45 1290.79 74.126 0 0 0
2 1565.39 535.449 502.94 0 0 0
2 1942.86 4970.69 1527.56 0 0 0
2 4147.77 2644.54 2463.02 0 0 0
2 495.287 2020.46 1754.06 0 0 0
2 1105.52 449.884 2243.78 0 0 0
2 201.185 0.869 2552.95 0 0 0
2 1987.67 1630.02 0 0 0 0
2 2798.14 4591.4 2477.7 0 0 0
2 2109.57 3801.74 2405.67 0 0 0
2 992.109 502.043 1598.98 0 0 0
2 440.087 1561.77 0 0 0 0
2 905.902 281.31 1136.47 0 0 0
2 1167.26 1111.53 1324.37 0 0 0
2 4741.76 3357.16 1769.1 0 0 0
2 567.173 1561.39 3585.71 0 0 0
2 11.937 4997.43 4982.02 0 0 0
2 0 4087.8 3313.48 0 0 0
2 317.85 288.535 2408.21 0 0 0
2 1462.38 408.048 0 0 0 0
2 568.439 128.315 1261.07 0 0 0
2 1260.42 318.506 1191.62 0 0 0
2 2427.77 1857.13 231.438 0 0 0
2 1212.26 396.185 1503.38 0 0 0
2 1315.38 1040.17 71.87 0 0 0
2 327.783 2590.58 1192.68 0 0 0
2 3015.93 4975.15 3982.88 0 0 0
2 1838.35 0 1134.07 0 0 0
2 1558.23 2424.49 666.089 0 0 0
2 2872.12 3071.63 3864.66 0 0 0
2 1043.46 44.344 2174.41 0 0 0
2 1396.78 209.737 467.541 0 0 0
2 177.114 944.891 1112.17 0 0 0
2 0 226.604 1199.55 0 0 0
2 1862.32 1390.19 935.253 0 0 0
2 284.049 1560.74 274.121 0 0 0
2 1617.41 1629.14 473.579 0 0 0
2 181.046 2827.73 245.929 0 0 0
2 916.83 643.877 3632.71 0 0 0
2 274.61 3322.45 1408.46 0 0 0
2 1012.23 669.911 1780.46 0 0 0
2 0 843.106 5000 0 0 0
2 4202.29 1046.08 1312.57 0 0 0
2 1786.47 1827.06 906.702 0 0 0
2 279.312 645.851 939.856 0 0 0
2 254.214 1659.13 2417.19 0 0 0
2 863.138 1080.26 2717.93 0 0 0
2 4898.61 3540.04 300.302 0 0 0
2 5000 2334.63 2307.29 0 0 0
2 1184.05 0 534.621 0 0 0
2 2169.87 2269.86 113.608 0 0 0
2 267.135 16.059 1155.99 0 0 0
2 693.735 0 4236.74 0 0 0
2 1429 1335.4 192.657 0 0 0
2 2675.66 0 1724.51 0 0 0
2 2802.54 424.402 3265.41 0 0 0
2 3007.23 590.967 888.983 0 0 0
2 1244.82 17.555 1502.73 0 0 0
2 518.15 1436.92 143.73 0 0 0
2 4.474 2403.04 3599.14 0 0 0
2 2203.78 650.788 1860.37 0 0 0
2 2409.04 219.274 330.409 0 0 0
2 3118.26 833.33 1393.19 0 0 0
2 496.239 1469.23 1986.38 0 0 0
2 793.004 55.692 1226.03 0 0 0
2 28.142 534.087 1325.83 0 0 0
2 891.51 2760.39 43.696 0 0 0
2 2091.75 8.262 207.174 0 0 0
2 178.849 672.914 1190.92 0 0 0
2 3611.71 0 1280.82 0 0 0
2 118.38 8.653 169.654 0 0 0
2 4095.33 3700.28 2299.2 0 0 0
2 1967.17 663.46 36.389 0 0 0
2 217.259 232.135 1600.03 0 0 0
2 3775.16 464.024 820.727 0 0 0
2 3212.99 596.667 4495.98 0 0 0
2 1152.05 188.873 272.076 0 0 0
2 2578.27 3335.07 4996.84 0 0 0
2 642.251 2373.35 1346.67 0 0 0
2 975.871 37.511 1103.45 0 0 0
2 1488.65 3304.12 1.404 0 0 0
2 938.19 0.039 1854.47 0 0 0
2 508.747 1842.28 1842.05 0 0 0
2 57.56 2534.75 392.82 0 0 0
2 1417.09 2022.93 823.873 0 0 0
2 4991.46 4996.19 4985.74 0 0 0
2 6.408 1527.06 1225.92 0 0 0
2 209.373 667.332 427.653 0 0 0
2 512.437 2839.59 0 0 0 0
2 559.836 1165.85 2871.23 0 0 0
2 4412.43 902.135 2914.15 0 0 0
2 436.111 455.67 133.362 0 0 0
2 2072.11 312.253 0 0 0 0
2 4656.54 603.265 583.183 0 0 0
2 480.035 746.445 1108.64 0 0 0
2 1700.01 983.92 31.801 0 0 0
2 1736.62 1438.29 4308.53 0 0 0
2 1906.59 61.911 512.208 0 0 0
2 1780.81 0 4340.37 0 0 0
2 498.025 1954.42 0 0 0 0
2 1259.79 625.147 1317.94 0 0 0
2 0 1740.24 2394.95 0 0 0
2 3792.93 2797.47 3233.27 0 0 0
2 2211.89 359.623 177.462 0 0 0
2 1306.1 2167.78 0 0 0 0
2 186.152 223.228 2217.39 0 0 0
2 0.061 205.954 2319.15 0 0 0
2 370.156 1087.24 2828.34 0 0 0
2 2810.07 1211.44 2191.43 0 0 0
2 1024.93 299.257 976.279 0 0 0
2 2259.39 378.623 2632.57 0 0 0
2 841.752 5000 3978.27 0 0 0
2 1598.18 1348.41 277.22 0 0 0
2 837.697 2606.63 370.992 0 0 0
2 29.726 236.03 1626.34 0 0 0
2 1013.94 1969.42 321.64 0 0 0
2 200.656 884.876 33.673 0 0 0
2 0 1630.68 1617.44 0 0 0
2 2931.3 429.983 600.356 0 0 0
2 785.877 34.676 1980.04 0 0 0
2 129.092 1362 2.741 0 0 0
2 0 0 3038.68 0 0 0
2 301.453 2586.12 954.546 0 0 0
2 908.491 2993.37 513.646 0 0 0
2 748.554 286.455 3045.29 0 0 0
2 0 1425.11 1378.55 0 0 0
2 3010.78 955.125 2160.58 0 0 0
2 1940.29 573.815 255.917 0 0 0
2 2991.78 1035.8 1786.21 0 0 0
2 3371.15 2493.05 1411.89 0 0 0
2 1919.7 898.207 717.101 0 0 0
2 1560.24 911.547 1534.98 0 0 0
2 2451.71 466.932 86.599 0 0 0
2 1889.14 0 2933.04 0 0 0
2 1485.54 1204.04 1332.37 0 0 0
2 1.545 557.471 2558.68 0 0 0
2 1059.65 1853.57 0 0 0 0
2 1172.87 6.857 284.854 0 0 0
2 518.822 533.204 1578.78 0 0 0
2 2134.25 1451.95 1104.32 0 0 0
2 659.375 30.129 1372.22 0 0 0
2 597.562 1170.49 0 0 0 0
2 164.67 984.605 1459.46 0 0 0
2 1178.45 15.805 95.62 0 0 0
2 4017.39 3120.72 4638.77 0 0 0
2 1543.22 0 712.604 0 0 0
2 3097.47 0 1477.89 0 0 0
2 149.784 2051.82 722.25 0 0 0
2 264.701 330.155 233.66 0 0 0
2 21.108 4993.32 2190.9 0 0 0
2 1304.57 63.239 939.484 0 0 0
2 328.226 1879.86 165.839 0 0 0
2 1074.53 4388.01 4484.42 0 0 0
2 2539.45 332.628 1667.6 0 0 0
2 836.251 595.165 336.533 0 0 0
2 11.183 1086.01 1517.7 0 0 0
2 919.562 238.465 1765.51 0 0 0
2 140.422 1651.4 1109.45 0 0 0
2 1253.89 589.633 2719.41 0 0 0
2 458.223 3319.8 0 0 0 0
2 1700.49 17.091 900.443 0 0 0
2 570.486 4215.2 719.504 0 0 0
2 381.799 1554.9 448.607 0 0 0
2 1054.14 113.816 437.295 0 0 0
2 0 3056.05 162.338 0 0 0
2 5000 467.587 3086.24 0 0 0
2 29.048 3470.88 3895.52 0 0 0
2 792.273 1183.4 8.927 0 0 0
2 679.492 300.555 1350.15 0 0 0
2 540.506 668.192 2089.09 0 0 0
2 36.656 384.743 1741.15 0 0 0
2 491.967 2005.67 367.128 0 0 0
2 1549.25 1508.16 2260.29 0 0 0
2 369.088 1146.04 175.809 0 0 0
2 872.878 610.251 166.584 0 0 0
2 1167.34 901.005 699.296 0 0 0
2 3615.29 2120.07 0 0 0 0
2 2961.71 1703.14 2658.41 0 0 0
2 617.176 214.854 690.817 0 0 0
2 2469.87 529.174 796.544 0 0 0
2 1141.72 2258.96 517.074 0 0 0
2 476.348 130.155 1719.31 0 0 0
2 3969.7 2719.07 0 0 0 0
2 5.011 1737.65 93.425 0 0 0
2 510.605 1983.46 2157.6 0 0 0
2 422.518 2516.97 2980.32 0 0 0
2 1172.95 1107.18 1050.6 0 0 0
2 1725.27 84.318 348.181 0 0 0
2 692.38 22.362 30.62 0 0 0
2 1472.25 2859.29 9.785 0 0 0
2 0 2193.14 1350.29 0 0 0
2 208.527 1739.68 327.747 0 0 0
2 1402.17 1552.3 23.208 0 0 0
2 773.971 892.924 3118.89 0 0 0
2 545.139 1453.76 2193.85 0 0 0
2 308.03 4415.44 3617.14 0 0 0
2 1778.63 2574.43 407.614 0 0 0
2 3994.49 5000 2150.78 0 0 0
2 2196.81 0 1452.59 0 0 0
2 1381.19 827.292 4707.8 0 0 0
2 3359.42 2560.39 623.815 0 0 0
2 1004.77 2018.49 5000 0 0 0
2 3733.12 5000 2962.89 0 0 0
2 8.864 3.321 7.402 0 0 0
2 1581.88 0 385.631 0 0 0
2 2545.21 2236.76 226.931 0 0 0
2 1123.54 1103.33 548.634 0 0 0
2 1134.27 1153.61 134.591 0 0 0
2 2026.65 2241.68 4634.25 0 0 0
2 268.122 126.389 1369.21 0 0 0
2 910.174 808.218 272.618 0 0 0
2 3868.16 793.015 1929.24 0 0 0
2 2181.61 863.066 318.962 0 0 0
2 31.463 1538.44 965.688 0 0 0
2 2150.18 1259.71 98.268 0 0 0
2 1503.44 122.576 217.423 0 0 0
2 0 1511.54 2230.32 0 0 0
2 1041.74 213.584 1.164 0 0 0
2 3230.99 0 2641.51 0 0 0
2 3.731 1803.96 1121 0 0 0
2 2068.1 2644.39 7.012 0 0 0
2 1354.38 3720.21 1217.48 0 0 0
2 167.191 1223.48 399.662 0 0 0
2 0 2362.05 534.375 0 0 0
2 623.771 539.758 1853.48 0 0 0
2 87.94 378.354 2232.39 0 0 0
2 1863.23 0 4972.77 0 0 0
2 0 3909.54 2439.9 0 0 0
2 0 1051.82 2882.74 0 0 0
2 5000 1374.7 2740.09 0 0 0
2 2857.35 1347.61 1580.37 0 0 0
2 0 1468.05 679.374 0 0 0
2 118.827 6.23 1269.52 0 0 0
2 1288.48 682.331 430.85 0 0 0
2 125.055 4611.52 2360.88 0 0 0
2 465.018 232.705 266.859 0 0 0
2 1617.53 284.081 0 0 0 0
2 775.5 1935.59 2329.15 0 0 0
2 1224.24 386.159 343.447 0 0 0
2 1974.62 1494.88 1847.89 0 0 0
2 2069.74 1105.18 0 0 0 0
2 222.971 103.59 2041.29 0 0 0
2 883.043 739.952 1511.33 0 0 0
2 312.257 3004.54 819.678 0 0 0
2 2581.86 245.793 714.321 0 0 0
2 424.651 56.036 1419.82 0 0 0
2 1194.8 828.226 2156.59 0 0 0
2 1800.42 1626.35 19.829 0 0 0
2 922.191 650.964 4186.71 0 0 0
2 1115.51 2073.23 201.83 0 0 0
2 524.276 3029.24 0 0 0 0
2 3548.57 192.453 3432.31 0 0 0
2 2238.05 782.347 140.785 0 0 0
2 380.616 755.027 1695.93 0 0 0
2 3601.19 397.033 729.354 0 0 0
2 4996.86 1311.67 70.302 0 0 0
2 1700.32 1657.92 2308.15 0 0 0
2 376.951 603.431 342.931 0 0 0
2 2754.31 121.714 2482.46 0 0 0
2 20.349 401.084 1528.63 0 0 0
2 1731.86 1487.38 2499.38 0 0 0
2 202.349 11.359 490.439 0 0 0
2 3142.88 734.96 0 0 0 0
2 2997.83 3708.74 938.153 0 0 0
2 435.077 1519.81 1327.25 0 0 0
2 3202.43 0 3612.66 0 0 0
2 1464.37 2863.78 4191.12 0 0 0
2 530.804 1029.34 208.002 0 0 0
2 792.86 826.313 31.415 0 0 0
2 3272.95 798.669 5000 0 0 0
2 743.65 913.278 273.523 0 0 0
2 0 3216.01 1265.95 0 0 0
2 3379.78 348.606 69.734 0 0 0
2 1545.6 1772.31 833.208 0 0 0
2 0 2312.24 1192.59 0 0 0
2 1134.76 1312.05 682.342 0 0 0
2 21.271 1677.97 284.306 0 0 0
2 1261.01 1609.72 888.523 0 0 0
2 4900.24 3547.92 2122.85 0 0 0
2 1991.99 0 1428.65 0 0 0
2 2682.3 430.546 4921.35 0 0 0
2 2776.86 589.085 2984.43 0 0 0
2 1686.69 3633.49 4192.06 0 0 0
2 1453.55 1693.1 4241.05 0 0 0
2 490.868 471.743 1102.21 0 0 0
2 2520 0 511.101 0 0 0
2 292.548 138.454 272.812 0 0 0
2 197.554 3296.12 1858.22 0 0 0
2 1273.54 1002.35 3239.1 0 0 0
2 1637.48 592.174 56.157 0 0 0
2 3208.95 245.42 116.033 0 0 0
2 1.798 364.28 2537.29 0 0 0
2 1316.98 83.356 654.944 0 0 0
2 1962.89 1037.92 1281.51 0 0 0
2 593.538 1336.46 1665.49 0 0 0
2 725.306 459.644 2191.71 0 0 0
2 783.963 0 1515.17 0 0 0
2 2314.92 679.296 1250.55 0 0 0
2 1.951 1475.31 1722.77 0 0 0
2 1066.07 3204.01 219.296 0 0 0
2 1026.57 372.591 618.221 0 0 0
2 1784.37 882.583 1214.83 0 0 0
2 2115.39 2661.56 4998.6 0 0 0
2 2828.79 266.325 28.893 0 0 0
2 3503.36 2402.85 3414.58 0 0 0
2 2542.03 0 1276.72 0 0 0
2 1985.59 2018.6 2094.55 0 0 0
2 1188.4 4.532 1302.12 0 0 0
2 4260.02 0 900.355 0 0 0
2 608.688 1665.53 52.517 0 0 0
2 1906.63 1325.02 1493.12 0 0 0
2 1417.94 2584.57 4435.06 0 0 0
2 4999.38 162.577 3616.96 0 0 0
2 398.67 1055.39 487.829 0 0 0
2 1155.03 1042.85 5000 0 0 0
2 1497.19 635.957 2354.33 0 0 0
2 266.598 1491.99 1.141 0 0 0
2 1583.21 303.959 286.978 0 0 0
2 0 2938.04 3006.98 0 0 0
2 3387.52 191.753 1560.94 0 0 0
2 796.024 2612.12 570.038 0 0 0
2 1429.2 948.256 788.427 0 0 0
2 488.981 445.094 1380.26 0 0 0
2 2244.38 3.125 683.251 0 0 0
2 9.112 2451.21 189.122 0 0 0
2 2.414 2390.66 2318.17 0 0 0
2 0 1498.37 2418.9 0 0 0
2 3887.38 1301.5 3157.95 0 0 0
2 1806.63 19.534 1405.88 0 0 0
2 737.967 1034.89 1179.43 0 0 0
2 809.515 1710.96 0 0 0 0
2 3676.36 1761.81 1025.75 0 0 0
2 86.932 229.389 186.286 0 0 0
2 2132.43 2189.98 3377.98 0 0 0
2 1988.58 384.831 350.558 0 0 0
2 644.296 158.819 1965.84 0 0 0
2 5000 1795.9 3705.41 0 0 0
2 553.243 0 1565.46 0 0 0
2 3218.45 4657.02 768.11 0 0 0
2 871.128 58.178 2383.93 0 0 0
2 2264.73 1962.13 272.301 0 0 0
2 2321.69 989.288 44.719 0 0 0
2 4770.24 2181.42 2530.65 0 0 0
2 567.976 0 757.117 0 0 0
2 4107.98 2787.51 536.825 0 0 0
2 547.847 363.772 1845.21 0 0 0
2 1574.94 5000 4524.36 0 0 0
2 145.519 58.136 2219.36 0 0 0
2 2740.41 1198.07 781.009 0 0 0
2 40.579 215.004 658.239 0 0 0
2 3151.29 821.52 2469.23 0 0 0
2 4676.3 4482.61 290.732 0 0 0
2 291.446 668.272 13.968 0 0 0
2 166.807 813.347 1331.91 0 0 0
2 3364.38 2249.05 3266.25 0 0 0
2 22.542 2708.43 463.67 0 0 0
2 122.897 497.146 318.051 0 0 0
2 941.89 263.403 1335.97 0 0 0
2 1583.76 1222.73 1582.98 0 0 0
2 698.392 48.807 1715.36 0 0 0
2 598.864 3210.95 262.904 0 0 0
2 2525.6 611.397 2078.98 0 0 0
2 4999.1 4480.88 2.885 0 0 0
2 2632.86 8.953 794.722 0 0 0
2 0 1342.37 2641.02 0 0 0
2 533.767 1654.19 744.756 0 0 0
2 1059.17 73.55 3601.77 0 0 0
2 3228.07 1300.97 840.517 0 0 0
2 753.531 3082.84 5000 0 0 0
2 160.141 1444.76 548.597 0 0 0
2 2333.74 1928.94 1395.15 0 0 0
2 1055.46 122.633 144.227 0 0 0
2 2151.07 3309.56 3876.36 0 0 0
2 164.485 612.575 608.032 0 0 0
2 2058.91 3407.14 4819.04 0 0 0
2 1769.59 178.381 1984.13 0 0 0
2 5000 1166.29 1799.12 0 0 0
2 3716.86 1786.39 482.193 0 0 0
2 2461.52 1436.95 1149.38 0 0 0
2 110.11 3163.28 1113.72 0 0 0
2 1219.93 0 4255.17 0 0 0
2 0 701.874 1125.62 0 0 0
2 1649.88 968.9 2448.32 0 0 0
2 4902.48 2887.05 1305.8 0 0 0
2 12.05 1066.12 4372.61 0 0 0
2 1905.06 3758.63 441.18 0 0 0
2 3830.65 42.896 3394.37 0 0 0
2 383.758 284.13 684.929 0 0 0
2 684.93 2600.86 0 0 0 0
2 1669.05 3160.42 1046.2 0 0 0
2 270.97 1193.5 992.56 0 0 0
2 1975.68 3491.96 1519.83 0 0 0
2 614.207 1663.19 1316.45 0 0 0
2 3204.65 392.221 0 0 0 0
2 225.93 408.88 835.17 0 0 0
2 1840.1 2122.54 2459.34 0 0 0
2 2340.75 760.203 1933.77 0 0 0
2 4990.61 2600.16 3786.92 0 0 0
2 0 3135.39 2785.54 0 0 0
2 259.381 1682.33 1246.7 0 0 0
2 2067.56 1268.33 3824.01 0 0 0
2 668.417 839.943 2777.28 0 0 0
2 308.529 1314 237.332 0 0 0
2 2344.8 1078.31 468.043 0 0 0
2 1282.91 1285.41 1150.01 0 0 0
2 11.663 1162.12 17.158 0 0 0
2 1137.88 3698.89 4469.72 0 0 0
2 0 2542.89 3446.8 0 0 0
2 0 2734.04 2007.58 0 0 0
2 3275.77 2879.92 1644.67 0 0 0
2 1371.47 242.471 3945.21 0 0 0
2 2528.67 166.544 0 0 0 0
2 5000 4005.57 3267.02 0 0 0
2 3479.26 5000 3769.18 0 0 0
2 4466.03 4832.86 1971.87 0 0 0
2 3849.03 2226.61 402.073 0 0 0
2 1.653 1587.78 4999.16 0 0 0
2 1864.72 1045.14 3754.07 0 0 0
2 2171.09 4996.37 2550.5 0 0 0
2 4075.84 4998.19 6.477 0 0 0
2 3420.55 4721.15 4999.99 0 0 0
2 5000 2411.65 4046.97 0 0 0
2 3242.95 2668.88 2347.35 0 0 0
2 3334.01 151.366 3067.76 0 0 0
2 4690.43 3694.08 0.068 0 0 0
2 1762.53 0.665 3445.65 0 0 0
2 1371.31 4459.52 1644.57 0 0 0