ITEM: TIMESTEP
0
ITEM: NUMBER OF ATOMS
1000
ITEM: BOX BOUNDS pp pp pp
-1.0000000000000000e+02 5.1000000000000000e+03
-1.0000000000000000e+02 5.1000000000000000e+03
-1.0000000000000000e+02 5.1000000000000000e+03
ITEM: ATOMS type x y z ix iy iz
1 9.661 376.044 451.799 0 0 0
1 1524.65 4.496 1326.25 0 0 0
1 1018.83 1178.67 1769.88 0 0 0
1 145.531 384.257 499.954 0 0 0
1 407.07 582.468 798.276 0 0 0
1 105.735 842.248 809.685 0 0 0
1 831.404 66.999 443.607 0 0 0
1 895.535 484.927 140.36 0 0 0
1 885.757 581.332 725.71 0 0 0
1 735.804 800.636 153.401 0 0 0
1 875.604 359.413 869.974 0 0 0
1 613.049 612.481 664.95 0 0 0
1 102.955 913.145 266.906 0 0 0
1 623.492 547.224 34.028 0 0 0
1 31.061 896.663 411.199 0 0 0
1 519.726 191.429 914.059 0 0 0
1 418.077 65.494 275.965 0 0 0
1 298.703 468.756 508.578 0 0 0
1 581.282 392.015 461.325 0 0 0
1 973.481 678.627 290.709 0 0 0
1 298.409 732.347 800.081 0 0 0
1 221.138 585.114 828.347 0 0 0
1 866.584 807.868 925.814 0 0 0
1 171.078 481.452 117.471 0 0 0
1 532.557 310.493 207.184 0 0 0
1 619.812 966.857 834.084 0 0 0
1 845.915 710.051 661.907 0 0 0
1 287.258 418.61 1029.35 0 0 0
1 119.811 520.076 539.338 0 0 0
1 67.728 33.004 193.882 0 0 0
1 772.38 693.596 994.669 0 0 0
1 727.975 653.777 464.133 0 0 0
1 656.646 788.123 444.901 0 0 0
1 840.117 684.889 0.001 0 0 0
1 848.931 507.581 338.831 0 0 0
1 17.673 666.674 921.405 0 0 0
1 761.929 602.088 236.479 0 0 0
1 128.525 454.272 683.93 0 0 0
1 3196.54 369.347 543.299 0 0 0
1 3557.4 916.423 356.453 0 0 0
1 3159.11 620.684 260.876 0 0 0
1 3414.21 646.07 754.346 0 0 0
1 3288 970.072 668.257 0 0 0
1 3470.72 537.601 189.103 0 0 0
1 3539.41 545.522 724.277 0 0 0
1 3096.08 702.417 166.156 0 0 0
1 3562.77 110.847 573.578 0 0 0
1 3429.2 543.427 306.56 0 0 0
1 3720.14 986.181 804.666 0 0 0
1 3326.52 712.707 326.587 0 0 0
1 3115.99 470.987 496.183 0 0 0
1 3070.16 279.531 739.941 0 0 0
1 3342.07 222.877 422.19 0 0 0
1 3728.51 857.956 41.739 0 0 0
1 3699.45 571.302 300.408 0 0 0
1 3366.07 161.764 572.349 0 0 0
1 3539.78 857.404 216.472 0 0 0
1 3593.12 483.877 343.353 0 0 0
1 3111.46 106.901 883.632 0 0 0
1 3214.93 429.243 362.293 0 0 0
1 3583.36 470.237 638.828 0 0 0
1 3073.65 866.807 254.324 0 0 0
1 3519.14 714.556 802.367 0 0 0
1 3429.53 273.071 282.411 0 0 0
1 3280.36 662.738 46.044 0 0 0
1 3581.17 296.539 416.193 0 0 0
1 3391.51 744.008 686.813 0 0 0
1 3621.73 925.86 757.012 0 0 0
1 3405.67 852.951 112.644 0 0 0
1 3220.68 867.578 720.507 0 0 0
1 3236.07 37.761 742.6 0 0 0
1 3647.04 81.115 658.406 0 0 0
1 3630.98 210.616 148.206 0 0 0
1 3202.97 261.667 653.296 0 0 0
1 3463.8 666.794 292.652 0 0 0
1 991.236 3207.38 379.019 0 0 0
1 906.964 4057.5 282.518 0 0 0
1 495.369 3412.08 606.233 0 0 0
1 439.575 3774.93 125.903 0 0 0
1 323.745 3268.96 573.082 0 0 0
1 864.024 3231.38 239.635 0 0 0
1 953.976 3563.16 628.627 0 0 0
1 812.097 3509.38 155.19 0 0 0
1 899.361 4026.68 129.646 0 0 0
1 805.693 3641.89 800.025 0 0 0
1 646.118 3913.18 848.46 0 0 0
1 552.474 3940.46 588.432 0 0 0
1 33.478 3748.33 922.604 0 0 0
1 474.668 3220.57 154.52 0 0 0
1 272.978 3600.09 520.415 0 0 0
1 980.969 3944.04 943.881 0 0 0
1 359.013 3417.57 551.155 0 0 0
1 85.876 3431.37 529.487 0 0 0
1 81.665 3257.79 176.722 0 0 0
1 84.44 3453.18 176.589 0 0 0
1 262.645 3983.84 632.479 0 0 0
1 806.888 3345.41 562.159 0 0 0
1 257.683 3361.78 264.705 0 0 0
1 303.367 3811.97 611.911 0 0 0
1 66.383 3870.91 909.473 0 0 0
1 998.915 3685.15 673.011 0 0 0
1 930.231 3637.16 966.295 0 0 0
1 159.196 4016.24 941.789 0 0 0
1 394.091 3450.35 831.265 0 0 0
1 686.066 3960.33 683.452 0 0 0
1 219.16 3404.56 590.994 0 0 0
1 42.647 4073.9 978.394 0 0 0
1 87.68 4064.77 401.124 0 0 0
1 200.95 3877.62 245.737 0 0 0
1 173.146 3511.39 456.648 0 0 0
1 643.763 3560.82 620.976 0 0 0
1 22.224 3310.58 540.208 0 0 0
1 701.555 4082.42 954.35 0 0 0
1 579.715 907.065 3547.62 0 0 0
1 196.18 31.038 3474.2 0 0 0
1 993.284 42.943 3243.22 0 0 0
1 444.536 454.712 3406.65 0 0 0
1 377.649 385.863 3861.97 0 0 0
1 765.468 416.322 3229.45 0 0 0
1 431.964 418.511 3624 0 0 0
1 939.55 443.956 3223.22 0 0 0
1 100.748 93.508 3607.55 0 0 0
1 53.059 265.056 3607.43 0 0 0
1 706.12 902.601 3305.18 0 0 0
1 140.569 851.58 3204.03 0 0 0
1 328.136 111.35 3838.36 0 0 0
1 973.461 275.694 3439.72 0 0 0
1 859.293 391.453 3421.55 0 0 0
1 56.648 503.102 3636.67 0 0 0
1 407.716 86.499 3481.43 0 0 0
1 972.15 886.045 3849.55 0 0 0
1 750.497 218.999 3791.08 0 0 0
1 828.827 134.693 3848.43 0 0 0
1 502.023 638.764 3307.87 0 0 0
1 78.037 825.215 3322.45 0 0 0
1 529.32 92.859 3205.11 0 0 0
1 63.261 628.454 3594.54 0 0 0
1 551.945 407.347 3743.46 0 0 0
1 215.801 179.49 3612.64 0 0 0
1 815.88 556.719 3189.78 0 0 0
1 877.268 262.944 3297.98 0 0 0
1 859.278 880.271 3407.08 0 0 0
1 511.32 464.403 3289.64 0 0 0
1 61.513 637.155 3235.18 0 0 0
1 747.762 448.616 3717.47 0 0 0
1 210.872 448.628 3734.67 0 0 0
1 200.772 630.79 3611.12 0 0 0
1 888.751 291.327 3571.07 0 0 0
1 568.212 300.633 3384.9 0 0 0
1 389.285 776.611 3856.33 0 0 0
1 3369.71 3255.21 91.613 0 0 0
1 3637.12 3522.91 142.263 0 0 0
1 3560.62 3533.91 858.952 0 0 0
1 3391.12 3217.22 416.742 0 0 0
1 3213.62 3734.95 543.705 0 0 0
1 3653.99 3266.74 602.413 0 0 0
1 3666.74 3549.37 435.502 0 0 0
1 3816.82 3782.24 713.5 0 0 0
1 3812.59 3880.62 384.867 0 0 0
1 3900.79 3806.25 938.86 0 0 0
1 3412.49 3568.91 314.225 0 0 0
1 3354.52 3953.98 62.11 0 0 0
1 3369.91 3739.97 705.705 0 0 0
1 3941.09 3214.3 269.821 0 0 0
1 3868.27 4045.58 623.656 0 0 0
1 3339.92 3416.55 50.808 0 0 0
1 3354.19 4042.84 414.47 0 0 0
1 3780.14 3936.26 571.646 0 0 0
1 3462.33 3366.82 414.312 0 0 0
1 3876.71 3919.9 271.884 0 0 0
1 4028.34 3418.74 154.593 0 0 0
1 3552.34 3585.16 969.239 0 0 0
1 3376.2 3242.66 545.473 0 0 0
1 3465.85 3885.92 35.077 0 0 0
1 3920.65 3262.46 568.996 0 0 0
1 3733.18 3697.34 424.464 0 0 0
1 3286.43 3937.02 861.174 0 0 0
1 3319.03 3906.69 232.802 0 0 0
1 4041.64 3890.76 345.962 0 0 0
1 3546.32 3678.19 433.52 0 0 0
1 3841.8 3660.77 167.68 0 0 0
1 3929.09 3257.64 386.306 0 0 0
1 3893.62 3595.29 282.288 0 0 0
1 3980.6 3258.78 945.6 0 0 0
1 3530.59 3422.39 538.919 0 0 0
1 3263.9 3392.18 145.661 0 0 0
1 3571.57 3280.45 350.49 0 0 0
1 3368.01 3233.83 939.195 0 0 0
1 3201.92 784.435 3117.78 0 0 0
1 3479.97 263.721 3822.81 0 0 0
1 3635.34 511.02 3712.04 0 0 0
1 3564.36 432.357 3283.93 0 0 0
1 3480.31 422.383 3709.66 0 0 0
1 3268.57 783.209 3459.2 0 0 0
1 3777.59 311.276 3689.95 0 0 0
1 3073.3 696.768 3472.42 0 0 0
1 3741.69 105.179 3702.34 0 0 0
1 3411.15 722.182 3713.34 0 0 0
1 3779.81 525.735 3490.85 0 0 0
1 3772.01 890.275 3251.15 0 0 0
1 3632.7 865.894 3462.01 0 0 0
1 3245.59 606.007 3206.29 0 0 0
1 3233.13 742.473 3301.65 0 0 0
1 3667.03 240.812 3811.28 0 0 0
1 3675.88 638.815 3364.11 0 0 0
1 3153.42 147.126 3424.57 0 0 0
1 3091.65 201.466 3304.16 0 0 0
1 3006.29 712.224 3088.49 0 0 0
1 3459.97 831.879 3144.85 0 0 0
1 3296.78 721.777 3047.51 0 0 0
1 3141.98 788.534 3743.83 0 0 0
1 3161.26 532.702 3151.88 0 0 0
1 3767.63 644.509 3585.5 0 0 0
1 3459.22 114.969 3435.87 0 0 0
1 3459.47 852.785 3270.14 0 0 0
1 3466.41 879.946 3717.21 0 0 0
1 3234.68 118.047 3637.67 0 0 0
1 3405.99 695.618 3486.91 0 0 0
1 3538.46 808.352 3825.77 0 0 0
1 3331.96 427.082 3123.2 0 0 0
1 3495.3 332.523 3213.4 0 0 0
1 3277.8 264.216 3167.75 0 0 0
1 3289.22 261.333 3750.75 0 0 0
1 3749.03 314.791 3542.63 0 0 0
1 3318.25 107.352 3797.14 0 0 0
1 610.121 3844.8 3481.6 0 0 0
1 1615.23 2507.71 3788.87 0 0 0
1 286.597 4942.77 4023.87 0 0 0
1 302.283 3444.36 3946.71 0 0 0
1 931.619 3645.74 3210.77 0 0 0
1 358.321 3635.61 3937.24 0 0 0
1 869.484 3181.18 3492.5 0 0 0
1 416.445 3620.33 3369.68 0 0 0
1 870.295 3816.97 3463.7 0 0 0
1 895.453 3311.76 3776.86 0 0 0
1 330.6 3906.98 3084.48 0 0 0
1 2500 5000 4623.93 0 0 0
1 807.401 3272.59 3980.39 0 0 0
1 663.893 3348.91 3607.48 0 0 0
1 1.05 2509.01 4953.89 0 0 0
1 286.956 3203.49 3257.7 0 0 0
1 206.772 3510.57 3339.34 0 0 0
1 74.677 3916.24 3303.64 0 0 0
1 543.506 3664.47 3750.39 0 0 0
1 2320.07 2592.8 2655.38 0 0 0
1 85.21 3438.11 3637.96 0 0 0
1 406.142 3186.45 3785.59 0 0 0
1 0.006 2500 2500.01 0 0 0
1 481.684 3267.39 3984.09 0 0 0
1 635.488 3723.91 3680.33 0 0 0
1 245.727 3354.65 3361.66 0 0 0
1 57.892 3606.91 3337.82 0 0 0
1 854.584 3841.59 3787.8 0 0 0
1 79.361 3490.44 3984.03 0 0 0
1 593.125 3627.17 3556.14 0 0 0
1 461.677 3684.22 3462.65 0 0 0
1 371.356 3489.32 3661.43 0 0 0
1 659.174 3891.46 3782.24 0 0 0
1 40.926 4999.48 2500.86 0 0 0
1 926.407 3405.19 3382.33 0 0 0
1 758.959 3842.85 3366.1 0 0 0
1 933.409 3793.84 4040.8 0 0 0
1 266.966 3730.79 3990.84 0 0 0
1 3515.62 3263.86 3831.83 0 0 0
1 2601.95 2634.9 3306.23 0 0 0
1 4836.72 4948.04 3759.5 0 0 0
1 3264.99 3524.19 3808.82 0 0 0
1 4999.98 4999.99 2500.07 0 0 0
1 3431.23 3776.91 3394.53 0 0 0
1 3780.24 3242.18 3349.23 0 0 0
1 3535.09 3528.41 3449.81 0 0 0
1 4159.75 3881.6 3396.8 0 0 0
1 3177.25 3117.65 3150.06 0 0 0
1 3510.96 3101.43 3189.16 0 0 0
1 3674.28 3097.36 3598.1 0 0 0
1 3630.17 3191.86 3395.23 0 0 0
1 3583.86 2996.16 3178.9 0 0 0
1 3773.53 3218.52 3533.46 0 0 0
1 2871.52 3325.07 2500 0 0 0
1 3457.98 3714.08 3669.43 0 0 0
1 3827.51 3474.45 3314.58 0 0 0
1 3671.6 3697.32 3134.26 0 0 0
1 3541.12 3405.36 3130.32 0 0 0
1 3479.03 3631.17 3500.75 0 0 0
1 3886.91 3724.94 3653.74 0 0 0
1 3270.65 3754.09 3662.73 0 0 0
1 3719.46 3407.65 3495.57 0 0 0
1 4896.02 2528.39 4964.18 0 0 0
1 3156.05 3632.65 3551.21 0 0 0
1 3516.66 3602.42 3650.41 0 0 0
1 3779.25 3160.16 4120.51 0 0 0
1 3626.01 3220.17 3129.89 0 0 0
1 3130.97 3850.52 3270.42 0 0 0
1 3154.01 3748.89 3605.01 0 0 0
1 3452.22 3471.33 3696.18 0 0 0
1 3158.83 3781.05 3166.98 0 0 0
1 3348.89 3573.7 3658.64 0 0 0
1 2830.52 3169.28 3555.21 0 0 0
1 3209.99 3636.02 3152.13 0 0 0
1 3644.73 3842.31 3753.34 0 0 0
2 885.578 224.694 26.24 0 0 0
2 527.186 697.749 668.51 0 0 0
2 446.32 950.85 801.372 0 0 0
2 186.36 673.044 393.369 0 0 0
2 339.445 338.698 466.588 0 0 0
2 107.003 385.287 80.836 0 0 0
2 219.998 730.018 697.627 0 0 0
2 647.737 53.276 673.689 0 0 0
2 594.387 371.678 321.25 0 0 0
2 820.652 477.298 720.436 0 0 0
2 105.071 253.847 873.611 0 0 0
2 327.468 639.043 905.367 0 0 0
2 264.569 62.278 484.322 0 0 0
2 724.717 637.651 722.805 0 0 0
2 262.805 790.443 945.25 0 0 0
2 325.038 904.423 317.902 0 0 0
2 452.399 253.351 370.867 0 0 0
2 905.301 34.23 610.356 0 0 0
2 810.038 703.432 780.137 0 0 0
2 650.526 435.496 143.029 0 0 0
2 46.806 465.601 1017.16 0 0 0
2 737.482 62.51 182.94 0 0 0
2 144.562 419.289 346.813 0 0 0
2 241.514 359.125 129.576 0 0 0
2 484.784 402.898 0.01 0 0 0
2 934.293 215.893 927.954 0 0 0
2 554.096 754.278 558.389 0 0 0
2 197.525 535.436 391.808 0 0 0
2 19.499 789.989 937.395 0 0 0
2 376.324 365.643 214.584 0 0 0
2 894.226 78.663 929.307 0 0 0
2 671.15 757.268 706.503 0 0 0
2 201.079 416.172 919.572 0 0 0
2 708.579 861.335 761.343 0 0 0
2 670.019 364.915 696.625 0 0 0
2 164.163 714.304 920.654 0 0 0
2 259.26 249.076 503.557 0 0 0
2 569.349 400.075 888.249 0 0 0
2 372.531 711.527 433.491 0 0 0
2 223.29 642.144 1.103 0 0 0
2 870.823 481.633 892.045 0 0 0
2 46.515 207.948 757.076 0 0 0
2 812.436 265.057 606.867 0 0 0
2 287.676 118.717 367.498 0 0 0
2 332.864 823.656 568.179 0 0 0
2 419.996 748.102 781.037 0 0 0
2 570.752 903.703 418.456 0 0 0
2 702.86 928.019 253.797 0 0 0
2 333.204 162.633 123.738 0 0 0
2 980.525 639.298 826.529 0 0 0
2 517.345 429.477 132.967 0 0 0
2 250.714 44.022 188.319 0 0 0
2 73.667 425.56 803.495 0 0 0
2 449.292 136.654 197.93 0 0 0
2 688.793 497.107 908.898 0 0 0
2 372.662 361.724 945.251 0 0 0
2 602.759 181.619 637.498 0 0 0
2 989.566 437.04 636.324 0 0 0
2 421.811 776.367 901.232 0 0 0
2 834.048 170.047 257.879 0 0 0
2 60.078 702.125 766.17 0 0 0
2 894.852 604.475 93.429 0 0 0
2 774.003 388.584 328.294 0 0 0
2 486.088 674.441 196.759 0 0 0
2 0.01 954.997 571.126 0 0 0
2 20.154 173.754 369.417 0 0 0
2 162.406 960.275 970.889 0 0 0
2 867.987 603.91 883.773 0 0 0
2 862.92 295.487 247.88 0 0 0
2 735.606 340.05 490.176 0 0 0
2 218.853 983.754 493.587 0 0 0
2 913.925 301.258 734.124 0 0 0
2 327.915 244.362 248.605 0 0 0
2 212.128 28.754 591.204 0 0 0
2 343.205 593.868 407.392 0 0 0
2 148.744 788.745 604.53 0 0 0
2 165.078 189.29 174.075 0 0 0
2 563.315 197.827 264.673 0 0 0
2 388.673 758.454 212.057 0 0 0
2 526.736 754.792 335.88 0 0 0
2 409.164 428.737 356.904 0 0 0
2 84.372 961.84 724.841 0 0 0
2 731.673 958.692 933.077 0 0 0
2 167.766 153.864 930.881 0 0 0
2 118.073 656.747 505.284 0 0 0
2 700.298 680.147 54.307 0 0 0
2 95.387 700.008 201.295 0 0 0
2 374.469 671.097 666.457 0 0 0
2 2736.55 917.15 603.16 0 0 0
2 2863.33 787.248 922.733 0 0 0
2 2676.05 459.213 273.424 0 0 0
2 2866.81 354.96 268.155 0 0 0
2 2828.61 481.186 564.506 0 0 0
2 2882.31 118.177 310.111 0 0 0
2 2839.25 477.683 685.321 0 0 0
2 2900.6 693.112 684.691 0 0 0
2 2893.82 694.956 805.487 0 0 0
2 2660.31 127.938 216.639 0 0 0
2 2813.55 574.812 71.007 0 0 0
2 2681.24 469.14 672.391 0 0 0
2 2805.23 438.385 907.526 0 0 0
2 2689.8 800.202 774.714 0 0 0
2 2886.86 636.21 195.576 0 0 0
2 2656.33 178.757 653.026 0 0 0
2 2642.6 351.121 618.632 0 0 0
2 2792.95 853.036 722.187 0 0 0
2 2752.24 241.649 90.017 0 0 0
2 2664.78 819.757 654.07 0 0 0
2 2691.35 701.803 228.502 0 0 0
2 2847.43 290.17 149.59 0 0 0
2 2769.13 117.938 36.701 0 0 0
2 2858.2 2.25 446.73 0 0 0
2 2916.83 578.074 649.078 0 0 0
2 2862.5 599.857 477.191 0 0 0
2 2827.23 94.847 768.624 0 0 0
2 2698.2 1.312 757.871 0 0 0
2 2601.85 234.952 488.818 0 0 0
2 2750.48 607.704 780.831 0 0 0
2 2690.02 94.517 334.17 0 0 0
2 2663.95 72.211 105.344 0 0 0
2 2902.71 578.79 771.694 0 0 0
2 2608.01 14.404 502.383 0 0 0
2 2729.46 671.726 76.008 0 0 0
2 2639.1 173.279 31.581 0 0 0
2 2728.62 378.887 113.008 0 0 0
2 2766.86 732.576 862.555 0 0 0
2 2865.43 887.538 550.25 0 0 0
2 2792.26 208.121 222.26 0 0 0
2 2640.78 643.468 447.975 0 0 0
2 2667.43 920.805 721.075 0 0 0
2 2660.45 629.162 585.013 0 0 0
2 2727.5 536.785 454.249 0 0 0
2 2735.02 855.928 176.41 0 0 0
2 2644.27 823.32 278.5 0 0 0
2 2721.91 263.653 489.394 0 0 0
2 2615.29 358.024 781.86 0 0 0
2 2916.29 137.077 455.744 0 0 0
2 2780.73 387.521 425.866 0 0 0
2 2767.33 42.593 167.097 0 0 0
2 2597.79 248.716 227.213 0 0 0
2 2774.83 227.168 769.317 0 0 0
2 2744.82 372.141 706.914 0 0 0
2 2851.02 329.333 795.574 0 0 0
2 2808.04 755.289 484.826 0 0 0
2 2599.5 788.047 484.287 0 0 0
2 2890.89 629.037 980.093 0 0 0
2 2657.02 553.486 179.368 0 0 0
2 2899.44 795.478 161.644 0 0 0
2 2937.05 679.478 304.392 0 0 0
2 2658.1 431.422 868.901 0 0 0
2 2777.91 900.526 67.975 0 0 0
2 2613.28 661.326 693.099 0 0 0
2 2667.47 331.558 374.499 0 0 0
2 2775.55 662.082 613.552 0 0 0
2 2757.72 910.862 345.323 0 0 0
2 2802.3 309.842 590.248 0 0 0
2 2765.89 558.218 250.045 0 0 0
2 2917.47 152.54 699.895 0 0 0
2 2768.86 554.504 896.97 0 0 0
2 2847.26 900.7 819.624 0 0 0
2 2836.99 655.718 370.681 0 0 0
2 2697.14 810.056 395.862 0 0 0
2 2909.72 479.263 367.65 0 0 0
2 2812.65 274.383 367.206 0 0 0
2 2562.29 463.136 698.023 0 0 0
2 2866.76 75.178 103.531 0 0 0
2 2665.07 639.658 971.2 0 0 0
2 2625.8 405.335 472.796 0 0 0
2 2884.41 24.292 649.387 0 0 0
2 2682.36 161.277 434.799 0 0 0
2 2796.1 708.291 985.327 0 0 0
2 2936.09 405.387 625.661 0 0 0
2 2644.27 760.703 881.06 0 0 0
2 2827.52 815.977 317.283 0 0 0
2 2720.96 69.636 512.145 0 0 0
2 580.464 2752.2 980.885 0 0 0
2 303.773 3461.57 1814.16 0 0 0
2 1633.12 3348.13 331.003 0 0 0
2 565.785 4542.13 417.919 0 0 0
2 1025.29 3751.88 476.698 0 0 0
2 171.469 2618 444.958 0 0 0
2 260.291 2736.43 414.124 0 0 0
2 0 2500 1254.44 0 0 0
2 573.455 2718.97 834.565 0 0 0
2 670.36 2673.02 743.724 0 0 0
2 810.621 2672.16 926.288 0 0 0
2 395.398 2588.18 83.339 0 0 0
2 435.481 2554.19 526.973 0 0 0
2 145.493 2620.67 108.688 0 0 0
2 431.982 2752.85 848.526 0 0 0
2 168.705 2550.49 620.024 0 0 0
2 455.467 2698.38 356.685 0 0 0
2 652.914 2667.28 536.222 0 0 0
2 51.67 2685.79 238.539 0 0 0
2 283.871 2656.33 501.699 0 0 0
2 176.448 2591.42 254.087 0 0 0
2 331.693 2535.53 467.633 0 0 0
2 945.451 2552.66 261.632 0 0 0
2 868.583 2597.61 65.194 0 0 0
2 188.544 2692.28 715.036 0 0 0
2 960 2609.97 733.947 0 0 0
2 398.422 2680.61 569.255 0 0 0
2 1665.84 2882.23 137.366 0 0 0
2 63.967 2614.64 915.285 0 0 0
2 270.653 2581.69 112.054 0 0 0
2 603.408 2543.24 454.036 0 0 0
2 59.291 2679.75 498.066 0 0 0
2 449.084 2581.43 283.859 0 0 0
2 557.796 2673.18 699.295 0 0 0
2 531.469 2621.8 571.603 0 0 0
2 938.94 2669.91 866.38 0 0 0
2 168.851 2734.08 156.282 0 0 0
2 804.461 2705.15 784.438 0 0 0
2 0 2646.86 76.622 0 0 0
2 437.148 2515.89 774.146 0 0 0
2 731.341 2571.5 568.386 0 0 0
2 885.093 2575.24 523.65 0 0 0
2 743.756 2640.03 431.663 0 0 0
2 2500 2500 0 0 0 0
2 218.257 2527.61 510.385 0 0 0
2 55.437 2634.5 777.941 0 0 0
2 867.126 2687.24 451.302 0 0 0
2 300.563 2535.3 240.592 0 0 0
2 665.11 2583.49 835.091 0 0 0
2 711.954 2598.6 109.284 0 0 0
2 277.065 2573.94 360.653 0 0 0
2 231.102 2557.5 728.87 0 0 0
2 399.903 2741.77 461.822 0 0 0
2 330.259 2595.25 790.549 0 0 0
2 528.255 2594.62 106.83 0 0 0
2 816.697 2554.39 841.624 0 0 0
2 175.97 2568.92 836.458 0 0 0
2 841.489 2653.4 660.364 0 0 0
2 979.131 2621.06 401.67 0 0 0
2 232.513 2651.14 904.897 0 0 0
2 679.863 2537.58 221.606 0 0 0
2 437.934 2529.82 894.7 0 0 0
2 560.053 2727.06 287.191 0 0 0
2 574.648 2622.05 926.038 0 0 0
2 270.221 2663.11 622.701 0 0 0
2 330.271 2723.94 106.705 0 0 0
2 60.419 2521.17 685.418 0 0 0
2 434.528 2660.43 717.131 0 0 0
2 590.023 2584.82 334.812 0 0 0
2 510.074 2623.98 448.05 0 0 0
2 89.831 2641.75 610.499 0 0 0
2 269.443 2740.91 228.164 0 0 0
2 460.341 2731.32 166.206 0 0 0
2 187.692 2684.69 14.269 0 0 0
2 859.686 2618.67 348.738 0 0 0
2 349.063 2645.94 233.796 0 0 0
2 1451.15 5000 2335.24 0 0 0
2 832.805 2590.88 195.873 0 0 0
2 191.985 2688.39 326.002 0 0 0
2 145.581 2510.8 339.081 0 0 0
2 498.563 2534.51 999.31 0 0 0
2 545.557 2569.39 769.053 0 0 0
2 707.623 2593.34 948.74 0 0 0
2 359.816 2653.83 917.887 0 0 0
2 590.493 2624.14 215.637 0 0 0
2 378.62 2776.22 269.762 0 0 0
2 2391.08 3121.22 1757.92 0 0 0
2 20.39 2574.11 185.261 0 0 0
2 420.394 255.555 2786.62 0 0 0
2 503.866 667.869 2658.14 0 0 0
2 630.709 610.308 2780.18 0 0 0
2 744.712 808.947 2671.68 0 0 0
2 479.877 122.795 2556.3 0 0 0
2 866.36 461.894 2698.78 0 0 0
2 272.301 485.761 2726.47 0 0 0
2 624.836 299.154 2818.82 0 0 0
2 272.891 618.988 2728.04 0 0 0
2 638.377 790.99 2766.77 0 0 0
2 162.689 235.672 2759.05 0 0 0
2 730.452 119.958 2533.24 0 0 0
2 234.823 611.59 2555.86 0 0 0
2 486.768 449.059 2574.16 0 0 0
2 107.009 737.781 2527.14 0 0 0
2 765.233 704.764 2759 0 0 0
2 1069.19 563.239 2682.54 0 0 0
2 88.018 689.739 2711.33 0 0 0
2 577.021 283.066 2685.07 0 0 0
2 812.752 777.191 2554.78 0 0 0
2 77.112 202.322 2640.72 0 0 0
2 687.685 383.517 2532.99 0 0 0
2 849.842 127.007 2740.23 0 0 0
2 760.583 265.654 2545.02 0 0 0
2 1022.47 449.054 2713.58 0 0 0
2 394.623 478.272 2723.65 0 0 0
2 376.879 510.174 2595.83 0 0 0
2 201.3 271.079 2568.02 0 0 0
2 367.338 801.137 2502.65 0 0 0
2 431.288 53.557 2665.28 0 0 0
2 1045.03 740.779 2603.71 0 0 0
2 938.77 289.233 2645.28 0 0 0
2 1082.74 613.639 2794.98 0 0 0
2 622.043 174.106 2635.54 0 0 0
2 497.447 949.111 2604.36 0 0 0
2 282.813 899.362 2604.43 0 0 0
2 826.324 384.999 2596.04 0 0 0
2 821.192 952.586 2761.09 0 0 0
2 623.508 177.463 2500.77 0 0 0
2 451.208 636.388 2762.57 0 0 0
2 904.414 137.548 2526.6 0 0 0
2 921.921 57.916 2671.64 0 0 0
2 954.831 4.833 2776.42 0 0 0
2 941.041 672.663 2500.03 0 0 0
2 683.998 514.621 2544.84 0 0 0
2 804.845 947.39 2579.16 0 0 0
2 775.381 270.278 2690.35 0 0 0
2 611.704 712.166 2591.94 0 0 0
2 82.388 397.134 2688.38 0 0 0
2 956.101 536.972 2500.88 0 0 0
2 521.624 480.085 2710.37 0 0 0
2 696.928 760.177 2520.54 0 0 0
2 610.634 530.892 2645.32 0 0 0
2 729.83 1044.16 2674.64 0 0 0
2 624.566 2.743 2652.88 0 0 0
2 0 639.491 2645.28 0 0 0
2 632.811 443.698 2744.06 0 0 0
2 929.574 640.971 2616.25 0 0 0
2 206.054 836.928 2695.57 0 0 0
2 658.114 870.701 2569.71 0 0 0
2 872.807 1.23 2576.25 0 0 0
2 228.293 134.971 2595.26 0 0 0
2 714.947 97.009 2759.69 0 0 0
2 517.043 173.479 2739.44 0 0 0
2 540.528 349.608 2500.45 0 0 0
2 932.974 380.4 2536.95 0 0 0
2 881.964 882.142 2663.7 0 0 0
2 994.813 905.252 2545.15 0 0 0
2 366.807 343.403 2533.24 0 0 0
2 168.622 538.499 2629 0 0 0
2 245.616 15.954 2609.09 0 0 0
2 777.641 599.326 2661.2 0 0 0
2 505.09 799.136 2642.58 0 0 0
2 189.366 403.051 2561.61 0 0 0
2 749.684 410.866 2699.82 0 0 0
2 1030.11 807.389 2815.47 0 0 0
2 813.548 592.879 2793.89 0 0 0
2 92.658 327.043 2558.24 0 0 0
2 380.545 977.878 2588.12 0 0 0
2 81.835 29.706 2639.23 0 0 0
2 89.838 825.435 2729.05 0 0 0
2 213.034 340.233 2694.75 0 0 0
2 666.566 927.551 2699.7 0 0 0
2 373.747 185.386 2633.51 0 0 0
2 303.61 718.128 2627.59 0 0 0
2 864.898 717.98 2685.53 0 0 0
2 448.609 276.545 2606.49 0 0 0
2 3273.8 3894.93 1131.61 0 0 0
2 2783.16 3314.58 1601.93 0 0 0
2 2500 4003.79 1685.78 0 0 0
2 2501.37 4888.14 0.001 0 0 0
2 3649.58 3544.14 1056.95 0 0 0
2 2503.71 4480.08 1044.54 0 0 0
2 3966.06 3698.94 188.01 0 0 0
2 2667.66 2764.33 1011.79 0 0 0
2 2617.47 2546.04 848.665 0 0 0
2 2947.47 2686.29 197.704 0 0 0
2 2657.13 2800.87 888.241 0 0 0
2 2502.66 5000 -0 0 0 0
2 2776.37 2749.83 741.047 0 0 0
2 2556.95 2677.39 2.314 0 0 0
2 2604.28 2701.75 361.655 0 0 0
2 2863.66 2556.8 839.657 0 0 0
2 2727.69 2882.81 762.214 0 0 0
2 2688.44 2597.51 1026.24 0 0 0
2 2575.43 2895.07 838.956 0 0 0
2 2694.2 2653.19 753.632 0 0 0
2 2756.68 2525.59 443.44 0 0 0
2 4992.79 2509.72 1.572 0 0 0
2 2689.43 2760.62 180.534 0 0 0
2 2798.02 2833.65 922.743 0 0 0
2 2546.24 2569.16 635.666 0 0 0
2 2657.85 2715.97 611.623 0 0 0
2 2518.8 2770.12 70.062 0 0 0
2 2603.77 2843.63 378.379 0 0 0
2 2820.09 2839.59 369.945 0 0 0
2 4997.89 3084.36 0 0 0 0
2 2884.09 2696.39 333.852 0 0 0
2 2688.21 2911.26 949.399 0 0 0
2 2817.45 2875.69 524.367 0 0 0
2 2789.2 2751.11 1026.13 0 0 0
2 2579.84 2808.4 614.942 0 0 0
2 2732.68 2841.37 626.836 0 0 0
2 2644.99 2569.2 542.781 0 0 0
2 2804.57 2677.99 837.499 0 0 0
2 2892.95 2748.97 578.725 0 0 0
2 2654.93 2537.4 678.316 0 0 0
2 2794.52 2856.04 38.53 0 0 0
2 2546.61 2796.58 496.745 0 0 0
2 2594.86 2665.29 844.778 0 0 0
2 2542.78 2678.28 567.327 0 0 0
2 2553.56 2755.8 934.993 0 0 0
2 2825.89 2612.32 528.24 0 0 0
2 2590.65 2859.54 160.086 0 0 0
2 3580.71 4576.81 464.683 0 0 0
2 2772.09 2723.04 539.798 0 0 0
2 2720.76 2509.71 318.038 0 0 0
2 2652.56 2697.81 475.018 0 0 0
2 2755.2 2581.74 910.842 0 0 0
2 2781.9 2839.43 157.718 0 0 0
2 2731.75 2910.99 411.652 0 0 0
2 2552.25 2728.2 240.865 0 0 0
2 2652.98 2569.57 73.352 0 0 0
2 2770.93 2570.66 100.774 0 0 0
2 2900.59 2727.7 725.621 0 0 0
2 2677.43 2838.57 506.38 0 0 0
2 4910.61 2620.53 19.488 0 0 0
2 2692.32 2533.33 194.644 0 0 0
2 2891.41 2791.49 855.626 0 0 0
2 2783.55 2616.28 316.357 0 0 0
2 2501.27 2704.72 431.677 0 0 0
2 2845.3 2827.56 669.041 0 0 0
2 2510.9 2558.71 509.107 0 0 0
2 2871.14 2562.64 414.802 0 0 0
2 2792.1 2689.14 422.481 0 0 0
2 3868.48 2775.65 1487.05 0 0 0
2 2781.75 2705.14 72.185 0 0 0
2 2846.01 2630.35 974.634 0 0 0
2 2547.32 2701.94 703.333 0 0 0
2 2810.52 2653.52 667.814 0 0 0
2 2657.47 2853.61 268.296 0 0 0
2 2792.7 2769.76 272.578 0 0 0
2 2886.06 2642.57 68.536 0 0 0
2 2908.37 2886.7 278.525 0 0 0
2 2810.26 2514.55 214.306 0 0 0
2 2876.01 2778.11 100.277 0 0 0
2 2550.22 2582.81 337.1 0 0 0
2 2919.11 2631.07 614.769 0 0 0
2 2594.58 2848.99 728.244 0 0 0
2 2612.14 2955.29 496.056 0 0 0
2 2745.07 2504.3 563.134 0 0 0
2 2706.3 2780.11 404.441 0 0 0
2 2528.77 2773.09 799.435 0 0 0
2 2571.43 2673.32 122.47 0 0 0
2 2824.99 2659.89 184.254 0 0 0
2 2885.83 400.296 2703.28 0 0 0
2 2528.31 1253.82 2500.01 0 0 0
2 4142.04 871.515 2555.13 0 0 0
2 3007.54 1594.07 2678.33 0 0 0
2 4983.95 39.415 2502.78 0 0 0
2 4995.2 2492.69 2508.87 0 0 0
2 3783.9 1017.74 2542.54 0 0 0
2 2671.28 611.613 2805.85 0 0 0
2 2677.86 808.395 2878.82 0 0 0
2 2508.34 789.979 2785.52 0 0 0
2 2618.83 673.342 2571.14 0 0 0
2 2683.91 214.833 2574.91 0 0 0
2 2756.33 419.695 2755.74 0 0 0
2 2509.93 942.883 2808.85 0 0 0
2 3358.28 2269.01 4722.71 0 0 0
2 2659.6 1087.08 2674.02 0 0 0
2 2796.75 788.406 2716.58 0 0 0
2 2879.11 72.285 2601.7 0 0 0
2 2574.93 410.189 2520.44 0 0 0
2 2837.57 628.036 2536.95 0 0 0
2 2864.29 506.075 2580.29 0 0 0
2 2883.32 178.145 2724.24 0 0 0
2 2676.19 0 2500 0 0 0
2 4419.52 2118.63 2991.59 0 0 0
2 2602.26 303.774 2512.28 0 0 0
2 2593.05 1002.35 2612.14 0 0 0
2 2743.25 932.246 2830.12 0 0 0
2 2500 50.657 3859.19 0 0 0
2 2733.46 538.728 2590.65 0 0 0
2 2759.88 209.183 2668.93 0 0 0
2 2832.28 389.092 2593.49 0 0 0
2 2554.8 580.939 2620.82 0 0 0
2 3618.88 0 3505.24 0 0 0
2 2727.78 689.643 2727.99 0 0 0
2 2800.36 640.776 2821.06 0 0 0
2 2727.38 802.966 2590.39 0 0 0
2 2547.19 614.452 2789.22 0 0 0
2 2531.9 493.168 2765.77 0 0 0
2 2597.32 143.465 2627.05 0 0 0
2 2526.65 697.643 2665.95 0 0 0
2 2713.72 419.163 2597.42 0 0 0
2 2606.83 174.833 2503.91 0 0 0
2 2761.82 172.479 2791.12 0 0 0
2 2607.73 483.704 2670.22 0 0 0
2 2833.09 742.241 2595.23 0 0 0
2 2649.09 129.722 2840.73 0 0 0
2 2525.86 16.626 2605.76 0 0 0
2 2592.28 529.695 2514.91 0 0 0
2 2805.41 512.867 2688.78 0 0 0
2 2702.01 615.098 2500 0 0 0
2 2517.58 348.314 2751.53 0 0 0
2 2561.66 71.267 2726.2 0 0 0
2 2682.42 386.691 2848.91 0 0 0
2 2624.27 787.006 2670.01 0 0 0
2 2502.65 3.531 2960.51 0 0 0
2 2695.15 110.756 2704.3 0 0 0
2 2805.27 282.689 2528.81 0 0 0
2 2852.65 268.572 2807.29 0 0 0
2 2555.3 73.825 2516.17 0 0 0
2 2605.48 1020.79 2809.66 0 0 0
2 2598.26 263.137 2645.46 0 0 0
2 2832.98 883.177 2562.98 0 0 0
2 2655.19 903.293 2578.64 0 0 0
2 2564.92 797.574 2565.02 0 0 0
2 2860.23 864.129 2813.87 0 0 0
2 2558.2 35.385 2844.79 0 0 0
2 2661.38 599.298 2682.49 0 0 0
2 2770.88 908.365 2694.65 0 0 0
2 2743.72 1059.1 2781.06 0 0 0
2 2837.61 1007.53 2720.81 0 0 0
2 2820.24 414.906 2865.45 0 0 0
2 2705.63 241.097 2907.93 0 0 0
2 2542.44 281.719 2855.13 0 0 0
2 2560.44 401.456 2853.16 0 0 0
2 2823.98 72.765 2713.12 0 0 0
2 2557.56 886.668 2692.68 0 0 0
2 2781.98 449.872 2500.17 0 0 0
2 2775.34 55.952 2825.05 0 0 0
2 2832.09 640.545 2668.04 0 0 0
2 2510.41 346.937 2609.22 0 0 0
2 2604.56 716.962 2821.37 0 0 0
2 2500 182.997 2732.8 0 0 0
2 4509.15 2474.16 4892.74 0 0 0
2 4761.41 962.479 3485.94 0 0 0
2 2726.93 289.074 2771.12 0 0 0
2 2650.08 362.334 2691.46 0 0 0
2 2708.24 119.339 2500 0 0 0
2 1829.71 2500 2500 0 0 0
2 1424.89 3221.55 2517.24 0 0 0
2 3.152 4999.65 4998.33 0 0 0
2 1041.06 3108.05 3791.89 0 0 0
2 1958.05 2502.37 2502.63 0 0 0
2 2466.89 2537.52 2793.57 0 0 0
2 1745.1 4474.11 2625.44 0 0 0
2 7.266 2723.03 3674.67 0 0 0
2 1987.71 5000 2500 0 0 0
2 2414.46 3796.68 3360.09 0 0 0
2 362.032 2500 2947.36 0 0 0
2 2355.95 2566.68 2536.56 0 0 0
2 158.086 2985.37 2898.77 0 0 0
2 189.384 2675.95 2500 0 0 0
2 8.826 2753.36 2861.93 0 0 0
2 353.533 2598.86 2858.05 0 0 0
2 651.768 2500 2912.23 0 0 0
2 1887.31 2500 3924.33 0 0 0
2 1086.35 2792.17 2500 0 0 0
2 339.797 2681.44 2500 0 0 0
2 869.691 2882.06 2787.18 0 0 0
2 0.501 4463.45 4999.96 0 0 0
2 0.001 2534.4 4507.25 0 0 0
2 742.851 2731.2 2613.06 0 0 0
2 760.843 2745.31 2803.88 0 0 0
2 228.222 2859.26 2526.51 0 0 0
2 0 2883.24 2505.71 0 0 0
2 449.724 2792.3 3046.02 0 0 0
2 602.105 2937.59 2500 0 0 0
2 49.056 2500 2961.33 0 0 0
2 622.096 2500 3308.96 0 0 0
2 366.676 2713.98 2904.7 0 0 0
2 0.001 3240.76 2500 0 0 0
2 78.177 2879.17 2600.11 0 0 0
2 3.021 2795.03 2659.62 0 0 0
2 455.744 2982.12 2500 0 0 0
2 708.51 2946.03 2938.79 0 0 0
2 739.239 3059.78 2687.22 0 0 0
2 50.962 2594.98 2837.65 0 0 0
2 81.483 2500 2673.09 0 0 0
2 0 2950.57 3032.54 0 0 0
2 256.155 3913.58 2799.47 0 0 0
2 680.777 2500 2605.47 0 0 0
2 753.187 2613.75 3048.04 0 0 0
2 911.479 2936.75 2500 0 0 0
2 677.449 2826.84 2500 0 0 0
2 719.739 2965.28 2573.95 0 0 0
2 960.445 3257.91 3324.56 0 0 0
2 187.668 2657.9 2856.26 0 0 0
2 724.281 2500.06 3906.04 0 0 0
2 856.557 3052.95 2500 0 0 0
2 955.813 2577.95 2858.34 0 0 0
2 604.69 3292.11 3099.22 0 0 0
2 0 2630.92 2680.11 0 0 0
2 631.29 3015.73 2800.35 0 0 0
2 570.397 2943.78 2937.59 0 0 0
2 2500 2500 3290.7 0 0 0
2 1229.37 2500 2500 0 0 0
2 45.903 2629.21 4964.35 0 0 0
2 983.671 2500.04 2739.92 0 0 0
2 393.316 2796.78 2581.02 0 0 0
2 111.521 2593.72 2595.04 0 0 0
2 1548.3 2500 5000 0 0 0
2 335.51 2908.74 2697.05 0 0 0
2 0 2735.12 2546.78 0 0 0
2 274.363 2862.78 2804.87 0 0 0
2 1146.56 2524.53 2584.97 0 0 0
2 0 2500 3113.81 0 0 0
2 961.77 2814.17 2533.28 0 0 0
2 876.159 3334.38 3528.45 0 0 0
2 786.35 2723.12 2500 0 0 0
2 472.819 2665.99 2805.2 0 0 0
2 96.921 2788 2500 0 0 0
2 0 2873.34 3156.09 0 0 0
2 828.402 2500 3801.68 0 0 0
2 449.96 2586.55 2500 0 0 0
2 0.759 2611.48 2500 0 0 0
2 733.252 2500 2785.7 0 0 0
2 499.21 2791.69 2500 0 0 0
2 535.948 2809.94 2869 0 0 0
2 1131.07 2568.63 2702.17 0 0 0
2 536.121 2500 2623.23 0 0 0
2 640.847 2700.45 2790.52 0 0 0
2 0.001 2504.88 2778.05 0 0 0
2 628.891 3196.57 3382.95 0 0 0
2 1002.95 2500 2604.61 0 0 0
2 2494.18 4949.45 2502.79 0 0 0
2 733.068 2868.36 2837.9 0 0 0
2 4966.06 2706.18 2516.46 0 0 0
2 2508.82 4991.38 3191 0 0 0
2 4350.88 3742.69 2759.51 0 0 0
2 4486.79 4311.64 2893.66 0 0 0
2 3283.58 4816.72 4859.83 0 0 0
2 2560.34 2560.83 4979.9 0 0 0
2 2520.99 4918.11 2706.38 0 0 0
2 3681.44 4997.23 4996.18 0 0 0
2 3896.84 2647.72 3004.01 0 0 0
2 2503.15 4969.72 4814.28 0 0 0
2 2571.9 2595.14 3046.87 0 0 0
2 2773.82 2500 2968.39 0 0 0
2 4116.15 4995.79 4999.26 0 0 0
2 2500 3064.03 2911.87 0 0 0
2 3306.24 3342.76 3371.72 0 0 0
2 3210.67 2758.32 2500 0 0 0
2 2989.16 4361.47 2501.82 0 0 0
2 3811.38 2956.07 2568.4 0 0 0
2 2500.04 3966.36 4624.85 0 0 0
2 2500 2791.65 2875.84 0 0 0
2 2783.36 3732.1 4217.35 0 0 0
2 3169.76 2524.9 2503.8 0 0 0
2 2517.79 3064.71 3252.45 0 0 0
2 2500 2500 3736.18 0 0 0
2 4181.42 2543.51 2685.39 0 0 0
2 2500 3537.54 2757.03 0 0 0
2 2649.62 2655.7 4954.46 0 0 0
2 2748.08 2771.18 2870.45 0 0 0
2 2682.98 2500 2729.06 0 0 0
2 2632.39 2500 3392.6 0 0 0
2 3323.65 2844.18 2500 0 0 0
2 2589.89 2525.15 2608.34 0 0 0
2 2945.89 2705.97 2500 0 0 0
2 2641.56 2852.63 2527.9 0 0 0
2 4999.98 2500.01 4500.51 0 0 0
2 2510.94 3266.17 2607.2 0 0 0
2 2509.36 2624.68 2562.15 0 0 0
2 2694.44 2500.01 2500.01 0 0 0
2 3007.42 2500.78 2924.3 0 0 0