ITEM: TIMESTEP
50200000
ITEM: NUMBER OF ATOMS
1000
ITEM: BOX BOUNDS pp pp pp
2.1627034434706875e+03 2.8372965565287604e+03
2.1627034434706875e+03 2.8372965565287604e+03
2.1627034434706875e+03 2.8372965565287604e+03
ITEM: ATOMS type x y z ix iy iz c_vor[1] c_vor[2]
1 2349.57 2207.03 2756.12 0 0 -1 260839 13
1 2483.97 2305.51 2214.97 0 0 0 274937 12
1 2640.45 2385.54 2353.12 0 0 0 279424 14
1 2475.16 2594.92 2690.02 1 0 0 172146 14
1 2513.31 2530.06 2671.2 1 0 0 212133 12
1 2677.86 2679.64 2310.52 -1 0 0 246488 13
1 2298.81 2473.38 2599.94 0 0 0 261224 11
1 2337.16 2452.2 2222.07 0 0 0 192241 11
1 2290.41 2357.57 2524.61 0 0 0 230519 11
1 2464.02 2640.24 2662.55 -1 0 -1 168262 11
1 2762.47 2427.11 2455.8 0 0 -1 261684 14
1 2605.53 2196.21 2191.82 -1 0 0 255300 12
1 2452.55 2567.58 2606.31 -1 0 -1 221345 13
1 2229.74 2308.25 2479.85 0 -1 -1 248651 11
1 2217.6 2256.89 2700.84 0 1 -1 243575 13
1 2824.46 2296.95 2336.24 -1 0 0 284752 11
1 2178.4 2448.79 2732.15 0 0 0 300330 15
1 2671.38 2802.33 2816.9 -2 0 -1 267270 13
1 2268.92 2718.38 2366.81 0 -1 0 266678 10
1 2522.04 2404.89 2703.56 -1 1 0 222675 10
1 2804.4 2288.21 2791.46 -1 0 -1 290308 12
1 2641.45 2472.14 2515.4 -1 0 -1 235970 11
1 2688.8 2498.68 2664.15 0 -1 -1 240472 12
1 2204.45 2337.28 2605.35 0 -1 0 246329 14
1 2689.92 2173.22 2665.95 0 1 -1 217976 16
1 2243.66 2672.71 2801.61 0 0 -1 270821 12
1 2259.03 2740.41 2498.06 0 -1 -1 250202 12
1 2366.28 2345.99 2622.73 0 0 0 258588 11
1 2817.76 2202.19 2549.49 -1 -1 -1 161944 11
1 2480.29 2509.79 2472.41 0 -1 0 274963 12
1 2328.49 2225.57 2474.01 0 0 0 277728 10
1 2339.27 2208.96 2333.95 0 0 1 251878 13
1 2211.93 2512.24 2529.37 0 -1 -1 215584 12
1 2804.76 2818.12 2178.68 -1 -1 0 256015 10
1 2652.76 2318.89 2185.76 0 0 0 241899 11
1 2724.16 2365.85 2289 -1 0 -1 257870 13
1 2224.37 2623.23 2561.94 1 0 0 186827 14
1 2785.66 2243.33 2631.59 -1 0 0 236515 14
1 2639.43 2305.48 2264.88 -1 0 0 230927 11
1 2202.76 2472.75 2584.2 0 0 -1 279297 12
1 2487.35 2631.3 2791.47 0 -1 -1 172439 13
1 2324.59 2345.07 2586.58 0 0 0 236504 12
1 2788.84 2363.45 2524.4 -1 0 0 161836 14
1 2627.07 2794.11 2324.17 0 -1 0 260325 11
1 2357.48 2624.37 2747.81 0 -1 -1 213679 14
1 2455.19 2741.66 2800.07 -1 0 -2 248954 10
1 2327.32 2299.18 2558.93 -1 -1 -1 209211 10
1 2681.19 2213.93 2566.56 -1 0 0 258865 11
1 2582.56 2628.2 2763.87 -1 -1 0 208716 10
1 2410.03 2525.94 2817.2 0 0 0 203190 14
1 2669.13 2798.63 2372.39 0 -1 0 207087 10
1 2374.98 2488.84 2217.84 0 0 1 196534 11
1 2395.58 2341.81 2184.24 0 0 0 285164 12
1 2192.76 2397.02 2290.38 1 0 0 235263 10
1 2687.74 2255.42 2747.61 0 0 0 230114 12
1 2595.54 2651.72 2200.83 0 -1 0 247776 10
1 2691.57 2529.84 2318.12 0 -1 0 295198 13
1 2682.77 2591.62 2284.07 -1 -1 0 236609 13
1 2556.19 2365.16 2182.5 0 0 0 300758 13
1 2405.69 2422.56 2769.87 0 1 0 252374 12
1 2800.3 2509.64 2263.7 0 0 0 272631 12
1 2411.63 2819.72 2337.09 0 -1 0 205598 11
1 2187.96 2759.31 2254.13 1 -1 0 271376 12
1 2346.73 2752.16 2631.18 1 -1 -1 288662 12
1 2648.42 2480.42 2202.98 0 0 0 270031 11
1 2626.3 2836.3 2493.79 0 -1 0 259004 10
1 2371.62 2264.98 2250.28 1 0 0 235321 12
1 2180.47 2373.7 2735.88 1 0 -1 268374 12
1 2819.14 2175.45 2639.46 0 0 -1 184739 12
1 2733.98 2325.07 2249.39 0 0 0 231649 13
1 2725.46 2679.15 2526.57 0 -1 0 184218 12
1 2252.14 2794.97 2644.87 1 -1 0 248234 10
1 2655.72 2698.65 2409.49 -1 -1 -1 215036 11
1 2512.1 2310.64 2712.85 1 -1 0 223144 10
1 2589.72 2350.69 2504.59 1 -1 -1 282867 11
1 2409.55 2233.54 2662.63 1 -1 -1 267172 12
1 2560.78 2453.96 2828.16 1 0 -1 235319 11
1 2318.37 2275.65 2376.49 0 0 0 255348 12
1 2223.31 2571.8 2573.32 0 0 -1 171086 11
1 2331.64 2633.21 2570.63 1 -1 -1 178345 11
1 2445.86 2220.39 2171.52 1 0 0 255901 11
1 2244.74 2745.73 2548.81 1 -2 0 209631 10
1 2589.13 2708.58 2268.29 0 -1 1 237887 12
1 2822.18 2643.35 2429.46 0 -1 -1 208273 12
1 2443.64 2647.78 2766.17 0 -1 -1 146760 12
1 2357.54 2828.58 2746.08 0 0 -1 219265 12
1 2310.08 2498.79 2393.37 1 0 0 276009 11
1 2679.08 2801.61 2488.42 1 -1 -1 265540 10
1 2533.16 2376.31 2660.28 1 0 -1 177480 11
1 2542.49 2269.6 2699.75 0 0 0 202210 12
1 2419.72 2655.6 2687.33 0 0 0 182244 10
1 2732.7 2318.63 2498.65 -1 1 0 210079 13
1 2459.52 2524.77 2796.18 0 0 0 216575 13
1 2665.01 2338.24 2351.19 0 0 -1 194285 11
1 2792.36 2178.65 2685.34 0 0 -1 192633 12
1 2659.6 2604.95 2330.21 0 -2 0 227410 13
1 2436.06 2245.29 2416.65 0 0 0 268104 10
1 2692.88 2536.91 2425.7 0 -1 0 206687 11
1 2175.47 2359.75 2643.65 1 0 -1 262866 14
1 2727.74 2552.27 2506.01 0 -1 -1 221673 11
1 2533.53 2579.98 2676.56 0 1 -1 197183 12
1 2297.29 2559.25 2459.74 0 -1 0 222738 10
1 2238.64 2349.14 2513.39 -1 0 -1 230399 14
1 2608.16 2401.11 2536.37 0 1 -1 272904 13
1 2258.18 2794.77 2180.38 0 0 0 275272 12
1 2758.88 2473.98 2272.12 -1 0 0 291956 12
1 2337.24 2452.02 2789.77 0 1 0 223075 11
1 2519.53 2627.85 2656.59 -1 0 -1 223314 14
1 2304.04 2536.97 2691.62 -2 -1 -1 208369 14
1 2656.36 2694.42 2801.07 -1 0 -1 338989 13
1 2694.45 2762.15 2566.87 -1 0 0 221510 12
1 2669.83 2448.63 2669 0 0 -1 246068 11
1 2712.6 2323.38 2371.84 -1 0 -1 268031 11
1 2442.88 2185.24 2251.24 0 1 0 251702 13
1 2539.9 2633.85 2798.01 -1 -1 -1 200268 13
1 2253.21 2339.49 2396.6 0 1 0 237846 11
1 2783.83 2493.46 2837.02 -1 0 0 284988 11
1 2298.88 2327.87 2272.38 0 1 0 261439 12
1 2835.07 2185.91 2187.3 -1 1 0 254864 11
1 2830.45 2784.78 2550.5 -1 0 0 192835 13
1 2323.85 2286.8 2246.41 0 1 0 226926 12
1 2713.11 2621.15 2316.87 0 0 0 212842 10
1 2459.41 2547.05 2670.69 -1 0 -1 181079 12
1 2216.63 2676.82 2617.26 0 0 -1 183409 11
1 2799.97 2682.53 2189.93 -1 0 0 247201 11
1 2290.66 2628.18 2606.32 0 0 -1 173859 12
1 2676.21 2515.41 2521.11 0 0 -1 205919 11
1 2311.49 2579.86 2411.71 0 0 0 269779 14
1 2462.5 2652.18 2833.57 0 0 -1 235619 12
1 2643.14 2437.58 2555.79 -2 0 -1 237249 10
1 2286.77 2770.4 2335.5 0 0 0 263416 12
1 2248.91 2667.36 2406.62 0 0 0 257303 10
1 2596.04 2796.71 2752.18 0 0 -1 249228 12
1 2233.23 2483.45 2671.87 0 0 -1 241592 14
1 2298.76 2481.7 2813.44 -1 0 0 199364 11
1 2763.35 2746.29 2519.56 -1 0 -1 255076 15
1 2244.66 2383.5 2583.46 0 0 0 248202 14
1 2747.71 2631.84 2355.55 0 0 -1 220517 10
1 2733.36 2726.67 2560.35 -1 0 -1 161876 12
1 2768.49 2628.92 2604.04 0 0 -1 188973 12
1 2657.85 2645.67 2688.14 0 -1 -1 206158 12
1 2372.68 2601.82 2594.74 0 0 -1 229831 13
1 2740.67 2816.97 2723.31 -1 0 -1 207180 12
1 2296.74 2521.18 2558.56 0 -1 0 233684 13
1 2217 2721.47 2587.64 0 0 0 187213 12
1 2456.38 2487.31 2756.55 1 0 0 244448 13
1 2197.61 2199.49 2810.71 0 1 -1 272135 13
1 2360.44 2545.37 2748.28 -1 0 -1 201368 14
1 2763.52 2681.65 2489 -1 0 0 213892 11
1 2467.94 2353.13 2273.81 0 1 0 273169 10
1 2188.26 2190.09 2270.48 0 0 0 295824 12
1 2180.75 2607.44 2452.77 0 -2 0 214379 12
1 2397.65 2305 2476.63 0 -1 1 286564 11
1 2528.39 2515.07 2576.03 -1 -1 0 214457 11
1 2352.15 2413.48 2253.95 0 -1 1 212930 11
1 2445.09 2167.34 2301.81 -1 0 1 213158 11
1 2406.9 2697.88 2243.3 -1 -1 1 249717 10
1 2774.16 2312.93 2531.02 0 0 0 190017 12
1 2758.85 2338.65 2736.17 -1 0 0 266761 12
1 2220.87 2202.42 2695.82 1 0 0 239071 14
1 2224.35 2638.84 2510.25 0 -1 0 251561 12
1 2364.58 2618.14 2186.22 0 0 1 232310 10
1 2337.81 2572.51 2672.75 0 0 0 185937 11
1 2423.98 2563.47 2514.36 -1 0 0 282872 12
1 2679.21 2482.23 2789.66 -1 0 0 289077 11
1 2651.57 2586.19 2379.85 -1 -1 0 257579 13
1 2383.96 2331.81 2296.97 0 0 1 275788 15
1 2706.29 2321.59 2544.85 -1 0 1 232581 12
1 2619.77 2492.17 2645.17 -1 -1 0 246424 12
1 2372.86 2798.23 2705.38 1 -1 0 229627 13
1 2654.02 2222.63 2774.17 0 0 0 248965 11
1 2304.74 2322.06 2400.42 0 0 1 227467 9
1 2681.7 2545.83 2476.8 -1 0 0 217493 12
1 2527.39 2478.67 2506.04 0 -1 0 300593 14
1 2560.11 2230.41 2730.48 -1 1 0 231846 10
1 2374.78 2479.93 2830.65 0 -1 0 205094 14
1 2774.9 2345.14 2476.67 -1 -1 1 249135 14
1 2785.41 2798.69 2415.21 -1 -1 1 241754 10
1 2711.71 2515.76 2561.7 -1 -1 0 231081 13
1 2494.39 2834.22 2734.26 0 -1 0 244927 10
1 2488.86 2254.81 2414.84 0 0 0 266797 12
1 2299.16 2610.47 2707.51 0 -1 0 205968 15
1 2281.22 2572.25 2587.88 0 0 0 192157 13
1 2761.86 2555.71 2632.79 -2 0 0 206859 11
1 2447.58 2691.22 2660.13 -2 -1 0 237485 12
1 2208.77 2573.3 2624.35 0 1 0 193213 12
1 2249.53 2800.02 2309.16 0 -1 1 261067 11
1 2768.05 2193.79 2639.74 -1 -1 0 168989 13
1 2232.92 2393.52 2396.04 0 0 1 276345 10
1 2543.62 2814.21 2828.29 -1 -1 0 251401 10
1 2372.07 2323.38 2575.31 0 0 0 214870 11
1 2836.53 2757.99 2628.56 -2 -1 0 231345 13
1 2449.54 2253.68 2785.36 0 0 0 273938 12
1 2574.92 2393.22 2707.36 0 1 0 226067 12
1 2184.84 2739.32 2550.47 0 -2 0 195943 11
1 2402.78 2436.64 2718.7 -1 -1 0 242504 11
1 2277.41 2456.64 2181.64 0 0 1 257986 12
1 2703.62 2304.87 2188.03 -1 0 1 199534 13
1 2176.98 2599.79 2571.95 0 -1 0 180785 13
1 2426.36 2762.16 2690.97 0 -1 0 259578 13
1 2720.21 2638.18 2701.78 0 0 0 255437 11
1 2556.79 2691.69 2306.21 0 0 -1 263850 14
1 2740.77 2167.7 2676.88 1 1 -1 183611 11
1 2575.3 2463.42 2334.04 0 0 -1 307962 12
1 2685.57 2604.65 2670.21 -1 -1 -1 195070 11
1 2491.41 2671.98 2756.88 0 0 -1 167956 11
1 2564.56 2213.47 2503.93 0 1 0 309721 12
1 2212.75 2572.11 2277.32 1 0 0 283352 12
1 2718.14 2524.33 2626.75 0 1 -1 195388 12
1 2416.49 2494.67 2186.53 1 1 0 212980 13
1 2683.66 2193.77 2223.79 0 1 0 312793 13
1 2658.09 2823.91 2769.65 0 0 -1 202781 11
1 2736.5 2397.58 2603.15 0 0 -1 216843 13
1 2444.88 2788.83 2309.61 1 -1 0 224496 12
1 2263.46 2231.68 2711.16 0 1 0 212657 10
1 2219.18 2539.49 2663.76 2 0 -1 212756 12
1 2502.07 2726.02 2757.64 0 0 -1 248635 13
1 2258.69 2515.16 2706.72 1 1 0 192940 12
1 2796.82 2236.04 2760.95 -1 1 -1 234262 12
1 2497.32 2365.09 2622.11 0 0 -1 276237 13
1 2748.16 2333.61 2198.88 0 1 -1 229369 10
1 2757.51 2224.01 2436.97 0 0 -1 226450 12
1 2691.37 2733.64 2204.74 0 0 0 309451 13
1 2552.39 2344.1 2700.79 0 0 0 195371 13
1 2818.82 2212.98 2602.45 0 0 0 136858 12
1 2771.52 2365.95 2631.77 -1 0 0 258311 14
1 2338.05 2346.54 2173.55 1 0 1 265255 12
1 2431.03 2608.09 2267.99 1 0 0 226241 11
1 2330.86 2580.3 2571.01 1 0 0 198512 12
1 2777.31 2674.72 2437.78 0 0 0 202630 13
1 2557.34 2312.43 2418.07 0 0 0 303013 15
1 2639.93 2251.78 2624.05 0 0 -1 268012 13
1 2772.31 2216.56 2576.48 0 1 -1 188823 13
1 2810.85 2579.7 2544.03 0 0 -1 224248 14
1 2593.72 2530.78 2619.87 0 0 0 185779 10
1 2584.55 2301.28 2689.04 0 1 -1 201593 11
1 2642.26 2802.28 2722.4 0 0 -1 209071 13
1 2532.94 2188.68 2708.63 1 1 0 249788 14
1 2640.26 2687.44 2659.73 0 0 -1 248458 12
1 2690.53 2693.63 2564.53 0 1 -1 201783 12
1 2282 2307.23 2682.67 1 -1 -1 319656 15
1 2173.41 2171.43 2582.61 1 1 -1 172274 13
1 2292.08 2645.74 2658.57 0 0 -1 190285 11
1 2357.49 2245.88 2655.56 1 0 0 241809 10
1 2632.31 2626.9 2782.76 -1 1 0 273467 12
1 2549.64 2452.56 2289.36 0 0 0 255422 11
1 2773.6 2722.17 2167.38 0 0 0 211925 12
1 2806.88 2585.55 2598.8 0 1 -1 197094 12
1 2187.1 2222.43 2572.9 1 0 0 196085 12
1 2267.86 2612.13 2389.68 1 0 0 257034 12
1 2801.89 2628.36 2563.46 -1 0 0 170194 13
1 2352.63 2835.13 2318.13 0 -1 1 217341 11
1 2817.22 2375.33 2289.84 0 0 0 272111 13
1 2435.52 2665.43 2273.29 0 -1 1 208437 10
1 2764 2709.65 2790.69 0 -1 -1 224780 10
1 2425.42 2376.79 2407.74 0 0 1 306965 11
1 2836.12 2517.17 2511.48 0 0 0 239529 10
1 2804.54 2726.21 2757.71 0 0 0 231226 12
1 2502.66 2561.76 2587.65 1 -1 0 192924 11
1 2673.46 2603.33 2599.19 -1 -1 0 194924 11
1 2419.57 2549.33 2769.17 0 0 0 192033 13
1 2266.09 2685.6 2635.37 1 -1 0 214236 12
1 2200.81 2565.37 2428.12 1 0 0 227027 12
1 2580.78 2598.53 2294.61 0 0 1 286883 12
1 2773.13 2794.52 2583.73 0 -1 0 184633 13
1 2557.28 2189.37 2168.39 0 0 1 245211 11
1 2714.85 2495.53 2401.9 0 -1 1 276791 14
1 2822.54 2697.72 2419.57 0 -1 0 243175 11
1 2724.6 2240.74 2474.06 0 0 0 224297 11
1 2566.65 2664.34 2715.67 0 -1 0 241470 14
1 2337.05 2249.01 2575.71 0 0 0 265537 14
1 2440.29 2807.85 2221.18 0 -1 1 276507 12
1 2367.61 2433.83 2301.51 0 -1 0 251787 11
1 2544.84 2674.51 2762.53 1 -1 0 199771 12
1 2622.31 2690.23 2369.29 1 0 1 244899 15
1 2343.69 2516.34 2806.01 0 0 0 225616 14
1 2545.73 2652.48 2183.01 1 0 2 242306 12
1 2174.33 2617.43 2795.95 1 -1 0 280220 11
1 2714.81 2582.87 2628.3 0 -1 0 186179 12
1 2693.31 2796.77 2741.7 0 0 0 224679 13
1 2700.31 2166.2 2376.63 0 0 1 255327 10
1 2644.12 2817.58 2670.84 0 -1 0 208198 11
1 2400.45 2653.84 2736.38 0 -1 0 189504 15
1 2686.23 2302.58 2239.6 0 1 1 212688 13
1 2422.3 2547.47 2709.5 -1 0 0 201959 15
1 2206.99 2590.49 2675.9 1 -1 1 237349 13
1 2636.73 2316.52 2690.36 1 0 0 241304 12
1 2639.41 2618.93 2645.45 1 -1 0 223621 11
1 2738.79 2280.53 2738.75 -1 0 1 241297 12
1 2611.01 2718.76 2618.55 0 -1 1 258039 10
1 2798.58 2673.26 2610.78 0 -1 0 218929 13
1 2391.23 2450.53 2251.31 0 0 1 208751 11
1 2375.77 2579.25 2711.26 1 0 0 171346 13
1 2292.72 2663.4 2709.45 0 -1 0 234137 12
1 2637.6 2308.31 2318.26 0 1 0 195128 12
1 2781.83 2379.55 2580.58 -1 0 0 165153 12
1 2729.98 2193.76 2555.15 0 0 1 220096 13
1 2251.82 2546.16 2485.27 0 0 0 231633 13
1 2791.73 2829.76 2547.53 0 -1 0 173259 13
1 2191.39 2385.36 2523.43 1 -1 0 263277 13
1 2580.02 2524.73 2569.64 0 0 0 224907 11
1 2255.58 2224.54 2763 0 1 0 274700 14
1 2825.46 2577.16 2410.39 0 0 1 230224 12
1 2811.19 2752.38 2254.19 -1 0 0 252590 12
1 2398.82 2186.3 2753.47 -1 0 -1 244692 12
1 2696.16 2639.13 2565.18 -1 0 1 208231 13
1 2743.06 2359.12 2549.48 -2 0 1 166243 12
1 2762.99 2188.76 2743.75 -1 0 0 221075 13
1 2200.96 2288.76 2583.03 1 1 0 251343 12
1 2815.22 2709.95 2808.36 0 0 0 221729 11
1 2787.19 2169.29 2597.61 -1 0 0 141898 12
1 2591.39 2250.16 2258.84 0 1 1 256066 13
1 2409.44 2508.59 2634.04 0 0 0 263045 13
1 2752.05 2410.94 2548.57 -1 0 0 189093 12
1 2208.64 2712.87 2715.31 0 0 0 281088 13
1 2564.78 2418.96 2661.62 -1 1 0 228201 12
1 2424.78 2601.54 2709.64 0 0 0 161631 15
1 2431.51 2459.84 2626.99 0 0 0 224697 10
1 2749.17 2641.73 2557.15 -1 -1 0 162112 13
1 2327.74 2640.62 2830.06 1 0 0 271633 13
1 2544.73 2804.64 2737.43 -1 0 0 248357 14
1 2793.15 2805.02 2351.43 -1 0 1 231265 9
1 2626.34 2772.47 2385.48 -1 0 1 247960 13
1 2835.79 2666.96 2690.4 0 0 0 311175 16
1 2662.91 2793.84 2623.09 -1 -1 0 255091 13
1 2646.43 2709.28 2463.52 0 0 0 266575 10
1 2330.59 2451.31 2168.87 0 1 0 185366 12
1 2223.05 2705.64 2519.83 0 1 1 234250 14
1 2168.59 2703.67 2621.19 0 0 0 215668 12
1 2245.27 2516.07 2759.62 -1 0 0 250359 12
1 2751.23 2684.78 2587.77 -1 0 0 180534 14
1 2786.53 2676.8 2542.84 -1 0 0 190871 13
1 2399.02 2289 2327.65 -1 1 1 265053 14
1 2796.09 2169.81 2442.55 -1 1 1 217173 11
1 2308.73 2784.15 2837.15 0 0 0 268226 11
1 2461.66 2735.69 2569.31 0 0 0 283059 10
1 2226.97 2635.37 2763.12 1 -1 0 273955 16
1 2827.69 2236.64 2499.07 -2 1 0 260746 14
1 2781.46 2514.82 2603.27 -1 1 0 270733 13
1 2254.87 2164.98 2675.45 0 1 0 236416 11
1 2439.52 2576.92 2223.43 0 0 1 255647 14
1 2628.15 2823.02 2202.26 -1 0 0 251597 12
1 2237.49 2627.65 2614.25 0 0 1 191753 14
1 2673.64 2266.4 2499.92 -1 0 0 294966 14
1 2637.91 2711.47 2295.21 -1 0 0 222703 12
1 2835.53 2533.43 2439.72 -1 -1 0 231669 11
1 2475.28 2614.76 2617.76 0 0 0 204999 12
1 2807.23 2389.11 2408.46 -1 0 0 318884 13
1 2774.25 2438.23 2507.81 -2 0 1 228797 12
1 2329.9 2655.5 2522.41 0 0 0 242019 12
1 2334.28 2554.4 2247.31 1 0 1 252583 11
1 2443.91 2413.81 2600.86 1 -1 0 254520 10
1 2178.89 2252.44 2615.67 1 1 0 207420 12
1 2542.08 2544.25 2627.82 1 0 0 175192 14
1 2598.81 2464.72 2189.75 0 0 0 236395 11
1 2573.34 2587.21 2641.06 0 0 0 234449 13
1 2166.46 2832.38 2530.89 0 1 0 192679 12
1 2683.5 2396.45 2631.23 0 0 1 263271 13
1 2732.85 2561.25 2452.07 0 0 0 213124 11
1 2331.26 2600.86 2627.85 1 0 0 191174 14
1 2351.16 2787.58 2510.83 0 0 1 282853 9
1 2484.56 2749.65 2323.37 1 0 0 295504 13
1 2357.36 2602.33 2237.98 0 0 0 246037 12
1 2362.4 2445.65 2684.42 0 1 0 263553 13
1 2253.14 2544.87 2538.51 0 1 0 188196 12
1 2604.53 2273.09 2339.49 0 1 1 246059 13
1 2410.44 2248.63 2216.07 0 1 1 253228 14
1 2747.11 2670.73 2393.24 -1 0 0 207883 12
1 2373.35 2671.36 2565.6 1 0 0 242109 11
1 2807.93 2335.73 2566.44 0 1 1 241260 15
1 2447.58 2689.77 2798.27 0 0 1 194362 12
1 2648.32 2200.09 2682.99 0 1 0 244028 14
1 2505.99 2468.23 2184.01 1 0 1 280749 12
1 2181.92 2557.25 2318.48 0 0 0 282211 13
1 2540.54 2252.98 2272.14 0 1 1 248641 12
1 2809.81 2221.32 2444.95 1 0 0 227166 13
1 2735.56 2761.31 2602.2 0 -1 0 222226 12
1 2406.78 2607.2 2762.07 1 0 0 168853 12
1 2577.55 2493.73 2743.56 0 0 0 290768 11
1 2451.1 2477.73 2374.12 1 0 0 264148 10
1 2217.86 2443.38 2278.87 1 0 2 266907 10
1 2386.12 2750.56 2724.58 0 0 -1 229291 12
1 2495.77 2570.55 2639.75 0 1 0 140972 12
1 2340.44 2209.06 2173.48 0 1 1 300303 12
1 2312.77 2567.11 2735.96 0 0 0 218471 14
1 2687.81 2552.67 2592.11 1 0 0 193002 10
1 2462.01 2639.87 2716.77 -1 0 0 159182 14
1 2616.55 2293.94 2645.85 2 0 0 225721 11
1 2750.99 2827.49 2327.27 0 0 1 228753 9
1 2822.03 2197.83 2733.66 -1 0 0 230532 12
1 2460.81 2597.85 2758.79 0 0 -1 186145 13
1 2822.48 2802.85 2600.5 -2 -1 1 162864 11
1 2696.95 2250.67 2188.43 0 1 1 250607 12
1 2255.64 2396.98 2533.52 1 1 0 210683 12
1 2805.08 2409.8 2542.11 -1 0 -1 189467 11
1 2800.71 2428.25 2661.26 -1 1 1 295131 13
1 2721.24 2717.81 2392.61 0 0 0 244177 11
1 2391.57 2194.19 2331.59 1 0 2 218610 14
1 2477.17 2634.86 2261.16 1 0 1 249632 12
1 2270.01 2412.04 2684.59 1 1 0 277267 11
2 2191.04 2757.23 2764.17 0 -1 -1 384315 16
2 2441.09 2198.5 2612.7 -1 0 0 406652 13
2 2512.02 2610.75 2336.14 0 0 0 428883 15
2 2308.92 2214.89 2409.83 0 0 0 366233 15
2 2215.08 2216.29 2214.5 0 0 0 401218 17
2 2720.32 2236.82 2615.95 0 0 0 342897 18
2 2654.33 2634.37 2172.05 0 0 0 366964 14
2 2192.57 2328.31 2293.64 0 0 0 363166 14
2 2426.17 2799.22 2746.89 0 -1 -1 319634 16
2 2239.51 2273.76 2823.03 0 0 -1 407755 14
2 2355.3 2343.61 2513.18 0 0 0 354030 16
2 2196.06 2575.9 2511.21 0 0 0 263721 18
2 2708.13 2679.57 2447.18 0 -1 0 308408 16
2 2390.46 2228.54 2807.53 0 0 -1 309486 15
2 2184 2248.72 2302.37 0 0 0 392366 16
2 2688.12 2800.69 2224.14 -1 -1 0 359420 16
2 2589.1 2741.15 2336.77 -1 -1 0 317364 17
2 2246.21 2410.98 2331.03 0 0 0 364405 16
2 2284.55 2447.78 2265.66 0 0 0 372173 16
2 2404.24 2589.8 2455.94 0 -1 0 383642 14
2 2808.66 2313.63 2400.36 -1 0 0 381387 17
2 2774.29 2529.24 2407.15 -1 -1 0 334593 14
2 2228.82 2367.58 2170.66 0 0 0 439967 15
2 2656.11 2334 2501.92 -1 0 -1 348371 15
2 2804.71 2290.99 2723.98 -1 0 -1 335480 16
2 2490.83 2687.66 2222.92 0 0 0 347542 16
2 2348.26 2203.22 2264.8 0 0 0 356079 16
2 2356.28 2386.18 2796.82 0 0 -1 348590 15
2 2753.86 2233.85 2692.24 -1 0 -1 307185 18
2 2477.11 2798.53 2502.32 0 -1 0 436073 15
2 2648.61 2246.29 2295.67 -1 0 0 338156 14
2 2345.18 2691.47 2741.74 0 -1 -1 332385 15
2 2201.06 2299.63 2214.97 0 0 0 437457 15
2 2357.93 2283.24 2186.29 0 0 0 316912 15
2 2675.24 2195.18 2831.48 -1 0 -1 317651 16
2 2408.73 2753.73 2512.59 0 -1 0 401470 16
2 2293.81 2238.78 2210.91 0 0 0 365923 14
2 2314.23 2255.89 2796.22 0 0 -1 382651 15
2 2277.43 2323.5 2336.88 0 0 0 359626 16
2 2207.75 2295.6 2369.35 0 0 0 374327 14
2 2794.13 2774.06 2804.47 -1 -1 -1 324008 15
2 2314.38 2722.32 2813.46 0 -1 -1 389999 15
2 2800.68 2308.14 2247.79 -1 0 0 391337 16
2 2335.96 2271.51 2309.67 0 0 0 308640 16
2 2705.31 2458.09 2612.69 -1 0 -1 314647 17
2 2802.31 2740.39 2369.13 -1 -1 0 356922 17
2 2193.09 2326.65 2781.48 0 0 -1 398963 15
2 2705.3 2428.59 2269.9 -1 0 0 372528 14
2 2443.74 2483.4 2689.78 0 0 -1 304804 16
2 2556.11 2671.28 2369.79 0 -1 0 384228 15
2 2324.26 2338.34 2726.56 0 0 -1 406498 14
2 2172.72 2674.54 2757.54 0 -1 -1 304085 17
2 2294.07 2174.66 2731.86 0 0 -1 339166 16
2 2685.17 2321.59 2738.07 -1 0 -1 340718 15
2 2301.27 2387.14 2385.82 0 0 0 355151 14
2 2282.7 2318.53 2205.53 0 0 0 351914 14
2 2250.15 2373.57 2257.99 0 0 0 378654 15
2 2710.19 2651.79 2630.79 -1 -1 -1 284892 18
2 2364.72 2772.23 2338.4 0 -1 0 354515 14
2 2262.07 2278.52 2427.41 0 0 0 336417 16
2 2171.93 2784.32 2314.77 0 -1 0 360143 16
2 2353.3 2346.7 2238.52 0 0 0 283263 14
2 2615.78 2644.9 2420.42 0 0 0 385147 17
2 2279.26 2351.63 2457.41 0 0 0 337730 17
2 2808.83 2223.78 2238.98 -1 0 0 395777 14
2 2523.45 2615.09 2734.46 0 -1 -1 265762 16
2 2714.6 2209.2 2326.1 -1 0 0 393576 16
2 2289.66 2285.33 2504.66 0 0 0 349109 16
2 2397.09 2182.94 2201.77 0 0 0 324320 14
2 2254.91 2277.73 2272.02 0 0 0 391293 15
2 2225.74 2208.65 2406.05 0 0 0 418520 15
2 2175.32 2758.68 2433.15 0 -1 0 397102 17
2 2712.18 2667.54 2773.14 0 0 -1 377320 17
2 2409.72 2652.32 2619.65 0 0 0 320261 17
2 2609.48 2583.75 2582.68 0 -1 0 352787 17
2 2769.34 2701.34 2246.64 0 -1 0 364313 15
2 2754.2 2188.49 2183.92 0 0 0 397909 17
2 2294.24 2634.07 2771.2 0 -1 -1 307912 14
2 2689.75 2366.9 2215.98 -1 0 0 338725 17
2 2559.61 2170.16 2452.72 0 1 0 398158 14
2 2571.57 2818.79 2531.81 0 -1 0 430489 17
2 2341.29 2448.33 2424.63 0 0 0 404290 14
2 2749.77 2456.27 2206.53 0 0 0 374130 16
2 2705.48 2303.39 2306.88 0 0 0 312395 15
2 2430.66 2630.32 2331.3 0 -1 0 391826 16
2 2632.66 2257.8 2206.98 0 0 0 326080 17
2 2633.59 2173.37 2264.74 0 0 0 368870 16
2 2496.91 2762.57 2189.54 0 -1 0 383681 15
2 2285.86 2795.6 2525.05 0 -1 0 364844 15
2 2452.39 2447.08 2221.68 0 0 0 358534 14
2 2672.1 2359.63 2809.55 0 0 -1 383962 14
2 2456.7 2310.81 2751.51 0 0 -1 382421 15
2 2811.21 2331.38 2169.14 0 0 0 394238 15
2 2181.39 2437.32 2410.83 0 0 0 387334 16
2 2526.79 2351.51 2241.01 0 0 0 343618 15
2 2716.41 2572.44 2364.81 0 -1 0 320484 18
2 2539.93 2185.5 2777.32 0 0 -1 305382 16
2 2549.07 2429.96 2222.43 0 0 0 351569 17
2 2199.54 2323.49 2696.3 1 1 0 341575 16
2 2320.71 2541.14 2342.09 1 0 1 390095 16
2 2567.45 2812.13 2296.51 0 -1 0 392873 14
2 2413.27 2390 2271.63 0 0 0 328688 17
2 2788.79 2527.69 2729.16 0 0 -1 432285 17
2 2441.68 2527.07 2419.72 -1 0 0 361494 14
2 2592.01 2675.34 2811.76 0 0 -1 304597 17
2 2401.13 2368.02 2729.59 0 0 -1 392582 14
2 2609.12 2453.1 2699.21 0 0 -1 319179 15
2 2218.93 2439.39 2211.62 0 0 1 398148 17
2 2607.12 2348.66 2224.88 0 0 0 349433 16
2 2660.5 2663.08 2512.4 0 0 0 364345 15
2 2343.15 2283.12 2440.96 0 0 0 343521 16
2 2835.42 2652.01 2238.52 0 -1 0 378585 14
2 2762.9 2774.9 2209.11 0 0 0 366235 16
2 2200.07 2407.87 2682.84 1 0 0 313611 14
2 2469.05 2411.39 2369.74 0 0 0 376118 14
2 2388.48 2741.22 2790.14 0 -1 -1 370285 17
2 2419.69 2237.04 2288.37 0 0 0 315802 16
2 2736.22 2619.02 2496.05 0 -1 0 320929 19
2 2278.43 2418.35 2800.58 0 0 -2 351827 16
2 2302.71 2398.04 2200.88 1 0 0 330469 17
2 2563.61 2731.38 2728.41 0 -1 -1 353929 16
2 2257.14 2657.35 2338.36 0 -1 0 382667 16
2 2555.33 2649.39 2254.97 0 0 0 327874 17
2 2500.27 2179.42 2557.99 0 0 0 447167 14
2 2366.84 2260.79 2516.81 0 0 0 341016 15
2 2605.74 2402.65 2833.96 0 0 -1 372208 17
2 2174.24 2450.44 2329.87 0 -1 0 382771 17
2 2550.21 2539.71 2312.58 0 0 0 392793 14
2 2646.22 2521.78 2731.4 0 0 -1 400663 17
2 2581.06 2596.79 2162.95 0 0 0 355157 16
2 2427.08 2718.73 2182.56 1 -1 0 346225 15
2 2308.36 2416.35 2495.13 0 -1 0 392581 15
2 2496.81 2608.51 2199.85 0 0 0 335882 16
2 2649.81 2426.07 2766.08 0 0 -1 391199 17
2 2307.61 2409.3 2577.4 0 0 0 331081 16
2 2768.58 2617.76 2211.41 -1 0 -1 399567 14
2 2440.53 2767.57 2373.58 0 -1 0 360242 14
2 2485.59 2569.89 2271.6 0 0 0 358914 14
2 2522.25 2203.37 2386.28 0 0 0 390848 13
2 2546.63 2286.71 2766.95 0 1 -1 370820 16
2 2776.63 2448.21 2391.53 -1 0 0 389392 15
2 2609.87 2354.5 2751.72 0 0 -1 403793 17
2 2327.9 2621.62 2360.58 0 -1 0 395907 14
2 2597.58 2785.43 2604.8 0 -1 0 381758 14
2 2431.23 2457.5 2312.4 0 0 0 369448 15
2 2384.24 2616.26 2529.94 0 0 0 322693 16
2 2354.35 2584.29 2802.27 0 0 0 293558 15
2 2456.6 2367.86 2204.56 0 0 0 366341 16
2 2552 2199.08 2235.56 0 0 0 348811 15
2 2765.12 2610.36 2418.8 0 0 0 305575 17
2 2513.85 2227.26 2654.46 0 1 0 389058 15
2 2597.95 2358.08 2652.95 0 1 -1 311899 16
2 2741.77 2696.94 2331.36 0 0 0 346528 16
2 2324.99 2770.12 2743.7 -1 -1 0 354927 14
2 2413.64 2709.65 2321.38 0 0 0 395764 15
2 2442.33 2189 2377.84 -1 0 0 370526 17
2 2258.44 2464.83 2543.93 0 0 0 321245 17
2 2566.05 2714.74 2203.63 1 0 0 350239 14
2 2641.08 2692.87 2228.37 -1 0 0 340730 17
2 2628.31 2679.42 2738.77 -1 -1 -1 339578 16
2 2356.79 2333.06 2359.03 -1 0 0 336673 16
2 2354.29 2684.83 2201.62 0 0 0 371200 16
2 2792.09 2559.43 2482.42 -1 0 0 302577 16
2 2613.09 2561.35 2431.98 0 0 0 383835 14
2 2390.01 2487.39 2764 -1 0 -1 263660 17
2 2522.63 2641.88 2510.09 -1 0 0 440149 13
2 2263.99 2678.18 2568.16 1 -1 0 281927 18
2 2761.42 2741.71 2442.69 -1 0 -1 331897 16
2 2559.49 2702.1 2576.17 0 0 -1 441173 15
2 2577.61 2496.14 2392.79 0 0 0 407294 14
2 2590.9 2493.6 2256.52 0 0 0 382461 14
2 2712.3 2469.89 2340.62 -1 0 0 374206 15
2 2293.25 2493.58 2475.01 0 0 0 375116 17
2 2785.75 2445.46 2596.19 -1 0 0 322473 19
2 2468.43 2447 2493.52 0 0 0 373865 13
2 2595.16 2318.19 2824.61 -1 0 -1 396132 15
2 2511.46 2407.69 2826.45 0 0 -1 374562 15
2 2171.98 2475.38 2644.27 0 0 0 354745 17
2 2266.75 2242.3 2344.55 0 0 0 387144 13
2 2551.51 2278.69 2210.17 0 0 0 381493 17
2 2350.22 2496.57 2279.77 0 0 0 342196 16
2 2806.95 2806.14 2730.77 -1 -1 -1 339967 15
2 2463.9 2686.87 2384.64 0 0 0 432858 14
2 2329.33 2392.89 2654.96 -1 0 0 377905 18
2 2386.76 2389.75 2574.72 0 0 -1 364796 17
2 2687.87 2193.28 2502.64 0 1 0 300334 15
2 2742.36 2315.92 2797.12 0 1 -1 329879 16
2 2310.94 2499.74 2747.94 1 0 -1 279881 16
2 2291.05 2336.35 2801.3 0 0 -1 397738 15
2 2579.78 2559.01 2762.72 -1 0 -1 390449 17
2 2276.16 2670.13 2186.78 0 0 0 355302 12
2 2332.37 2719.86 2544.28 0 0 -1 358508 17
2 2369.61 2653.69 2279.33 0 0 0 356638 14
2 2525.41 2472.02 2706.24 0 0 -1 339491 16
2 2195.06 2507.38 2273.16 0 0 0 353088 15
2 2691.04 2804.75 2307.25 0 0 0 347901 16
2 2302.91 2593.02 2199.4 0 0 0 358839 17
2 2220.93 2705.4 2232.67 0 0 0 398833 16
2 2720.95 2828.25 2609.34 -1 0 0 276732 17
2 2746.9 2388.04 2834.5 -1 0 -1 380574 13
2 2481.18 2577.4 2476.91 0 0 0 369292 13
2 2498.52 2789.81 2785.65 0 0 -1 304593 14
2 2749 2312.36 2596.17 -1 0 0 328432 17
2 2819.01 2425.94 2172.12 -1 0 0 432534 15
2 2291.19 2163.59 2348.19 0 0 0 347448 15
2 2235.71 2545.2 2201.24 0 0 0 438906 15
2 2809.17 2184 2313.48 0 0 0 354463 15
2 2826.61 2481.99 2786.44 -1 0 -1 377665 14
2 2723.44 2393.05 2752.71 -1 0 -1 393207 16
2 2250.72 2781.71 2711.18 0 0 -1 354167 13
2 2342.78 2474.37 2540.46 -1 0 0 392620 15
2 2452.53 2656.34 2463.84 0 0 0 438306 16
2 2384.49 2410.26 2363.75 0 0 0 381057 16
2 2389.69 2211.31 2450.97 0 1 0 403258 15
2 2676.52 2261.66 2680.55 0 1 -1 325177 15
2 2355.37 2636.64 2680.99 1 0 -1 274921 17
2 2422.31 2641.13 2211.39 0 0 0 280727 15
2 2390.98 2574.3 2376.29 0 0 0 396094 12
2 2235.65 2804.21 2242.49 0 0 0 373400 16
2 2807.53 2659.28 2365.59 -1 0 0 321744 15
2 2305.34 2603 2284.22 0 0 0 383990 14
2 2736.38 2409.07 2670.9 -1 0 -1 337119 16
2 2555.55 2476.32 2626.2 0 0 -1 318090 17
2 2773.98 2340.98 2330.08 -1 0 0 361063 16
2 2808.76 2180.89 2797.3 0 0 -1 311302 15
2 2250.37 2372.09 2738.23 0 0 0 371812 15
2 2518.23 2774.64 2577.18 0 -1 0 417167 14
2 2263.79 2797.01 2788.8 0 -1 0 373610 16
2 2673 2583.23 2532.69 -1 0 0 323847 16
2 2650.33 2552.17 2648.53 0 0 0 290319 17
2 2524.57 2687.79 2442.57 0 0 0 412654 13
2 2835.64 2249.79 2162.94 -1 0 1 360819 16
2 2213.35 2178.39 2331.76 0 0 0 360128 12
2 2321.74 2744.92 2469.62 0 -1 0 368057 15
2 2820.86 2717.7 2498.84 -1 -1 0 322560 17
2 2730.98 2819.78 2449.27 -1 -1 0 349017 19
2 2684.02 2506.54 2254.64 -1 0 1 400218 16
2 2393.11 2809.04 2270.03 0 -1 0 328270 15
2 2331.52 2828.21 2461.39 0 -1 0 381929 14
2 2494.57 2817.77 2260.11 -1 0 1 348588 15
2 2559.44 2569.76 2237.93 0 0 0 392686 16
2 2448.45 2749.21 2256.06 0 -1 0 341803 15
2 2643.51 2502.55 2581.09 -1 -1 0 294236 19
2 2624.55 2752.27 2677.22 -1 -1 0 355438 18
2 2471.81 2523.31 2538.5 -1 0 0 317738 15
2 2662.89 2361.39 2414.59 -1 0 0 370057 15
2 2625.57 2429.79 2620.51 -1 0 -1 332413 16
2 2176.96 2373.06 2359.63 0 0 0 359557 16
2 2200.66 2704.1 2375.02 0 -1 0 359329 16
2 2544.63 2743.49 2648.98 0 -1 0 409240 15
2 2740.58 2314.09 2677.08 -1 0 0 380927 18
2 2200.86 2673.35 2455.33 0 -1 0 308651 16
2 2365.63 2163.19 2385.73 0 0 0 355068 15
2 2199.25 2348.6 2435.06 0 0 1 343799 17
2 2228.27 2178.97 2542.26 0 0 0 357246 16
2 2786.52 2441.48 2727.28 -1 0 0 376830 15
2 2773.75 2421.59 2313.85 -1 0 0 361442 14
2 2189.8 2245.73 2760.89 0 0 0 310171 16
2 2166.11 2829.42 2393.64 0 -1 0 363091 15
2 2212.95 2258.97 2523.34 0 0 0 330597 14
2 2282.29 2546.49 2807.28 0 -1 0 346785 15
2 2165.48 2323.59 2506.37 0 -1 0 324726 17
2 2633.3 2731.44 2554.36 0 -1 0 364429 15
2 2611.42 2187.07 2737.14 0 0 0 290757 16
2 2423.96 2307.67 2247.59 -1 0 1 302190 16
2 2608.01 2343.12 2571.3 0 -1 0 385683 17
2 2384.36 2712.35 2671.25 0 -1 0 311753 16
2 2317.43 2802.92 2666.22 0 -1 0 345720 16
2 2399.89 2806.01 2644.89 0 -1 0 374361 15
2 2379.33 2244.42 2375.82 0 0 0 311472 15
2 2621.72 2222.72 2467.41 0 0 0 343118 13
2 2587.12 2593.09 2362.21 -1 0 0 378234 15
2 2389.75 2419.99 2497.85 0 0 0 427992 14
2 2679.58 2727.26 2621.77 -1 0 0 289589 15
2 2581.28 2462.96 2544.85 -1 -1 0 314958 14
2 2413.95 2309.75 2410.77 0 0 0 330568 15
2 2230.62 2782.8 2372.04 0 -1 0 370003 15
2 2631.38 2424.92 2235.57 0 0 0 371282 14
2 2655.47 2366.79 2290.21 0 0 0 313820 16
2 2788.43 2553.68 2807.28 -1 0 -1 409534 16
2 2460.32 2738.27 2448.84 0 -1 0 423332 15
2 2764.82 2183.1 2384.82 -1 0 0 295734 16
2 2363.9 2369.86 2435.52 0 0 0 392068 15
2 2171.4 2629.68 2632.66 0 0 0 264791 17
2 2384.57 2493.07 2368.55 0 0 1 386087 15
2 2499.04 2813.77 2341.19 0 -1 0 357317 16
2 2626.54 2432.05 2399.03 -1 -1 0 392953 16
2 2439.14 2799.83 2574.38 0 -1 0 395232 14
2 2212.36 2788.86 2590.18 0 -1 0 287674 17
2 2384.93 2409.74 2195.2 0 0 1 335043 18
2 2381.65 2553.21 2198.29 0 0 1 285648 16
2 2376.21 2684.02 2480.51 0 -1 0 410259 15
2 2565.55 2186.31 2606.24 0 0 0 436440 17
2 2263.16 2212.72 2478.03 0 0 0 397465 15
2 2427.96 2310.52 2539.9 0 0 0 394893 15
2 2285.23 2751.1 2603.24 0 -1 0 323617 15
2 2798.47 2732.85 2577.92 -1 -1 0 240373 16
2 2516 2487.55 2787.51 0 0 0 345910 16
2 2833.6 2704.67 2301.1 -1 -1 0 410273 15
2 2310.07 2777.94 2398.03 0 -1 0 388365 15
2 2484.88 2201.06 2472.66 0 1 0 442756 17