ITEM: TIMESTEP
0
ITEM: NUMBER OF ATOMS
1000
ITEM: BOX BOUNDS pp pp pp
-1.0000000000000000e+02 4.1000000000000000e+03
-1.0000000000000000e+02 4.1000000000000000e+03
-1.0000000000000000e+02 4.1000000000000000e+03
ITEM: ATOMS type x y z ix iy iz
1 535.456 250.937 163.593 0 0 0
1 398.833 594.464 482.409 0 0 0
1 52.742 622.281 542.241 0 0 0
1 864.158 931.932 106.378 0 0 0
1 625.51 95.138 583.39 0 0 0
1 875.571 328.934 822.772 0 0 0
1 553.567 855.482 490.568 0 0 0
1 511.334 933.628 40.61 0 0 0
1 714.568 682.533 964.768 0 0 0
1 835.109 847.16 645.754 0 0 0
1 102.032 227.919 672.487 0 0 0
1 895.789 127.839 1000.6 0 0 0
1 775.8 489.517 391.235 0 0 0
1 854.028 408.429 731.822 0 0 0
1 730.394 0.022 637.986 0 0 0
1 466.635 627.385 581.886 0 0 0
1 346.294 968.032 148.605 0 0 0
1 779.451 18.347 974.88 0 0 0
1 157.443 563.306 709.515 0 0 0
1 435.147 575.084 71.92 0 0 0
1 793.847 67.443 323.261 0 0 0
1 764.348 457.322 275.045 0 0 0
1 294.3 214.446 976.725 0 0 0
1 317.692 278.877 357.006 0 0 0
1 596.412 660.549 441.028 0 0 0
1 2562.77 883.781 366.982 0 0 0
1 2701.68 420.672 292.149 0 0 0
1 2323.95 686.411 318.402 0 0 0
1 2938.39 695.934 34.122 0 0 0
1 2707.49 51.369 322.323 0 0 0
1 2645.8 0.838 545.367 0 0 0
1 2525.96 732.515 644.101 0 0 0
1 2881.95 612.521 382.646 0 0 0
1 3047.38 355.128 15.814 0 0 0
1 2505.05 963.339 130.71 0 0 0
1 2670.31 119.757 538.83 0 0 0
1 2520.89 353.664 331.147 0 0 0
1 2422.5 968.97 40.575 0 0 0
1 2861.97 417.43 487.113 0 0 0
1 2985.74 711.182 653.521 0 0 0
1 3054.42 292.587 283.128 0 0 0
1 2752.83 588.672 142.424 0 0 0
1 2500.94 692.511 77.056 0 0 0
1 3069.1 606.523 272.756 0 0 0
1 2412.95 484.589 123.412 0 0 0
1 2618.46 40.803 196.456 0 0 0
1 2533.8 16.349 498.284 0 0 0
1 3017.77 81.588 340.009 0 0 0
1 3017.44 702.574 217.123 0 0 0
1 3006.89 929.559 360.009 0 0 0
1 266.885 2841.4 981.078 0 0 0
1 313.42 2334.51 45.801 0 0 0
1 527.673 2524.61 181.103 0 0 0
1 190.102 2439.52 970.14 0 0 0
1 602.7 2678.9 831.926 0 0 0
1 430.303 2371.49 187.159 0 0 0
1 396.507 2247.74 0.004 0 0 0
1 494.692 2544.64 373.346 0 0 0
1 217.284 2646.16 89.582 0 0 0
1 441.954 2525.53 495.012 0 0 0
1 364.3 2502.66 698.399 0 0 0
1 101.543 2724.44 314.844 0 0 0
1 0.102 2572.04 871.841 0 0 0
1 240.543 2569.58 204.207 0 0 0
1 464.873 2728.94 119.994 0 0 0
1 259.34 2520.31 763.725 0 0 0
1 14.891 2424.11 538.174 0 0 0
1 394.435 2709.96 20.659 0 0 0
1 32.439 2578.28 85.913 0 0 0
1 282.736 2478.71 314.866 0 0 0
1 155.917 2675.71 860.507 0 0 0
1 217.924 2348.08 673.629 0 0 0
1 157.482 2477.59 691.089 0 0 0
1 199.51 2322.67 418.376 0 0 0
1 401.867 2319.57 891.182 0 0 0
1 790.011 82.456 2530.24 0 0 0
1 159.597 485.829 2601.1 0 0 0
1 568.733 435.317 2532.24 0 0 0
1 811.026 803.634 2686.28 0 0 0
1 578.558 286.597 2668.08 0 0 0
1 264.084 576.557 2645.31 0 0 0
1 63.976 595.593 2619.6 0 0 0
1 795.134 524.489 2518.24 0 0 0
1 201.672 175.118 2955.86 0 0 0
1 752.557 730.567 2766.42 0 0 0
1 452.635 293 2632.39 0 0 0
1 553.359 194.515 2528.01 0 0 0
1 739.661 174.07 2672.37 0 0 0
1 862.833 805.153 2536.14 0 0 0
1 129.566 167.823 3096.41 0 0 0
1 544.877 613.902 2886.41 0 0 0
1 846.723 344.873 2812.44 0 0 0
1 635.596 490.917 2954.88 0 0 0
1 9.18 670.41 2764.91 0 0 0
1 648.898 777.133 2936.79 0 0 0
1 871.47 409.466 2977.05 0 0 0
1 388.572 855.348 2735.6 0 0 0
1 649.975 854.115 3094.13 0 0 0
1 209.23 335.603 2793.54 0 0 0
1 924.545 1003.45 2550.92 0 0 0
1 2676.33 2725.82 108.8 0 0 0
1 2770.22 2606.86 930.621 0 0 0
1 2645.87 2716.74 496.137 0 0 0
1 2853.5 2630.65 824.119 0 0 0
1 2816.37 2529.59 66.835 0 0 0
1 2412.36 2674.7 466.792 0 0 0
1 2439.37 2516.59 879.251 0 0 0
1 2776.22 2876.94 682.313 0 0 0
1 2486.44 2491.54 637.761 0 0 0
1 2631.81 2574.39 386.276 0 0 0
1 2560.23 2713.09 859.698 0 0 0
1 2634.39 2308.08 315.012 0 0 0
1 2455.15 2381.16 576.174 0 0 0
1 2207.34 2856.81 860.048 0 0 0
1 2276.77 2764.3 378.739 0 0 0
1 2618.48 2716.14 375.19 0 0 0
1 2598.86 2874.95 943.478 0 0 0
1 2464.62 2603.24 114.215 0 0 0
1 2354.04 2266.38 940.719 0 0 0
1 2489.16 2560.26 236.951 0 0 0
1 2312.47 2472.58 968.22 0 0 0
1 2752.41 2484.7 709.944 0 0 0
1 2383.17 2653.26 791.79 0 0 0
1 2607.7 2500.39 867.04 0 0 0
1 2727.54 2392.13 974.138 0 0 0
1 2794.22 764.747 2592.18 0 0 0
1 2574.28 0 2758.38 0 0 0
1 2638.16 229.621 2615.5 0 0 0
1 2586.06 403.026 2714.72 0 0 0
1 2331.38 617.662 2695.76 0 0 0
1 2314.02 402.713 2431.18 0 0 0
1 2446.58 604.493 2301.86 0 0 0
1 2310.74 811.366 2671.3 0 0 0
1 2528.3 361.813 2401.23 0 0 0
1 2502.62 672.561 2443.92 0 0 0
1 2713.75 611.725 2310.52 0 0 0
1 2623.75 50.962 2371.55 0 0 0
1 2313.78 196.06 2595.64 0 0 0
1 2641.49 729.081 2408.81 0 0 0
1 2206.86 164.597 2644.05 0 0 0
1 2328.03 618.413 2333.49 0 0 0
1 2333.64 387.965 2312.36 0 0 0
1 2463.86 244.796 2607.36 0 0 0
1 2746.96 230.135 2441.03 0 0 0
1 2774.43 536.401 2745.88 0 0 0
1 2507.16 804.821 2306.35 0 0 0
1 2579.8 178.016 2737.48 0 0 0
1 2594.18 516.147 2414.53 0 0 0
1 2397.86 0.047 2759.5 0 0 0
1 2715.85 254.199 2706.33 0 0 0
1 770.211 2901.55 2505.33 0 0 0
1 443.145 2771.22 2321.01 0 0 0
1 213.642 3020.01 2845.39 0 0 0
1 486.065 2573.97 2548.59 0 0 0
1 622.981 2819.18 2374.18 0 0 0
1 361.552 2324.93 2490.71 0 0 0
1 104.588 2760.78 2273.09 0 0 0
1 747.759 2613.7 2601.19 0 0 0
1 22.298 2501.66 2451.61 0 0 0
1 20.658 2796.82 2540.09 0 0 0
1 377.761 2532.37 2493.24 0 0 0
1 343.782 2876.04 2413.81 0 0 0
1 246.21 2617.79 2501.71 0 0 0
1 245.118 2704.51 2322.72 0 0 0
1 227.427 2770.14 2840.14 0 0 0
1 230.729 2523.41 2415.86 0 0 0
1 163.545 2768.22 2625.89 0 0 0
1 642.936 2705.91 2664.77 0 0 0
1 94.313 2913.06 2570.92 0 0 0
1 521.22 2365.9 2811.46 0 0 0
1 289.642 2832.74 2591.72 0 0 0
1 227.271 2403.18 2665.14 0 0 0
1 110.213 2658.85 2800.88 0 0 0
1 851.576 2840.22 2723.23 0 0 0
1 924.22 2835.37 2900.69 0 0 0
1 2774.21 2406.99 2254.99 0 0 0
1 2768.51 2686.31 2896.84 0 0 0
1 2473.26 2698.3 2803.14 0 0 0
1 2791.97 2349.64 2649.58 0 0 0
1 2761.3 2656.27 2543.15 0 0 0
1 2513.73 2518.15 2280.22 0 0 0
1 2341.83 2503.55 2607.1 0 0 0
1 2254.42 2566.03 2278.05 0 0 0
1 2883.87 2463.41 2281.73 0 0 0
1 2404.43 2685.88 2467.46 0 0 0
1 2685.28 2672.41 2257.02 0 0 0
1 2184.81 2681.59 2748.38 0 0 0
1 2642.61 2420.76 2429.28 0 0 0
1 2233.03 2474.28 2389.45 0 0 0
1 2330.27 2426.72 2511.46 0 0 0
1 2499.47 2266.23 2378.78 0 0 0
1 2707.79 2319.99 2541.66 0 0 0
1 2417.15 2863.83 2737.69 0 0 0
1 2632.51 2644.7 2681.23 0 0 0
1 2394.99 2613.63 2575.69 0 0 0
1 2668.51 2736.3 2366.95 0 0 0
1 2719.05 2821.4 2668.75 0 0 0
1 2295.45 2311.98 2730.52 0 0 0
1 2557.18 2363.23 2256.21 0 0 0
1 2617.65 2587.66 2365.95 0 0 0
2 525.316 493.287 625.898 0 0 0
2 714.483 198.31 565.781 0 0 0
2 854.368 400.348 141.189 0 0 0
2 617.751 624.162 576.318 0 0 0
2 370.044 79.222 780.825 0 0 0
2 544.172 349.198 8.88 0 0 0
2 144.214 933.621 41.656 0 0 0
2 324.446 421.082 75.482 0 0 0
2 469.933 584.726 734.761 0 0 0
2 552.745 744.493 742.373 0 0 0
2 199.539 733.363 796.35 0 0 0
2 803.018 24.639 755.799 0 0 0
2 817.95 810.075 279.499 0 0 0
2 861.293 749.612 568.984 0 0 0
2 524.748 392.062 695.549 0 0 0
2 982.794 50.526 13.508 0 0 0
2 722.479 818.379 205.505 0 0 0
2 716.448 628.073 81.588 0 0 0
2 688.098 469.869 163.164 0 0 0
2 101.955 670.317 1.708 0 0 0
2 117.572 408.645 833.202 0 0 0
2 614.623 479.484 7.179 0 0 0
2 244.062 894.325 717.032 0 0 0
2 247.327 247.853 39.839 0 0 0
2 557.26 790.517 179.838 0 0 0
2 484.606 900.863 259.434 0 0 0
2 438.092 710.569 268.705 0 0 0
2 654.673 115.756 369.753 0 0 0
2 319.312 236.141 711.07 0 0 0
2 11.625 838.227 46.184 0 0 0
2 855.516 646.664 330.769 0 0 0
2 811.559 811.262 5.917 0 0 0
2 551.052 443.5 280.896 0 0 0
2 387.805 749.075 415.127 0 0 0
2 904.103 6.158 228.937 0 0 0
2 606.209 648.915 149.227 0 0 0
2 298.746 592.226 761.943 0 0 0
2 109.194 768.605 142.401 0 0 0
2 735.444 695.636 612.379 0 0 0
2 362.697 531.306 383.776 0 0 0
2 943.78 911.813 471.506 0 0 0
2 367.338 279.8 244.53 0 0 0
2 301.03 308.119 860.617 0 0 0
2 536.689 43.622 708.026 0 0 0
2 857.703 532.329 542.162 0 0 0
2 758.747 317.821 325.836 0 0 0
2 718.102 696.946 409.052 0 0 0
2 394.164 695.621 4.063 0 0 0
2 40.916 294.327 137.564 0 0 0
2 5.865 657.346 768.069 0 0 0
2 803.796 823.371 490.968 0 0 0
2 983.999 311.485 255.304 0 0 0
2 102.515 161.912 336.671 0 0 0
2 0.052 168.243 130.067 0 0 0
2 185.672 872.588 174.886 0 0 0
2 1037.42 506.547 734.432 0 0 0
2 221.988 604.578 131.372 0 0 0
2 492.364 585.396 277.713 0 0 0
2 664.573 983.197 298.221 0 0 0
2 253.622 488.864 704.089 0 0 0
2 168.111 918.405 523.25 0 0 0
2 271.298 444.423 269.655 0 0 0
2 185.113 638.972 596.689 0 0 0
2 0.068 526.35 694.973 0 0 0
2 875.99 619.162 730.695 0 0 0
2 737.001 91.391 487.877 0 0 0
2 355.589 453.871 604.396 0 0 0
2 661.982 240.309 357.811 0 0 0
2 56.682 790.733 660.672 0 0 0
2 484.902 155.239 790.234 0 0 0
2 299.775 265.359 585.555 0 0 0
2 587.196 830.596 643.383 0 0 0
2 972.644 724.14 813.086 0 0 0
2 64.688 950.396 803.32 0 0 0
2 883.55 210.168 881.019 0 0 0
2 264.604 329.574 151.139 0 0 0
2 620.439 271.32 514.843 0 0 0
2 996.439 942.351 56.774 0 0 0
2 84.164 63.055 248.295 0 0 0
2 281.122 966.017 317.831 0 0 0
2 825.31 1.499 472.723 0 0 0
2 417.71 380.239 797.628 0 0 0
2 817.482 159.757 117.903 0 0 0
2 940.517 542.67 633.272 0 0 0
2 241.649 3.355 258.436 0 0 0
2 60.742 500.696 388.424 0 0 0
2 335.517 798.148 757.126 0 0 0
2 155.4 252.702 803.705 0 0 0
2 140.964 194.411 127.065 0 0 0
2 242.201 36.145 681.866 0 0 0
2 302.299 72.998 84.719 0 0 0
2 661.52 58.398 835.858 0 0 0
2 853.513 684.732 156.548 0 0 0
2 440.429 75.623 112.798 0 0 0
2 300.379 870.212 452.408 0 0 0
2 230.167 171.56 458.506 0 0 0
2 692.394 544.017 808.554 0 0 0
2 598.297 181.335 829.811 0 0 0
2 2.273 224.992 286.139 0 0 0
2 0.34 887.902 614.106 0 0 0
2 2318.35 56.926 311.054 0 0 0
2 2297.43 257.068 579.53 0 0 0
2 2320.67 71.951 683.055 0 0 0
2 2364.71 387.72 546.424 0 0 0
2 2894.81 125.452 492.284 0 0 0
2 2566.46 22.801 868.989 0 0 0
2 2344.24 929.82 212.955 0 0 0
2 2344.23 353.959 360.912 0 0 0
2 2551.07 347.45 467.168 0 0 0
2 2875.16 280.573 802.097 0 0 0
2 2667.34 806.647 121.778 0 0 0
2 2676.21 293.45 670.737 0 0 0
2 2513.82 538.834 449.485 0 0 0
2 2317.81 262.198 755.447 0 0 0
2 2310.08 715.7 446.894 0 0 0
2 2603.95 861.833 884.68 0 0 0
2 2427.51 776.573 788.189 0 0 0
2 2712.4 575.336 411.041 0 0 0
2 2591.59 93.218 325.496 0 0 0
2 2539.53 266.733 808.902 0 0 0
2 2639.88 55.552 26.305 0 0 0
2 2737.03 109.793 967.154 0 0 0
2 2537.06 820.77 98.849 0 0 0
2 2538.14 611.66 708.247 0 0 0
2 2677.25 230.414 390.355 0 0 0
2 2444.11 549.349 564.209 0 0 0
2 2332.73 356.878 663.449 0 0 0
2 2333.77 876.275 909.215 0 0 0
2 2502.24 725.224 453.815 0 0 0
2 2912.56 382.152 730.199 0 0 0
2 2729.06 168.982 844.946 0 0 0
2 2386.25 833.69 12.3 0 0 0
2 2762.45 905.308 659.308 0 0 0
2 2683.54 1017.76 228.412 0 0 0
2 2544.61 441.362 659.353 0 0 0
2 2854.28 804.693 693.049 0 0 0
2 2604.35 665.502 16.468 0 0 0
2 2850.23 415.787 867.556 0 0 0
2 2393.5 169.697 608.664 0 0 0
2 2654.37 760.998 656.912 0 0 0
2 2552.34 487.603 167.911 0 0 0
2 2888.58 83.921 210.325 0 0 0
2 2357.57 517.604 764.917 0 0 0
2 2772.33 32.733 518.631 0 0 0
2 2412.24 631.236 761.362 0 0 0
2 2659.68 301.368 515.994 0 0 0
2 2767.93 381.862 654.828 0 0 0
2 2820.77 829.084 143.902 0 0 0
2 2768.83 771.442 926.035 0 0 0
2 2397.17 40.503 476.109 0 0 0
2 2438.88 671.299 210.135 0 0 0
2 2784.11 788.395 274.626 0 0 0
2 2648.99 336.924 797.89 0 0 0
2 2550.84 184.729 588.227 0 0 0
2 2898.79 729.067 234.887 0 0 0
2 2918.97 914.959 621.051 0 0 0
2 2399.58 688.126 527.515 0 0 0
2 2553.36 146.558 941.475 0 0 0
2 2326.74 265.729 462.379 0 0 0
2 2477.6 903.754 488.998 0 0 0
2 2871.11 384.658 78.976 0 0 0
2 2762.07 935.316 936.202 0 0 0
2 2693.53 707.106 345.762 0 0 0
2 2542.06 56.371 668.164 0 0 0
2 2755.96 183.171 671.117 0 0 0
2 2340.29 752.342 961.015 0 0 0
2 2744.08 830.209 16.314 0 0 0
2 2812.64 124.09 354.273 0 0 0
2 2348.98 714.034 104.252 0 0 0
2 2724.41 508.992 602.327 0 0 0
2 2455.56 337.561 195.76 0 0 0
2 2537.39 239.329 380.368 0 0 0
2 2817.53 694.672 503.304 0 0 0
2 2533.11 306.397 597.601 0 0 0
2 2665 404.884 584.361 0 0 0
2 2449.3 424.191 763.187 0 0 0
2 2591.33 1017.62 34.77 0 0 0
2 2759.18 868.104 433.925 0 0 0
2 2620.05 603.59 955.309 0 0 0
2 2568.86 167.75 721.975 0 0 0
2 2855.9 216.434 131.918 0 0 0
2 2584.31 883.63 0.009 0 0 0
2 2855.06 523.481 559.544 0 0 0
2 2446.68 239.037 733.865 0 0 0
2 2936.52 606.944 921.625 0 0 0
2 2757.56 349.987 959.45 0 0 0
2 2624.86 758.548 496.932 0 0 0
2 2345.62 611.338 976.185 0 0 0
2 2597.26 990.537 796.445 0 0 0
2 2637.85 569.67 534.075 0 0 0
2 2390.94 954.933 387.503 0 0 0
2 2815.38 528.049 948.826 0 0 0
2 2665.19 890.442 229.66 0 0 0
2 2492.5 563.873 22.373 0 0 0
2 2788.53 260.771 453.795 0 0 0
2 2484.82 760.581 920.609 0 0 0
2 2482.41 625.314 324.526 0 0 0
2 2785.24 477.718 98.542 0 0 0
2 2738.77 49.007 654.991 0 0 0
2 2529.75 848.103 234.51 0 0 0
2 500.216 2668.93 428.193 0 0 0
2 567.244 2457.02 953.094 0 0 0
2 87.165 2227.26 442.188 0 0 0
2 96.543 2351.91 610.182 0 0 0
2 954.949 2536.71 602.104 0 0 0
2 982.503 2701.14 687.937 0 0 0
2 77.405 2848.95 303.668 0 0 0
2 155.822 2587.18 328.716 0 0 0
2 858.05 2412.12 183.54 0 0 0
2 865.565 2462.23 698.191 0 0 0
2 932.941 2332.83 11.037 0 0 0
2 88.007 2513.76 938.313 0 0 0
2 146.465 2455.06 360.565 0 0 0
2 896.595 2591.34 901.79 0 0 0
2 199.737 2300.55 559.903 0 0 0
2 465.814 2708.32 560.477 0 0 0
2 13.428 2448.28 255.599 0 0 0
2 731.001 2686.11 207.695 0 0 0
2 324.766 2635.44 776.997 0 0 0
2 129.205 2669.51 0.09 0 0 0
2 37.871 2511.75 356.417 0 0 0
2 77.592 2549.68 748.938 0 0 0
2 50.178 2298.7 895.742 0 0 0
2 391.535 2695.49 979.21 0 0 0
2 1015.11 2556.27 326.009 0 0 0
2 685.165 2631.37 382.273 0 0 0
2 139.725 2648.45 218.049 0 0 0
2 936.85 2591.34 223.579 0 0 0
2 579.47 2364.68 613.425 0 0 0
2 946.636 2290.21 903.199 0 0 0
2 382.995 2598.79 120.655 0 0 0
2 792.268 2389.76 815.791 0 0 0
2 233.215 2412.23 211.576 0 0 0
2 0 2591.49 203.216 0 0 0
2 906.76 2336.76 468.17 0 0 0
2 374.463 2797.95 697.42 0 0 0
2 610.039 2794.85 138.161 0 0 0
2 658.953 2562.5 827.286 0 0 0
2 588.277 2789.18 331.613 0 0 0
2 662.525 2309.9 721.256 0 0 0
2 458.92 2433.63 332.484 0 0 0
2 20.245 2719.43 587.421 0 0 0
2 835.403 2536.53 812.587 0 0 0
2 436.701 2288.26 668.962 0 0 0
2 634.413 2429.16 376.655 0 0 0
2 818.32 2471.33 455.901 0 0 0
2 207.827 2687.17 579.546 0 0 0
2 98.147 2675.45 684.634 0 0 0
2 560.602 2592.88 280.945 0 0 0
2 68.433 2272.74 771.219 0 0 0
2 783.736 2515.96 107.947 0 0 0
2 50.59 2726.97 159.955 0 0 0
2 195.882 2539.85 481.166 0 0 0
2 561.8 2630.59 70.719 0 0 0
2 195.225 2576.86 629.089 0 0 0
2 824.092 2739.14 687.605 0 0 0
2 229.204 2282.18 267.53 0 0 0
2 451.664 2311.51 423.92 0 0 0
2 205.338 2444.61 94.307 0 0 0
2 486.066 2531.53 50.051 0 0 0
2 910.297 2572.96 724.467 0 0 0
2 177.818 2502 854.001 0 0 0
2 202.876 2754.24 382.039 0 0 0
2 276.759 2694.72 270.882 0 0 0
2 317.373 2542.49 567.839 0 0 0
2 778.832 2747.87 437.522 0 0 0
2 346.794 2445.57 861.531 0 0 0
2 823.789 2766.7 567.044 0 0 0
2 446.385 2523.38 796.365 0 0 0
2 1005.54 2435.99 526.508 0 0 0
2 317.74 2770.96 106.441 0 0 0
2 569.989 2323.59 79.417 0 0 0
2 659.645 2383.32 913.831 0 0 0
2 966.774 2695.73 355.388 0 0 0
2 558.14 2786.34 453.426 0 0 0
2 374.551 2497.92 16.427 0 0 0
2 694.01 2494.39 186.469 0 0 0
2 717.572 2419.69 14.307 0 0 0
2 556.501 2493 559.459 0 0 0
2 560.644 2383.87 284.058 0 0 0
2 344.588 2438.07 125.725 0 0 0
2 888.557 2716.07 992.632 0 0 0
2 833.405 2638.75 502.335 0 0 0
2 406.281 2563.62 918.54 0 0 0
2 772.793 2604.6 18.094 0 0 0
2 13.975 2408.04 773.84 0 0 0
2 923.86 2754.99 246.816 0 0 0
2 107.774 2478.28 30.521 0 0 0
2 117.301 2643.84 461.906 0 0 0
2 22.808 2762.86 6.332 0 0 0
2 116.922 2507.79 183.743 0 0 0
2 886.666 2469.17 322.98 0 0 0
2 824.185 2378.4 376.288 0 0 0
2 671.015 2907.21 129.861 0 0 0
2 519.849 2743.16 919.905 0 0 0
2 574.584 2431.95 13.102 0 0 0
2 11.719 2362.38 421.096 0 0 0
2 985.56 2608.53 502.551 0 0 0
2 0.573 2690.78 373.426 0 0 0
2 503.866 2569.61 682.894 0 0 0
2 639.057 758.783 2733.75 0 0 0
2 533.485 337.371 2419.43 0 0 0
2 126.229 424.159 2478.82 0 0 0
2 956.718 423.243 2326.95 0 0 0
2 613.959 15.382 2312.63 0 0 0
2 682.408 450.379 2487.61 0 0 0
2 582.357 552.761 2762.04 0 0 0
2 449.918 235.244 2431.48 0 0 0
2 756.515 987.392 2306.43 0 0 0
2 621.919 953.683 2774.94 0 0 0
2 319.586 344.211 2638.3 0 0 0
2 129.739 857.549 2861.91 0 0 0
2 662.633 661.885 2901.74 0 0 0
2 402.347 1067.09 2674.87 0 0 0
2 781.634 560.892 2759.54 0 0 0
2 335.214 2.414 2487.89 0 0 0
2 101.092 1078.35 2423.12 0 0 0
2 257.265 222.172 2515.8 0 0 0
2 60.206 206.31 2673.52 0 0 0
2 374.692 97.599 2558.31 0 0 0
2 5.374 26.542 2406.96 0 0 0
2 118.576 906.164 2407.29 0 0 0
2 939.586 833.33 2650.86 0 0 0
2 652.344 544.761 2306.42 0 0 0
2 298.74 593.87 2462.28 0 0 0
2 644.435 249.223 2377.42 0 0 0
2 462.915 445.895 2671.55 0 0 0
2 138.988 197.407 2772.34 0 0 0
2 357.171 710.909 2332.93 0 0 0
2 445.894 516.906 2855.46 0 0 0
2 189.711 394.274 2681.47 0 0 0
2 403.716 898.435 2485.56 0 0 0
2 431.484 865.566 2869.34 0 0 0
2 311.788 424.006 2822.44 0 0 0
2 5.084 906.079 2603.55 0 0 0
2 99.476 774.22 2752.75 0 0 0
2 57.196 420.312 2638.09 0 0 0
2 256.958 152.43 2407.24 0 0 0
2 431.614 628.934 2494.91 0 0 0
2 991.327 257.761 2764.87 0 0 0
2 840.656 142.484 2426.37 0 0 0
2 443.384 659.841 2750.61 0 0 0
2 477.491 118.266 2723.62 0 0 0
2 932.243 771.919 2755.09 0 0 0
2 199.089 1.967 2616.01 0 0 0
2 844.532 152.97 2304.16 0 0 0
2 579.495 420.12 2830.24 0 0 0
2 575.372 36.941 2743.47 0 0 0
2 134.205 81.444 2488.45 0 0 0
2 857.12 503.123 2839.05 0 0 0
2 738.977 302.386 2750.45 0 0 0
2 290.951 703.371 2846.98 0 0 0
2 885.347 45.062 2595.49 0 0 0
2 1.673 305.381 2635.73 0 0 0
2 544.86 786.431 2565.6 0 0 0
2 988.944 128.959 2751.93 0 0 0
2 771.794 781.76 2937.69 0 0 0
2 622.414 869.291 2661.91 0 0 0
2 847.679 69.774 2728.85 0 0 0
2 928.639 965.312 2696.4 0 0 0
2 711.817 137.056 2286.93 0 0 0
2 833.356 272.726 2523.12 0 0 0
2 65.284 13.681 2583.08 0 0 0
2 867.045 234.743 2698.4 0 0 0
2 616.633 168.068 2730.26 0 0 0
2 301.367 823.183 2862.59 0 0 0
2 372.635 277.537 2535.93 0 0 0
2 240.102 680.139 2386.83 0 0 0
2 746.823 308.249 2600.5 0 0 0
2 552.233 563.793 2634.86 0 0 0
2 805.068 445.78 2362.23 0 0 0
2 399.41 369.84 2887.83 0 0 0
2 890.779 516.07 2696.23 0 0 0
2 689.412 71.321 2616.75 0 0 0
2 763.378 338.705 2400.33 0 0 0
2 52.42 143.885 2562.94 0 0 0
2 682.189 750.828 2589.13 0 0 0
2 374.863 255.499 2778.58 0 0 0
2 638.855 557.808 2437.03 0 0 0
2 594.701 13.817 2498.96 0 0 0
2 384.823 61.635 2820.78 0 0 0
2 514.035 777.578 2855.65 0 0 0
2 53.639 347.423 2853.88 0 0 0
2 62.325 955.197 2748.95 0 0 0
2 952.09 231.603 2432.16 0 0 0
2 300.632 555.057 2815.41 0 0 0
2 944.686 961.593 2417.24 0 0 0
2 629.354 1009.85 2885.96 0 0 0
2 131.358 897.302 2268.8 0 0 0
2 0.929 745.805 2429.85 0 0 0
2 114.099 589.576 2757.53 0 0 0
2 119.167 84.856 2289.86 0 0 0
2 789.115 923.167 2795.86 0 0 0
2 424.854 455.616 2497.81 0 0 0
2 81.634 826.012 2518.77 0 0 0
2 133.477 213.231 2477.75 0 0 0
2 513.821 785.799 2691.51 0 0 0
2 918.116 892.804 2309.38 0 0 0
2 569.904 194.255 2297.54 0 0 0
2 589.83 986.13 2657.76 0 0 0
2 2337.25 2867.34 967.664 0 0 0
2 2767.43 2837.71 147.588 0 0 0
2 2489.93 2828.78 157.355 0 0 0
2 2405.28 2952.81 753.538 0 0 0
2 2757.66 2684.31 418.903 0 0 0
2 2739.35 2825.94 348.064 0 0 0
2 2897.75 2462.99 944.231 0 0 0
2 2842.26 2339.05 646.557 0 0 0
2 2619.57 2832.73 47.721 0 0 0
2 2697.61 2376.84 753.834 0 0 0
2 2904.51 2459.64 202.006 0 0 0
2 2501.02 2578 380.491 0 0 0
2 2962.47 2530.09 608.336 0 0 0
2 2866.39 2832.08 756.189 0 0 0
2 2435.27 2385.83 969.259 0 0 0
2 2802.87 2512.17 816.562 0 0 0
2 2708.17 2614.42 759.47 0 0 0
2 2636.41 2964.64 485.942 0 0 0
2 2872.41 2968.73 588.781 0 0 0
2 2483.97 2834.43 811.594 0 0 0
2 2605.35 2590.74 22.938 0 0 0
2 2582.19 2607.97 999.109 0 0 0
2 2607.41 2453.34 518.727 0 0 0
2 2459.9 3039.79 484.243 0 0 0
2 2933.13 2663.27 386.424 0 0 0
2 2767.24 2467.01 218.779 0 0 0
2 2565.1 2775.78 743.074 0 0 0
2 2507.45 2410.73 430.364 0 0 0
2 2547.99 2726.64 105.06 0 0 0
2 2459.28 2802.73 620.804 0 0 0
2 2562.43 2312.55 928.395 0 0 0
2 2527.05 3015.43 583.224 0 0 0
2 2418.4 2374.13 834.193 0 0 0
2 2366.57 2560.72 477.531 0 0 0
2 2683.64 2778.19 794.973 0 0 0
2 2479.77 2370.23 724.257 0 0 0
2 2752.03 2572.28 347.764 0 0 0
2 2472.67 2431.53 136.728 0 0 0
2 2863.24 2913.31 260.955 0 0 0
2 2654.46 2523.47 203.477 0 0 0
2 2528.86 2768.11 500.468 0 0 0
2 2373.37 2465.57 227.574 0 0 0
2 2868.07 2462.03 322.916 0 0 0
2 2762.18 2638.79 42.713 0 0 0
2 2949.74 2935.91 780.187 0 0 0
2 2802.28 3006.51 731.872 0 0 0
2 2399.27 2633.51 344.077 0 0 0
2 2479.47 2952.57 204.168 0 0 0
2 2360.37 2516.58 642.529 0 0 0
2 2580.02 2353.11 624.734 0 0 0
2 2875.71 2764.62 238.108 0 0 0
2 2466.48 2894.64 921.869 0 0 0
2 2625.31 2548.26 598.942 0 0 0
2 2911.64 2556.99 452.638 0 0 0
2 2445.34 2655.28 647.049 0 0 0
2 2740.22 2653.15 250.46 0 0 0
2 2723.86 2391.24 394.132 0 0 0
2 2755.63 2939.07 476.579 0 0 0
2 2537.38 2941.56 348.368 0 0 0
2 2370.5 2966.84 630.675 0 0 0
2 2653.69 2474.67 63.068 0 0 0
2 2977.54 2497.37 800.658 0 0 0
2 2742.22 2577.3 497.218 0 0 0
2 2850.09 2624.59 702.012 0 0 0
2 2619.83 2634.42 270.551 0 0 0
2 2957.57 2680.26 726.637 0 0 0
2 2906.61 2775.36 74.213 0 0 0
2 2676.15 2426.06 615.641 0 0 0
2 2921.77 2907.03 424.866 0 0 0
2 2846.99 2773.3 504.32 0 0 0
2 2943.73 2916.11 87.178 0 0 0
2 2780.18 2771.46 607.802 0 0 0
2 2656.42 2445.85 309.807 0 0 0
2 2582.12 2729.25 619.515 0 0 0
2 2400.11 2893.19 412.775 0 0 0
2 2589.54 2465.68 746.588 0 0 0
2 2417.78 2701.22 951.898 0 0 0
2 2462.91 2688.99 0.037 0 0 0
2 2806.6 2475.29 428.356 0 0 0
2 2548.91 2314.59 114.355 0 0 0
2 2907.98 2753.25 636.51 0 0 0
2 2620.28 2796.62 224.399 0 0 0
2 2878.85 2656.56 513.61 0 0 0
2 2938.99 2474.04 86.922 0 0 0
2 2344.76 2453.72 772.926 0 0 0
2 2882.79 2784.61 370.49 0 0 0
2 2684.51 2674.55 862.273 0 0 0
2 2645.92 2916.69 811.681 0 0 0
2 2389.05 2792.05 518.785 0 0 0
2 2582.58 2594.33 745.399 0 0 0
2 2336.32 2286.67 764.715 0 0 0
2 2524.46 2414.2 0 0 0 0
2 2251.6 2582.47 838.75 0 0 0
2 2468.85 2779.61 334.685 0 0 0
2 2680.49 2971.74 174.294 0 0 0
2 2365.99 2517.71 364.339 0 0 0
2 2739.14 2968.36 28.553 0 0 0
2 2954.39 2827.97 548.113 0 0 0
2 2715.56 2653.82 587.549 0 0 0
2 2817.45 2761.18 842.688 0 0 0
2 2763.81 825.268 2449.53 0 0 0
2 2682.51 335.94 2538.94 0 0 0
2 2640.19 976.777 2996.63 0 0 0
2 2835.28 558.94 2870.66 0 0 0
2 3006.6 664.807 2698.36 0 0 0
2 3048.93 684.236 2897.56 0 0 0
2 2751.82 345.117 2928.49 0 0 0
2 2988.56 990.464 2541.93 0 0 0
2 2661.45 268.058 2960.5 0 0 0
2 2474.55 676.318 3129.12 0 0 0
2 2446.02 825.348 3095.85 0 0 0
2 3068.16 341.72 3070.9 0 0 0
2 2452.01 715.816 2617 0 0 0
2 2575.31 443.162 2545.83 0 0 0
2 2912.5 787.806 2845.37 0 0 0
2 2473.2 523.111 2967.49 0 0 0
2 2673.26 640.511 2516.45 0 0 0
2 2932.45 54.718 2991.43 0 0 0
2 2592.3 449.33 2964.47 0 0 0
2 2618.91 773.685 2708.3 0 0 0
2 2738.03 133.426 2354.27 0 0 0
2 2632.6 529.37 2786.12 0 0 0
2 3015.02 619.287 3117 0 0 0
2 2689.95 365.519 2660.43 0 0 0
2 2684.99 646.296 2775.49 0 0 0
2 2371.35 190.397 2879.83 0 0 0
2 2532.82 597.914 2718.22 0 0 0
2 2592.52 236.542 2404.29 0 0 0
2 3030.68 111.492 2633.36 0 0 0
2 2570.78 650.13 2859.78 0 0 0
2 2830.54 243.325 2752.75 0 0 0
2 2815.89 680.408 2784.04 0 0 0
2 2470.73 39.721 2871.11 0 0 0
2 2426.4 345.741 2916.47 0 0 0
2 2434.86 105.6 2668.22 0 0 0
2 2780.62 770.304 2883.16 0 0 0
2 2524.67 142.491 2970.71 0 0 0
2 2417.62 959.59 2651.62 0 0 0
2 2663.99 122.281 2973.82 0 0 0
2 2913.89 448.656 2673.55 0 0 0
2 2441.25 727.451 2966.95 0 0 0
2 2969.7 891.833 2716.76 0 0 0
2 2462.95 309.506 2755.09 0 0 0
2 2436.78 431.403 2484.54 0 0 0
2 2395.67 683.84 2828.96 0 0 0
2 2513.76 909.399 2770.75 0 0 0
2 2945.68 637.536 2973.11 0 0 0
2 2863.2 325.813 2541.8 0 0 0
2 2764.66 112.665 2633.75 0 0 0
2 2731.3 692.89 3061.41 0 0 0
2 2470.38 579.319 2836.07 0 0 0
2 2613.85 174.309 3095.72 0 0 0
2 3073.29 368.841 2589.92 0 0 0
2 2923.34 655.412 2844.65 0 0 0
2 3051.25 762.75 2531.08 0 0 0
2 2961.32 165.825 2461.9 0 0 0
2 2424.03 958.93 2979.54 0 0 0
2 3062.01 952.734 2398.63 0 0 0
2 2507.62 828.448 2647.97 0 0 0
2 2776.63 547.799 2551.9 0 0 0
2 2853.05 292.518 2862.2 0 0 0
2 2907.88 751.328 3089.64 0 0 0
2 2849.41 928.076 2834.75 0 0 0
2 3043.6 590.377 2797.95 0 0 0
2 2438.06 535.696 2576.9 0 0 0
2 2716.85 555.711 3106.95 0 0 0
2 2540.54 912.493 3030.36 0 0 0
2 2546.5 132.659 2474.49 0 0 0
2 2492.46 911.8 2373.91 0 0 0
2 3022.76 876.524 2577.48 0 0 0
2 2779.12 396.488 3069 0 0 0
2 2407.96 591.79 2440.98 0 0 0
2 2860.43 617.562 3067.94 0 0 0
2 2479.73 393.509 2633.04 0 0 0
2 3089.38 146.46 3001.14 0 0 0
2 2501.32 794.571 2809.89 0 0 0
2 2879.86 659.911 2515.44 0 0 0
2 2592.26 436.651 3103.12 0 0 0
2 2381.51 412.038 3013.15 0 0 0
2 2507.99 872.978 2517.61 0 0 0
2 2823.69 141.283 2490.7 0 0 0
2 2902.05 818.84 2639.07 0 0 0
2 3074.02 768.515 2780.82 0 0 0
2 2580.52 327.654 2868.58 0 0 0
2 3071.66 735.136 3008.64 0 0 0
2 2355.41 97.565 2398.12 0 0 0
2 2489.09 556.838 3084.68 0 0 0
2 2548.13 247.217 2516.81 0 0 0
2 2474.82 256.746 2354.39 0 0 0
2 2712.07 529.546 2938.28 0 0 0
2 2918.34 322.972 2720.83 0 0 0
2 2914.64 153.29 3082.84 0 0 0
2 2786.9 421.905 2803.35 0 0 0
2 2400.37 821.816 2410.98 0 0 0
2 2896.44 759.882 2966.79 0 0 0
2 2615.98 688.843 2621.61 0 0 0
2 3001.21 248.903 2555.01 0 0 0
2 2823.69 149.098 2895.27 0 0 0
2 2943.25 438.109 2449.66 0 0 0
2 2612.89 828.584 2979.74 0 0 0
2 685.343 2607.05 2720.66 0 0 0
2 558.994 2697.46 2757.47 0 0 0
2 940.446 2692.07 2724.47 0 0 0
2 233.623 2790.91 2427.49 0 0 0
2 341.815 2684.8 2554.74 0 0 0
2 404.973 3085.42 2457.95 0 0 0
2 764.658 2858.86 2353.73 0 0 0
2 378.609 2711.65 2782.12 0 0 0
2 537.826 2721.69 2956.57 0 0 0
2 930.605 3105.31 2890 0 0 0
2 21.539 2941.13 2811.55 0 0 0
2 0.087 2706.72 2423.68 0 0 0
2 354.789 3011.32 2870.42 0 0 0
2 492.476 2443.72 2565.12 0 0 0
2 607.415 2556.54 2641.88 0 0 0
2 623.213 2779.3 2840.02 0 0 0
2 323.214 2953.63 2748.57 0 0 0
2 139.925 2653.88 2355.95 0 0 0
2 189.91 2945.21 2966.71 0 0 0
2 259.088 3047.67 2561.69 0 0 0
2 863.087 3036 2421.78 0 0 0
2 767.848 2765.61 2800.41 0 0 0
2 294.183 2711.94 2973.84 0 0 0
2 538.066 3031.5 2549.11 0 0 0
2 235.95 2957.97 3078.53 0 0 0
2 234.123 2510.96 3125.76 0 0 0
2 58.88 2460.93 2763.39 0 0 0
2 86.432 2896.7 2424.73 0 0 0
2 706.434 3147.89 2793.94 0 0 0
2 887.238 2622.23 2414.73 0 0 0
2 438.251 2746.9 2654.84 0 0 0
2 928.156 2611.14 2963.25 0 0 0
2 42.345 2420.65 2945.03 0 0 0
2 388.29 2401.81 2829.29 0 0 0
2 786.055 3116.81 2538.57 0 0 0
2 388.128 2003.92 2095.27 0 0 0
2 54.146 2475.68 2594.03 0 0 0
2 570.636 2410.85 2675.81 0 0 0
2 716.008 2658.23 2830.49 0 0 0
2 642.857 2966.66 2733.45 0 0 0
2 797.23 2959.99 2678.56 0 0 0
2 435.854 2826.25 2522.02 0 0 0
2 915.558 3036.56 2781.97 0 0 0
2 156.171 2849.28 2715.74 0 0 0
2 146.417 2485.99 2955.79 0 0 0
2 940.018 2408.41 2665.85 0 0 0
2 802.316 3092.81 2856.59 0 0 0
2 167.002 2643.17 2667.94 0 0 0
2 940.315 2835.38 2599.41 0 0 0
2 764.332 2593.98 2439.33 0 0 0
2 198.85 2390.63 2896.95 0 0 0
2 277.32 2740.57 2719.98 0 0 0
2 628.791 2472.37 2800.32 0 0 0
2 657.074 2652.01 2507.03 0 0 0
2 234.222 2658.68 3148.34 0 0 0
2 620.539 3122.89 2593.34 0 0 0
2 417.794 2831.45 2900.6 0 0 0
2 466.817 2887.03 2684.09 0 0 0
2 487.222 2907.23 3128.17 0 0 0
2 496.22 2842.16 2403.97 0 0 0
2 951.622 2952.14 2396.76 0 0 0
2 368.979 2393.96 2959.54 0 0 0
2 692.539 3033.34 2549.12 0 0 0
2 8.231 2605.66 2724.61 0 0 0
2 568.697 2973.64 2424.8 0 0 0
2 614.104 2931.17 3063.31 0 0 0
2 622.016 3017.4 2927.64 0 0 0
2 88.447 2815.63 2980.27 0 0 0
2 692.671 2397.79 2978.41 0 0 0
2 721.657 2955.5 2889.58 0 0 0
2 82.555 3090.4 2604.7 0 0 0
2 987.361 2558.41 2698.64 0 0 0
2 692.304 3209.69 3842.38 0 0 0
2 770.233 2456.39 2719.08 0 0 0
2 579.299 2594.8 3023.31 0 0 0
2 853.356 2939.13 2931.62 0 0 0
2 80.035 2459.13 3100.79 0 0 0
2 889.774 2709.86 2869.1 0 0 0
2 17.868 3148.8 2492.02 0 0 0
2 221.305 2640.45 2876.91 0 0 0
2 811.768 2427.4 2850.43 0 0 0
2 525.958 3122.54 3040.39 0 0 0
2 201.652 2955.71 2673.47 0 0 0
2 722.326 2874.78 2723.29 0 0 0
2 608.398 2480.74 2947.64 0 0 0
2 377.845 2523.85 2761.67 0 0 0
2 143.099 2726.64 2513.37 0 0 0
2 442.106 3104.51 2621.69 0 0 0
2 622.582 2761.57 3116.97 0 0 0
2 673.954 2821.94 2594.33 0 0 0
2 355.928 2404.13 2584.03 0 0 0
2 245.684 2936.45 2493.75 0 0 0
2 852.986 2754.67 2412.16 0 0 0
2 422.116 2465.88 2390.19 0 0 0
2 67.093 2737.35 2882.72 0 0 0
2 344.04 2734.74 2408.34 0 0 0
2 783.076 3098.03 2668.21 0 0 0
2 786.883 2812.16 3003.04 0 0 0
2 429.882 3016.41 2731.2 0 0 0
2 56.757 2995.44 2972.82 0 0 0
2 2692.65 2845.74 2425.99 0 0 0
2 2304.45 2822.1 2309.74 0 0 0
2 2289.6 2593.37 2519.79 0 0 0
2 2869.03 2759.38 2807.67 0 0 0
2 2541.97 2652.34 2445.22 0 0 0
2 2722.58 2312.05 2198.43 0 0 0
2 2474.98 2777 2940.01 0 0 0
2 2806.99 2344.11 2381.93 0 0 0
2 2789.68 2597.65 2377.74 0 0 0
2 2503.04 2752.33 2367.22 0 0 0
2 2641.92 2476.98 2955.95 0 0 0
2 2286.67 2727.57 2479.5 0 0 0
2 2378.59 2680.82 2959.86 0 0 0
2 2789.31 2512.56 2831.09 0 0 0
2 2807.1 2305.19 2768.83 0 0 0
2 2691.61 2389.96 2828.61 0 0 0
2 2405.51 2843.85 2597.3 0 0 0
2 2227.51 2840.8 2709.15 0 0 0
2 2541.59 2913.11 2814.84 0 0 0
2 2449.89 2315.47 2755.3 0 0 0
2 2850.57 2683.86 2446.01 0 0 0
2 2586.94 2214.01 2472.48 0 0 0
2 2501.1 2798.49 2668.86 0 0 0
2 2555.26 2633.19 2272.44 0 0 0
2 2436.3 2917.41 2442.36 0 0 0
2 2435.46 2447.42 2949.19 0 0 0
2 2634.07 2472.84 2266.48 0 0 0
2 2780.97 2550.1 2599.99 0 0 0
2 2529.76 2418.05 2374.18 0 0 0
2 2319.06 2523.78 2744.89 0 0 0
2 2597.99 2794.31 2769.95 0 0 0
2 2949.68 2643.33 2510.93 0 0 0
2 2874.26 2634.25 2656.22 0 0 0
2 2758.63 2646.17 2689.82 0 0 0
2 2605.81 2828.32 2597.59 0 0 0
2 2383.27 2956.69 2324.53 0 0 0
2 2710.21 2578 2920.48 0 0 0
2 2574 2932.43 2495.17 0 0 0
2 2880.12 2541.56 2941.12 0 0 0
2 2506.63 2558.77 3007.34 0 0 0
2 2653.54 2999.31 2804.49 0 0 0
2 2398.11 2578.39 2411.39 0 0 0
2 2962.38 2766.74 2319.73 0 0 0
2 2695.15 2769.43 2541.09 0 0 0
2 2562.71 2470.8 2701.18 0 0 0
2 2396.39 2802.14 2397.95 0 0 0