ITEM: TIMESTEP
0
ITEM: NUMBER OF ATOMS
1000
ITEM: BOX BOUNDS pp pp pp
-1.0000000000000000e+02 5.1000000000000000e+03
-1.0000000000000000e+02 5.1000000000000000e+03
-1.0000000000000000e+02 5.1000000000000000e+03
ITEM: ATOMS type x y z ix iy iz
1 94.635 400.208 474.927 0 0 0
1 214.821 603.939 208.198 0 0 0
1 744.069 478.965 447.697 0 0 0
1 210.891 458.317 538.324 0 0 0
1 455.706 629.372 771.049 0 0 0
1 170.322 804.952 797.595 0 0 0
1 848.107 143.001 491.984 0 0 0
1 887.487 526.736 218.446 0 0 0
1 887.242 597.757 715.877 0 0 0
1 705.03 856.898 168.303 0 0 0
1 869.259 392.608 831.403 0 0 0
1 596.038 649.374 654.574 0 0 0
1 181.592 871.6 280.682 0 0 0
1 3892.38 553.44 23.853 0 0 0
1 3512.59 809.52 208.205 0 0 0
1 3817.61 262.197 494.17 0 0 0
1 3670.75 248.258 4.936 0 0 0
1 3629.86 485.247 272.326 0 0 0
1 3883.42 409.243 254.395 0 0 0
1 4109.86 638.462 159.796 0 0 0
1 3675.7 690.181 425.384 0 0 0
1 3644.07 573.17 462.066 0 0 0
1 4026.1 716.586 509.553 0 0 0
1 3600.24 480.227 68.571 0 0 0
1 3830.35 359.451 121.856 0 0 0
1 649.271 4820.11 850.121 0 0 0
1 823.149 4513.96 716.721 0 0 0
1 260.397 4171.24 979.367 0 0 0
1 164.02 4283.49 475.192 0 0 0
1 73.11 3708.99 231.754 0 0 0
1 779.915 4547.09 978.12 0 0 0
1 714.308 4464.45 489.077 0 0 0
1 645.037 4627.94 470.765 0 0 0
1 788.038 4494.76 51.999 0 0 0
1 824.756 4275.48 370.43 0 0 0
1 35.428 4498.56 888.207 0 0 0
1 747.282 4401.55 272.314 0 0 0
1 124.684 4192.01 733.195 0 0 0
1 232.717 395.846 4459.84 0 0 0
1 645.546 919.424 4202.64 0 0 0
1 189.899 636.388 4071.07 0 0 0
1 481.632 661.047 4749.99 0 0 0
1 337.349 970.77 4631.85 0 0 0
1 546.38 556.874 3972.28 0 0 0
1 626.897 561.688 4704.44 0 0 0
1 117.788 714.611 3940.69 0 0 0
1 657.194 146.825 4508.18 0 0 0
1 503.129 575.122 4131.9 0 0 0
1 831.725 986.186 4819.62 0 0 0
1 381.417 724.459 4161.53 0 0 0
1 3686.61 4081.57 446.394 0 0 0
1 3660.49 3852.49 637.222 0 0 0
1 4056.57 3790.81 383.434 0 0 0
1 4688.95 4535.05 59.713 0 0 0
1 4641.39 4199.12 279.812 0 0 0
1 4095.85 3719.19 511.202 0 0 0
1 4380.11 4534.4 208.391 0 0 0
1 4422.03 4071.72 288.65 0 0 0
1 3679.19 3654.9 776.069 0 0 0
1 3848.51 4032.65 332.468 0 0 0
1 4448.66 4084.07 570.561 0 0 0
1 3617.31 4545.42 240.599 0 0 0
1 4346.33 4367 706.922 0 0 0
1 3859.42 332.981 3724.56 0 0 0
1 3652.6 644.969 3503.55 0 0 0
1 4069.66 351.771 3849.64 0 0 0
1 3806.83 709.734 4102.92 0 0 0
1 4125.89 855.638 4168.31 0 0 0
1 3826.34 797.263 3565.83 0 0 0
1 3569.87 808.974 4134.18 0 0 0
1 3591.2 144.58 4154.84 0 0 0
1 4154.31 180.651 4071.59 0 0 0
1 4138.71 282.976 3599.08 0 0 0
1 3503.9 327.068 4089.56 0 0 0
1 3901.78 637.614 3735.53 0 0 0
1 930.793 4092.1 4322.41 0 0 0
1 908.506 4939.66 4124.21 0 0 0
1 505.138 4259.31 4531.24 0 0 0
1 450.46 4641.79 3927.3 0 0 0
1 320.167 4131.85 4493.24 0 0 0
1 866.425 4068.84 4070.3 0 0 0
1 954.579 4418.57 4559.39 0 0 0
1 815.536 4361.88 3964.12 0 0 0
1 901.055 4907.17 3932 0 0 0
1 809.259 4501.56 4774.9 0 0 0
1 652.874 4787.52 4835.8 0 0 0
1 561.102 4816.28 4508.85 0 0 0
1 53.392 4617.41 4928.56 0 0 0
1 4236.98 3559.39 3652.82 0 0 0
1 4020.81 4059.66 4085.51 0 0 0
1 4779.64 4513.02 4586.28 0 0 0
1 4113.03 3819.06 4121.86 0 0 0
1 3815.92 3827.09 4097.05 0 0 0
1 3815.76 3608.46 3679.07 0 0 0
1 3818.74 3866.01 3678.91 0 0 0
1 4009.74 4565.49 4218.03 0 0 0
1 4659 3663.22 4062.59 0 0 0
1 4004.42 3745.53 3783.12 0 0 0
1 4053.39 4338.94 4193.71 0 0 0
1 3798.39 4412.05 4546.03 0 0 0
2 996.681 512.817 720.187 0 0 0
2 963.443 487.949 877.83 0 0 0
2 194.194 906.156 971.156 0 0 0
2 398.459 253.268 803.255 0 0 0
2 716.415 819.098 690.515 0 0 0
2 254.757 207.847 523.25 0 0 0
2 41.512 950.875 981.627 0 0 0
2 34.512 975.193 332.959 0 0 0
2 215.578 752.111 211.795 0 0 0
2 175.242 337.267 388.988 0 0 0
2 653.823 391.111 574.6 0 0 0
2 6.384 126.638 497.675 0 0 0
2 712.593 959.185 951.151 0 0 0
2 560.753 972.161 536.114 0 0 0
2 102.107 6.237 428.731 0 0 0
2 992.983 22.574 147.462 0 0 0
2 410.449 454.854 334.873 0 0 0
2 290.983 387.071 936.191 0 0 0
2 782.767 409.274 92.686 0 0 0
2 406.335 435.288 633.638 0 0 0
2 951.069 444.919 94.066 0 0 0
2 56.542 91.874 612.623 0 0 0
2 13.963 252.922 612.496 0 0 0
2 692.862 967.256 226.574 0 0 0
2 76.58 931.761 112.475 0 0 0
2 297.822 97.747 907.319 0 0 0
2 965.972 277.469 387.025 0 0 0
2 855.864 403.693 380.289 0 0 0
2 25.812 530.108 654.175 0 0 0
2 375.015 69.817 467.33 0 0 0
2 970.896 949.063 921.61 0 0 0
2 739.241 216.043 846.958 0 0 0
2 808.821 128.86 912.634 0 0 0
2 479.555 677.325 230.005 0 0 0
2 2.152 905.233 226.904 0 0 0
2 508.084 77.427 98.809 0 0 0
2 19.805 704.179 636.64 0 0 0
2 510.392 408.102 749.258 0 0 0
2 162.735 165.401 643.609 0 0 0
2 835.652 595.098 44.905 0 0 0
2 870.012 268.31 237.184 0 0 0
2 852.931 942.717 356.679 0 0 0
2 489.271 485.719 206.739 0 0 0
2 19.168 675.556 137.195 0 0 0
2 729.482 450.519 733.951 0 0 0
2 161.429 473.81 759.368 0 0 0
2 140.511 642.676 587.212 0 0 0
2 883.734 295.525 566.053 0 0 0
2 548.73 305.751 328.365 0 0 0
2 361.73 828.805 930.269 0 0 0
2 169.528 83.126 83.55 0 0 0
2 497.586 356.802 135.109 0 0 0
2 430.566 376.489 844.144 0 0 0
2 267.822 6.651 395.42 0 0 0
2 3.377 567.476 511.282 0 0 0
2 517.293 58.635 601.899 0 0 0
2 532.188 387.593 432.579 0 0 0
2 742.305 661.514 733.289 0 0 0
2 702.616 773.137 381.214 0 0 0
2 805.676 686.578 943.201 0 0 0
2 235.096 410.335 309.553 0 0 0
2 189.517 834.398 109.065 0 0 0
2 224.314 621.582 742.682 0 0 0
2 856.044 3.204 241.132 0 0 0
2 767.686 965.132 623.449 0 0 0
2 169.276 201.057 36.889 0 0 0
2 171.646 972.811 429.311 0 0 0
2 645.124 845.009 525.34 0 0 0
2 283.098 182.637 408.344 0 0 0
2 819.037 797.087 322.847 0 0 0
2 962.744 232.455 139.144 0 0 0
2 436.19 452.224 1002.16 0 0 0
2 205.414 37.594 568.346 0 0 0
2 323.342 858.71 3.331 0 0 0
2 827.099 46.71 580.566 0 0 0
2 584.448 557.219 422.45 0 0 0
2 56.757 783.147 846.337 0 0 0
2 99.999 819.439 204.93 0 0 0
2 970.267 784.936 341.747 0 0 0
2 425.888 560.337 450.761 0 0 0
2 687.569 575.969 215.026 0 0 0
2 831.426 22.951 364.123 0 0 0
2 794.39 442.905 272.016 0 0 0
2 912.167 36.79 955.115 0 0 0
2 373.102 239.797 537.488 0 0 0
2 58.081 198.672 144.179 0 0 0
2 426.962 75.219 330.609 0 0 0
2 183.132 20.341 943.541 0 0 0
2 115.63 824.254 3.077 0 0 0
2 553.678 259.41 973.489 0 0 0
2 770.522 556.691 847.061 0 0 0
2 660.938 406.916 283.303 0 0 0
2 575.478 453.604 861.811 0 0 0
2 268.022 846.395 496.046 0 0 0
2 975.326 295.266 791.744 0 0 0
2 3.265 753.101 509.038 0 0 0
2 907.334 80.269 815.309 0 0 0
2 473.391 807.764 830.609 0 0 0
2 958.844 555.468 537.606 0 0 0
2 948.31 967.373 222.879 0 0 0
2 760.056 939.823 499.749 0 0 0
2 318.468 614.935 78.682 0 0 0
2 275.335 766.219 318.775 0 0 0
2 805.507 240.648 960.818 0 0 0
2 818.407 683.239 371.202 0 0 0
2 153.174 127.994 435.511 0 0 0
2 28.949 189.066 292.477 0 0 0
2 4.585 777.021 16.656 0 0 0
2 526.656 901.389 83.3 0 0 0
2 275.726 744.739 0 0 0 0
2 77.014 917.214 866.309 0 0 0
2 123.009 563.339 92.528 0 0 0
2 945.354 694.622 658.982 0 0 0
2 3061.95 90.186 472.087 0 0 0
2 3047.57 919.058 254.069 0 0 0
2 3038.15 925.998 849.656 0 0 0
2 2915.02 87.788 780.16 0 0 0
2 3108.36 823.538 511.289 0 0 0
2 3092.81 869.211 991.934 0 0 0
2 2942.46 476.828 67.173 0 0 0
2 3077.34 315.638 154.568 0 0 0
2 2912.06 292.837 89.113 0 0 0
2 2990.65 220.46 826.976 0 0 0
2 3213.4 315.513 615.936 0 0 0
2 2924.38 16.663 895.441 0 0 0
2 3099.53 794.317 351.383 0 0 0
2 3029.11 99.113 353.157 0 0 0
2 3059.26 720.728 907.659 0 0 0
2 2972.84 341.311 851.559 0 0 0
2 3226.41 557.656 35.227 0 0 0
2 2942.38 515.171 907.489 0 0 0
2 3202.05 32.24 365.176 0 0 0
2 3002.37 529.674 219.344 0 0 0
2 3096.87 802.558 145.41 0 0 0
2 3227.82 202.174 760.008 0 0 0
2 3021.21 835.146 46.05 0 0 0
2 2932.56 884.307 431.935 0 0 0
2 3211.8 138.979 929.233 0 0 0
2 3107.99 211.096 494.821 0 0 0
2 2923.84 575.418 612.49 0 0 0
2 2930.71 38.818 113.267 0 0 0
2 2895.74 418.352 261.863 0 0 0
2 2896.41 803.067 189.344 0 0 0
2 3064.41 538.114 566.394 0 0 0
2 3017.65 749.402 432.583 0 0 0
2 2857.43 312.019 522.337 0 0 0
2 2955.4 1.695 694.729 0 0 0
2 2845.95 822.744 361.558 0 0 0
2 3087.27 67.238 877.499 0 0 0
2 3171.71 654.476 565.642 0 0 0
2 2905.32 203.487 267.073 0 0 0
2 2845.52 511.713 180.098 0 0 0
2 3216.2 775.33 707.87 0 0 0
2 2822.36 380.95 910.594 0 0 0
2 3108.53 500.07 397.707 0 0 0
2 2915.67 651.002 235.746 0 0 0
2 2953.47 379.628 641.481 0 0 0
2 3117.31 871.007 636.419 0 0 0
2 3025.48 220.729 259.317 0 0 0
2 3224.14 273.073 230.852 0 0 0
2 3174.46 784.496 244.464 0 0 0
2 3227.19 732.873 981.689 0 0 0
2 2909.88 697.355 964.447 0 0 0
2 3101.75 238.336 1016.28 0 0 0
2 3039.19 363.761 487.906 0 0 0
2 2975.32 371.603 984.06 0 0 0
2 2934.11 546.935 1025.07 0 0 0
2 2947.57 255.463 936.374 0 0 0
2 3039.45 926.648 390.828 0 0 0
2 3175.58 5.389 180.364 0 0 0
2 3082.66 619.025 471.492 0 0 0
2 3017.04 624.888 336.789 0 0 0
2 2832.56 55.032 38.18 0 0 0
2 3100.42 2.019 82.066 0 0 0
2 3236.9 201.841 529.356 0 0 0
2 3149.38 148.683 396.995 0 0 0
2 3208.76 116.822 267.822 0 0 0
2 3192.7 3.091 665.095 0 0 0
2 2934.53 205.099 4.828 0 0 0
2 3121.06 860.18 766.876 0 0 0
2 3247.81 513.884 280.476 0 0 0
2 3179.21 800.029 23.161 0 0 0
2 3130.48 434.325 32.654 0 0 0
2 2960 693.756 570.104 0 0 0
2 3258.02 868.123 773.65 0 0 0
2 2867.76 901.476 771.15 0 0 0
2 3184.55 426.804 530.01 0 0 0
2 2880.51 112.476 1021.56 0 0 0
2 2793.55 736.184 631.041 0 0 0
2 2987.82 740.733 766.419 0 0 0
2 2975.75 187.125 117.332 0 0 0
2 3095.72 162.149 24.085 0 0 0
2 2844.66 958.323 379.208 0 0 0
2 2848.81 917.522 521.268 0 0 0
2 3040.88 502.784 826.717 0 0 0
2 2856.3 913.598 76.991 0 0 0
2 2937.73 627.772 736.81 0 0 0
2 3082.76 692.403 242.571 0 0 0
2 2938.94 534.967 457.558 0 0 0
2 3166.03 966.231 860.939 0 0 0
2 3236.14 245.441 31.358 0 0 0
2 3056.87 673.203 650.42 0 0 0
2 2991.5 905.061 699.174 0 0 0
2 2907.32 656.717 392.305 0 0 0
2 2954.42 375.999 379.619 0 0 0
2 2828.83 387.457 35.654 0 0 0
2 2847.6 774.362 773.009 0 0 0
2 3097.36 74.812 685.849 0 0 0
2 3086.03 397.405 290.351 0 0 0
2 3192.92 469.786 722.917 0 0 0
2 2814.33 255.908 876.911 0 0 0
2 2964.73 653.321 864.859 0 0 0
2 2922.42 101.305 491.982 0 0 0
2 3131.74 588.663 757.461 0 0 0
2 2896.9 849.196 944.212 0 0 0
2 2961.64 803.027 291.431 0 0 0
2 3019.12 258.255 388.762 0 0 0
2 3167.1 100.12 575.044 0 0 0
2 3257.03 691.414 785.74 0 0 0
2 3118.61 504.364 139.695 0 0 0
2 2808.52 539.159 926.003 0 0 0
2 3084 84.113 192.307 0 0 0
2 3074.42 461.82 667.557 0 0 0
2 2974.13 384.175 142.633 0 0 0
2 3026.28 378.18 6.096 0 0 0
2 954.462 2932.09 864.999 0 0 0
2 570.56 3112.38 567.308 0 0 0
2 188.688 3051.01 338.722 0 0 0
2 35.858 3177.83 856.806 0 0 0
2 377.002 2929.77 197.28 0 0 0
2 874.343 2818.54 867.524 0 0 0
2 676.791 3114.3 632.142 0 0 0
2 238.33 2986.91 901.148 0 0 0
2 699.829 3197.69 732.343 0 0 0
2 681.413 2958.52 642.922 0 0 0
2 156.511 3083.59 855.969 0 0 0
2 207.755 2909.09 474.437 0 0 0
2 606.211 2970.78 821.524 0 0 0
2 383.884 3142.34 413.599 0 0 0
2 210.952 3075.42 38.057 0 0 0
2 516.027 3003.69 585.001 0 0 0
2 39.729 2880.47 699.556 0 0 0
2 850.491 2885.16 567.767 0 0 0
2 285.96 2856.9 341.88 0 0 0
2 403.1 3184.76 601.901 0 0 0
2 423.639 3111.79 704.271 0 0 0
2 578.248 3197.21 402.694 0 0 0
2 710.972 3185.66 215.856 0 0 0
2 444.515 2806.28 57.095 0 0 0
2 1007.19 3075.15 777.057 0 0 0
2 528.07 3047.49 64.027 0 0 0
2 248.392 2735.64 199.419 0 0 0
2 72.633 3015.15 711.082 0 0 0
2 568.382 2844.29 169.853 0 0 0
2 643.574 3050.91 736.625 0 0 0
2 370.12 2961.13 886.946 0 0 0
2 596.185 2878.16 611.369 0 0 0
2 990.303 2995.48 592.904 0 0 0
2 430.847 3186.11 849.945 0 0 0
2 815.015 2840.05 262.358 0 0 0
2 28.123 3061.63 823.652 0 0 0
2 874.358 3071.24 75.109 0 0 0
2 767.022 2984.62 327.42 0 0 0
2 470.988 3069.71 203.212 0 0 0
2 0 3196.88 529.57 0 0 0
2 10.142 2889.35 367.517 0 0 0
2 204.395 3213.43 868.455 0 0 0
2 806.435 3026 847.234 0 0 0
2 857.432 2960.51 244.982 0 0 0
2 712.612 2987.56 453.424 0 0 0
2 221.04 3251.32 454.834 0 0 0
2 907.452 2942.15 705.497 0 0 0
2 179.07 2982.59 239.275 0 0 0
2 210.813 2819.79 558.859 0 0 0
2 337.005 3026.75 416.273 0 0 0
2 138.128 3154.79 539.958 0 0 0
2 252.629 2870.4 212.766 0 0 0
2 499.68 2909.55 250.17 0 0 0
2 391.976 3164.99 205.81 0 0 0
2 522.095 3122.47 305.049 0 0 0
2 424.868 3050.09 315.495 0 0 0
2 40.981 3229.67 667.25 0 0 0
2 707.004 3211.92 865.747 0 0 0
2 180.426 2857.97 878.67 0 0 0
2 227.139 3057.24 530.168 0 0 0
2 697.302 3020.57 148.57 0 0 0
2 110.176 3123.98 216.183 0 0 0
2 335.497 3082.26 586.878 0 0 0
2 298.626 3207.3 538.412 0 0 0
2 900.447 3222.18 930.092 0 0 0
2 53.388 2990.69 276.748 0 0 0
2 1013.74 2969.03 256.598 0 0 0
2 795.875 3012.3 538.191 0 0 0
2 927.199 2854.46 318.326 0 0 0
2 520.374 2974.02 726.763 0 0 0
2 920.247 3164.91 685.474 0 0 0
2 916.426 3077.68 860.337 0 0 0
2 74.989 2868.65 229.091 0 0 0
2 721.658 3098.45 17.27 0 0 0
2 221.269 3004.56 642.322 0 0 0
2 494.113 2984.05 865.262 0 0 0
2 286.905 3172.07 771.252 0 0 0
2 947.775 3084.36 205.325 0 0 0
2 149.358 2908.22 656.082 0 0 0
2 3.036 2967.93 611.065 0 0 0
2 443.568 3231.88 723.424 0 0 0
2 493.602 2932.36 47.791 0 0 0
2 216.449 3158.08 659.415 0 0 0
2 313.897 3091.83 290.601 0 0 0
2 796.052 2942.91 124.815 0 0 0
2 340.841 2862.6 0 0 0 0
2 835.673 2821.72 411.704 0 0 0
2 867.782 3062.64 622.813 0 0 0
2 826.574 3069.74 421.438 0 0 0
2 793.715 2853.4 763.278 0 0 0
2 183.105 2814.87 749.955 0 0 0
2 7.46 2922.87 486.924 0 0 0
2 323.932 3028.1 702.273 0 0 0
2 432.182 2854.83 369.741 0 0 0
2 133.596 2796.54 107.554 0 0 0
2 864.393 3068.71 749.915 0 0 0
2 99.063 2848.06 451.149 0 0 0
2 333.187 3106.76 75.649 0 0 0
2 69.722 2896.07 25.569 0 0 0
2 19.262 3046.72 171.128 0 0 0
2 362.857 3075.35 833.563 0 0 0
2 956.598 3163.9 570.027 0 0 0
2 661.881 2914.79 202.438 0 0 0
2 188.583 3138.59 425.039 0 0 0
2 158.769 3204.14 755.515 0 0 0
2 111.665 3044.09 600.167 0 0 0
2 637.354 3084.14 444.618 0 0 0
2 521.395 3208.96 195.056 0 0 0
2 193.453 3202.3 266.368 0 0 0
2 342.569 2903.41 451.224 0 0 0
2 121.597 2967.29 822.869 0 0 0
2 722.54 2860.91 376.795 0 0 0
2 607.75 2913.54 483.036 0 0 0
2 368.701 80.193 2915.66 0 0 0
2 0 1485.1 4256.35 0 0 0
2 607.598 268.226 3132.32 0 0 0
2 653.898 364.366 3070.94 0 0 0
2 648.746 410.163 3212.63 0 0 0
2 0 469.014 3677.96 0 0 0
2 127.929 800.153 3062.86 0 0 0
2 856.966 610.061 3252.46 0 0 0
2 0 0 2500 0 0 0
2 854.702 815.481 2908.06 0 0 0
2 905.882 644.735 2983.75 0 0 0
2 284.979 407.195 3190.38 0 0 0
2 573.331 880.139 2821.41 0 0 0
2 189.207 667.037 3158.7 0 0 0
2 242.479 256.919 2984.61 0 0 0
2 340.544 660.511 3080.86 0 0 0
2 333.346 914.175 2998.17 0 0 0
2 319.646 298.374 3078.86 0 0 0
2 563.102 584.409 2932.88 0 0 0
2 765.358 87.946 3064.02 0 0 0
2 473.5 618.053 3240.08 0 0 0
2 877.389 879.55 3193.32 0 0 0
2 748.999 637.628 2988 0 0 0
2 243.415 803.393 3018.93 0 0 0
2 852.134 507.203 3004.48 0 0 0
2 532.787 277.401 2986.64 0 0 0
2 263.544 566.733 3127.75 0 0 0
2 895.771 69.935 2869.16 0 0 0
2 248.479 639.157 3267.92 0 0 0
2 172.811 389.141 3030.16 0 0 0
2 895.627 12.832 3108.17 0 0 0
2 178.729 152.323 3003.46 0 0 0
2 654.347 656.6 3232.41 0 0 0
2 783.102 343.929 3112.71 0 0 0
2 30.071 745.559 3206.87 0 0 0
2 621.485 803.068 2968.01 0 0 0
2 631.092 77.548 3067.73 0 0 0
2 571.275 898.767 3217.01 0 0 0
2 689.512 532.532 2941.51 0 0 0
2 338.172 718.144 3202.37 0 0 0
2 164.8 18.086 2908.23 0 0 0
2 13.192 776.686 2971.35 0 0 0
2 150.676 261.447 3068.8 0 0 0
2 223.487 964.276 3014.67 0 0 0
2 697.887 122.781 3162.91 0 0 0
2 550.822 737.755 3198.24 0 0 0
2 746.906 255.949 3196.27 0 0 0
2 838.519 762.34 3249.86 0 0 0
2 404.531 526.873 2878.06 0 0 0
2 436.2 19.355 3080.75 0 0 0
2 151.13 619.72 2878.4 0 0 0
2 401.708 869.936 3205.12 0 0 0
2 2500 1266.53 3100.72 0 0 0
2 450.491 972.169 2993.27 0 0 0
2 633.687 483.715 3069.85 0 0 0
2 117.322 508.495 2913.34 0 0 0
2 324.351 616.309 2964.23 0 0 0
2 164.929 301.635 2902.54 0 0 0
2 352.848 509.177 3043.43 0 0 0
2 913.107 109.134 2992.36 0 0 0
2 868.613 192.583 2858.86 0 0 0
2 153.526 474.064 3165.24 0 0 0
2 930.883 537.309 3171.5 0 0 0
2 484.632 656.074 3021.94 0 0 0
2 303.524 2500 5000 0 0 0
2 38.551 332.329 3276.3 0 0 0
2 274.122 252.878 2867.86 0 0 0
2 1639.35 0 2500 0 0 0
2 85.671 526.491 3047.39 0 0 0
2 470.752 410.407 2930.53 0 0 0
2 517.832 507.326 3167.35 0 0 0
2 506.097 380.649 3059.25 0 0 0
2 954.002 695.708 3173.28 0 0 0
2 144.372 909.389 2940.61 0 0 0
2 766.032 770.113 3142.05 0 0 0
2 18.199 628.676 2846.08 0 0 0
2 499.238 241.567 3186.36 0 0 0
2 753.029 235.503 3029.23 0 0 0
2 871.56 208.236 3070.59 0 0 0
2 746.377 432.355 3024.06 0 0 0
2 1370.99 1082.66 2593.95 0 0 0
2 175.358 20.951 3032.8 0 0 0
2 85.213 339.999 3143.28 0 0 0
2 859.353 754.348 3022.6 0 0 0
2 332.81 436.327 2918.82 0 0 0
2 608.009 300.9 3250.11 0 0 0
2 731.759 189.481 2903.72 0 0 0
2 349.498 315.355 2961.52 0 0 0
2 253.497 194.377 3134.07 0 0 0
2 360.042 776.479 2991.38 0 0 0
2 368.524 495.364 3188.07 0 0 0
2 505.645 191.522 2883.6 0 0 0
2 807.644 94.168 3245.36 0 0 0
2 187.057 124.952 3207.93 0 0 0
2 818.019 454.313 3150.71 0 0 0
2 985.759 361.708 3002.11 0 0 0
2 237.739 519.536 3252.55 0 0 0
2 694.205 66.825 2914.59 0 0 0
2 455.328 115.259 3219.43 0 0 0
2 555.022 915.612 2964.39 0 0 0
2 529.397 413.356 3252.8 0 0 0
2 244.89 775.067 3139.82 0 0 0
2 354.652 762.53 2870.9 0 0 0
2 74.383 38.625 3151.32 0 0 0
2 430.991 583.101 3130.27 0 0 0
2 580.274 86.493 2953.13 0 0 0
2 479.261 796.907 2983.84 0 0 0
2 93.522 652.974 3085.95 0 0 0
2 264.97 859.537 2912.48 0 0 0
2 482.572 756.721 2868.86 0 0 0
2 187.511 886.064 2798.61 0 0 0
2 839.615 324.233 2972.51 0 0 0
2 3011.61 3045.17 239.947 0 0 0
2 2963.83 2800.38 29.679 0 0 0
2 3159.45 2866.22 226.477 0 0 0
2 2848.04 3119.21 389.709 0 0 0
2 2887.11 2770.66 361.135 0 0 0
2 3019.01 2814.25 946.631 0 0 0
2 2992.09 3038.91 796.847 0 0 0
2 3129.29 2868.36 951.984 0 0 0
2 2957.23 3163.78 936.858 0 0 0
2 3120.98 3006.82 191.665 0 0 0
2 3001.18 3258.76 335.178 0 0 0
2 2984.91 2946.65 138.903 0 0 0
2 2736.5 2899.85 235.001 0 0 0
2 3005.47 2913.33 769.48 0 0 0
2 2997.82 3154.52 477.82 0 0 0
2 3056.6 3101.35 886.811 0 0 0
2 3134.2 3220.3 1034.74 0 0 0
2 3082.39 2752.47 271.273 0 0 0
2 3278.59 2940.88 661.672 0 0 0
2 2878.65 2967.09 840.578 0 0 0
2 3041.11 2903.39 1030.34 0 0 0
2 2898.51 3065.11 722.172 0 0 0
2 3048.08 3132.76 1010.54 0 0 0
2 2798.56 2871.03 781.174 0 0 0
2 3132.74 2820.84 0.035 0 0 0
2 2883.95 3074.69 174.391 0 0 0
2 2986.13 3051.99 60.151 0 0 0
2 2802.93 3163.46 276.584 0 0 0
2 3199.96 3101.53 609.177 0 0 0
2 3256.83 3011.42 542.135 0 0 0
2 2838.59 3122.5 608.411 0 0 0
2 3072.18 2970.53 589.666 0 0 0
2 3174.07 3137.89 0.008 0 0 0
2 2746.6 2881.29 441.973 0 0 0
2 3092.94 2921.31 60.187 0 0 0
2 3213.09 2826.32 756.905 0 0 0
2 3185.3 2857.01 105.728 0 0 0
2 3252.77 2980.47 814.394 0 0 0
2 3010.02 3046.64 677.418 0 0 0
2 2978.13 3057.42 552.794 0 0 0
2 2851 2886.82 323.995 0 0 0
2 2923.39 3174.07 117.543 0 0 0
2 3014.3 2867.28 561.42 0 0 0
2 3229.88 3141.09 497.479 0 0 0
2 3210.47 2961.25 420.292 0 0 0
2 3310.13 3033.34 931.138 0 0 0
2 3095.81 2884.26 473.463 0 0 0
2 3025.18 3218.84 165.659 0 0 0
2 2895.91 3158.95 0.528 0 0 0
2 3191.52 2978.88 301.867 0 0 0
2 3174.16 3251.34 899.178 0 0 0
2 3111.21 2895.52 344.905 0 0 0
2 3005.93 3152.89 746.596 0 0 0
2 3210.84 2829.86 437.505 0 0 0
2 3190.42 2850.28 555.012 0 0 0
2 3224.51 2805.71 893.568 0 0 0
2 3252.5 3092.18 90.589 0 0 0
2 3089.09 3027.03 0.938 0 0 0
2 3136.43 3230.24 591.838 0 0 0
2 3083.6 2888.34 678.113 0 0 0
2 2967.25 3166.01 609.786 0 0 0
2 2814.2 2978.41 610.572 0 0 0
2 3206.35 3104.52 203.967 0 0 0
2 3043.04 3011.51 975.802 0 0 0
2 3098.93 3115.2 295.385 0 0 0
2 3138.4 2987.4 756.23 0 0 0
2 3117.58 3313.9 777.214 0 0 0
2 3063.68 2811.14 144.135 0 0 0
2 2796.61 3070.22 507.683 0 0 0
2 3037.87 2924.22 890.408 0 0 0
2 3208.86 3077.01 370.777 0 0 0
2 2901.63 3198.29 787.901 0 0 0
2 3092.5 3233.42 27.573 0 0 0
2 3182.25 2767.16 338.01 0 0 0
2 2891.03 2944.77 218.151 0 0 0
2 3115.45 2832.58 828.104 0 0 0
2 2973.97 2803.88 666.261 0 0 0
2 3050.53 2923.53 244.03 0 0 0
2 3233.69 2964.66 58.3 0 0 0
2 3241.63 3207.91 649.031 0 0 0
2 3232.79 3212.51 95.691 0 0 0
2 2956.49 2950.75 0.785 0 0 0
2 2824.47 3038.39 276.185 0 0 0
2 2951.5 2830.99 250.814 0 0 0
2 3171.31 3061.51 853.097 0 0 0
2 3079.81 3107.94 596.252 0 0 0
2 2932.72 3017.84 420.305 0 0 0
2 3168.46 2985.16 947.025 0 0 0
2 3277.13 3182.28 893.455 0 0 0
2 3228.25 3065.36 723.465 0 0 0
2 2849.48 2954.98 69.741 0 0 0
2 2972.59 3261.62 0.233 0 0 0
2 2812.84 2811.11 514.978 0 0 0
2 2823.1 3156.26 929.317 0 0 0
2 2886.48 2936.23 702.747 0 0 0
2 3041.98 3239.78 844.418 0 0 0
2 2988.02 2784.32 444.937 0 0 0
2 2966.6 3128.59 341.893 0 0 0
2 3160.61 3120.07 961.775 0 0 0
2 3052.95 2993.99 445.812 0 0 0
2 2834.74 2750.81 202.529 0 0 0
2 2991.16 2781.56 799.327 0 0 0
2 3094.45 2768.5 604.938 0 0 0
2 2962.65 2930.27 340.989 0 0 0
2 2902.82 2898.4 501.019 0 0 0
2 3100.05 3120.89 96.543 0 0 0
2 3153.34 3047.58 490.884 0 0 0
2 2925.84 2999.52 948.14 0 0 0
2 2929.49 2858.16 871.233 0 0 0
2 3247.74 2954.34 190.545 0 0 0
2 2900.3 3086.03 862.593 0 0 0
2 3249.18 2854.14 1.839 0 0 0
2 3153.66 3168.21 781.683 0 0 0
2 2945.48 504.151 2828.65 0 0 0
2 3008.96 537.366 3083.71 0 0 0
2 2500 1575.35 2565.14 0 0 0
2 4304.2 0 5000 0 0 0
2 3069.13 231.936 3350.34 0 0 0
2 2851.74 933.543 3253.55 0 0 0
2 3026.89 359.213 3232.04 0 0 0
2 3219.1 102.238 3086.3 0 0 0
2 2966.01 788.76 2879.98 0 0 0
2 3122.82 500.444 3029.71 0 0 0
2 3227.26 673.83 3356.11 0 0 0
2 2941.9 19.245 3188.64 0 0 0
2 3211.28 220.104 3119.56 0 0 0
2 2809.79 605.679 2815.94 0 0 0
2 2964.84 789.415 3067.49 0 0 0
2 3210.04 943.526 3064.94 0 0 0
2 2781.36 441.556 3087.64 0 0 0
2 3331.1 358.889 3046.99 0 0 0
2 3043.02 942.308 3310.79 0 0 0
2 3234.03 784.745 3140.68 0 0 0
2 3293.58 492.24 3413.98 0 0 0
2 2944.85 723.698 3183.28 0 0 0
2 3341.99 902.131 3304.83 0 0 0
2 2995.39 112.275 3126.52 0 0 0
2 3182.4 517.522 3333.47 0 0 0
2 3322.32 389.465 3239.96 0 0 0
2 3065.91 41.519 3209.24 0 0 0
2 3256.67 809.451 2860.62 0 0 0
2 2913.89 658.131 3079.89 0 0 0
2 2976.85 429.689 3352.9 0 0 0
2 2822.02 313.083 3040.67 0 0 0
2 2831.32 564.242 3359.77 0 0 0
2 3332.91 475.592 3110.67 0 0 0
2 2948.92 701.631 2972.47 0 0 0
2 3106.91 520.994 2837.62 0 0 0
2 3180.01 338.791 3219.29 0 0 0
2 2500 2218.27 2500 0 0 0
2 3077.09 648.2 3142.2 0 0 0
2 3084.72 362.698 3381.9 0 0 0
2 3170.36 760.847 2931.49 0 0 0
2 3073.71 1059.95 3051.57 0 0 0
2 2939.93 339.271 2996.06 0 0 0
2 3104.99 133.783 2881.94 0 0 0
2 3246.28 119.151 2889.94 0 0 0
2 3426.7 680.835 3226.5 0 0 0
2 3076.41 777.94 3176.87 0 0 0
2 3233.26 559.182 2807.35 0 0 0
2 3012.57 47.552 2982.12 0 0 0
2 3353.85 657.095 3354.51 0 0 0
2 3045.68 224.87 3015.53 0 0 0
2 2889.64 534.18 3135.42 0 0 0
2 3349.63 767.791 3175.76 0 0 0
2 2829.22 207.55 3113.86 0 0 0
2 3318.62 12.04 3106.44 0 0 0
2 3185.34 278.042 3014.27 0 0 0
2 2893.25 198.604 3358.75 0 0 0
2 3198.35 441.579 2843.53 0 0 0
2 3359.91 231.525 3393.04 0 0 0
2 2985.41 593.115 3198.91 0 0 0
2 3251.03 187.153 3260.72 0 0 0
2 3061.22 710.975 3016.92 0 0 0
2 3250.91 709.573 3043.12 0 0 0
2 3369.49 220.847 2903.39 0 0 0
2 3336.02 799.415 3026.4 0 0 0
2 5000 0 2500 0 0 0
2 3338.41 698.585 2916.49 0 0 0
2 2897.8 40.274 3019.84 0 0 0
2 3354.98 232.827 3183.53 0 0 0
2 2823.32 833.764 3177.5 0 0 0
2 2928.04 933.744 3081.2 0 0 0
2 3206.18 21.382 3192.6 0 0 0
2 3127.88 352.225 3110.52 0 0 0
2 2865.07 698.966 3280.24 0 0 0
2 3038.59 541.225 2939.79 0 0 0
2 3294.27 421.56 2914.63 0 0 0
2 3406.32 372.617 3148.95 0 0 0
2 3003.22 822.661 3285.47 0 0 0
2 3105.74 442.707 3276.67 0 0 0
2 3437.17 256.207 3027.25 0 0 0
2 3293.99 525.281 3222.73 0 0 0
2 3349.06 987.82 3065.89 0 0 0
2 2985.3 212.99 3247.26 0 0 0
2 3106.21 569.944 3230.13 0 0 0
2 3117.91 790.033 3338.26 0 0 0
2 2933.14 773.846 3371.53 0 0 0
2 3077.2 636.31 2866.22 0 0 0
2 3248.69 236.941 2919.73 0 0 0
2 3231 412.721 3091.87 0 0 0
2 2849.37 925.563 3387.14 0 0 0
2 3026.9 357.465 2859.76 0 0 0
2 3122.02 994.699 3191.86 0 0 0
2 3243.57 791.726 3270.77 0 0 0
2 3313.35 36.437 2975.77 0 0 0
2 2901.73 352.438 2879.89 0 0 0
2 3351.18 587.045 2998.74 0 0 0
2 3440.36 476.045 3055.04 0 0 0
2 3355.99 116.869 3333.78 0 0 0
2 3136.56 34.112 2820.78 0 0 0
2 2873.77 406.259 3210.09 0 0 0
2 3110.19 265.128 2900.33 0 0 0
2 3050.62 898.137 3149.64 0 0 0
2 3216.77 934.513 3346.92 0 0 0
2 2500 0 5000 0 0 0
2 3192.71 609.319 2940.65 0 0 0
2 3288.45 174.664 3018.41 0 0 0
2 3252.77 295.044 2813.67 0 0 0
2 2864.22 595.147 2962.75 0 0 0
2 3112.96 39.157 3049.61 0 0 0
2 3199.14 647.172 3222.74 0 0 0
2 3233.8 588.228 3119.22 0 0 0
2 3172.48 876.019 2971.15 0 0 0
2 2980.81 632.049 3351 0 0 0
2 1381.18 2530.7 4197.49 0 0 0
2 0 4973.16 2500 0 0 0
2 0 2500 4255.53 0 0 0
2 1474.33 3465.35 2500 0 0 0
2 388.095 2664.21 2887.42 0 0 0
2 0 4017.44 2500 0 0 0
2 0 3244.88 2500 0 0 0
2 1023.51 2943.19 2819.96 0 0 0
2 520.671 2759.4 3092.77 0 0 0
2 85.964 2718.07 2801.54 0 0 0
2 163.642 2915.97 2672.61 0 0 0
2 835.568 2896.89 2859.96 0 0 0
2 536.074 3012.01 2689.01 0 0 0
2 110.877 2829.7 2938.47 0 0 0
2 216.496 2642.28 2957.32 0 0 0
2 527.482 2879.18 3108.51 0 0 0
2 192.095 3006.74 2822.84 0 0 0
2 1602.69 2500 4128.1 0 0 0
2 381.95 2726.95 3000.47 0 0 0
2 822.865 2774.32 2821.56 0 0 0
2 952.688 2836.45 3056.02 0 0 0
2 222.867 2766.97 2714.63 0 0 0
2 432.935 3090.06 3104.02 0 0 0
2 236.399 2820.15 2978.49 0 0 0
2 959.918 3075.84 2813.67 0 0 0
2 451.518 3065.14 2885.63 0 0 0
2 80.011 2988.03 2756.27 0 0 0
2 977.748 3009.95 3071.66 0 0 0
2 7.944 2698.59 3041.72 0 0 0
2 612.551 2935.32 2879.55 0 0 0
2 864.464 3116.49 2877.83 0 0 0
2 721.316 3092.63 3056.26 0 0 0
2 837.042 3108.21 3009.41 0 0 0
2 824.622 2823.19 3119.66 0 0 0
2 637.271 2848.53 3149.14 0 0 0
2 23.384 2829.1 3110.96 0 0 0
2 5.608 2866.5 2986.33 0 0 0
2 971.474 2748.85 2942.45 0 0 0
2 260.016 3066.61 2982.36 0 0 0
2 919.695 2874.79 2747.89 0 0 0
2 923.459 2716.29 3091.05 0 0 0
2 733.185 2960.12 2826.68 0 0 0
2 73.967 2861.28 2792.73 0 0 0
2 136.451 2990.49 2999.16 0 0 0
2 40.365 2731 2925.06 0 0 0
2 900.303 2689.18 2859.76 0 0 0
2 685.707 2709.33 2771.43 0 0 0
2 526.712 2803.43 2979.76 0 0 0
2 333.992 2777.18 2893.36 0 0 0
2 423.569 2730.61 2690.55 0 0 0
2 823.308 2690.92 2970.77 0 0 0
2 574.438 2693.09 3006.36 0 0 0
2 194.101 2865.4 2778.86 0 0 0
2 765.375 2927.48 2701.31 0 0 0
2 619.672 2821.9 2788.85 0 0 0
2 303.805 2822.41 3078.98 0 0 0
2 697.419 2704.57 2986.93 0 0 0
2 910.251 2990.04 2883.04 0 0 0
2 976.575 3062.17 2961.03 0 0 0
2 113.266 3109.23 3001.28 0 0 0
2 424.041 2829.14 3067.13 0 0 0
2 372.595 2974.78 2903.3 0 0 0
2 236.524 3036.65 3118.01 0 0 0
2 173.722 3049.21 2693.62 0 0 0
2 27.243 3079.27 3083.07 0 0 0
2 378.243 3106.98 2986.94 0 0 0
2 512.353 2674.84 2901.74 0 0 0
2 601.923 2782.86 2669.84 0 0 0
2 862.711 3002.88 2760.67 0 0 0
2 398.66 2951.48 2675.85 0 0 0
2 834.497 3030.04 3118.94 0 0 0
2 290.228 2911.26 2836.29 0 0 0
2 508.11 2796.41 2749.54 0 0 0
2 754.241 3084.94 2924.3 0 0 0
2 705.805 2850.12 2869.01 0 0 0
2 81.229 3118.19 2831.09 0 0 0
2 404.448 2856.91 2951 0 0 0
2 507.865 2998.48 3074.56 0 0 0
2 731.273 3047.75 2735.22 0 0 0
2 146.227 2831.65 3118.22 0 0 0
2 688.621 2837.2 2988.1 0 0 0
2 394.216 2952.07 3027.11 0 0 0
2 745.567 2698.86 2876.07 0 0 0
2 233.589 3131.45 2883.07 0 0 0
2 0 4848.74 2500.13 0 0 0
2 2500 5000 5000 0 0 0
2 530.582 2922.24 2791.48 0 0 0
2 659.02 3013.78 2959.41 0 0 0
2 110.586 2955.74 3112.22 0 0 0
2 149.948 2748.52 3023.62 0 0 0
2 800.023 2810.29 2945.06 0 0 0
2 438.128 3041.61 2763.26 0 0 0
2 621.867 2769.92 2912.66 0 0 0
2 705.133 2946.63 3065.44 0 0 0
2 859.807 2906.92 3023.66 0 0 0
2 645.659 2948.95 2743.55 0 0 0
2 635.195 3067.64 2835.04 0 0 0
2 453.119 2769.6 2855.01 0 0 0
2 226.547 2916.26 3083.85 0 0 0
2 320.984 2714.8 2787.77 0 0 0
2 262.737 2962.2 2726.8 0 0 0
2 913.447 2934.74 3143.4 0 0 0
2 584.255 2926.95 2999.95 0 0 0
2 87.19 2981.63 2880.35 0 0 0
2 539.042 3041.08 2965.67 0 0 0
2 601.454 3072.81 3096.47 0 0 0
2 733.069 2818.31 2746.78 0 0 0
2 357.62 2820.51 2740.68 0 0 0
2 509.489 2885.94 2662.38 0 0 0
2 941.386 2868.81 2937.3 0 0 0
2 327.086 3072.29 2828.47 0 0 0
2 201.522 2930.29 2916.73 0 0 0
2 563.425 2689.59 2788.32 0 0 0
2 3024.42 3131.99 3089.12 0 0 0
2 2898.68 2995.49 2846.06 0 0 0
2 2854.27 3218.42 3209.06 0 0 0
2 3289.59 2930.49 3092.8 0 0 0
2 2728.41 2800.76 2814.06 0 0 0
2 3191.23 3303.61 2910.36 0 0 0
2 2864.11 3328.98 2969.38 0 0 0
2 3154.97 3097.59 2791.86 0 0 0
2 2913.52 3103.59 3049.92 0 0 0
2 2812.49 3307.74 2861.42 0 0 0
2 2869.32 3098.41 3212.64 0 0 0
2 2882.95 2965.52 3007.93 0 0 0
2 2977.55 3207.77 2785.18 0 0 0
2 2705.58 2970.37 2882.44 0 0 0
2 3088.43 2729.77 3064.79 0 0 0
2 2968.89 3100.65 2726.29 0 0 0
2 3008.4 3008.62 3052.84 0 0 0
2 3283.69 2997.08 3197.49 0 0 0
2 3080.27 2849.54 3047.98 0 0 0
2 3178.86 3017.63 3259.09 0 0 0
2 2760.53 2822.3 3206.93 0 0 0
2 3108.37 3007.09 2726.45 0 0 0
2 3176.02 2758.46 2976.04 0 0 0
2 2992.03 2984.49 2701.47 0 0 0
2 3216.25 3240.18 3155.57 0 0 0
2 3095.65 3124.4 2895.88 0 0 0
2 3260.97 3214.11 2765.05 0 0 0
2 3319.07 3111.87 2975.96 0 0 0
2 3139.4 3013.09 2877.41 0 0 0
2 2965.69 3039.05 3162.68 0 0 0
2 3313.62 2852.54 2984.74 0 0 0
2 2799.59 3020.62 2939.71 0 0 0
2 3128.04 2893.69 2836.29 0 0 0
2 3086.26 2809.18 2912.54 0 0 0
2 3166.41 3207.88 2840.32 0 0 0
2 2881.95 2827.69 3159.97 0 0 0
2 3104.74 2762.18 3222.96 0 0 0
2 2826.66 2942.07 3142.41 0 0 0
2 2833.82 3205.53 3086.48 0 0 0
2 3129.04 2886.94 2714.82 0 0 0
2 3080.78 3143.58 2705.64 0 0 0
2 2886.58 3104.66 2931.88 0 0 0
2 3242.28 2810.57 2861.16 0 0 0
2 3294.8 2993.26 2974.68 0 0 0
2 2801.98 2956.2 2783.66 0 0 0
2 2879.4 3206.77 2865.21 0 0 0
2 3057.15 3294.11 3067.43 0 0 0
2 3162.35 2806.99 3126.46 0 0 0
2 2987.76 2905.29 2992.55 0 0 0
2 2735.34 2984.81 3046.99 0 0 0
2 2853.45 3232.3 2742.38 0 0 0
2 3053.11 3311.78 3188.27 0 0 0
2 2860.98 3106.34 2798.23 0 0 0
2 2949.17 2811.03 3060.23 0 0 0
2 3103.15 2922.64 2951.11 0 0 0
2 2984.34 3300.34 2969.77 0 0 0
2 2966.26 2781.6 2912.89 0 0 0
2 3268.55 3053.89 2773.41 0 0 0
2 2873.79 3030.48 2699.16 0 0 0
2 3028.93 2996.17 2817.06 0 0 0
2 2902.12 3212.78 2984.43 0 0 0