LAMMPS (23 Jun 2022 - Update 1)
OMP_NUM_THREADS environment is not set. Defaulting to 1 thread. (src/comm.cpp:98)
  using 1 OpenMP thread(s) per MPI task
# Read restart
read_restart ${read_res}
read_restart ./pgnpmf/1000/equpmf33.res
Reading restart file ...
  restart file = 23 Jun 2022, LAMMPS = 23 Jun 2022
  restoring atom style atomic from restart
  orthogonal box = (1757.2841 1757.2841 1757.2841) to (2242.7159 2242.7159 2242.7159)
  1 by 2 by 2 MPI processor grid
  restoring pair style table from restart
  1000 atoms
  read_restart CPU = 0.010 seconds

# Settings

pair_style table spline 9941

pair_coeff 1 1 ./pgnpmf/N20.txt DE_GNP 75.6
pair_coeff 2 2 ./pgnpmf/N100.txt DE_GNP 115.92
WARNING: 3 of 9941 force values in table DE_GNP are inconsistent with -dE/dr.
WARNING:  Should only be flagged at inflection points (src/pair_table.cpp:463)
pair_coeff 1 2 ./pgnpmf/mixed_potential.txt DE_GNP 95.66
WARNING: 1562 of 9941 force values in table DE_GNP are inconsistent with -dE/dr.
WARNING:  Should only be flagged at inflection points (src/pair_table.cpp:463)

#Neigh_list Calc Frequency

neigh_modify delay 0 every 1 check yes

# Saving Frequency (50 frames)

variable ts_save equal ${steps_equ}
variable ts_save equal 5000

# Dump
#dump 1 all custom ${ts_save} ./pgnpmf/${folder}/equilibration/trajectory/trajectory_${usic}_${trial}.equ.custom type x y z ix iy iz
#dump_modify 1 first no sort id
dump 2 all cfg 50000 ./pgnpmf/${folder}/equilibration/trajectory/dumpgen.tens_*.cfg mass type xs ys zs fx fy fz
dump 2 all cfg 50000 ./pgnpmf/1000/equilibration/trajectory/dumpgen.tens_*.cfg mass type xs ys zs fx fy fz
dump_modify 2 element N20 N100

# thermo_style
thermo_style custom step temp press pe density ke etotal lx ly lz xlo xhi ylo yhi zlo zhi vol dt time cpu tpcpu spcpu cpuremain

# run info
timestep ${ts}
timestep 0.5
thermo 200

# fix

fix 1 all momentum 1000 linear 1 1 1 angular
variable T equal ${temp}
variable T equal 300
fix 2 all nvt temp ${T} 370000 100.0
fix 2 all nvt temp 300 370000 100.0

run 100000
Generated 0 of 1 mixed pair_coeff terms from geometric mixing rule
Unused restart file global fix info:
  fix style: npt, fix ID: 5
Neighbor list info ...
  update every 1 steps, delay 0 steps, check yes
  max neighbors/atom: 2000, page size: 100000
  master list distance cutoff = 117.92
  ghost atom cutoff = 117.92
  binsize = 58.96, bins = 9 9 9
  1 neighbor lists, perpetual/occasional/extra = 1 0 0
  (1) pair table, perpetual
      attributes: half, newton on
      pair build: half/bin/atomonly/newton
      stencil: half/bin/3d
      bin: standard
Per MPI rank memory allocation (min/avg/max) = 3.106 | 3.106 | 3.106 Mbytes
   Step          Temp          Press          PotEng        Density         KinEng         TotEng           Lx             Ly             Lz            Xlo            Xhi            Ylo            Yhi            Zlo            Zhi           Volume           Dt            Time           CPU           T/CPU          S/CPU         CPULeft    
  33060000   304.83643      9.3827799     -5977129.7      3.2205182      907.75085     -5976221.9      485.43181      485.43181      485.43181      1757.2841      2242.7159      1757.2841      2242.7159      1757.2841      2242.7159      1.1438911e+08  0.5            16560000       0              0              0              0            
  33060200   358.92327      9.6178322     -5977127.4      3.2205182      1068.8122     -5976058.6      485.43181      485.43181      485.43181      1757.2841      2242.7159      1757.2841      2242.7159      1757.2841      2242.7159      1.1438911e+08  0.5            16560100       0.021413612    4669.7275      9338.9913      10.686892    
  33060400   498.26634      10.098248     -5977122.2      3.2205182      1483.7521     -5975638.5      485.43181      485.43181      485.43181      1757.2841      2242.7159      1757.2841      2242.7159      1757.2841      2242.7159      1.1438911e+08  0.5            16560200       0.041322431    5022.989       10046.11       10.28982     
  33060600   735.98348      10.940518     -5977107        3.2205182      2191.6331     -5974915.4      485.43181      485.43181      485.43181      1757.2841      2242.7159      1757.2841      2242.7159      1757.2841      2242.7159      1.1438911e+08  0.5            16560300       0.057955479    6012.1257      12024.27       9.6040293    
  33060800   1115.9506      11.802197     -5977067.8      3.2205182      3323.1102     -5973744.7      485.43181      485.43181      485.43181      1757.2841      2242.7159      1757.2841      2242.7159      1757.2841      2242.7159      1.1438911e+08  0.5            16560400       0.074236884    6141.99        12284.031      9.2056219    
  33061000   1700.4245      12.497313     -5976982.3      3.2205182      5063.5737     -5971918.7      485.43181      485.43181      485.43181      1757.2841      2242.7159      1757.2841      2242.7159      1757.2841      2242.7159      1.1438911e+08  0.5            16560500       0.090113798    6298.4322      12596.818      8.9214741    
  33061200   2558.856       15.239486     -5976453.8      3.2205182      7619.8361     -5968833.9      485.43181      485.43181      485.43181      1757.2841      2242.7159      1757.2841      2242.7159      1757.2841      2242.7159      1.1438911e+08  0.5            16560600       0.10634442     6161.2062      12322.378      8.75587      
  33061400   3733.1484      18.82604      -5976176        3.2205182      11116.678     -5965059.3      485.43181      485.43181      485.43181      1757.2841      2242.7159      1757.2841      2242.7159      1757.2841      2242.7159      1.1438911e+08  0.5            16560700       0.12244461     6211.1242      12422.331      8.6237333    
  33061600   5170.7348      22.324296     -5975362        3.2205182      15397.565     -5959964.4      485.43181      485.43181      485.43181      1757.2841      2242.7159      1757.2841      2242.7159      1757.2841      2242.7159      1.1438911e+08  0.5            16560800       0.13880466     6112.459       12224.837      8.5366152    
  33061800   6649.3614      28.840663     -5974326.4      3.2205182      19800.663     -5954525.8      485.43181      485.43181      485.43181      1757.2841      2242.7159      1757.2841      2242.7159      1757.2841      2242.7159      1.1438911e+08  0.5            16560900       0.15586248     5862.3908      11724.765      8.503285     
  33062000   7811.7036      31.942556     -5975605.3      3.2205182      23261.919     -5952343.4      485.43181      485.43181      485.43181      1757.2841      2242.7159      1757.2841      2242.7159      1757.2841      2242.7159      1.1438911e+08  0.5            16561000       0.17202949     6185.4521      12370.985      8.429542     
  33062200   8469.3679      41.627889     -5972190.7      3.2205182      25220.331     -5946970.4      485.43181      485.43181      485.43181      1757.2841      2242.7159      1757.2841      2242.7159      1757.2841      2242.7159      1.1438911e+08  0.5            16561100       0.18784622     6322.4473      12644.867      8.3507079    
  33062400   8922.7947      51.312624     -5970720.7      3.2205182      26570.559     -5944150.2      485.43181      485.43181      485.43181      1757.2841      2242.7159      1757.2841      2242.7159      1757.2841      2242.7159      1.1438911e+08  0.5            16561200       0.20398982     6194.3906      12388.808      8.2956642    
  33062600   9611.7308      60.840891     -5971180.3      3.2205182      28622.093     -5942558.2      485.43181      485.43181      485.43181      1757.2841      2242.7159      1757.2841      2242.7159      1757.2841      2242.7159      1.1438911e+08  0.5            16561300       0.22021212     6164.3669      12328.735      8.2495561    
  33062800   10493.799      78.295544     -5969497.3      3.2205182      31248.742     -5938248.6      485.43181      485.43181      485.43181      1757.2841      2242.7159      1757.2841      2242.7159      1757.2841      2242.7159      1.1438911e+08  0.5            16561400       0.23605823     6310.678       12621.302      8.1946637    
  33063000   11294.302      93.094927     -5969726.6      3.2205182      33632.504     -5936094.1      485.43181      485.43181      485.43181      1757.2841      2242.7159      1757.2841      2242.7159      1757.2841      2242.7159      1.1438911e+08  0.5            16561500       0.25248673     6087.0004      12174.046      8.1638004    
  33063200   11958.136      107.11565     -5971507.3      3.2205182      35609.286     -5935898        485.43181      485.43181      485.43181      1757.2841      2242.7159      1757.2841      2242.7159      1757.2841      2242.7159      1.1438911e+08  0.5            16561600       0.26911968     6012.1651      12024.348      8.140927     
  33063400   12622.509      132.22824     -5969320        3.2205182      37587.675     -5931732.3      485.43181      485.43181      485.43181      1757.2841      2242.7159      1757.2841      2242.7159      1757.2841      2242.7159      1.1438911e+08  0.5            16561700       0.28518558     6224.3258      12448.635      8.1026827    
  33063600   13373.414      154.45259     -5969089.6      3.2205182      39823.745     -5929265.9      485.43181      485.43181      485.43181      1757.2841      2242.7159      1757.2841      2242.7159      1757.2841      2242.7159      1.1438911e+08  0.5            16561800       0.30152612     6119.7555      12239.512      8.0742522    
  33063800   14157.06       173.80464     -5969008.7      3.2205182      42157.308     -5926851.4      485.43181      485.43181      485.43181      1757.2841      2242.7159      1757.2841      2242.7159      1757.2841      2242.7159      1.1438911e+08  0.5            16561900       0.31764436     6204.1752      12408.344      8.0414661    
  33064000   14900.372      191.8048      -5970564.2      3.2205182      44370.764     -5926193.5      485.43181      485.43181      485.43181      1757.2841      2242.7159      1757.2841      2242.7159      1757.2841      2242.7159      1.1438911e+08  0.5            16562000       0.33335363     6365.6665      12731.328      8.0005325    
  33064200   15625.133      217.84781     -5969753.7      3.2205182      46528.977     -5923224.7      485.43181      485.43181      485.43181      1757.2841      2242.7159      1757.2841      2242.7159      1757.2841      2242.7159      1.1438911e+08  0.5            16562100       0.34970844     6114.392       12228.732      7.9767297    
  33064400   16370.59       243.42625     -5968827.3      3.2205182      48748.823     -5920078.5      485.43181      485.43181      485.43181      1757.2841      2242.7159      1757.2841      2242.7159      1757.2841      2242.7159      1.1438911e+08  0.5            16562200       0.36602045     6130.4689      12261.016      7.9526668    
  33064600   17144.815      277.43705     -5966375.6      3.2205182      51054.331     -5915321.3      485.43181      485.43181      485.43181      1757.2841      2242.7159      1757.2841      2242.7159      1757.2841      2242.7159      1.1438911e+08  0.5            16562300       0.38200778     6254.943       12509.821      7.9225505    
  33064800   17916.599      301.70605     -5963915.7      3.2205182      53352.572     -5910563.1      485.43181      485.43181      485.43181      1757.2841      2242.7159      1757.2841      2242.7159      1757.2841      2242.7159      1.1438911e+08  0.5            16562400       0.39839827     6101.0948      12202.243      7.9016044    
  33065000   18682.646      330.72123     -5960429.9      3.2205182      55633.728     -5904796.2      485.43181      485.43181      485.43181      1757.2841      2242.7159      1757.2841      2242.7159      1757.2841      2242.7159      1.1438911e+08  0.5            16562500       0.41493336     6047.7537      12095.476      7.8837715    
  33065200   19440.295      354.48213     -5959978.2      3.2205182      57889.878     -5902088.4      485.43181      485.43181      485.43181      1757.2841      2242.7159      1757.2841      2242.7159      1757.2841      2242.7159      1.1438911e+08  0.5            16562600       0.43057838     6391.8181      12783.69       7.8498094    
  33065400   20201.161      380.76032     -5959653.4      3.2205182      60155.608     -5899497.8      485.43181      485.43181      485.43181      1757.2841      2242.7159      1757.2841      2242.7159      1757.2841      2242.7159      1.1438911e+08  0.5            16562700       0.44725427     5996.6724      11993.334      7.8352659    
  33065600   20973.035      401.58222     -5960252.6      3.2205182      62454.118     -5897798.5      485.43181      485.43181      485.43181      1757.2841      2242.7159      1757.2841      2242.7159      1757.2841      2242.7159      1.1438911e+08  0.5            16562800       0.4635947      6119.7964      12239.588      7.8149142    
  33065800   21735.366      428.73382     -5956997.8      3.2205182      64724.207     -5892273.6      485.43181      485.43181      485.43181      1757.2841      2242.7159      1757.2841      2242.7159      1757.2841      2242.7159      1.1438911e+08  0.5            16562900       0.47966568     6222.3723      12444.71       7.7904656    
  33066000   22475.431      452.48472     -5957986.1      3.2205182      66927.995     -5891058.1      485.43181      485.43181      485.43181      1757.2841      2242.7159      1757.2841      2242.7159      1757.2841      2242.7159      1.1438911e+08  0.5            16563000       0.49597433     6131.7248      12263.471      7.7702951    
  33066200   23228.896      484.90144     -5958475.2      3.2205182      69171.686     -5889303.6      485.43181      485.43181      485.43181      1757.2841      2242.7159      1757.2841      2242.7159      1757.2841      2242.7159      1.1438911e+08  0.5            16563100       0.51224113     6147.5031      12295.056      7.7497406    
  33066400   23970.83       502.90311     -5956907.6      3.2205182      71381.04      -5885526.6      485.43181      485.43181      485.43181      1757.2841      2242.7159      1757.2841      2242.7159      1757.2841      2242.7159      1.1438911e+08  0.5            16563200       0.52814505     6287.7596      12575.522      7.7241478    
  33066600   24712.216      523.69606     -5956984.2      3.2205182      73588.759     -5883395.4      485.43181      485.43181      485.43181      1757.2841      2242.7159      1757.2841      2242.7159      1757.2841      2242.7159      1.1438911e+08  0.5            16563300       0.54488435     5973.9448      11947.843      7.7109671    
  33066800   25458.299      547.56297     -5956860        3.2205182      75810.468     -5881049.5      485.43181      485.43181      485.43181      1757.2841      2242.7159      1757.2841      2242.7159      1757.2841      2242.7159      1.1438911e+08  0.5            16563400       0.56120033     6128.9859      12258.032      7.6917706    
  33067000   26183.3        561.97799     -5957184.9      3.2205182      77969.397     -5879215.5      485.43181      485.43181      485.43181      1757.2841      2242.7159      1757.2841      2242.7159      1757.2841      2242.7159      1.1438911e+08  0.5            16563500       0.57659973     6493.7781      12987.567      7.660562     
  33067200   26908.628      581.29489     -5958289.8      3.2205182      80129.298     -5878160.5      485.43181      485.43181      485.43181      1757.2841      2242.7159      1757.2841      2242.7159      1757.2841      2242.7159      1.1438911e+08  0.5            16563600       0.59291669     6128.5618      12257.063      7.6420623    
  33067400   27653.06       594.62215     -5957940.9      3.2205182      82346.089     -5875594.8      485.43181      485.43181      485.43181      1757.2841      2242.7159      1757.2841      2242.7159      1757.2841      2242.7159      1.1438911e+08  0.5            16563700       0.60894149     6240.345       12480.684      7.6200211    
  33067600   28403.108      619.1597      -5957954.7      3.2205182      84579.606     -5873375        485.43181      485.43181      485.43181      1757.2841      2242.7159      1757.2841      2242.7159      1757.2841      2242.7159      1.1438911e+08  0.5            16563800       0.62438421     6475.5444      12951.15       7.591219     
  33067800   29140.726      634.9072      -5956869.4      3.2205182      86776.107     -5870093.3      485.43181      485.43181      485.43181      1757.2841      2242.7159      1757.2841      2242.7159      1757.2841      2242.7159      1.1438911e+08  0.5            16563900       0.64083605     6078.3512      12156.691      7.5750318    
  33068000   29844.119      651.6764      -5956049.7      3.2205182      88870.691     -5867179.1      485.43181      485.43181      485.43181      1757.2841      2242.7159      1757.2841      2242.7159      1757.2841      2242.7159      1.1438911e+08  0.5            16564000       0.65707791     6156.9246      12313.839      7.5564166    
  33068200   30579.854      669.93831     -5952938.1      3.2205182      91061.583     -5861876.6      485.43181      485.43181      485.43181      1757.2841      2242.7159      1757.2841      2242.7159      1757.2841      2242.7159      1.1438911e+08  0.5            16564100       0.67293103     6307.8962      12615.771      7.5335657    
  33068400   31356.881      694.56937     -5953089.2      3.2205182      93375.436     -5859713.8      485.43181      485.43181      485.43181      1757.2841      2242.7159      1757.2841      2242.7159      1757.2841      2242.7159      1.1438911e+08  0.5            16564200       0.68934069     6093.9667      12187.928      7.5171169    
  33068600   32104.186      712.22473     -5951313.1      3.2205182      95600.785     -5855712.3      485.43181      485.43181      485.43181      1757.2841      2242.7159      1757.2841      2242.7159      1757.2841      2242.7159      1.1438911e+08  0.5            16564300       0.70540699     6224.2212      12448.486      7.4970194    
  33068800   32815.603      726.23858     -5950953.7      3.2205182      97719.262     -5853234.4      485.43181      485.43181      485.43181      1757.2841      2242.7159      1757.2841      2242.7159      1757.2841      2242.7159      1.1438911e+08  0.5            16564400       0.72095301     6432.491       12864.893      7.4717155    
  33069000   33542.068      747.12706     -5948703.4      3.2205182      99882.552     -5848820.9      485.43181      485.43181      485.43181      1757.2841      2242.7159      1757.2841      2242.7159      1757.2841      2242.7159      1.1438911e+08  0.5            16564500       0.73720439     6153.3433      12306.708      7.4539748    
  33069200   34324.774      768.81982     -5946847.8      3.2205182      102213.31     -5844634.5      485.43181      485.43181      485.43181      1757.2841      2242.7159      1757.2841      2242.7159      1757.2841      2242.7159      1.1438911e+08  0.5            16564600       0.75343154     6162.5177      12325.098      7.4360592    
  33069400   35089.678      786.1737      -5945006.3      3.2205182      104491.07     -5840515.2      485.43181      485.43181      485.43181      1757.2841      2242.7159      1757.2841      2242.7159      1757.2841      2242.7159      1.1438911e+08  0.5            16564700       0.76927566     6311.4913      12622.96       7.4145256    
  33069600   35806.293      807.80433     -5943200.2      3.2205182      106625.03     -5836575.1      485.43181      485.43181      485.43181      1757.2841      2242.7159      1757.2841      2242.7159      1757.2841      2242.7159      1.1438911e+08  0.5            16564800       0.7854505      6182.4054      12364.718      7.3963454    
  33069800   36535.742      832.65274     -5941502.4      3.2205182      108797.2      -5832705.2      485.43181      485.43181      485.43181      1757.2841      2242.7159      1757.2841      2242.7159      1757.2841      2242.7159      1.1438911e+08  0.5            16564900       0.80156032     6207.4171      12414.934      7.3776437    
  33070000   37300.645      851.97148     -5940658.2      3.2205182      111074.95     -5829583.2      485.43181      485.43181      485.43181      1757.2841      2242.7159      1757.2841      2242.7159      1757.2841      2242.7159      1.1438911e+08  0.5            16565000       0.81713989     6418.6805      12837.374      7.354275     
  33070200   38072.813      862.40719     -5940701.7      3.2205182      113374.34     -5827327.3      485.43181      485.43181      485.43181      1757.2841      2242.7159      1757.2841      2242.7159      1757.2841      2242.7159      1.1438911e+08  0.5            16565100       0.83322395     6217.3113      12434.558      7.3356561    
  33070400   38798.244      872.02374     -5937562.3      3.2205182      115534.55     -5822027.7      485.43181      485.43181      485.43181      1757.2841      2242.7159      1757.2841      2242.7159      1757.2841      2242.7159      1.1438911e+08  0.5            16565200       0.8497667      6044.9562      12089.923      7.3210833    
  33070600   39509.751      891.0181      -5936043.8      3.2205182      117653.29     -5818390.5      485.43181      485.43181      485.43181      1757.2841      2242.7159      1757.2841      2242.7159      1757.2841      2242.7159      1.1438911e+08  0.5            16565300       0.86563502     6301.8651      12603.78       7.3007483    
  33070800   40269.515      902.62584     -5933248.1      3.2205182      119915.74     -5813332.3      485.43181      485.43181      485.43181      1757.2841      2242.7159      1757.2841      2242.7159      1757.2841      2242.7159      1.1438911e+08  0.5            16565400       0.88251268     5924.9972      11850.006      7.2889156    
  33071000   41037.245      925.47528     -5931721.3      3.2205182      122201.91     -5809519.4      485.43181      485.43181      485.43181      1757.2841      2242.7159      1757.2841      2242.7159      1757.2841      2242.7159      1.1438911e+08  0.5            16565500       0.89866872     6189.6241      12379.261      7.2710614    
  33071200   41766.947      935.85278     -5928124.2      3.2205182      124374.84     -5803749.3      485.43181      485.43181      485.43181      1757.2841      2242.7159      1757.2841      2242.7159      1757.2841      2242.7159      1.1438911e+08  0.5            16565600       0.91488857     6165.268       12330.465      7.2537751    
  33071400   42474.453      949.90105     -5924291.4      3.2205182      126481.67     -5797809.7      485.43181      485.43181      485.43181      1757.2841      2242.7159      1757.2841      2242.7159      1757.2841      2242.7159      1.1438911e+08  0.5            16565700       0.93110083     6168.197       12336.37       7.2364653    
  33071600   43209.93       955.18176     -5924630.7      3.2205182      128671.79     -5795958.9      485.43181      485.43181      485.43181      1757.2841      2242.7159      1757.2841      2242.7159      1757.2841      2242.7159      1.1438911e+08  0.5            16565800       0.94755557     6077.284       12154.594      7.2210411    
  33071800   43972.087      963.96963     -5921713.3      3.2205182      130941.37     -5790771.9      485.43181      485.43181      485.43181      1757.2841      2242.7159      1757.2841      2242.7159      1757.2841      2242.7159      1.1438911e+08  0.5            16565900       0.9632166      6385.2732      12770.6        7.1996492    
  33072000   44726.213      972.10924     -5920733.1      3.2205182      133187.03     -5787546.1      485.43181      485.43181      485.43181      1757.2841      2242.7159      1757.2841      2242.7159      1757.2841      2242.7159      1.1438911e+08  0.5            16566000       0.97956536     6116.6546      12233.312      7.1834928    
  33072200   45430.154      988.29615     -5920856.1      3.2205182      135283.24     -5785572.8      485.43181      485.43181      485.43181      1757.2841      2242.7159      1757.2841      2242.7159      1757.2841      2242.7159      1.1438911e+08  0.5            16566100       0.99556492     6250.1914      12500.359      7.1648165    
  33072400   46148.815      986.46176     -5919895.4      3.2205182      137423.29     -5782472.1      485.43181      485.43181      485.43181      1757.2841      2242.7159      1757.2841      2242.7159      1757.2841      2242.7159      1.1438911e+08  0.5            16566200       1.0112567      6372.7609      12745.496      7.1440527    
  33072600   46905.645      1006.4374     -5918522        3.2205182      139677        -5778845        485.43181      485.43181      485.43181      1757.2841      2242.7159      1757.2841      2242.7159      1757.2841      2242.7159      1.1438911e+08  0.5            16566300       1.0271929      6275.0307      12550.066      7.1251445    
  33072800   47666.441      1012.9478     -5918536.3      3.2205182      141942.52     -5776593.7      485.43181      485.43181      485.43181      1757.2841      2242.7159      1757.2841      2242.7159      1757.2841      2242.7159      1.1438911e+08  0.5            16566400       1.0439529      5966.575       11933.122      7.1119423    
  33073000   48409.55       1019.6486     -5917436.3      3.2205182      144155.37     -5773280.9      485.43181      485.43181      485.43181      1757.2841      2242.7159      1757.2841      2242.7159      1757.2841      2242.7159      1.1438911e+08  0.5            16566500       1.0597676      6323.2293      12646.491      7.0923036    
  33073200   49121.911      1023.2965     -5918445.6      3.2205182      146276.66     -5772169        485.43181      485.43181      485.43181      1757.2841      2242.7159      1757.2841      2242.7159      1757.2841      2242.7159      1.1438911e+08  0.5            16566600       1.0756682      6289.0997      12578.226      7.0733449    
  33073400   49858.678      1030.209      -5917162.9      3.2205182      148470.63     -5768692.3      485.43181      485.43181      485.43181      1757.2841      2242.7159      1757.2841      2242.7159      1757.2841      2242.7159      1.1438911e+08  0.5            16566700       1.0919693      6134.5279      12269.02       7.057068     
  33073600   50627.547      1045.8926     -5915766.4      3.2205182      150760.19     -5765006.2      485.43181      485.43181      485.43181      1757.2841      2242.7159      1757.2841      2242.7159      1757.2841      2242.7159      1.1438911e+08  0.5            16566800       1.1078547      6295.1127      12590.189      7.0381477    
  33073800   51386.952      1061.8422     -5913141.1      3.2205182      153021.57     -5760119.6      485.43181      485.43181      485.43181      1757.2841      2242.7159      1757.2841      2242.7159      1757.2841      2242.7159      1.1438911e+08  0.5            16566900       1.1240955      6157.3223      12314.686      7.021536     
  33074000   52115.216      1068.9971     -5914101        3.2205182      155190.21     -5758910.8      485.43181      485.43181      485.43181      1757.2841      2242.7159      1757.2841      2242.7159      1757.2841      2242.7159      1.1438911e+08  0.5            16567000       1.140643       6043.1921      12086.435      7.006818     
  33074200   52857.707      1080.6782     -5912716.3      3.2205182      157401.23     -5755315.1      485.43181      485.43181      485.43181      1757.2841      2242.7159      1757.2841      2242.7159      1757.2841      2242.7159      1.1438911e+08  0.5            16567100       1.1563379      6371.5395      12743.089      6.9868968    
  33074400   53647.928      1099.0344     -5909378.3      3.2205182      159754.37     -5749623.9      485.43181      485.43181      485.43181      1757.2841      2242.7159      1757.2841      2242.7159      1757.2841      2242.7159      1.1438911e+08  0.5            16567200       1.1728777      6045.9748      12091.903      6.9721181    
  33074600   54447.636      1113.2392     -5904818.6      3.2205182      162135.76     -5742682.9      485.43181      485.43181      485.43181      1757.2841      2242.7159      1757.2841      2242.7159      1757.2841      2242.7159      1.1438911e+08  0.5            16567300       1.188703       6318.9919      12637.979      6.9531095    
  33074800   55248.103      1129.0099     -5899776.2      3.2205182      164519.42     -5735256.8      485.43181      485.43181      485.43181      1757.2841      2242.7159      1757.2841      2242.7159      1757.2841      2242.7159      1.1438911e+08  0.5            16567400       1.2049306      6162.3806      12324.77       6.9365034    
  33075000   56154.665      1147.4662     -5897578.7      3.2205182      167219        -5730359.7      485.43181      485.43181      485.43181      1757.2841      2242.7159      1757.2841      2242.7159      1757.2841      2242.7159      1.1438911e+08  0.5            16567500       1.2211443      6167.6009      12335.147      6.9198289    
  33075200   57410.199      1161.1409     -5894959.5      3.2205182      170957.77     -5724001.7      485.43181      485.43181      485.43181      1757.2841      2242.7159      1757.2841      2242.7159      1757.2841      2242.7159      1.1438911e+08  0.5            16567600       1.2374112      6147.4774      12295.042      6.9034616    
  33075400   58962.962      1188.5061     -5892183.3      3.2205182      175581.63     -5716601.7      485.43181      485.43181      485.43181      1757.2841      2242.7159      1757.2841      2242.7159      1757.2841      2242.7159      1.1438911e+08  0.5            16567700       1.2534679      6227.9286      12455.801      6.8859442    
  33075600   59638.028      1198.3843     -5892652.1      3.2205182      177591.86     -5715060.3      485.43181      485.43181      485.43181      1757.2841      2242.7159      1757.2841      2242.7159      1757.2841      2242.7159      1.1438911e+08  0.5            16567800       1.2697452      6143.5175      12286.996      6.8696578    
  33075800   57850.774      1214.8385     -5890895.9      3.2205182      172269.73     -5718626.2      485.43181      485.43181      485.43181      1757.2841      2242.7159      1757.2841      2242.7159      1757.2841      2242.7159      1.1438911e+08  0.5            16567900       1.2863145      6035.2831      12070.638      6.8549253    
  33076000   56570.351      1228.1        -5887759.9      3.2205182      168456.85     -5719303        485.43181      485.43181      485.43181      1757.2841      2242.7159      1757.2841      2242.7159      1757.2841      2242.7159      1.1438911e+08  0.5            16568000       1.3023544      6234.4221      12468.837      6.8373699    
  33076200   59793.054      1235.5164     -5887597.6      3.2205182      178053.51     -5709544.1      485.43181      485.43181      485.43181      1757.2841      2242.7159      1757.2841      2242.7159      1757.2841      2242.7159      1.1438911e+08  0.5            16568100       1.3187694      6091.9887      12183.95       6.8217924    
  33076400   60902.981      1251.3336     -5886021        3.2205182      181358.68     -5704662.4      485.43181      485.43181      485.43181      1757.2841      2242.7159      1757.2841      2242.7159      1757.2841      2242.7159      1.1438911e+08  0.5            16568200       1.3354272      6003.1897      12006.355      6.8074314    
  33076600   61505.799      1268.6013     -5886009.1      3.2205182      183153.77     -5702855.4      485.43181      485.43181      485.43181      1757.2841      2242.7159      1757.2841      2242.7159      1757.2841      2242.7159      1.1438911e+08  0.5            16568300       1.3516539      6162.6802      12325.427      6.7908485    
  33076800   62933.851      1284.1527     -5883123.5      3.2205182      187406.26     -5695717.3      485.43181      485.43181      485.43181      1757.2841      2242.7159      1757.2841      2242.7159      1757.2841      2242.7159      1.1438911e+08  0.5            16568400       1.3678431      6176.9605      12353.858      6.7740898    
  33077000   64782.948      1295.6675     -5882856.8      3.2205182      192912.56     -5689944.3      485.43181      485.43181      485.43181      1757.2841      2242.7159      1757.2841      2242.7159      1757.2841      2242.7159      1.1438911e+08  0.5            16568500       1.3844777      6011.5879      12023.208      6.7595172    
  33077200   66007.865      1312.3329     -5882297.6      3.2205182      196560.15     -5685737.4      485.43181      485.43181      485.43181      1757.2841      2242.7159      1757.2841      2242.7159      1757.2841      2242.7159      1.1438911e+08  0.5            16568600       1.4005999      6202.6136      12405.228      6.7424314    
  33077400   65425.592      1323.497      -5881442.2      3.2205182      194826.24     -5686615.9      485.43181      485.43181      485.43181      1757.2841      2242.7159      1757.2841      2242.7159      1757.2841      2242.7159      1.1438911e+08  0.5            16568700       1.4171338      6048.1791      12096.41       6.7273214    
  33077600   62954.467      1330.1196     -5881474        3.2205182      187467.65     -5694006.4      485.43181      485.43181      485.43181      1757.2841      2242.7159      1757.2841      2242.7159      1757.2841      2242.7159      1.1438911e+08  0.5            16568800       1.4336376      6059.179       12118.318      6.7120393    
  33077800   64444.608      1344.8352     -5883164.9      3.2205182      191905.04     -5691259.9      485.43181      485.43181      485.43181      1757.2841      2242.7159      1757.2841      2242.7159      1757.2841      2242.7159      1.1438911e+08  0.5            16568900       1.4496969      6226.9548      12453.898      6.6946762    
  33078000   67439.363      1354.0795     -5881967.7      3.2205182      200822.91     -5681144.8      485.43181      485.43181      485.43181      1757.2841      2242.7159      1757.2841      2242.7159      1757.2841      2242.7159      1.1438911e+08  0.5            16569000       1.4661581      6074.8857      12149.801      6.6791726    
  33078200   67585.946      1366.2548     -5881930.6      3.2205182      201259.41     -5680671.2      485.43181      485.43181      485.43181      1757.2841      2242.7159      1757.2841      2242.7159      1757.2841      2242.7159      1.1438911e+08  0.5            16569100       1.4826498      6063.6655      12127.33       6.6637856    
  33078400   67798.638      1380.2352     -5878660.6      3.2205182      201892.77     -5676767.9      485.43181      485.43181      485.43181      1757.2841      2242.7159      1757.2841      2242.7159      1757.2841      2242.7159      1.1438911e+08  0.5            16569200       1.4984354      6334.8855      12669.775      6.6452431    
  33078600   70770.316      1397.9653     -5879143.1      3.2205182      210741.92     -5668401.2      485.43181      485.43181      485.43181      1757.2841      2242.7159      1757.2841      2242.7159      1757.2841      2242.7159      1.1438911e+08  0.5            16569300       1.51479        6114.4312      12228.762      6.6292516    
  33078800   72371.479      1407.1906     -5878072.1      3.2205182      215509.91     -5662562.2      485.43181      485.43181      485.43181      1757.2841      2242.7159      1757.2841      2242.7159      1757.2841      2242.7159      1.1438911e+08  0.5            16569400       1.5313086      6053.8577      12107.793      6.6139571    
  33079000   68862.523      1410.7558     -5877675.4      3.2205182      205060.83     -5672614.5      485.43181      485.43181      485.43181      1757.2841      2242.7159      1757.2841      2242.7159      1757.2841      2242.7159      1.1438911e+08  0.5            16569500       1.5474537      6193.8251      12387.692      6.5970467    
  33079200   66730.098      1428.4396     -5876165.6      3.2205182      198710.84     -5677454.7      485.43181      485.43181      485.43181      1757.2841      2242.7159      1757.2841      2242.7159      1757.2841      2242.7159      1.1438911e+08  0.5            16569600       1.5640177      6037.1843      12074.31       6.5819157    
  33079400   72844.774      1443.7173     -5876886.9      3.2205182      216919.3      -5659967.6      485.43181      485.43181      485.43181      1757.2841      2242.7159      1757.2841      2242.7159      1757.2841      2242.7159      1.1438911e+08  0.5            16569700       1.5803087      6138.3337      12276.7        6.5656201    
  33079600   73301.206      1456.816      -5872308.4      3.2205182      218278.48     -5654029.9      485.43181      485.43181      485.43181      1757.2841      2242.7159      1757.2841      2242.7159      1757.2841      2242.7159      1.1438911e+08  0.5            16569800       1.5961647      6306.797       12613.61       6.5475398    
  33079800   72671.366      1462.9049     -5872377.2      3.2205182      216402.92     -5655974.3      485.43181      485.43181      485.43181      1757.2841      2242.7159      1757.2841      2242.7159      1757.2841      2242.7159      1.1438911e+08  0.5            16569900       1.6123198      6190.0034      12379.955      6.5307166    
  33080000   73664.245      1476.0093     -5871624.8      3.2205182      219359.54     -5652265.3      485.43181      485.43181      485.43181      1757.2841      2242.7159      1757.2841      2242.7159      1757.2841      2242.7159      1.1438911e+08  0.5            16570000       1.6285625      6156.5979      12313.228      6.5142568    
  33080200   76199.455      1488.2145     -5870298.6      3.2205182      226908.96     -5643389.7      485.43181      485.43181      485.43181      1757.2841      2242.7159      1757.2841      2242.7159      1757.2841      2242.7159      1.1438911e+08  0.5            16570100       1.6443432      6336.8393      12673.67       6.4959768    
  33080400   76646.355      1508.0033     -5866225.3      3.2205182      228239.76     -5637985.5      485.43181      485.43181      485.43181      1757.2841      2242.7159      1757.2841      2242.7159      1757.2841      2242.7159      1.1438911e+08  0.5            16570200       1.6606537      6131.0579      12262.122      6.4798121    
  33080600   75140.548      1526.4781     -5862720.6      3.2205182      223755.72     -5638964.9      485.43181      485.43181      485.43181      1757.2841      2242.7159      1757.2841      2242.7159      1757.2841      2242.7159      1.1438911e+08  0.5            16570300       1.6770404      6102.4642      12204.933      6.4639392    
  33080800   74846.395      1543.5661     -5861343        3.2205182      222879.78     -5638463.2      485.43181      485.43181      485.43181      1757.2841      2242.7159      1757.2841      2242.7159      1757.2841      2242.7159      1.1438911e+08  0.5            16570400       1.6927635      6360.0855      12720.169      6.4455291    
  33081000   78626.476      1564.1723     -5857276.3      3.2205182      234136.22     -5623140.1      485.43181      485.43181      485.43181      1757.2841      2242.7159      1757.2841      2242.7159      1757.2841      2242.7159      1.1438911e+08  0.5            16570500       1.7091083      6118.1493      12236.256      6.4295097    
  33081200   79567.579      1575.2318     -5856339.7      3.2205182      236938.66     -5619401.1      485.43181      485.43181      485.43181      1757.2841      2242.7159      1757.2841      2242.7159      1757.2841      2242.7159      1.1438911e+08  0.5            16570600       1.7262171      5844.9569      11689.977      6.4163226    
  33081400   78740.79       1598.0857     -5851279        3.2205182      234476.63     -5616802.4      485.43181      485.43181      485.43181      1757.2841      2242.7159      1757.2841      2242.7159      1757.2841      2242.7159      1.1438911e+08  0.5            16570700       1.7421624      6271.4373      12542.853      6.3987897    
  33081600   79971.868      1608.4816     -5852449.5      3.2205182      238142.57     -5614307        485.43181      485.43181      485.43181      1757.2841      2242.7159      1757.2841      2242.7159      1757.2841      2242.7159      1.1438911e+08  0.5            16570800       1.7586157      6077.7952      12155.579      6.3831301    
  33081800   83472.577      1629.6816     -5852055.1      3.2205182      248567.08     -5603488        485.43181      485.43181      485.43181      1757.2841      2242.7159      1757.2841      2242.7159      1757.2841      2242.7159      1.1438911e+08  0.5            16570900       1.7761563      5701.0625      11402.145      6.3713559    
  33082000   81964.39       1649.232      -5847585.1      3.2205182      244075.96     -5603509.1      485.43181      485.43181      485.43181      1757.2841      2242.7159      1757.2841      2242.7159      1757.2841      2242.7159      1.1438911e+08  0.5            16571000       1.7931601      5881.0314      11762.009      6.3575742    
  33082200   79319.581      1657.0469     -5846505.4      3.2205182      236200.17     -5610305.2      485.43181      485.43181      485.43181      1757.2841      2242.7159      1757.2841      2242.7159      1757.2841      2242.7159      1.1438911e+08  0.5            16571100       1.8104963      5768.2818      11536.533      6.3448995    
  33082400   82795.926      1688.9987     -5844419.3      3.2205182      246552.13     -5597867.2      485.43181      485.43181      485.43181      1757.2841      2242.7159      1757.2841      2242.7159      1757.2841      2242.7159      1.1438911e+08  0.5            16571200       1.8282019      5647.9236      11295.863      6.3334202    
  33082600   85615.458      1697.73       -5841621.7      3.2205182      254948.21     -5586673.5      485.43181      485.43181      485.43181      1757.2841      2242.7159      1757.2841      2242.7159      1757.2841      2242.7159      1.1438911e+08  0.5            16571300       1.8452438      5867.8748      11735.77       6.3195584    
  33082800   84172.179      1714.8152     -5839233.6      3.2205182      250650.38     -5588583.3      485.43181      485.43181      485.43181      1757.2841      2242.7159      1757.2841      2242.7159      1757.2841      2242.7159      1.1438911e+08  0.5            16571400       1.8620323      5956.4618      11912.936      6.3047825    
  33083000   83209.199      1733.2644     -5832931.3      3.2205182      247782.79     -5585148.5      485.43181      485.43181      485.43181      1757.2841      2242.7159      1757.2841      2242.7159      1757.2841      2242.7159      1.1438911e+08  0.5            16571500       1.8789439      5913.1172      11826.173      6.2903841    
  33083200   87199.455      1749.3509     -5831913.8      3.2205182      259665.09     -5572248.7      485.43181      485.43181      485.43181      1757.2841      2242.7159      1757.2841      2242.7159      1757.2841      2242.7159      1.1438911e+08  0.5            16571600       1.8955412      6025.0869      12050.209      6.274901     
  33083400   88502.605      1766.263      -5828679.1      3.2205182      263545.64     -5565133.5      485.43181      485.43181      485.43181      1757.2841      2242.7159      1757.2841      2242.7159      1757.2841      2242.7159      1.1438911e+08  0.5            16571700       1.912251       5984.4824      11968.966      6.2597682    
  33083600   86566.432      1779.1277     -5827720.7      3.2205182      257780.05     -5569940.7      485.43181      485.43181      485.43181      1757.2841      2242.7159      1757.2841      2242.7159      1757.2841      2242.7159      1.1438911e+08  0.5            16571800       1.9283401      6215.4271      12430.935      6.2425979    
  33083800   86634.266      1790.4966     -5823505.2      3.2205182      257982.05     -5565523.2      485.43181      485.43181      485.43181      1757.2841      2242.7159      1757.2841      2242.7159      1757.2841      2242.7159      1.1438911e+08  0.5            16571900       1.9442159      6298.911       12597.791      6.2247638    
  33084000   92909.467      1808.1941     -5824054.1      3.2205182      276668.53     -5547385.5      485.43181      485.43181      485.43181      1757.2841      2242.7159      1757.2841      2242.7159      1757.2841      2242.7159      1.1438911e+08  0.5            16572000       1.9607276      6056.2995      12112.575      6.2089763    
  33084200   90955.014      1834.0259     -5821556.1      3.2205182      270848.5      -5550707.6      485.43181      485.43181      485.43181      1757.2841      2242.7159      1757.2841      2242.7159      1757.2841      2242.7159      1.1438911e+08  0.5            16572100       1.9772938      6036.3706      12072.77       6.1933472    
  33084400   87679.351      1843.9911     -5819799.3      3.2205182      261094.13     -5558705.2      485.43181      485.43181      485.43181      1757.2841      2242.7159      1757.2841      2242.7159      1757.2841      2242.7159      1.1438911e+08  0.5            16572200       1.9930582      6343.4111      12686.832      6.1752186    
  33084600   89776.551      1857.2286     -5819973.1      3.2205182      267339.24     -5552633.9      485.43181      485.43181      485.43181      1757.2841      2242.7159      1757.2841      2242.7159      1757.2841      2242.7159      1.1438911e+08  0.5            16572300       2.0095462      6064.999       12129.946      6.1593465    
  33084800   93570.939      1871.3562     -5817862.1      3.2205182      278638.28     -5539223.9      485.43181      485.43181      485.43181      1757.2841      2242.7159      1757.2841      2242.7159      1757.2841      2242.7159      1.1438911e+08  0.5            16572400       2.0258051      6150.4791      12301.008      6.1427693    
  33085000   92422.319      1889.2074     -5817563.2      3.2205182      275217.88     -5542345.3      485.43181      485.43181      485.43181      1757.2841      2242.7159      1757.2841      2242.7159      1757.2841      2242.7159      1.1438911e+08  0.5            16572500       2.0422572      6078.2555      12156.469      6.126777     
  33085200   91929.086      1904.6286     -5814597.1      3.2205182      273749.12     -5540848        485.43181      485.43181      485.43181      1757.2841      2242.7159      1757.2841      2242.7159      1757.2841      2242.7159      1.1438911e+08  0.5            16572600       2.0587978      6045.7248      12091.471      6.1110401    
  33085400   95454.733      1931.3177     -5808377.7      3.2205182      284247.89     -5524129.8      485.43181      485.43181      485.43181      1757.2841      2242.7159      1757.2841      2242.7159      1757.2841      2242.7159      1.1438911e+08  0.5            16572700       2.0751062      6131.8203      12263.615      6.0946086    
  33085600   97786.975      1946.4787     -5807262.1      3.2205182      291192.91     -5516069.2      485.43181      485.43181      485.43181      1757.2841      2242.7159      1757.2841      2242.7159      1757.2841      2242.7159      1.1438911e+08  0.5            16572800       2.0910827      6259.2143      12518.473      6.0772141    
  33085800   95044.762      1962.2241     -5803174.4      3.2205182      283027.07     -5520147.3      485.43181      485.43181      485.43181      1757.2841      2242.7159      1757.2841      2242.7159      1757.2841      2242.7159      1.1438911e+08  0.5            16572900       2.1075376      6077.1883      12154.383      6.0612178    
  33086000   93668.068      1974.4787     -5799214.6      3.2205182      278927.51     -5520287.1      485.43181      485.43181      485.43181      1757.2841      2242.7159      1757.2841      2242.7159      1757.2841      2242.7159      1.1438911e+08  0.5            16573000       2.1237797      6156.8757      12313.723      6.0446086    
  33086200   102092.27      1997.7298     -5794266.8      3.2205182      304013.35     -5490253.4      485.43181      485.43181      485.43181      1757.2841      2242.7159      1757.2841      2242.7159      1757.2841      2242.7159      1.1438911e+08  0.5            16573100       2.1396135      6315.5958      12631.203      6.0268552    
  33086400   100086.87      2005.6889     -5792248.2      3.2205182      298041.6      -5494206.6      485.43181      485.43181      485.43181      1757.2841      2242.7159      1757.2841      2242.7159      1757.2841      2242.7159      1.1438911e+08  0.5            16573200       2.156299       5993.2093      11986.447      6.0115051    
  33086600   95230.767      2019.6455     -5791144.4      3.2205182      283580.96     -5507563.4      485.43181      485.43181      485.43181      1757.2841      2242.7159      1757.2841      2242.7159      1757.2841      2242.7159      1.1438911e+08  0.5            16573300       2.1727581      6075.6597      12151.312      5.9955104    
  33086800   96781.354      2031.4904     -5790313.5      3.2205182      288198.35     -5502115.1      485.43181      485.43181      485.43181      1757.2841      2242.7159      1757.2841      2242.7159      1757.2841      2242.7159      1.1438911e+08  0.5            16573400       2.1885283      6341.0918      12682.156      5.9776268    
  33087000   101352.77      2047.4052     -5788504.6      3.2205182      301811.23     -5486693.4      485.43181      485.43181      485.43181      1757.2841      2242.7159      1757.2841      2242.7159      1757.2841      2242.7159      1.1438911e+08  0.5            16573500       2.2047545      6162.8599      12325.686      5.9610081    
  33087200   101433.69      2056.0677     -5789716.4      3.2205182      302052.2      -5487664.2      485.43181      485.43181      485.43181      1757.2841      2242.7159      1757.2841      2242.7159      1757.2841      2242.7159      1.1438911e+08  0.5            16573600       2.2213038      6042.5619      12085.165      5.9452589    
  33087400   100406.95      2065.8284     -5788834.4      3.2205182      298994.75     -5489839.6      485.43181      485.43181      485.43181      1757.2841      2242.7159      1757.2841      2242.7159      1757.2841      2242.7159      1.1438911e+08  0.5            16573700       2.2370025      6369.9497      12739.848      5.9272452    
  33087600   102734.25      2087.2884     -5784319.4      3.2205182      305925.04     -5478394.3      485.43181      485.43181      485.43181      1757.2841      2242.7159      1757.2841      2242.7159      1757.2841      2242.7159      1.1438911e+08  0.5            16573800       2.2534784      6069.501       12139.045      5.9113029    
  33087800   107626.22      2098.5499     -5782301.2      3.2205182      320492.5      -5461808.7      485.43181      485.43181      485.43181      1757.2841      2242.7159      1757.2841      2242.7159      1757.2841      2242.7159      1.1438911e+08  0.5            16573900       2.2697705      6137.8978      12275.762      5.8948765    
  33088000   104084.42      2099.9539     -5779368.5      3.2205182      309945.63     -5469422.9      485.43181      485.43181      485.43181      1757.2841      2242.7159      1757.2841      2242.7159      1757.2841      2242.7159      1.1438911e+08  0.5            16574000       2.2857539      6256.4938      12512.989      5.8776576    
  33088200   100459.95      2120.9693     -5775574.5      3.2205182      299152.58     -5476421.9      485.43181      485.43181      485.43181      1757.2841      2242.7159      1757.2841      2242.7159      1757.2841      2242.7159      1.1438911e+08  0.5            16574100       2.302353       6024.439       12048.897      5.8620239    
  33088400   103533.45      2138.8318     -5773936.7      3.2205182      308304.95     -5465631.8      485.43181      485.43181      485.43181      1757.2841      2242.7159      1757.2841      2242.7159      1757.2841      2242.7159      1.1438911e+08  0.5            16574200       2.3185342      6180.011       12360.011      5.845323     
  33088600   105444.89      2145.4373     -5772510.5      3.2205182      313996.87     -5458513.6      485.43181      485.43181      485.43181      1757.2841      2242.7159      1757.2841      2242.7159      1757.2841      2242.7159      1.1438911e+08  0.5            16574300       2.3341717      6394.8857      12789.801      5.8272721    
  33088800   106138.63      2160.6238     -5771173.1      3.2205182      316062.73     -5455110.3      485.43181      485.43181      485.43181      1757.2841      2242.7159      1757.2841      2242.7159      1757.2841      2242.7159      1.1438911e+08  0.5            16574400       2.3510363      5929.5951      11859.182      5.8122885    
  33089000   108131.44      2180.2772     -5768832.7      3.2205182      321996.97     -5446835.7      485.43181      485.43181      485.43181      1757.2841      2242.7159      1757.2841      2242.7159      1757.2841      2242.7159      1.1438911e+08  0.5            16574500       2.3675074      6071.2429      12142.489      5.7963154    
  33089200   110227.63      2209.6957     -5765774.6      3.2205182      328239.05     -5437535.6      485.43181      485.43181      485.43181      1757.2841      2242.7159      1757.2841      2242.7159      1757.2841      2242.7159      1.1438911e+08  0.5            16574600       2.3833335      6318.6869      12637.382      5.7787716    
  33089400   110696.64      2226.5168     -5763924.9      3.2205182      329635.7      -5434289.2      485.43181      485.43181      485.43181      1757.2841      2242.7159      1757.2841      2242.7159      1757.2841      2242.7159      1.1438911e+08  0.5            16574700       2.4002666      5905.5782      11811.145      5.7639097    
  33089600   108864.49      2243.3227     -5761457.4      3.2205182      324179.87     -5437277.6      485.43181      485.43181      485.43181      1757.2841      2242.7159      1757.2841      2242.7159      1757.2841      2242.7159      1.1438911e+08  0.5            16574800       2.4165805      6129.7391      12259.482      5.747547     
  33089800   107857.04      2258.8384     -5756315.4      3.2205182      321179.85     -5435135.5      485.43181      485.43181      485.43181      1757.2841      2242.7159      1757.2841      2242.7159      1757.2841      2242.7159      1.1438911e+08  0.5            16574900       2.432224       6392.4399      12784.89       5.7296056    
  33090000   112120.53      2291.9479     -5750827        3.2205182      333875.8      -5416951.2      485.43181      485.43181      485.43181      1757.2841      2242.7159      1757.2841      2242.7159      1757.2841      2242.7159      1.1438911e+08  0.5            16575000       2.4492788      5863.4492      11726.89       5.7149879    
  33090200   113915.19      2317.4819     -5744146.3      3.2205182      339219.97     -5404926.3      485.43181      485.43181      485.43181      1757.2841      2242.7159      1757.2841      2242.7159      1757.2841      2242.7159      1.1438911e+08  0.5            16575100       2.4658166      6046.7151      12093.441      5.6991434    
  33090400   111781.8       2330.7171     -5742290.1      3.2205182      332867.12     -5409423        485.43181      485.43181      485.43181      1757.2841      2242.7159      1757.2841      2242.7159      1757.2841      2242.7159      1.1438911e+08  0.5            16575200       2.4816737      6306.3627      12612.682      5.6817307    
  33090600   110147.7       2355.879      -5739916        3.2205182      328001.03     -5411915        485.43181      485.43181      485.43181      1757.2841      2242.7159      1757.2841      2242.7159      1757.2841      2242.7159      1.1438911e+08  0.5            16575300       2.4981305      6076.5114      12153.079      5.6656986    
  33090800   115529.07      2388.2905     -5739638.7      3.2205182      344025.86     -5395612.9      485.43181      485.43181      485.43181      1757.2841      2242.7159      1757.2841      2242.7159      1757.2841      2242.7159      1.1438911e+08  0.5            16575400       2.5148379      5985.3546      11970.637      5.6502244    
  33091000   117520.04      2406.5928     -5739874.4      3.2205182      349954.61     -5389919.8      485.43181      485.43181      485.43181      1757.2841      2242.7159      1757.2841      2242.7159      1757.2841      2242.7159      1.1438911e+08  0.5            16575500       2.530701       6303.9552      12607.977      5.6328543    
  33091200   114367.4       2421.6316     -5738359        3.2205182      340566.58     -5397792.4      485.43181      485.43181      485.43181      1757.2841      2242.7159      1757.2841      2242.7159      1757.2841      2242.7159      1.1438911e+08  0.5            16575600       2.547316       6018.6379      12037.268      5.6171623    
  33091400   112052.3       2437.2228     -5737118.2      3.2205182      333672.61     -5403445.6      485.43181      485.43181      485.43181      1757.2841      2242.7159      1757.2841      2242.7159      1757.2841      2242.7159      1.1438911e+08  0.5            16575700       2.5639563      6009.5067      12019.005      5.6015136    
  33091600   118854.19      2466.7346     -5734629.4      3.2205182      353927.48     -5380701.9      485.43181      485.43181      485.43181      1757.2841      2242.7159      1757.2841      2242.7159      1757.2841      2242.7159      1.1438911e+08  0.5            16575800       2.579704       6350.1337      12700.22       5.5839204    
  33091800   120454.91      2493.828      -5731097.4      3.2205182      358694.14     -5372403.2      485.43181      485.43181      485.43181      1757.2841      2242.7159      1757.2841      2242.7159      1757.2841      2242.7159      1.1438911e+08  0.5            16575900       2.5964296      5978.8752      11957.77       5.5684473    
  33092000   116968.9       2510.1345     -5730911.7      3.2205182      348313.41     -5382598.3      485.43181      485.43181      485.43181      1757.2841      2242.7159      1757.2841      2242.7159      1757.2841      2242.7159      1.1438911e+08  0.5            16576000       2.6128202      6101.0345      12202.096      5.5522468    
  33092200   115880.74      2524.318      -5727160.2      3.2205182      345073.06     -5382087.1      485.43181      485.43181      485.43181      1757.2841      2242.7159      1757.2841      2242.7159      1757.2841      2242.7159      1.1438911e+08  0.5            16576100       2.6289412      6203.1015      12406.212      5.5354761    
  33092400   123797.77      2544.9328     -5725316.2      3.2205182      368648.63     -5356667.5      485.43181      485.43181      485.43181      1757.2841      2242.7159      1757.2841      2242.7159      1757.2841      2242.7159      1.1438911e+08  0.5            16576200       2.6455835      6008.8011      12017.625      5.5198012    
  33092600   123482.16      2570.9806     -5721842.4      3.2205182      367708.79     -5354133.6      485.43181      485.43181      485.43181      1757.2841      2242.7159      1757.2841      2242.7159      1757.2841      2242.7159      1.1438911e+08  0.5            16576300       2.6621528      6035.2412      12070.458      5.5039637    
  33092800   119118.62      2572.569      -5717539.4      3.2205182      354714.91     -5362824.4      485.43181      485.43181      485.43181      1757.2841      2242.7159      1757.2841      2242.7159      1757.2841      2242.7159      1.1438911e+08  0.5            16576400       2.6782723      6203.6629      12407.357      5.4871956    
  33093000   119381.59      2597.1785     -5716221.4      3.2205182      355497.98     -5360723.4      485.43181      485.43181      485.43181      1757.2841      2242.7159      1757.2841      2242.7159      1757.2841      2242.7159      1.1438911e+08  0.5            16576500       2.6948666      6026.1721      12052.245      5.4713997    
  33093200   127381.71      2620.9348     -5715957        3.2205182      379320.97     -5336636.1      485.43181      485.43181      485.43181      1757.2841      2242.7159      1757.2841      2242.7159      1757.2841      2242.7159      1.1438911e+08  0.5            16576600       2.7113659      6060.8687      12121.833      5.4554023    
  33093400   125917.12      2641.938      -5710666.2      3.2205182      374959.68     -5335706.5      485.43181      485.43181      485.43181      1757.2841      2242.7159      1757.2841      2242.7159      1757.2841      2242.7159      1.1438911e+08  0.5            16576700       2.7275095      6194.4071      12388.77       5.4386902    
  33093600   122265.03      2651.1174     -5707913.7      3.2205182      364084.38     -5343829.3      485.43181      485.43181      485.43181      1757.2841      2242.7159      1757.2841      2242.7159      1757.2841      2242.7159      1.1438911e+08  0.5            16576800       2.7444719      5895.4148      11790.837      5.4236025    
  33093800   122999.24      2671.8416     -5703398.6      3.2205182      366270.74     -5337127.9      485.43181      485.43181      485.43181      1757.2841      2242.7159      1757.2841      2242.7159      1757.2841      2242.7159      1.1438911e+08  0.5            16576900       2.7610015      6049.7133      12099.429      5.4076455    
  33094000   129712.25      2700.2934     -5698549.8      3.2205182      386260.92     -5312288.9      485.43181      485.43181      485.43181      1757.2841      2242.7159      1757.2841      2242.7159      1757.2841      2242.7159      1.1438911e+08  0.5            16577000       2.776829       6318.1176      12636.212      5.3903188    
  33094200   129027.77      2714.4424     -5697636.9      3.2205182      384222.67     -5313414.3      485.43181      485.43181      485.43181      1757.2841      2242.7159      1757.2841      2242.7159      1757.2841      2242.7159      1.1438911e+08  0.5            16577100       2.7933157      6065.532       12131.088      5.3742773    
  33094400   126171.74      2719.4295     -5695650.6      3.2205182      375717.89     -5319932.7      485.43181      485.43181      485.43181      1757.2841      2242.7159      1757.2841      2242.7159      1757.2841      2242.7159      1.1438911e+08  0.5            16577200       2.8101553      5938.3809      11876.762      5.3589041    
  33094600   126329.9       2738.7139     -5692717.4      3.2205182      376188.88     -5316528.5      485.43181      485.43181      485.43181      1757.2841      2242.7159      1757.2841      2242.7159      1757.2841      2242.7159      1.1438911e+08  0.5            16577300       2.8264281      6145.2047      12290.316      5.3424429    
  33094800   129501.03      2755.8573     -5690242.7      3.2205182      385631.97     -5304610.8      485.43181      485.43181      485.43181      1757.2841      2242.7159      1757.2841      2242.7159      1757.2841      2242.7159      1.1438911e+08  0.5            16577400       2.8433369      5914.096       11828.237      5.3271748    
  33095000   132677.11      2769.5384     -5689025.2      3.2205182      395089.77     -5293935.5      485.43181      485.43181      485.43181      1757.2841      2242.7159      1757.2841      2242.7159      1757.2841      2242.7159      1.1438911e+08  0.5            16577500       2.8595302      6175.3726      12350.782      5.3105594    
  33095200   137483.57      2791.7646     -5687287.1      3.2205182      409402.6      -5277884.5      485.43181      485.43181      485.43181      1757.2841      2242.7159      1757.2841      2242.7159      1757.2841      2242.7159      1.1438911e+08  0.5            16577600       2.8763156      5957.5317      11914.985      5.2950393    
  33095400   134944.06      2810.6083     -5683153.5      3.2205182      401840.37     -5281313.1      485.43181      485.43181      485.43181      1757.2841      2242.7159      1757.2841      2242.7159      1757.2841      2242.7159      1.1438911e+08  0.5            16577700       2.8934875      5823.5057      11647.092      5.2802091    
  33095600   127307.29      2818.8655     -5681561.1      3.2205182      379099.37     -5302461.7      485.43181      485.43181      485.43181      1757.2841      2242.7159      1757.2841      2242.7159      1757.2841      2242.7159      1.1438911e+08  0.5            16577800       2.9094697      6256.9389      12513.88       5.2632012    
  33095800   129168.41      2836.0545     -5683083.3      3.2205182      384641.47     -5298441.8      485.43181      485.43181      485.43181      1757.2841      2242.7159      1757.2841      2242.7159      1757.2841      2242.7159      1.1438911e+08  0.5            16577900       2.9262989      5942.0616      11884.135      5.2477235    
  33096000   134767.81      2857.5186     -5683068.6      3.2205182      401315.53     -5281753.1      485.43181      485.43181      485.43181      1757.2841      2242.7159      1757.2841      2242.7159      1757.2841      2242.7159      1.1438911e+08  0.5            16578000       2.9432542      5897.8605      11795.705      5.232455     
  33096200   134759.72      2890.3395     -5678104.4      3.2205182      401291.44     -5276813        485.43181      485.43181      485.43181      1757.2841      2242.7159      1757.2841      2242.7159      1757.2841      2242.7159      1.1438911e+08  0.5            16578100       2.9593586      6209.5028      12418.999      5.2156682    
  33096400   133485.6       2908.5982     -5674872.2      3.2205182      397497.33     -5277374.9      485.43181      485.43181      485.43181      1757.2841      2242.7159      1757.2841      2242.7159      1757.2841      2242.7159      1.1438911e+08  0.5            16578200       2.9762558      5918.1133      11836.246      5.2002742    
  33096600   136434.34      2931.7995     -5670684.9      3.2205182      406278.17     -5264406.8      485.43181      485.43181      485.43181      1757.2841      2242.7159      1757.2841      2242.7159      1757.2841      2242.7159      1.1438911e+08  0.5            16578300       2.9931638      5914.3545      11828.694      5.1848826    
  33096800   143254.82      2962.7267     -5664761.6      3.2205182      426588.39     -5238173.2      485.43181      485.43181      485.43181      1757.2841      2242.7159      1757.2841      2242.7159      1757.2841      2242.7159      1.1438911e+08  0.5            16578400       3.0090552      6292.7185      12585.442      5.1677283    
  33097000   137591.41      2983.3342     -5662858.8      3.2205182      409723.72     -5253135.1      485.43181      485.43181      485.43181      1757.2841      2242.7159      1757.2841      2242.7159      1757.2841      2242.7159      1.1438911e+08  0.5            16578500       3.025742       5992.7356      11985.458      5.1519424    
  33097200   133267.79      3010.0507     -5656361.7      3.2205182      396848.73     -5259513        485.43181      485.43181      485.43181      1757.2841      2242.7159      1757.2841      2242.7159      1757.2841      2242.7159      1.1438911e+08  0.5            16578600       3.042542       5952.41        11904.815      5.1363374    
  33097400   135619.87      3037.3668     -5655790.6      3.2205182      403852.8      -5251937.8      485.43181      485.43181      485.43181      1757.2841      2242.7159      1757.2841      2242.7159      1757.2841      2242.7159      1.1438911e+08  0.5            16578700       3.0586705      6200.2254      12400.493      5.1195956    
  33097600   138071.52      3075.1001     -5650011.1      3.2205182      411153.41     -5238857.7      485.43181      485.43181      485.43181      1757.2841      2242.7159      1757.2841      2242.7159      1757.2841      2242.7159      1.1438911e+08  0.5            16578800       3.0752424      6034.3064      12068.581      5.1035966    
  33097800   139890.15      3104.2698     -5646765.6      3.2205182      416568.96     -5230196.6      485.43181      485.43181      485.43181      1757.2841      2242.7159      1757.2841      2242.7159      1757.2841      2242.7159      1.1438911e+08  0.5            16578900       3.0917563      6055.4875      12110.954      5.0874962    
  33098000   141602.41      3131.5378     -5642698        3.2205182      421667.78     -5221030.2      485.43181      485.43181      485.43181      1757.2841      2242.7159      1757.2841      2242.7159      1757.2841      2242.7159      1.1438911e+08  0.5            16579000       3.1081184      6111.7006      12223.454      5.0711434    
  33098200   144626.58      3165.5366     -5641466.9      3.2205182      430673.27     -5210793.6      485.43181      485.43181      485.43181      1757.2841      2242.7159      1757.2841      2242.7159      1757.2841      2242.7159      1.1438911e+08  0.5            16579100       3.124584       6073.2679      12146.541      5.054958     
  33098400   149865.01      3212.1444     -5635992.2      3.2205182      446272.42     -5189719.8      485.43181      485.43181      485.43181      1757.2841      2242.7159      1757.2841      2242.7159      1757.2841      2242.7159      1.1438911e+08  0.5            16579200       3.1412765      5990.714       11981.404      5.0391338    
  33098600   143025.76      3234.5704     -5627783.7      3.2205182      425906.3      -5201877.4      485.43181      485.43181      485.43181      1757.2841      2242.7159      1757.2841      2242.7159      1757.2841      2242.7159      1.1438911e+08  0.5            16579300       3.157865       6028.2573      12056.514      5.0231352    
  33098800   136959.46      3260.1064     -5624518.9      3.2205182      407841.89     -5216677        485.43181      485.43181      485.43181      1757.2841      2242.7159      1757.2841      2242.7159      1757.2841      2242.7159      1.1438911e+08  0.5            16579400       3.174546       5994.8516      11989.698      5.0072764    
  33099000   141206.41      3289.0709     -5623726.3      3.2205182      420488.58     -5203237.7      485.43181      485.43181      485.43181      1757.2841      2242.7159      1757.2841      2242.7159      1757.2841      2242.7159      1.1438911e+08  0.5            16579500       3.1913864      5938.0797      11876.16       4.9916585    
  33099200   144471.12      3327.8141     -5621590        3.2205182      430210.34     -5191379.7      485.43181      485.43181      485.43181      1757.2841      2242.7159      1757.2841      2242.7159      1757.2841      2242.7159      1.1438911e+08  0.5            16579600       3.2080473      6002.0699      12004.154      4.9757495    
  33099400   146169.66      3355.8209     -5619564.2      3.2205182      435268.29     -5184295.9      485.43181      485.43181      485.43181      1757.2841      2242.7159      1757.2841      2242.7159      1757.2841      2242.7159      1.1438911e+08  0.5            16579700       3.2246007      6041.0897      12082.171      4.9596677    
  33099600   147746.3       3377.0234     -5618347.7      3.2205182      439963.25     -5178384.4      485.43181      485.43181      485.43181      1757.2841      2242.7159      1757.2841      2242.7159      1757.2841      2242.7159      1.1438911e+08  0.5            16579800       3.2414701      5927.8906      11855.774      4.9440631    
  33099800   150909.54      3399.8556     -5612444.8      3.2205182      449382.84     -5163061.9      485.43181      485.43181      485.43181      1757.2841      2242.7159      1757.2841      2242.7159      1757.2841      2242.7159      1.1438911e+08  0.5            16579900       3.2585503      5854.7163      11709.42       4.9287648    
  33100000   153969.02      3433.3123     -5609189.5      3.2205182      458493.46     -5150696.1      485.43181      485.43181      485.43181      1757.2841      2242.7159      1757.2841      2242.7159      1757.2841      2242.7159      1.1438911e+08  0.5            16580000       3.2776321      5240.543       10481.006      4.9164516    
  33100200   147174.11      3442.7435     -5608870.4      3.2205182      438259.38     -5170611.1      485.43181      485.43181      485.43181      1757.2841      2242.7159      1757.2841      2242.7159      1757.2841      2242.7159      1.1438911e+08  0.5            16580100       3.2946964      5860.2464      11720.592      4.9010685    
  33100400   142394.36      3453.7445     -5602744.8      3.2205182      424026.08     -5178718.7      485.43181      485.43181      485.43181      1757.2841      2242.7159      1757.2841      2242.7159      1757.2841      2242.7159      1.1438911e+08  0.5            16580200       3.3107392      6233.3499      12466.659      4.8841626    
  33100600   149613.67      3477.5373     -5602358.3      3.2205182      445523.96     -5156834.3      485.43181      485.43181      485.43181      1757.2841      2242.7159      1757.2841      2242.7159      1757.2841      2242.7159      1.1438911e+08  0.5            16580300       3.3273814      6008.8376      12017.713      4.8681418    
  33100800   152086.21      3488.0518     -5602013.2      3.2205182      452886.76     -5149126.4      485.43181      485.43181      485.43181      1757.2841      2242.7159      1757.2841      2242.7159      1757.2841      2242.7159      1.1438911e+08  0.5            16580400       3.344567       5818.7794      11637.522      4.852904     
  33101000   151325.87      3498.592      -5602028.3      3.2205182      450622.59     -5151405.7      485.43181      485.43181      485.43181      1757.2841      2242.7159      1757.2841      2242.7159      1757.2841      2242.7159      1.1438911e+08  0.5            16580500       3.3612538      5992.783       11985.628      4.8369288    
  33101200   151827.44      3510.9535     -5601260.4      3.2205182      452116.18     -5149144.3      485.43181      485.43181      485.43181      1757.2841      2242.7159      1757.2841      2242.7159      1757.2841      2242.7159      1.1438911e+08  0.5            16580600       3.3778276      6033.6423      12067.301      4.8207855    
  33101400   157057.27      3518.4545     -5598350.8      3.2205182      467689.73     -5130661.1      485.43181      485.43181      485.43181      1757.2841      2242.7159      1757.2841      2242.7159      1757.2841      2242.7159      1.1438911e+08  0.5            16580700       3.394776       5900.2118      11800.358      4.8051688    
  33101600   160200.15      3532.3728     -5597840.6      3.2205182      477048.7      -5120791.9      485.43181      485.43181      485.43181      1757.2841      2242.7159      1757.2841      2242.7159      1757.2841      2242.7159      1.1438911e+08  0.5            16580800       3.4112283      6078.1797      12156.355      4.7888426    
  33101800   151226.68      3526.8756     -5596037.4      3.2205182      450327.23     -5145710.2      485.43181      485.43181      485.43181      1757.2841      2242.7159      1757.2841      2242.7159      1757.2841      2242.7159      1.1438911e+08  0.5            16580900       3.42821        5888.7069      11777.417      4.7732521    
  33102000   149119.14      3528.8301     -5593928.8      3.2205182      444051.34     -5149877.4      485.43181      485.43181      485.43181      1757.2841      2242.7159      1757.2841      2242.7159      1757.2841      2242.7159      1.1438911e+08  0.5            16581000       3.4450167      5950.025       11900.105      4.7574064    
  33102200   155159.56      3532.1297     -5593882.4      3.2205182      462038.67     -5131843.8      485.43181      485.43181      485.43181      1757.2841      2242.7159      1757.2841      2242.7159      1757.2841      2242.7159      1.1438911e+08  0.5            16581100       3.4616293      6019.5451      12039.124      4.741286     
  33102400   157988.35      3544.5438     -5592164.5      3.2205182      470462.33     -5121702.1      485.43181      485.43181      485.43181      1757.2841      2242.7159      1757.2841      2242.7159      1757.2841      2242.7159      1.1438911e+08  0.5            16581200       3.4782477      6017.4084      12034.794      4.725169     
  33102600   158128.13      3552.7905     -5594069.9      3.2205182      470878.57     -5123191.3      485.43181      485.43181      485.43181      1757.2841      2242.7159      1757.2841      2242.7159      1757.2841      2242.7159      1.1438911e+08  0.5            16581300       3.4947391      6063.7526      12127.432      4.7088765    
  33102800   157203.56      3551.9806     -5592475.6      3.2205182      468125.36     -5124350.2      485.43181      485.43181      485.43181      1757.2841      2242.7159      1757.2841      2242.7159      1757.2841      2242.7159      1.1438911e+08  0.5            16581400       3.5118157      5855.9529      11711.909      4.6933639    
  33103000   157642.72      3557.8111     -5588491.6      3.2205182      469433.11     -5119058.5      485.43181      485.43181      485.43181      1757.2841      2242.7159      1757.2841      2242.7159      1757.2841      2242.7159      1.1438911e+08  0.5            16581500       3.5284211      6022.1816      12044.444      4.6772116    
  33103200   162520.51      3568.4179     -5591856.6      3.2205182      483958.34     -5107898.3      485.43181      485.43181      485.43181      1757.2841      2242.7159      1757.2841      2242.7159      1757.2841      2242.7159      1.1438911e+08  0.5            16581600       3.5447056      6140.782       12281.459      4.660634     
  33103400   164443.36      3581.5847     -5589239.3      3.2205182      489684.25     -5099555.1      485.43181      485.43181      485.43181      1757.2841      2242.7159      1757.2841      2242.7159      1757.2841      2242.7159      1.1438911e+08  0.5            16581700       3.5620137      5777.6627      11555.391      4.6453934    
  33103600   158559.34      3586.4704     -5587879.1      3.2205182      472162.64     -5115716.4      485.43181      485.43181      485.43181      1757.2841      2242.7159      1757.2841      2242.7159      1757.2841      2242.7159      1.1438911e+08  0.5            16581800       3.5784557      6082.0003      12164.002      4.6290136    
  33103800   154353.81      3595.976      -5582571        3.2205182      459639.28     -5122931.7      485.43181      485.43181      485.43181      1757.2841      2242.7159      1757.2841      2242.7159      1757.2841      2242.7159      1.1438911e+08  0.5            16581900       3.5948011      6117.8895      12235.772      4.6125097    
  33104000   164863.35      3639.27       -5580018.1      3.2205182      490934.91     -5089083.2      485.43181      485.43181      485.43181      1757.2841      2242.7159      1757.2841      2242.7159      1757.2841      2242.7159      1.1438911e+08  0.5            16582000       3.6115967      5953.9616      11907.932      4.5965798    
  33104200   166538.99      3653.2477     -5576117.1      3.2205182      495924.67     -5080192.4      485.43181      485.43181      485.43181      1757.2841      2242.7159      1757.2841      2242.7159      1757.2841      2242.7159      1.1438911e+08  0.5            16582100       3.6283718      5961.2046      11922.405      4.5806164    
  33104400   162410.98      3660.6518     -5571457.7      3.2205182      483632.16     -5087825.5      485.43181      485.43181      485.43181      1757.2841      2242.7159      1757.2841      2242.7159      1757.2841      2242.7159      1.1438911e+08  0.5            16582200       3.6447548      6103.8845      12207.774      4.5641546    
  33104600   161292.68      3684.5533     -5564781.4      3.2205182      480302.07     -5084479.4      485.43181      485.43181      485.43181      1757.2841      2242.7159      1757.2841      2242.7159      1757.2841      2242.7159      1.1438911e+08  0.5            16582300       3.6612456      6063.9993      12128.011      4.5478273    
  33104800   170459.2       3705.7332     -5565612.8      3.2205182      507598.4      -5058014.4      485.43181      485.43181      485.43181      1757.2841      2242.7159      1757.2841      2242.7159      1757.2841      2242.7159      1.1438911e+08  0.5            16582400       3.6777869      6045.4759      12090.901      4.531561     
[...]
  34049400   287.34228      9.8740377     -5986992.7      3.2214631      855.65623     -5986137        485.38434      485.38434      485.38434      1757.3078      2242.6922      1757.3078      2242.6922      1757.3078      2242.6922      1.1435556e+08  0.5            17054700       27.642863      4941.5567      9883.0939      1.0124892    
  34049600   304.71716      9.3059012     -5987362.6      3.2214656      907.39566     -5986455.2      485.38422      485.38422      485.38422      1757.3079      2242.6921      1757.3079      2242.6921      1757.3079      2242.6921      1.1435547e+08  0.5            17054800       27.66298       4970.8971      9941.7953      0.99342203   
  34049800   287.95047     -5.9876308     -5987365.9      3.221069       857.46733     -5986508.5      485.40414      485.40414      485.40414      1757.2979      2242.7021      1757.2979      2242.7021      1757.2979      2242.7021      1.1436955e+08  0.5            17054900       27.683356      4907.9071      9815.8324      0.97436249   
  34050000   309.38692     -0.30388675    -5987739.4      3.221251       921.30143     -5986818.1      485.395        485.395        485.395        1757.3025      2242.6975      1757.3025      2242.6975      1757.3025      2242.6975      1.1436309e+08  0.5            17055000       27.704589      4709.5554      9419.0948      0.95533074   
  34050200   295.10624      0.46721249    -5987745        3.2212979      878.77599     -5986866.2      485.39264      485.39264      485.39264      1757.3037      2242.6963      1757.3037      2242.6963      1757.3037      2242.6963      1.1436142e+08  0.5            17055100       27.723945      5166.3727      10332.785      0.93623254   
  34050400   303.87427      5.0413949     -5987750.8      3.2214462      904.88568     -5986845.9      485.38519      485.38519      485.38519      1757.3074      2242.6926      1757.3074      2242.6926      1757.3074      2242.6926      1.1435616e+08  0.5            17055200       27.743572      5095.0821      10190.163      0.91714294   
  34050600   315.14155     -2.3577031     -5987756.7      3.2212759      938.43773     -5986818.2      485.39375      485.39375      485.39375      1757.3031      2242.6969      1757.3031      2242.6969      1757.3031      2242.6969      1.1436221e+08  0.5            17055300       27.762078      5403.6064      10807.21       0.89801636   
  34050800   293.4299      -1.6008716     -5987761.9      3.2213157      873.78414     -5986888.1      485.39175      485.39175      485.39175      1757.3041      2242.6959      1757.3041      2242.6959      1757.3041      2242.6959      1.1436079e+08  0.5            17055400       27.781099      5257.4265      10514.849      0.8789069    
  34051000   310.05288      1.9989761     -5987767.3      3.2214203      923.28453     -5986844        485.38649      485.38649      485.38649      1757.3068      2242.6932      1757.3068      2242.6932      1757.3068      2242.6932      1.1435708e+08  0.5            17055500       27.799827      5339.6144      10679.239      0.85978852   
  34051200   288.5476       3.7812168     -5987771.9      3.2214703      859.24547     -5986912.7      485.38398      485.38398      485.38398      1757.308       2242.692       1757.308       2242.692       1757.308       2242.692       1.143553e+08   0.5            17055600       27.818555      5339.5178      10679.041      0.84067068   
  34051400   304.40047     -0.95754109    -5987408.2      3.2213329      906.45262     -5986501.8      485.39088      485.39088      485.39088      1757.3046      2242.6954      1757.3046      2242.6954      1757.3046      2242.6954      1.1436018e+08  0.5            17055700       27.837229      5354.9766      10709.924      0.82155178   
  34051600   289.78826     -1.4682085     -5987045        3.2213036      862.93995     -5986182        485.39235      485.39235      485.39235      1757.3038      2242.6962      1757.3038      2242.6962      1757.3038      2242.6962      1.1436122e+08  0.5            17055800       27.856547      5176.4467      10352.916      0.80245204   
  34051800   300.13627     -0.025012779   -5987050.7      3.2213307      893.75456     -5986157        485.39099      485.39099      485.39099      1757.3045      2242.6955      1757.3045      2242.6955      1757.3045      2242.6955      1.1436026e+08  0.5            17055900       27.875313      5328.8307      10657.686      0.78333648   
  34052000   299.49254      0.515477      -5987057        3.2213309      891.83765     -5986165.1      485.39098      485.39098      485.39098      1757.3045      2242.6955      1757.3045      2242.6955      1757.3045      2242.6955      1.1436026e+08  0.5            17056000       27.893919      5374.5231      10748.998      0.76421703   
  34052200   299.34865     -0.21598689    -5987062.9      3.2212961      891.40915     -5986171.5      485.39273      485.39273      485.39273      1757.3036      2242.6964      1757.3036      2242.6964      1757.3036      2242.6964      1.1436149e+08  0.5            17056100       27.912944      5256.2923      10512.612      0.74510945   
  34052400   306.7961      -1.2763351     -5987436.9      3.221263       913.58639     -5986523.3      485.39439      485.39439      485.39439      1757.3028      2242.6972      1757.3028      2242.6972      1757.3028      2242.6972      1.1436266e+08  0.5            17056200       27.931215      5473.1596      10946.306      0.72598239   
  34052600   298.62618     -2.2292173     -5987440.9      3.2212289      889.25778     -5986551.6      485.39611      485.39611      485.39611      1757.3019      2242.6981      1757.3019      2242.6981      1757.3019      2242.6981      1.1436388e+08  0.5            17056300       27.950256      5252.0181      10503.988      0.70687597   
  34052800   303.78721      3.1071377     -5987443.8      3.2213623      904.62644     -5986539.2      485.3894       485.3894       485.3894       1757.3053      2242.6947      1757.3053      2242.6947      1757.3053      2242.6947      1.1435914e+08  0.5            17056400       27.96962       5164.0249      10328.09       0.6877776    
  34053000   290.56456      4.2704023     -5987445.4      3.221395       865.25164     -5986580.1      485.38776      485.38776      485.38776      1757.3061      2242.6939      1757.3061      2242.6939      1757.3061      2242.6939      1.1435798e+08  0.5            17056500       27.987765      5511.2409      11022.506      0.66864973   
  34053200   312.32278      2.6131637     -5987814.4      3.2213681      930.04391     -5986884.4      485.38912      485.38912      485.38912      1757.3054      2242.6946      1757.3054      2242.6946      1757.3054      2242.6946      1.1435893e+08  0.5            17056600       28.006907      5224.1205      10448.23       0.64954632   
  34053400   295.64241     -2.2685522     -5987813.5      3.2212548      880.37261     -5986933.2      485.39481      485.39481      485.39481      1757.3026      2242.6974      1757.3026      2242.6974      1757.3026      2242.6974      1.1436296e+08  0.5            17056700       28.025732      5312.1682      10624.333      0.63043573   
  34053600   302.05597     -4.4710469     -5987811.3      3.2212096      899.4711      -5986911.9      485.39708      485.39708      485.39708      1757.3015      2242.6985      1757.3015      2242.6985      1757.3015      2242.6985      1.1436456e+08  0.5            17056800       28.044398      5357.2139      10714.399      0.61132208   
  34053800   296.34728      0.86473739    -5987808.1      3.2213542      882.47158     -5986925.6      485.38981      485.38981      485.38981      1757.3051      2242.6949      1757.3051      2242.6949      1757.3051      2242.6949      1.1435943e+08  0.5            17056900       28.063493      5236.9349      10473.927      0.59221808   
  34054000   300.099        5.1421133     -5987803.4      3.2214627      893.64357     -5986909.8      485.38437      485.38437      485.38437      1757.3078      2242.6922      1757.3078      2242.6922      1757.3078      2242.6922      1.1435558e+08  0.5            17057000       28.082071      5382.9069      10765.752      0.57310353   
  34054200   300.87481      3.2727948     -5987797.5      3.2214036      895.95382     -5986901.6      485.38733      485.38733      485.38733      1757.3063      2242.6937      1757.3063      2242.6937      1757.3063      2242.6937      1.1435767e+08  0.5            17057100       28.101386      5177.3606      10354.769      0.55400424   
  34054400   298.70254     -7.31513       -5987790.4      3.2211108      889.48515     -5986900.9      485.40204      485.40204      485.40204      1757.299       2242.701       1757.299       2242.701       1757.299       2242.701       1.1436807e+08  0.5            17057200       28.119922      5394.75        10789.427      0.53488986   
  34054600   313.85312      4.0600985     -5987783.1      3.2213997      934.60099     -5986848.5      485.38753      485.38753      485.38753      1757.3062      2242.6938      1757.3062      2242.6938      1757.3062      2242.6938      1.1435781e+08  0.5            17057300       28.138621      5347.8324      10695.699      0.51577925   
  34054800   292.97765     -4.8200267     -5987775.7      3.2211505      872.43741     -5986903.3      485.40004      485.40004      485.40004      1757.3         2242.7         1757.3         2242.7         1757.3         2242.7         1.1436666e+08  0.5            17057400       28.157797      5214.9272      10429.87       0.4966776    
  34055000   310.97345      11.121114     -5987768.7      3.2215687      926.02582     -5986842.7      485.37904      485.37904      485.37904      1757.3105      2242.6895      1757.3105      2242.6895      1757.3105      2242.6895      1.1435181e+08  0.5            17057500       28.176574      5325.6848      10651.391      0.47756908   
  34055200   283.71905      9.8344635     -5988132.1      3.2215299      844.86688     -5987287.2      485.38099      485.38099      485.38099      1757.3095      2242.6905      1757.3095      2242.6905      1757.3095      2242.6905      1.1435319e+08  0.5            17057600       28.195656      5240.3914      10480.74       0.45846599   
  34055400   303.34658      12.000803     -5988128.5      3.2215722      903.31431     -5987225.1      485.37886      485.37886      485.37886      1757.3106      2242.6894      1757.3106      2242.6894      1757.3106      2242.6894      1.1435169e+08  0.5            17057700       28.214327      5356.0757      10712.156      0.43935651   
  34055600   294.42434      8.6509185     -5988127.1      3.2214641      876.74542     -5987250.3      485.38429      485.38429      485.38429      1757.3079      2242.6921      1757.3079      2242.6921      1757.3079      2242.6921      1.1435553e+08  0.5            17057800       28.233235      5288.567       10577.109      0.42025117   
  34055800   299.29848     -1.9543752     -5988127.4      3.2211601      891.25976     -5987236.1      485.39956      485.39956      485.39956      1757.3002      2242.6998      1757.3002      2242.6998      1757.3002      2242.6998      1.1436632e+08  0.5            17057900       28.252509      5188.416       10376.857      0.40115128   
  34056000   300.07915     -10.369927     -5988127.7      3.2209229      893.58447     -5987234.1      485.41148      485.41148      485.41148      1757.2943      2242.7057      1757.2943      2242.7057      1757.2943      2242.7057      1.1437474e+08  0.5            17058000       28.271692      5213.0957      10426.213      0.38204992   
  34056200   299.66483      7.2624345     -5988129.9      3.2214013      892.35068     -5987237.6      485.38745      485.38745      485.38745      1757.3063      2242.6937      1757.3063      2242.6937      1757.3063      2242.6937      1.1435775e+08  0.5            17058100       28.290582      5293.665       10587.327      0.3629447    
  34056400   308.48999     -1.1506347     -5988132.7      3.2211927      918.63051     -5987214.1      485.39793      485.39793      485.39793      1757.301       2242.699       1757.301       2242.699       1757.301       2242.699       1.1436516e+08  0.5            17058200       28.309396      5315.1538      10630.323      0.34383885   
  34056600   296.75803      8.3265036     -5988134.6      3.2214779      883.69474     -5987251        485.3836       485.3836       485.3836       1757.3082      2242.6918      1757.3082      2242.6918      1757.3082      2242.6918      1.1435504e+08  0.5            17058300       28.328243      5306.0754      10612.154      0.32473376   
  34056800   308.81383     -5.0537084     -5988874.9      3.2211838      919.59486     -5987955.3      485.39837      485.39837      485.39837      1757.3008      2242.6992      1757.3008      2242.6992      1757.3008      2242.6992      1.1436548e+08  0.5            17058400       28.346633      5437.7024      10875.396      0.30562409   
  34057000   291.06319      1.8972608     -5988877.5      3.2214092      866.73649     -5988010.8      485.38705      485.38705      485.38705      1757.3065      2242.6935      1757.3065      2242.6935      1757.3065      2242.6935      1.1435747e+08  0.5            17058500       28.365648      5258.9629      10517.936      0.28652172   
  34057200   303.79919      10.485223     -5988878.5      3.2216687      904.6621      -5987973.8      485.37402      485.37402      485.37402      1757.313       2242.687       1757.313       2242.687       1757.313       2242.687       1.1434826e+08  0.5            17058600       28.384866      5203.4443      10406.859      0.26742137   
  34057400   300.42723      12.522182     -5988878.8      3.2217518      894.621       -5987984.2      485.36984      485.36984      485.36984      1757.3151      2242.6849      1757.3151      2242.6849      1757.3151      2242.6849      1.1434531e+08  0.5            17058700       28.403939      5243.133       10486.267      0.24831959   
  34057600   299.51518      6.4508107     -5988878.7      3.2216198      891.90507     -5987986.8      485.37647      485.37647      485.37647      1757.3118      2242.6882      1757.3118      2242.6882      1757.3118      2242.6882      1.1435e+08     0.5            17058800       28.422698      5330.6802      10661.381      0.22921532   
  34057800   310.06452     -0.84835479    -5988508.7      3.2214408      923.3192      -5987585.4      485.38546      485.38546      485.38546      1757.3073      2242.6927      1757.3073      2242.6927      1757.3073      2242.6927      1.1435635e+08  0.5            17058900       28.441403      5346.0778      10692.158      0.21011112   
  34058000   291.10034     -8.564591      -5988505.5      3.2212505      866.8471      -5987638.7      485.39502      485.39502      485.39502      1757.3025      2242.6975      1757.3025      2242.6975      1757.3025      2242.6975      1.1436311e+08  0.5            17059000       28.460305      5290.4443      10580.882      0.19100877   
  34058200   308.39345     -3.5655186     -5988503.5      3.2213746      918.34302     -5987585.1      485.38879      485.38879      485.38879      1757.3056      2242.6944      1757.3056      2242.6944      1757.3056      2242.6944      1.143587e+08   0.5            17059100       28.479231      5283.8366      10567.677      0.17190684   
  34058400   300.10134     -2.4318394     -5988132.6      3.2213817      893.65054     -5987239        485.38843      485.38843      485.38843      1757.3058      2242.6942      1757.3058      2242.6942      1757.3058      2242.6942      1.1435845e+08  0.5            17059200       28.498423      5210.5685      10421.106      0.15280657   
  34058600   299.93185     -5.6598315     -5987762        3.2212728      893.14582     -5986868.9      485.3939       485.3939       485.3939       1757.303       2242.697       1757.303       2242.697       1757.303       2242.697       1.1436232e+08  0.5            17059300       28.517129      5345.6814      10691.396      0.1337039    
  34058800   310.31023     -3.1539691     -5987760.3      3.2213223      924.05088     -5986836.2      485.39141      485.39141      485.39141      1757.3043      2242.6957      1757.3043      2242.6957      1757.3043      2242.6957      1.1436056e+08  0.5            17059400       28.535753      5369.3593      10738.727      0.11460143   
  34059000   289.10617     -1.3341675     -5987758.2      3.221354       860.90881     -5986897.3      485.38982      485.38982      485.38982      1757.3051      2242.6949      1757.3051      2242.6949      1757.3051      2242.6949      1.1435943e+08  0.5            17059500       28.55512       5163.5031      10327.011      0.095502081  
  34059200   308.35781     -1.695133      -5987756.3      3.2213221      918.2369      -5986838.1      485.39143      485.39143      485.39143      1757.3043      2242.6957      1757.3043      2242.6957      1757.3043      2242.6957      1.1436057e+08  0.5            17059600       28.573914      5320.9994      10641.976      0.076400844  
  34059400   298.1382      -3.1067352     -5987754.7      3.2212576      887.80466     -5986866.9      485.39466      485.39466      485.39466      1757.3027      2242.6973      1757.3027      2242.6973      1757.3027      2242.6973      1.1436286e+08  0.5            17059700       28.592758      5306.5588      10613.129      0.057300121  
  34059600   305.98921     -1.4880181     -5987753.9      3.2212698      911.18363     -5986842.7      485.39405      485.39405      485.39405      1757.303       2242.697       1757.303       2242.697       1757.303       2242.697       1.1436242e+08  0.5            17059800       28.611438      5353.5165      10707.024      0.038199519  
  34059800   299.59571      4.3975613     -5987753.6      3.2213981      892.14485     -5986861.4      485.38761      485.38761      485.38761      1757.3062      2242.6938      1757.3062      2242.6938      1757.3062      2242.6938      1.1435787e+08  0.5            17059900       28.629781      5451.5752      10903.157      0.019099255  
  34060000   299.83859     -0.48098389    -5987386.2      3.2212384      892.86813     -5986493.3      485.39563      485.39563      485.39563      1757.3022      2242.6978      1757.3022      2242.6978      1757.3022      2242.6978      1.1436354e+08  0.5            17060000       28.648984      5207.4516      10414.908      0            
Loop time of 28.649 on 4 procs for 300000 steps with 1000 atoms

Performance: 452.372 ns/day, 0.053 hours/ns, 10471.567 timesteps/s
99.8% CPU use with 4 MPI tasks x 1 OpenMP threads

MPI task timing breakdown:
Section |  min time  |  avg time  |  max time  |%varavg| %total
---------------------------------------------------------------
Pair    | 12.822     | 13.039     | 13.313     |   5.8 | 45.51
Neigh   | 0.012379   | 0.01254    | 0.012696   |   0.1 |  0.04
Comm    | 9.6214     | 9.8753     | 10.081     |   6.2 | 34.47
Output  | 0.046001   | 0.052444   | 0.071245   |   4.7 |  0.18
Modify  | 4.592      | 4.6148     | 4.6334     |   0.8 | 16.11
Other   |            | 1.055      |            |       |  3.68

Nlocal:            250 ave         253 max         248 min
Histogram: 1 0 1 0 1 0 0 0 0 1
Nghost:        1193.75 ave        1199 max        1191 min
Histogram: 2 0 0 1 0 0 0 0 0 1
Neighs:        1963.75 ave        2075 max        1862 min
Histogram: 2 0 0 0 0 0 0 0 0 2

Total # of neighbors = 7855
Ave neighs/atom = 7.855
Neighbor list builds = 51
Dangerous builds = 0

# run_style
run_style verlet

# write restart
write_restart ${write_res}
write_restart ./pgnpmf/1000/equpmf34.res
System init for write_restart ...
Generated 0 of 1 mixed pair_coeff terms from geometric mixing rule

Total wall time: 0:01:27
