LAMMPS (23 Jun 2022 - Update 1)
OMP_NUM_THREADS environment is not set. Defaulting to 1 thread. (src/comm.cpp:98)
  using 1 OpenMP thread(s) per MPI task
# Read restart
read_restart ${read_res}
read_restart ./pgnpmf/1000/genpmf.res
Reading restart file ...
  restart file = 23 Jun 2022, LAMMPS = 23 Jun 2022
WARNING: Restart file used different # of processors: 1 vs. 4 (src/read_restart.cpp:654)
  restoring atom style atomic from restart
  orthogonal box = (-100 -100 -100) to (4100 4100 4100)
  1 by 2 by 2 MPI processor grid
  restoring pair style table from restart
  1000 atoms
  read_restart CPU = 0.006 seconds

# Settings

pair_style table spline 9941

pair_coeff 1 1 ./pgnpmf/N20.txt DE_GNP 75.6
pair_coeff 2 2 ./pgnpmf/N100.txt DE_GNP 115.92
WARNING: 3 of 9941 force values in table DE_GNP are inconsistent with -dE/dr.
WARNING:  Should only be flagged at inflection points (src/pair_table.cpp:463)
pair_coeff 1 2 ./pgnpmf/mixed_potential.txt DE_GNP 95.66
WARNING: 1562 of 9941 force values in table DE_GNP are inconsistent with -dE/dr.
WARNING:  Should only be flagged at inflection points (src/pair_table.cpp:463)

#Neigh_list Calc Frequency

neigh_modify delay 0 every 1 check yes

# Saving Frequency (50 frames)

variable ts_save equal ${steps_equ}
variable ts_save equal 5000

# Dump
#dump 1 all custom ${ts_save} ./pgnpmf/${folder}/equilibration/trajectory/trajectory_${usic}_${trial}.equ.custom type x y z ix iy iz
#dump_modify 1 first no sort id
dump 2 all cfg 50000 ./pgnpmf/${folder}/equilibration/trajectory/dumpgen.tens_*.cfg mass type xs ys zs fx fy fz
dump 2 all cfg 50000 ./pgnpmf/1000/equilibration/trajectory/dumpgen.tens_*.cfg mass type xs ys zs fx fy fz
dump_modify 2 element N20 N100

# thermo_style
thermo_style custom step temp press pe density ke etotal lx ly lz xlo xhi ylo yhi zlo zhi vol dt time cpu tpcpu spcpu cpuremain

# run info
timestep ${ts}
timestep 0.5
thermo 200

# fix

fix 1 all momentum 1000 linear 1 1 1 angular
variable T equal ${temp}
variable T equal 300
fix 2 all nvt temp ${T} 370000 100.0
fix 2 all nvt temp 300 370000 100.0

run 100000
Generated 0 of 1 mixed pair_coeff terms from geometric mixing rule
Unused restart file global fix info:
  fix style: nvt, fix ID: 5
Neighbor list info ...
  update every 1 steps, delay 0 steps, check yes
  max neighbors/atom: 2000, page size: 100000
  master list distance cutoff = 117.92
  ghost atom cutoff = 117.92
  binsize = 58.96, bins = 72 72 72
  1 neighbor lists, perpetual/occasional/extra = 1 0 0
  (1) pair table, perpetual
      attributes: half, newton on
      pair build: half/bin/atomonly/newton
      stencil: half/bin/3d
      bin: standard
Per MPI rank memory allocation (min/avg/max) = 3.575 | 3.577 | 3.581 Mbytes
   Step          Temp          Press          PotEng        Density         KinEng         TotEng           Lx             Ly             Lz            Xlo            Xhi            Ylo            Yhi            Zlo            Zhi           Volume           Dt            Time           CPU           T/CPU          S/CPU         CPULeft    
     60000   70413.263      0.12569246    -119383.1       0.0049723602   209678.67      90295.571      4200           4200           4200          -100            4100          -100            4100          -100            4100           7.4088e+10     0.5            60000          0              0              0              0            
     60200   2925.6942      0.001845132   -118881.54      0.0049723602   8712.2178     -110169.33      4200           4200           4200          -100            4100          -100            4100          -100            4100           7.4088e+10     0.5            60100          0.009387307    10651.843      21301.076      4.6857183    
     60400   1037.2135     -0.002731829   -119031.98      0.0049723602   3088.6445     -115943.33      4200           4200           4200          -100            4100          -100            4100          -100            4100           7.4088e+10     0.5            60200          0.018811229    10611.436      21223.217      4.6846327    
     60600   1109.1956     -0.0045953626  -119231.98      0.0049723602   3302.9951     -115928.99      4200           4200           4200          -100            4100          -100            4100          -100            4100           7.4088e+10     0.5            60300          0.027955169    10936.145      21872.319      4.6316845    
     60800   2614.9769     -0.0053477125  -119582.77      0.0049723602   7786.9548     -111795.81      4200           4200           4200          -100            4100          -100            4100          -100            4100           7.4088e+10     0.5            60400          0.037152103    10873.275      21746.692      4.6071621    
     61000   5210.6676     -0.0064551873  -120157.5       0.0049723602   15516.478     -104641.02      4200           4200           4200          -100            4100          -100            4100          -100            4100           7.4088e+10     0.5            60500          0.046340186    10883.542      21767.037      4.5879317    
     61200   5620.3174     -0.012898429   -120836.61      0.0049723602   16736.346     -104100.26      4200           4200           4200          -100            4100          -100            4100          -100            4100           7.4088e+10     0.5            60600          0.05557927     10823.76       21647.397      4.5762287    
     61400   4422.8054     -0.022818236   -121433.14      0.0049723602   13170.359     -108262.78      4200           4200           4200          -100            4100          -100            4100          -100            4100           7.4088e+10     0.5            60700          0.064679705    10988.468      21977.119      4.5554702    
     61600   4852.9743     -0.030048933   -122331.1       0.0049723602   14451.329     -107879.77      4200           4200           4200          -100            4100          -100            4100          -100            4100           7.4088e+10     0.5            60800          0.073893746    10853.023      21706.041      4.5446114    
     61800   7470.6161     -0.032607048   -122886.17      0.0049723602   22246.219     -100639.95      4200           4200           4200          -100            4100          -100            4100          -100            4100           7.4088e+10     0.5            60900          0.083624897    10276.036      20551.833      4.5623521    
     62000   9496.7462     -0.037375531   -123453.8       0.0049723602   28279.688     -95174.109      4200           4200           4200          -100            4100          -100            4100          -100            4100           7.4088e+10     0.5            61000          0.09288393     10800.388      21601.139      4.5514316    
     62200   8163.0378     -0.048258057   -123921.57      0.0049723602   24308.133     -99613.433      4200           4200           4200          -100            4100          -100            4100          -100            4100           7.4088e+10     0.5            61100          0.10197703     10997.347      21994.469      4.5334579    
     62400   7358.5408     -0.055720027   -124266.47      0.0049723602   21912.478     -102353.99      4200           4200           4200          -100            4100          -100            4100          -100            4100           7.4088e+10     0.5            61200          0.11118195     10863.811      21727.806      4.5214981    
     62600   9287.9833     -0.059012406   -124544.32      0.0049723602   27658.028     -96886.291      4200           4200           4200          -100            4100          -100            4100          -100            4100           7.4088e+10     0.5            61300          0.12031755     10946.16       21892.207      4.5073738    
     62800   12565.374     -0.060110332   -124791.92      0.0049723602   37417.537     -87374.381      4200           4200           4200          -100            4100          -100            4100          -100            4100           7.4088e+10     0.5            61400          0.13000421     10323.463      20646.79       4.5130965    
     63000   12460.494     -0.064157127   -124970.75      0.0049723602   37105.225     -87865.524      4200           4200           4200          -100            4100          -100            4100          -100            4100           7.4088e+10     0.5            61500          0.13962436     10394.936      20789.891      4.5146017    
     63200   10516.09      -0.070287355   -125077.19      0.0049723602   31315.121     -93762.072      4200           4200           4200          -100            4100          -100            4100          -100            4100           7.4088e+10     0.5            61600          0.14864306     11088.116      22176.359      4.4965271    
     63400   11132.165     -0.071698653   -125130.81      0.0049723602   33149.685     -91981.129      4200           4200           4200          -100            4100          -100            4100          -100            4100           7.4088e+10     0.5            61700          0.15841544     10232.821      20465.46       4.5009365    
     63600   14661.567     -0.070035173   -125157.54      0.0049723602   43659.643     -81497.896      4200           4200           4200          -100            4100          -100            4100          -100            4100           7.4088e+10     0.5            61800          0.16761013     10875.916      21752.033      4.4882932    
     63800   16640.098     -0.067787229   -125168.83      0.0049723602   49551.37      -75617.456      4200           4200           4200          -100            4100          -100            4100          -100            4100           7.4088e+10     0.5            61900          0.1767431      10949.304      21898.727      4.4744525    
     64000   14485.11      -0.073337045   -125155.23      0.0049723602   43134.184     -82021.042      4200           4200           4200          -100            4100          -100            4100          -100            4100           7.4088e+10     0.5            62000          0.18585465     10975.117      21950.234      4.4605688    
     64200   13451.617     -0.078508003   -125135.88      0.0049723602   40056.62      -85079.259      4200           4200           4200          -100            4100          -100            4100          -100            4100           7.4088e+10     0.5            62100          0.1953663      10513.382      21026.773      4.4562669    
     64400   16148.398     -0.074570118   -125113.33      0.0049723602   48087.172     -77026.154      4200           4200           4200          -100            4100          -100            4100          -100            4100           7.4088e+10     0.5            62200          0.2044402      11020.628      22041.331      4.4419783    
     64600   19902.044     -0.068705625   -125095.7       0.0049723602   59264.888     -65830.816      4200           4200           4200          -100            4100          -100            4100          -100            4100           7.4088e+10     0.5            62300          0.21363383     10877.178      21754.221      4.4306293    
     64800   19065.116     -0.069585421   -125076.12      0.0049723602   56772.661     -68303.454      4200           4200           4200          -100            4100          -100            4100          -100            4100           7.4088e+10     0.5            62400          0.22311526     10546.936      21093.675      4.4251676    
     65000   16573.307     -0.074927645   -125057.72      0.0049723602   49352.478     -75705.244      4200           4200           4200          -100            4100          -100            4100          -100            4100           7.4088e+10     0.5            62500          0.23220167     11005.37       22010.818      4.4118778    
     65200   17630.55      -0.073837671   -125056.06      0.0049723602   52500.768     -72555.295      4200           4200           4200          -100            4100          -100            4100          -100            4100           7.4088e+10     0.5            62600          0.24123118     11074.851      22149.984      4.3978721    
     65400   21965.476     -0.06429592    -125063.76      0.0049723602   65409.436     -59654.324      4200           4200           4200          -100            4100          -100            4100          -100            4100           7.4088e+10     0.5            62700          0.25088199     10361.819      20723.413      4.3951238    
     65600   23576.204     -0.058479576   -125085.14      0.0049723602   70205.91      -54879.226      4200           4200           4200          -100            4100          -100            4100          -100            4100           7.4088e+10     0.5            62800          0.26008014     10871.658      21743.399      4.38425      
     65800   20637.738     -0.060950255   -125104.14      0.0049723602   61455.66      -63648.478      4200           4200           4200          -100            4100          -100            4100          -100            4100           7.4088e+10     0.5            62900          0.2692616      10891.548      21783.111      4.3732191    
     66000   19661.904     -0.062513496   -125126.55      0.0049723602   58549.793     -66576.757      4200           4200           4200          -100            4100          -100            4100          -100            4100           7.4088e+10     0.5            63000          0.27882017     10461.823      20923.428      4.3682227    
     66200   23201.084     -0.053756846   -125162.15      0.0049723602   69088.866     -56073.28       4200           4200           4200          -100            4100          -100            4100          -100            4100           7.4088e+10     0.5            63100          0.28787717     11041.213      22082.713      4.3553394    
     66400   27136.592     -0.04293926    -124833.69      0.0049723602   80808.138     -44025.548      4200           4200           4200          -100            4100          -100            4100          -100            4100           7.4088e+10     0.5            63200          0.29749544     10396.871      20793.475      4.3509084    
     66600   25443.946     -0.047042298   -124868.91      0.0049723602   75767.727     -49101.184      4200           4200           4200          -100            4100          -100            4100          -100            4100           7.4088e+10     0.5            63300          0.30660336     10979.476      21959.033      4.3389374    
     66800   22635.651     -0.048047525   -125274.84      0.0049723602   67405.103     -57869.739      4200           4200           4200          -100            4100          -100            4100          -100            4100           7.4088e+10     0.5            63400          0.31572462     10963.416      21926.983      4.3273173    
     67000   24320.455     -0.041456104   -125301.29      0.0049723602   72422.163     -52879.123      4200           4200           4200          -100            4100          -100            4100          -100            4100           7.4088e+10     0.5            63500          0.32522732     10523.308      21046.572      4.3209092    
     67200   29301.489     -0.027622223   -125315.04      0.0049723602   87254.831     -38060.212      4200           4200           4200          -100            4100          -100            4100          -100            4100           7.4088e+10     0.5            63600          0.334344       10968.819      21937.57       4.3093557    
     67400   30300.468     -0.021581821   -125312.53      0.0049723602   90229.619     -35082.907      4200           4200           4200          -100            4100          -100            4100          -100            4100           7.4088e+10     0.5            63700          0.34334615     11108.536      22217.258      4.296497     
     67600   26701.006     -0.021612037   -125297.11      0.0049723602   79511.037     -45786.076      4200           4200           4200          -100            4100          -100            4100          -100            4100           7.4088e+10     0.5            63800          0.35288266     10486.025      20971.89       4.290341     
     67800   26012.443     -0.021911256   -125264.55      0.0049723602   77460.615     -47803.934      4200           4200           4200          -100            4100          -100            4100          -100            4100           7.4088e+10     0.5            63900          0.36196364     11012.072      22024.334      4.2786239    
     68000   30395.26      -0.010098652   -125212.51      0.0049723602   90511.893     -34700.616      4200           4200           4200          -100            4100          -100            4100          -100            4100           7.4088e+10     0.5            64000          0.37149632     10490.205      20980.305      4.2722348    
     68200   34239.879      0.0021582733  -125135.9       0.0049723602   101960.51     -23175.392      4200           4200           4200          -100            4100          -100            4100          -100            4100           7.4088e+10     0.5            64100          0.38071488     10847.641      21695.242      4.2621769    
     68400   31665.834      0.0021239216  -125400.55      0.0049723602   94295.446     -31105.108      4200           4200           4200          -100            4100          -100            4100          -100            4100           7.4088e+10     0.5            64200          0.39035383     10374.561      20749.051      4.2567435    
     68600   28741.568      0.0031475851  -125274.84      0.0049723602   85587.482     -39687.355      4200           4200           4200          -100            4100          -100            4100          -100            4100           7.4088e+10     0.5            64300          0.39948984     10945.693      21891.323      4.2457682    
     68800   31191.689      0.01169158    -125133.24      0.0049723602   92883.524     -32249.72       4200           4200           4200          -100            4100          -100            4100          -100            4100           7.4088e+10     0.5            64400          0.4086897      10869.745      21739.742      4.2355366    
     69000   36648.827      0.028876492   -124953.51      0.0049723602   109133.95     -15819.56       4200           4200           4200          -100            4100          -100            4100          -100            4100           7.4088e+10     0.5            64500          0.41842344     10273.574      20547.036      4.2307508    
     69200   36857.488      0.032988874   -124396.28      0.0049723602   109755.31     -14640.97       4200           4200           4200          -100            4100          -100            4100          -100            4100           7.4088e+10     0.5            64600          0.42757288     10929.683      21859.457      4.2199818    
     69400   32714.329      0.035922738   -124200.23      0.0049723602   97417.685     -26782.542      4200           4200           4200          -100            4100          -100            4100          -100            4100           7.4088e+10     0.5            64700          0.43718093     10407.806      20815.51       4.2137045    
     69600   32501.49       0.03638839    -124000.01      0.0049723602   96783.887     -27216.125      4200           4200           4200          -100            4100          -100            4100          -100            4100           7.4088e+10     0.5            64800          0.44627307     10998.547      21997.152      4.202428     
     69800   37717.32       0.053118315   -123801.86      0.0049723602   112315.74     -11486.117      4200           4200           4200          -100            4100          -100            4100          -100            4100           7.4088e+10     0.5            64900          0.45578229     10516.121      21032.286      4.19508      
     70000   41229.888      0.06690341    -123589.49      0.0049723602   122775.57     -813.92045      4200           4200           4200          -100            4100          -100            4100          -100            4100           7.4088e+10     0.5            65000          0.46496828     10886.222      21772.523      4.1847363    
     70200   37766.477      0.068137372   -123762.74      0.0049723602   112462.12     -11300.619      4200           4200           4200          -100            4100          -100            4100          -100            4100           7.4088e+10     0.5            65100          0.47475342     10219.554      20439.005      4.1797134    
     70400   34920.103      0.068197235   -123592.76      0.0049723602   103986.1      -19606.659      4200           4200           4200          -100            4100          -100            4100          -100            4100           7.4088e+10     0.5            65200          0.48391956     10909.749      21819.597      4.169174     
     70600   38247.035      0.074910546   -124200.9       0.0049723602   113893.14     -10307.765      4200           4200           4200          -100            4100          -100            4100          -100            4100           7.4088e+10     0.5            65300          0.49309245     10901.615      21803.341      4.1587427    
     70800   43992.474      0.094748871   -124483.47      0.0049723602   131002.07      6518.6068      4200           4200           4200          -100            4100          -100            4100          -100            4100           7.4088e+10     0.5            65400          0.5026543      10458.216      20916.015      4.1515735    
     71000   43239.048      0.096170482   -124068.36      0.0049723602   128758.5       4690.1474      4200           4200           4200          -100            4100          -100            4100          -100            4100           7.4088e+10     0.5            65500          0.51179224     10943.433      21887.185      4.140884     
     71200   38705.938      0.094096765   -124075.51      0.0049723602   115259.68     -8815.8317      4200           4200           4200          -100            4100          -100            4100          -100            4100           7.4088e+10     0.5            65600          0.52142006     10386.483      20772.733      4.1341371    
     71400   39175.62       0.091851683   -124156.18      0.0049723602   116658.31     -7497.8727      4200           4200           4200          -100            4100          -100            4100          -100            4100           7.4088e+10     0.5            65700          0.53046848     11051.745      22103.705      4.1227824    
     71600   45146.636      0.10748294    -124296.22      0.0049723602   134438.97      10142.754      4200           4200           4200          -100            4100          -100            4100          -100            4100           7.4088e+10     0.5            65800          0.54005878     10427.172      20854.29       4.1156398    
     71800   48048.56       0.11501208    -124507.11      0.0049723602   143080.41      18573.298      4200           4200           4200          -100            4100          -100            4100          -100            4100           7.4088e+10     0.5            65900          0.54910238     11057.492      22114.911      4.1043261    
     72000   43744.231      0.10921948    -124767.14      0.0049723602   130262.85      5495.7074      4200           4200           4200          -100            4100          -100            4100          -100            4100           7.4088e+10     0.5            66000          0.55865504     10468.345      20936.581      4.0968227    
     72200   41211.693      0.10529885    -125073.31      0.0049723602   122721.38     -2351.9281      4200           4200           4200          -100            4100          -100            4100          -100            4100           7.4088e+10     0.5            66100          0.56780351     10930.75       21861.773      4.0863415    
     72400   45475.262      0.11380217    -125440.74      0.0049723602   135417.57      9976.8218      4200           4200           4200          -100            4100          -100            4100          -100            4100           7.4088e+10     0.5            66200          0.57760126     10206.472      20412.789      4.0804911    
     72600   51225.521      0.12546907    -125496.52      0.0049723602   152540.85      27044.333      4200           4200           4200          -100            4100          -100            4100          -100            4100           7.4088e+10     0.5            66300          0.58626092     11548.019      23096.737      4.0666161    
     72800   49421.26       0.11958717    -125969.15      0.0049723602   147168.07      21198.924      4200           4200           4200          -100            4100          -100            4100          -100            4100           7.4088e+10     0.5            66400          0.59360019     13625.242      27250.455      4.0439144    
     73000   44714.338      0.10981464    -126423.61      0.0049723602   133151.66      6728.0532      4200           4200           4200          -100            4100          -100            4100          -100            4100           7.4088e+10     0.5            66500          0.60124502     13080.741      26161.526      4.0237295    
     73200   46015.217      0.10865311    -126895.6       0.0049723602   137025.46      10129.859      4200           4200           4200          -100            4100          -100            4100          -100            4100           7.4088e+10     0.5            66600          0.60892129     13027.22       26054.48       4.0041306    
     73400   52581.178      0.1198807     -127375.36      0.0049723602   156577.77      29202.405      4200           4200           4200          -100            4100          -100            4100          -100            4100           7.4088e+10     0.5            66700          0.6170725      12268.06       24536.138      3.9879584    
     73600   54645.418      0.12131621    -128236.02      0.0049723602   162724.72      34488.705      4200           4200           4200          -100            4100          -100            4100          -100            4100           7.4088e+10     0.5            66800          0.62508657     12478.107      24956.354      3.9711495    
     73800   49646.144      0.10931509    -128689.41      0.0049723602   147837.74      19148.325      4200           4200           4200          -100            4100          -100            4100          -100            4100           7.4088e+10     0.5            66900          0.63255815     13383.971      26767.588      3.951209     
     74000   47621.061      0.10364538    -129450.41      0.0049723602   141807.39      12356.976      4200           4200           4200          -100            4100          -100            4100          -100            4100           7.4088e+10     0.5            67000          0.63981629     13777.786      27556.002      3.9303107    
     74200   52811.156      0.11196384    -129825.38      0.0049723602   157262.6       27437.22       4200           4200           4200          -100            4100          -100            4100          -100            4100           7.4088e+10     0.5            67100          0.64784182     12460.199      24920.115      3.9144356    
     74400   58321.001      0.11968569    -130169.39      0.0049723602   173669.98      43500.588      4200           4200           4200          -100            4100          -100            4100          -100            4100           7.4088e+10     0.5            67200          0.65561734     12860.795      25721.656      3.8972923    
     74600   55456.094      0.11471995    -130454.61      0.0049723602   165138.78      34684.167      4200           4200           4200          -100            4100          -100            4100          -100            4100           7.4088e+10     0.5            67300          0.66294433     13648.21       27296.462      3.8777812    
     74800   50778.048      0.10563896    -130316.53      0.0049723602   151208.36      20891.829      4200           4200           4200          -100            4100          -100            4100          -100            4100           7.4088e+10     0.5            67400          0.67010889     13957.652      27915.323      3.8576643    
     75000   53014.265      0.10624968    -130875.43      0.0049723602   157867.43      26991.998      4200           4200           4200          -100            4100          -100            4100          -100            4100           7.4088e+10     0.5            67500          0.67789118     12849.692      25699.347      3.8413937    
     75200   60021.901      0.12122881    -131037.65      0.0049723602   178734.97      47697.32       4200           4200           4200          -100            4100          -100            4100          -100            4100           7.4088e+10     0.5            67600          0.68585632     12554.592      25108.863      3.826368     
     75400   61090.808      0.12442506    -131160.18      0.0049723602   181917.99      50757.813      4200           4200           4200          -100            4100          -100            4100          -100            4100           7.4088e+10     0.5            67700          0.69361478     12889.154      25778.631      3.810388     
     75600   55524.732      0.11523914    -130871.23      0.0049723602   165343.17      34471.938      4200           4200           4200          -100            4100          -100            4100          -100            4100           7.4088e+10     0.5            67800          0.70115502     13262.242      26524.481      3.7934383    
     75800   54178.102      0.11322111    -130929.92      0.0049723602   161333.14      30403.214      4200           4200           4200          -100            4100          -100            4100          -100            4100           7.4088e+10     0.5            67900          0.70838507     13831.226      27662.579      3.7750743    
     76000   60272.978      0.12263204    -131350.13      0.0049723602   179482.64      48132.503      4200           4200           4200          -100            4100          -100            4100          -100            4100           7.4088e+10     0.5            68000          0.71576283     13554.226      27108.301      3.7577647    
     76200   65315.878      0.13466563    -131391.21      0.0049723602   194499.53      63108.324      4200           4200           4200          -100            4100          -100            4100          -100            4100           7.4088e+10     0.5            68100          0.72281729     14175.514      28351.056      3.7390274    
     76400   61399.998      0.1288273     -131053.29      0.0049723602   182838.71      51785.424      4200           4200           4200          -100            4100          -100            4100          -100            4100           7.4088e+10     0.5            68200          0.73101281     12201.741      24403.544      3.7263915    
     76600   56919.934      0.12113225    -131089.24      0.0049723602   169497.85      38408.607      4200           4200           4200          -100            4100          -100            4100          -100            4100           7.4088e+10     0.5            68300          0.7392461      12145.782      24291.502      3.7140529    
     76800   60184.002      0.1292181     -131136.55      0.0049723602   179217.68      48081.134      4200           4200           4200          -100            4100          -100            4100          -100            4100           7.4088e+10     0.5            68400          0.7463035      14169.502      28339.125      3.6959886    
     77000   67450.348      0.14335787    -131199.22      0.0049723602   200855.62      69656.396      4200           4200           4200          -100            4100          -100            4100          -100            4100           7.4088e+10     0.5            68500          0.75369045     13537.378      27074.719      3.6797918    
     77200   67381.03       0.14454052    -131267.31      0.0049723602   200649.2       69381.895      4200           4200           4200          -100            4100          -100            4100          -100            4100           7.4088e+10     0.5            68600          0.76087785     13913.374      27826.761      3.6628389    
     77400   61392.293      0.13228062    -131327.89      0.0049723602   182815.76      51487.875      4200           4200           4200          -100            4100          -100            4100          -100            4100           7.4088e+10     0.5            68700          0.76902438     12275.108      24550.104      3.6506645    
     77600   60880.202      0.13690316    -131394.64      0.0049723602   181290.84      49896.2        4200           4200           4200          -100            4100          -100            4100          -100            4100           7.4088e+10     0.5            68800          0.7771611      12289.94       24579.76       3.6385359    
     77800   67809.512      0.15204159    -131097.05      0.0049723602   201925.15      70828.097      4200           4200           4200          -100            4100          -100            4100          -100            4100           7.4088e+10     0.5            68900          0.78433141     13946.445      27893.162      3.6220331    
     78000   72149.046      0.16283319    -131164.24      0.0049723602   214847.54      83683.297      4200           4200           4200          -100            4100          -100            4100          -100            4100           7.4088e+10     0.5            69000          0.79176608     13450.42       26900.612      3.6069433    
     78200   67237.694      0.15417083    -131210.26      0.0049723602   200222.37      69012.11       4200           4200           4200          -100            4100          -100            4100          -100            4100           7.4088e+10     0.5            69100          0.79900285     13818.335      27636.776      3.591131     
     78400   63148.251      0.15162069    -130873.09      0.0049723602   188044.71      57171.621      4200           4200           4200          -100            4100          -100            4100          -100            4100           7.4088e+10     0.5            69200          0.80680336     12819.637      25638.823      3.5780071    
     78600   67489.742      0.16195469    -130900.91      0.0049723602   200972.93      70072.013      4200           4200           4200          -100            4100          -100            4100          -100            4100           7.4088e+10     0.5            69300          0.8147751      12544.295      25088.805      3.5657451    
     78800   74790.179      0.17644789    -130906.58      0.0049723602   222712.38      91805.796      4200           4200           4200          -100            4100          -100            4100          -100            4100           7.4088e+10     0.5            69400          0.82197476     13889.672      27779.896      3.5502391    
     79000   73491.444      0.18035017    -130867.27      0.0049723602   218844.97      87977.696      4200           4200           4200          -100            4100          -100            4100          -100            4100           7.4088e+10     0.5            69500          0.82945582     13367.102      26734.044      3.536109     
     79200   67276.618      0.17042868    -130440.26      0.0049723602   200338.28      69898.019      4200           4200           4200          -100            4100          -100            4100          -100            4100           7.4088e+10     0.5            69600          0.83665817     13884.321      27768.41       3.5209448    
     79400   67741.499      0.17490421    -130361.44      0.0049723602   201722.62      71361.174      4200           4200           4200          -100            4100          -100            4100          -100            4100           7.4088e+10     0.5            69700          0.84403057     13564.087      27128.388      3.50665      
     79600   75384.601      0.19381465    -130247.86      0.0049723602   224482.47      94234.612      4200           4200           4200          -100            4100          -100            4100          -100            4100           7.4088e+10     0.5            69800          0.85192421     12668.448      25336.825      3.4946355    
     79800   78804.846      0.2029835     -130105.18      0.0049723602   234667.38      104562.2       4200           4200           4200          -100            4100          -100            4100          -100            4100           7.4088e+10     0.5            69900          0.85962961     12977.971      25956.133      3.4819414    
     80000   73007.013      0.19604166    -129925.69      0.0049723602   217402.42      87476.726      4200           4200           4200          -100            4100          -100            4100          -100            4100           7.4088e+10     0.5            70000          0.86722364     13168.169      26336.266      3.4689019    
     80200   69505.984      0.19078297    -129750.53      0.0049723602   206976.95      77226.423      4200           4200           4200          -100            4100          -100            4100          -100            4100           7.4088e+10     0.5            70100          0.87540166     12227.822      24455.594      3.4582773    
     80400   74942.975      0.20155347    -129580.29      0.0049723602   223167.38      93587.092      4200           4200           4200          -100            4100          -100            4100          -100            4100           7.4088e+10     0.5            70200          0.88270735     13688.06       27375.911      3.4442971    
     80600   82042.064      0.21956174    -129045.03      0.0049723602   244307.26      115262.23      4200           4200           4200          -100            4100          -100            4100          -100            4100           7.4088e+10     0.5            70300          0.89073913     12450.528      24901.006      3.4332448    
     80800   79474.658      0.21753789    -128894.41      0.0049723602   236661.96      107767.55      4200           4200           4200          -100            4100          -100            4100          -100            4100           7.4088e+10     0.5            70400          0.89872851     12516.633      25033.382      3.4220888    
     81000   73220.378      0.20661955    -128783.81      0.0049723602   218037.78      89253.971      4200           4200           4200          -100            4100          -100            4100          -100            4100           7.4088e+10     0.5            70500          0.9058528      14036.526      28073.375      3.4077384    
     81200   74785.649      0.2082591     -129102.66      0.0049723602   222698.89      93596.235      4200           4200           4200          -100            4100          -100            4100          -100            4100           7.4088e+10     0.5            70600          0.91348993     13093.91       26187.683      3.3954315    
     81400   83004.883      0.22525458    -129131.01      0.0049723602   247174.37      118043.36      4200           4200           4200          -100            4100          -100            4100          -100            4100           7.4088e+10     0.5            70700          0.92081372     13654.112      27307.974      3.3820614    
     81600   85295.122      0.2294355     -129579.18      0.0049723602   253994.31      124415.12      4200           4200           4200          -100            4100          -100            4100          -100            4100           7.4088e+10     0.5            70800          0.92833915     13288.358      26576.837      3.3695338    
     81800   78739.613      0.21550604    -129721.42      0.0049723602   234473.12      104751.7       4200           4200           4200          -100            4100          -100            4100          -100            4100           7.4088e+10     0.5            70900          0.93626108     12623.107      25246.328      3.3585211    
     82000   76020.897      0.21011267    -130677.76      0.0049723602   226377.25      95699.494      4200           4200           4200          -100            4100          -100            4100          -100            4100           7.4088e+10     0.5            71000          0.9436925      13456.306      26912.648      3.3458256    
     82200   82532.914      0.22345493    -131355.86      0.0049723602   245768.92      114413.07      4200           4200           4200          -100            4100          -100            4100          -100            4100           7.4088e+10     0.5            71100          0.950711       14248.097      28496.288      3.3317773    
     82400   89146.342      0.23378212    -131732.79      0.0049723602   265462.58      133729.79      4200           4200           4200          -100            4100          -100            4100          -100            4100           7.4088e+10     0.5            71200          0.95826985     13229.645      26459.079      3.3197269    
     82600   85292.604      0.22480369    -132164.71      0.0049723602   253986.81      121822.1       4200           4200           4200          -100            4100          -100            4100          -100            4100           7.4088e+10     0.5            71300          0.96616995     12657.979      25315.978      3.3089247    
     82800   79237.474      0.20763095    -132985.82      0.0049723602   235955.67      102969.85      4200           4200           4200          -100            4100          -100            4100          -100            4100           7.4088e+10     0.5            71400          0.97406627     12664.161      25328.382      3.2981603    
     83000   82001.315      0.21030068    -133837.73      0.0049723602   244185.91      110348.19      4200           4200           4200          -100            4100          -100            4100          -100            4100           7.4088e+10     0.5            71500          0.98157637     13315.374      26630.385      3.2861537    
     83200   90551.079      0.22162371    -134729.53      0.0049723602   269645.65      134916.12      4200           4200           4200          -100            4100          -100            4100          -100            4100           7.4088e+10     0.5            71600          0.98929258     12959.781      25919.78       3.2749058    
     83400   91540.852      0.21705417    -135254.65      0.0049723602   272593.03      137338.38      4200           4200           4200          -100            4100          -100            4100          -100            4100           7.4088e+10     0.5            71700          0.99627873     14314.048      28628.51       3.2613284    
     83600   84444.503      0.20319888    -136114.3       0.0049723602   251461.31      115347.01      4200           4200           4200          -100            4100          -100            4100          -100            4100           7.4088e+10     0.5            71800          1.0036742      13521.643      27042.975      3.2491887    
     83800   82691.707      0.19444794    -137315.49      0.0049723602   246241.78      108926.3       4200           4200           4200          -100            4100          -100            4100          -100            4100           7.4088e+10     0.5            71900          1.0117536      12377.236      24754.399      3.239318     
     84000   90168.507      0.20491453    -137390.78      0.0049723602   268506.42      131115.64      4200           4200           4200          -100            4100          -100            4100          -100            4100           7.4088e+10     0.5            72000          1.0194988      12911.327      25823.032      3.2284182    
     84200   96040.964      0.20933209    -137818.97      0.0049723602   285993.59      148174.62      4200           4200           4200          -100            4100          -100            4100          -100            4100           7.4088e+10     0.5            72100          1.0270147      13305.061      26609.853      3.2168534    
     84400   91001.681      0.19939914    -138196.45      0.0049723602   270987.47      132791.01      4200           4200           4200          -100            4100          -100            4100          -100            4100           7.4088e+10     0.5            72200          1.0347596      12911.678      25823.088      3.2060645    
     84600   85366.532      0.18774819    -138510.57      0.0049723602   254206.95      115696.38      4200           4200           4200          -100            4100          -100            4100          -100            4100           7.4088e+10     0.5            72300          1.0423939      13098.831      26197.968      3.1949852    
     84800   89357.399      0.1939247     -138387.9       0.0049723602   266091.07      127703.18      4200           4200           4200          -100            4100          -100            4100          -100            4100           7.4088e+10     0.5            72400          1.050105       12968.192      25936.324      3.184195     
     85000   98016.011      0.20715754    -138594.76      0.0049723602   291874.94      153280.18      4200           4200           4200          -100            4100          -100            4100          -100            4100           7.4088e+10     0.5            72500          1.0581163      12482.406      24964.955      3.1743544    
     85200   97627.084      0.20917564    -138721.23      0.0049723602   290716.79      151995.55      4200           4200           4200          -100            4100          -100            4100          -100            4100           7.4088e+10     0.5            72600          1.0656276      13313.271      26626.319      3.1630591    
     85400   90184.619      0.19648083    -138757.17      0.0049723602   268554.39      129797.22      4200           4200           4200          -100            4100          -100            4100          -100            4100           7.4088e+10     0.5            72700          1.0726816      14176.43       28352.784      3.1504799    
     85600   89514.89       0.19610447    -138699.91      0.0049723602   266560.06      127860.14      4200           4200           4200          -100            4100          -100            4100          -100            4100           7.4088e+10     0.5            72800          1.0801687      13356.231      26712.477      3.1392458    
     85800   97859.093      0.21301165    -138946.03      0.0049723602   291407.67      152461.63      4200           4200           4200          -100            4100          -100            4100          -100            4100           7.4088e+10     0.5            72900          1.0882284      12407.548      24815.263      3.1297162    
     86000   102782.66      0.22621252    -138722.29      0.0049723602   306069.21      167346.92      4200           4200           4200          -100            4100          -100            4100          -100            4100           7.4088e+10     0.5            73000          1.0962332      12492.4        24984.416      3.120054     
     86200   96648.944      0.21895583    -138395.9       0.0049723602   287804.05      149408.15      4200           4200           4200          -100            4100          -100            4100          -100            4100           7.4088e+10     0.5            73100          1.1034314      13892.345      27785.203      3.1081439    
     86400   91608.089      0.21296347    -138005.28      0.0049723602   272793.25      134787.97      4200           4200           4200          -100            4100          -100            4100          -100            4100           7.4088e+10     0.5            73200          1.1109382      13321.236      26642.142      3.0971664    
     86600   96859.442      0.22873884    -137548.06      0.0049723602   288430.88      150882.82      4200           4200           4200          -100            4100          -100            4100          -100            4100           7.4088e+10     0.5            73300          1.1188152      12695.247      25390.632      3.0872619    
     86800   105415.44      0.25372159    -137017.67      0.0049723602   313909.18      176891.51      4200           4200           4200          -100            4100          -100            4100          -100            4100           7.4088e+10     0.5            73400          1.1265192      12954.462      25908.773      3.076958     
     87000   103577.88      0.25557962    -136404.01      0.0049723602   308437.25      172033.24      4200           4200           4200          -100            4100          -100            4100          -100            4100           7.4088e+10     0.5            73500          1.1345544      12468.98       24937.992      3.0675044    
     87200   95973.24       0.24609822    -135774.11      0.0049723602   285791.92      150017.81      4200           4200           4200          -100            4100          -100            4100          -100            4100           7.4088e+10     0.5            73600          1.1422521      12990.925      25982.01       3.0572092    
     87400   96527.123      0.25436369    -135506.52      0.0049723602   287441.29      151934.77      4200           4200           4200          -100            4100          -100            4100          -100            4100           7.4088e+10     0.5            73700          1.1496085      13593.578      27187.019      3.046048     
     87600   105615.38      0.27429624    -134877.17      0.0049723602   314504.55      179627.38      4200           4200           4200          -100            4100          -100            4100          -100            4100           7.4088e+10     0.5            73800          1.1569579      13606.644      27213.365      3.0349235    
     87800   109375.12      0.28536055    -134610.68      0.0049723602   325700.42      191089.74      4200           4200           4200          -100            4100          -100            4100          -100            4100           7.4088e+10     0.5            73900          1.1646911      12931.211      25862.09       3.0248506    
     88000   102260.12      0.28017061    -134024.31      0.0049723602   304513.18      170488.87      4200           4200           4200          -100            4100          -100            4100          -100            4100           7.4088e+10     0.5            74000          1.1729474      12112.03       24224.378      3.0161553    
     88200   98015.591      0.27319234    -133529.2       0.0049723602   291873.69      158344.49      4200           4200           4200          -100            4100          -100            4100          -100            4100           7.4088e+10     0.5            74100          1.1808223      12698.597      25397.019      3.0064956    
     88400   104536.27      0.2891511     -133153.36      0.0049723602   311291.15      178137.79      4200           4200           4200          -100            4100          -100            4100          -100            4100           7.4088e+10     0.5            74200          1.1884543      13102.629      26205.485      2.9962486    
     88600   112722.12      0.30758486    -132875.45      0.0049723602   335667.23      202791.79      4200           4200           4200          -100            4100          -100            4100          -100            4100           7.4088e+10     0.5            74300          1.1961368      13016.532      26032.65       2.986165     
     88800   109387.69      0.30171399    -132711.72      0.0049723602   325737.88      193026.15      4200           4200           4200          -100            4100          -100            4100          -100            4100           7.4088e+10     0.5            74400          1.20386        12947.981      25896.163      2.9762145    
     89000   101845.86      0.28851773    -132676.14      0.0049723602   303279.59      170603.45      4200           4200           4200          -100            4100          -100            4100          -100            4100           7.4088e+10     0.5            74500          1.2119978      12288.551      24577.328      2.9673094    
     89200   103749         0.29083081    -132790.23      0.0049723602   308946.81      176156.58      4200           4200           4200          -100            4100          -100            4100          -100            4100           7.4088e+10     0.5            74600          1.220026       12455.974      24911.843      2.9581499    
     89400   113364.02      0.30725871    -133409.01      0.0049723602   337578.68      204169.67      4200           4200           4200          -100            4100          -100            4100          -100            4100           7.4088e+10     0.5            74700          1.2270584      14219.828      28439.409      2.9466144    
     89600   115721.51      0.30948141    -134135.99      0.0049723602   344598.91      210462.91      4200           4200           4200          -100            4100          -100            4100          -100            4100           7.4088e+10     0.5            74800          1.2346793      13121.889      26243.985      2.936539     
     89800   107819.03      0.29495073    -134214.11      0.0049723602   321066.66      186852.56      4200           4200           4200          -100            4100          -100            4100          -100            4100           7.4088e+10     0.5            74900          1.2423286      13073.027      26146.098      2.9265638    
     90000   104602.5       0.28390401    -134733.38      0.0049723602   311488.37      176754.99      4200           4200           4200          -100            4100          -100            4100          -100            4100           7.4088e+10     0.5            75000          1.2510018      11529.665      23059.035      2.9190093    
     90200   112286.37      0.29405812    -135687.58      0.0049723602   334369.63      198682.06      4200           4200           4200          -100            4100          -100            4100          -100            4100           7.4088e+10     0.5            75100          1.2595133      11748.808      23497.759      2.9110655    
     90400   119759.43      0.30250947    -136317.48      0.0049723602   356623.14      220305.66      4200           4200           4200          -100            4100          -100            4100          -100            4100           7.4088e+10     0.5            75200          1.2686907      10896.354      21792.615      2.904639     
     90600   114987.95      0.29183026    -136572.23      0.0049723602   342414.47      205842.24      4200           4200           4200          -100            4100          -100            4100          -100            4100           7.4088e+10     0.5            75300          1.27679        12346.694      24693.309      2.8957313    
     90800   107812.53      0.27251505    -137499.99      0.0049723602   321047.3       183547.31      4200           4200           4200          -100            4100          -100            4100          -100            4100           7.4088e+10     0.5            75400          1.2847616      12544.605      25089.236      2.8865471    
     91000   111113.11      0.2759984     -138010.06      0.0049723602   330875.87      192865.81      4200           4200           4200          -100            4100          -100            4100          -100            4100           7.4088e+10     0.5            75500          1.2928381      12381.713      24763.628      2.8776119    
     91200   120960.69      0.28981072    -138447.15      0.0049723602   360200.28      221753.14      4200           4200           4200          -100            4100          -100            4100          -100            4100           7.4088e+10     0.5            75600          1.3001554      13666.31       27332.908      2.8670132    
     91400   121799.57      0.28752006    -138786.68      0.0049723602   362698.31      223911.63      4200           4200           4200          -100            4100          -100            4100          -100            4100           7.4088e+10     0.5            75700          1.3076871      13277.012      26553.721      2.8569259    
     91600   113388.36      0.26835689    -139002.02      0.0049723602   337651.18      198649.15      4200           4200           4200          -100            4100          -100            4100          -100            4100           7.4088e+10     0.5            75800          1.3153568      13038.471      26077.102      2.8471687    
     91800   111361.39      0.2600029     -139119.36      0.0049723602   331615.22      192495.85      4200           4200           4200          -100            4100          -100            4100          -100            4100           7.4088e+10     0.5            75900          1.3230803      12947.451      25894.704      2.8375538    
     92000   120073.85      0.27422729    -139126.12      0.0049723602   357559.41      218433.29      4200           4200           4200          -100            4100          -100            4100          -100            4100           7.4088e+10     0.5            76000          1.3312538      12234.766      24469.747      2.8289182    
     92200   126600.3       0.28845907    -138653.95      0.0049723602   376994.09      238340.14      4200           4200           4200          -100            4100          -100            4100          -100            4100           7.4088e+10     0.5            76100          1.3391387      12682.48       25364.986      2.819681     
     92400   120529.21      0.27460923    -138425.85      0.0049723602   358915.4       220489.54      4200           4200           4200          -100            4100          -100            4100          -100            4100           7.4088e+10     0.5            76200          1.346903       12879.299      25758.521      2.810209     
     92600   113936.32      0.26381722    -138480.4       0.0049723602   339282.9       200802.49      4200           4200           4200          -100            4100          -100            4100          -100            4100           7.4088e+10     0.5            76300          1.3543189      13484.607      26969.389      2.8000373    
     92800   118646.4       0.27458493    -137709.45      0.0049723602   353308.73      215599.28      4200           4200           4200          -100            4100          -100            4100          -100            4100           7.4088e+10     0.5            76400          1.361692       13562.796      27125.279      2.7898121    
     93000   128505.39      0.2933425     -137560.22      0.0049723602   382667.11      245106.89      4200           4200           4200          -100            4100          -100            4100          -100            4100           7.4088e+10     0.5            76500          1.3696779      12522.061      25044.385      2.780865     
     93200   127752.95      0.29607426    -137295.56      0.0049723602   380426.48      243130.92      4200           4200           4200          -100            4100          -100            4100          -100            4100           7.4088e+10     0.5            76600          1.3778976      12165.912      24331.516      2.7724004    
     93400   119029.94      0.28522175    -136595.5       0.0049723602   354450.84      217855.35      4200           4200           4200          -100            4100          -100            4100          -100            4100           7.4088e+10     0.5            76700          1.3852664      13570.756      27141.933      2.7622414    
     93600   118317.91      0.2883788     -135875.55      0.0049723602   352330.53      216454.98      4200           4200           4200          -100            4100          -100            4100          -100            4100           7.4088e+10     0.5            76800          1.392686       13477.792      26955.413      2.7522164    
     93800   127953.2       0.30786796    -135876.43      0.0049723602   381022.77      245146.34      4200           4200           4200          -100            4100          -100            4100          -100            4100           7.4088e+10     0.5            76900          1.4002173      13277.996      26555.886      2.742441     
     94000   133317.19      0.32153879    -135135.95      0.0049723602   396995.83      261859.88      4200           4200           4200          -100            4100          -100            4100          -100            4100           7.4088e+10     0.5            77000          1.4082384      12467.081      24934.376      2.7336428    
     94200   126045.48      0.31212316    -134459.46      0.0049723602   375341.93      240882.47      4200           4200           4200          -100            4100          -100            4100          -100            4100           7.4088e+10     0.5            77100          1.4163759      12288.783      24577.365      2.7250777    
     94400   120230.91      0.30299785    -133537.3       0.0049723602   358027.12      224489.82      4200           4200           4200          -100            4100          -100            4100          -100            4100           7.4088e+10     0.5            77200          1.4236976      13658.075      27316.187      2.7149618    
     94600   126382.23      0.31697755    -133152.51      0.0049723602   376344.71      243192.21      4200           4200           4200          -100            4100          -100            4100          -100            4100           7.4088e+10     0.5            77300          1.4307838      14111.97       28224.159      2.7044328    
     94800   136010.67      0.33704004    -132599.81      0.0049723602   405016.54      272416.73      4200           4200           4200          -100            4100          -100            4100          -100            4100           7.4088e+10     0.5            77400          1.4386688      12682.207      25364.192      2.6954406    
     95000   133583.61      0.33135739    -133385.56      0.0049723602   397789.19      264403.63      4200           4200           4200          -100            4100          -100            4100          -100            4100           7.4088e+10     0.5            77500          1.4463012      13102.013      26204.139      2.6859915    
     95200   124758.43      0.3140835     -133634.74      0.0049723602   371509.3       237874.56      4200           4200           4200          -100            4100          -100            4100          -100            4100           7.4088e+10     0.5            77600          1.4546578      11966.712      23933.273      2.6778963    
     95400   125492.83      0.31441545    -134079.6       0.0049723602   373696.22      239616.62      4200           4200           4200          -100            4100          -100            4100          -100            4100           7.4088e+10     0.5            77700          1.4622365      13194.875      26389.879      2.6683784    
     95600   135835.17      0.33112092    -135048.54      0.0049723602   404493.94      269445.4       4200           4200           4200          -100            4100          -100            4100          -100            4100           7.4088e+10     0.5            77800          1.4698717      13097.157      26194.471      2.6589846    
     95800   139746.95      0.33563773    -136076.84      0.0049723602   416142.55      280065.71      4200           4200           4200          -100            4100          -100            4100          -100            4100           7.4088e+10     0.5            77900          1.4770375      13955.223      27910.146      2.6487688    
     96000   131439.57      0.31695699    -137438.76      0.0049723602   391404.59      253965.83      4200           4200           4200          -100            4100          -100            4100          -100            4100           7.4088e+10     0.5            78000          1.484716       13023.192      26046.34       2.6394988    
     96200   126646.58      0.30560912    -137949.36      0.0049723602   377131.89      239182.53      4200           4200           4200          -100            4100          -100            4100          -100            4100           7.4088e+10     0.5            78100          1.4930207      12041.448      24083.102      2.6313491    
     96400   134143.13      0.32089351    -138343.2       0.0049723602   399455.34      261112.14      4200           4200           4200          -100            4100          -100            4100          -100            4100           7.4088e+10     0.5            78200          1.5004243      13507.041      27013.973      2.6216238    
     96600   143168.31      0.33528558    -138935.55      0.0049723602   426330.78      287395.23      4200           4200           4200          -100            4100          -100            4100          -100            4100           7.4088e+10     0.5            78300          1.5079264      13329.629      26659.213      2.6120943    
     96800   139109.17      0.32617555    -138586.93      0.0049723602   414243.34      275656.41      4200           4200           4200          -100            4100          -100            4100          -100            4100           7.4088e+10     0.5            78400          1.5153387      13491.064      26982.233      2.6024326    
     97000   130523.1       0.30954314    -138403.39      0.0049723602   388675.49      250272.1       4200           4200           4200          -100            4100          -100            4100          -100            4100           7.4088e+10     0.5            78500          1.5229501      13138.129      26276.434      2.5931344    
     97200   132789.58      0.31461406    -137674.49      0.0049723602   395424.71      257750.22      4200           4200           4200          -100            4100          -100            4100          -100            4100           7.4088e+10     0.5            78600          1.5312384      12065.221      24130.168      2.5849971    
     97400   143603.73      0.34301743    -137160.74      0.0049723602   427627.38      290466.64      4200           4200           4200          -100            4100          -100            4100          -100            4100           7.4088e+10     0.5            78700          1.5391715      12605.416      25211.042      2.5762633    
     97600   145966.77      0.3474398     -136505.51      0.0049723602   434664.13      298158.62      4200           4200           4200          -100            4100          -100            4100          -100            4100           7.4088e+10     0.5            78800          1.5466585      13356.542      26712.855      2.5667981    
     97800   136896.71      0.33452152    -135773.61      0.0049723602   407655.03      271881.42      4200           4200           4200          -100            4100          -100            4100          -100            4100           7.4088e+10     0.5            78900          1.5542702      13137.535      26275.17       2.5575588    
     98000   133305.63      0.33297783    -135405.46      0.0049723602   396961.4       261555.94      4200           4200           4200          -100            4100          -100            4100          -100            4100           7.4088e+10     0.5            79000          1.5617516      13366.53       26733.029      2.5481242    
     98200   142078.17      0.35444084    -134682.68      0.0049723602   423084.52      288401.84      4200           4200           4200          -100            4100          -100            4100          -100            4100           7.4088e+10     0.5            79100          1.569945       12204.984      24409.93       2.5398618    
     98400   150286.58      0.36932794    -133602.78      0.0049723602   447527.78      313924.99      4200           4200           4200          -100            4100          -100            4100          -100            4100           7.4088e+10     0.5            79200          1.5781978      12117.061      24234.311      2.5316952    
     98600   144659.21      0.36901285    -132964.91      0.0049723602   430770.42      297805.51      4200           4200           4200          -100            4100          -100            4100          -100            4100           7.4088e+10     0.5            79300          1.5858097      13137.35       26274.414      2.5225087    
     98800   136502.94      0.3549207     -133533.31      0.0049723602   406482.44      272949.13      4200           4200           4200          -100            4100          -100            4100          -100            4100           7.4088e+10     0.5            79400          1.5933949      13183.537      26367.268      2.5132959    
     99000   140349.28      0.36368296    -132740.23      0.0049723602   417936.19      285195.96      4200           4200           4200          -100            4100          -100            4100          -100            4100           7.4088e+10     0.5            79500          1.6006355      13811.069      27622.215      2.5035609    
     99200   151386.79      0.38922911    -131663.77      0.0049723602   450804.02      319140.25      4200           4200           4200          -100            4100          -100            4100          -100            4100           7.4088e+10     0.5            79600          1.6091376      11761.756      23523.332      2.4958082    
     99400   152018.43      0.38985101    -131044.54      0.0049723602   452684.94      321640.4       4200           4200           4200          -100            4100          -100            4100          -100            4100           7.4088e+10     0.5            79700          1.6170975      12562.988      25126.089      2.4872138    
     99600   142377.96      0.37299252    -130511.81      0.0049723602   423977.26      293465.45      4200           4200           4200          -100            4100          -100            4100          -100            4100           7.4088e+10     0.5            79800          1.6245498      13418.682      26837.262      2.4778516    
     99800   140159.24      0.36722718    -130440.63      0.0049723602   417370.28      286929.64      4200           4200           4200          -100            4100          -100            4100          -100            4100           7.4088e+10     0.5            79900          1.6323971      12743.232      25486.369      2.4691061    
    100000   150052.88      0.38381411    -130083.01      0.0049723602   446831.87      316748.85      4200           4200           4200          -100            4100          -100            4100          -100            4100           7.4088e+10     0.5            80000          1.6439672      8642.7981      17285.365      2.4659545    
    100200   157126.19      0.39252137    -130167.29      0.0049723602   467894.97      337727.68      4200           4200           4200          -100            4100          -100            4100          -100            4100           7.4088e+10     0.5            80100          1.6522705      12043.605      24087.699      2.4578581    
    100400   150037.77      0.37655303    -130662.79      0.0049723602   446786.87      316124.08      4200           4200           4200          -100            4100          -100            4100          -100            4100           7.4088e+10     0.5            80200          1.660692       11874.378      23748.634      2.4499348    
    100600   142610.84      0.35906402    -130859.44      0.0049723602   424670.73      293811.29      4200           4200           4200          -100            4100          -100            4100          -100            4100           7.4088e+10     0.5            80300          1.6680684      13556.815      27113.707      2.4404773    
    100800   148046.84      0.36168199    -131110.58      0.0049723602   440858.22      309747.64      4200           4200           4200          -100            4100          -100            4100          -100            4100           7.4088e+10     0.5            80400          1.6756057      13267.416      26534.845      2.4312738    
    101000   158979.21      0.37679103    -132151.72      0.0049723602   473412.94      341261.21      4200           4200           4200          -100            4100          -100            4100          -100            4100           7.4088e+10     0.5            80500          1.6831899      13185.374      26370.926      2.422154     
    101200   157798.31      0.36713314    -132491.74      0.0049723602   469896.42      337404.68      4200           4200           4200          -100            4100          -100            4100          -100            4100           7.4088e+10     0.5            80600          1.6917209      11721.837      23443.413      2.4144008    
    101400   147909.55      0.34151212    -132845.3       0.0049723602   440449.37      307604.07      4200           4200           4200          -100            4100          -100            4100          -100            4100           7.4088e+10     0.5            80700          1.6997908      12391.644      24783.347      2.405987     
    101600   147225.61      0.3333909     -132838.96      0.0049723602   438412.74      305573.78      4200           4200           4200          -100            4100          -100            4100          -100            4100           7.4088e+10     0.5            80800          1.707446       13063.156      26126.653      2.3969941    
    101800   158025.61      0.34591228    -133219.8       0.0049723602   470573.29      337353.49      4200           4200           4200          -100            4100          -100            4100          -100            4100           7.4088e+10     0.5            80900          1.7153419      12664.881      25329.836      2.3883494    
    102000   163692.85      0.34832839    -133240.38      0.0049723602   487449.34      354208.96      4200           4200           4200          -100            4100          -100            4100          -100            4100           7.4088e+10     0.5            81000          1.7228856      13256.037      26511.946      2.3792256    
    102200   155359.87      0.32528279    -133240.88      0.0049723602   462635.16      329394.27      4200           4200           4200          -100            4100          -100            4100          -100            4100           7.4088e+10     0.5            81100          1.7310465      12253.564      24507.137      2.370962     
    102400   148908.96      0.30534553    -133575.19      0.0049723602   443425.44      309850.25      4200           4200           4200          -100            4100          -100            4100          -100            4100           7.4088e+10     0.5            81200          1.7392575      12178.756      24357.504      2.3627675    
    102600   155875.73      0.31250629    -133877.43      0.0049723602   464171.31      330293.87      4200           4200           4200          -100            4100          -100            4100          -100            4100           7.4088e+10     0.5            81300          1.7470796      12784.314      25568.728      2.3540487    
    102800   166396.34      0.32740839    -134174.49      0.0049723602   495499.88      361325.39      4200           4200           4200          -100            4100          -100            4100          -100            4100           7.4088e+10     0.5            81400          1.7544568      13555.376      27110.638      2.3447438    
    103000   163411.59      0.31351433    -134804.98      0.0049723602   486611.8       351806.82      4200           4200           4200          -100            4100          -100            4100          -100            4100           7.4088e+10     0.5            81500          1.7621757      12955.162      25910.394      2.3359097    
    103200   153554.49      0.28975717    -135023.28      0.0049723602   457259.05      322235.76      4200           4200           4200          -100            4100          -100            4100          -100            4100           7.4088e+10     0.5            81600          1.7703953      12166.032      24331.981      2.3277444    
    103400   154493.44      0.28801109    -135208.14      0.0049723602   460055.08      324846.94      4200           4200           4200          -100            4100          -100            4100          -100            4100           7.4088e+10     0.5            81700          1.7786046      12181.225      24362.319      2.3195654    
    103600   165970.58      0.30455907    -134993.5       0.0049723602   494232.06      359238.56      4200           4200           4200          -100            4100          -100            4100          -100            4100           7.4088e+10     0.5            81800          1.7862084      13151.347      26302.894      2.3106023    
    103800   170043.87      0.30685441    -135489.41      0.0049723602   506361.62      370872.21      4200           4200           4200          -100            4100          -100            4100          -100            4100           7.4088e+10     0.5            81900          1.7939044      12993.874      25987.624      2.3017701    
    104000   160674.51      0.2874822     -135548.47      0.0049723602   478461.26      342912.8       4200           4200           4200          -100            4100          -100            4100          -100            4100           7.4088e+10     0.5            82000          1.8015625      13057.919      26115.835      2.2929003    
    104200   155404         0.27143048    -136297.91      0.0049723602   462766.58      326468.67      4200           4200           4200          -100            4100          -100            4100          -100            4100           7.4088e+10     0.5            82100          1.8098039      12133.812      24267.677      2.2847776    
    104400   163824.57      0.28750806    -136254.95      0.0049723602   487841.59      351586.65      4200           4200           4200          -100            4100          -100            4100          -100            4100           7.4088e+10     0.5            82200          1.8179842      12224.613      24449.247      2.2765772    
    104600   173632.29      0.30180095    -136146.99      0.0049723602   517047.31      380900.33      4200           4200           4200          -100            4100          -100            4100          -100            4100           7.4088e+10     0.5            82300          1.8255074      13292.202      26584.308      2.2675609    
[...]
   1049400   320.98538      0.99910874    -378604.11      0.038777009    955.83964     -377648.27      2117.9322      2117.9322      2117.9322      941.03391      3058.9661      941.03391      3058.9661      941.03391      3058.9661      9.5002743e+09  0.5            554700         17.914609      7898.9765      15797.857      0.6561675    
   1049600   320.66356      1.0071672     -379131.83      0.038806251    954.88134     -378176.95      2117.4         2117.4         2117.4         941.29998      3058.7         941.29998      3058.7         941.29998      3058.7         9.4931153e+09  0.5            554800         17.928117      7402.7607      14805.463      0.64382749   
   1049800   320.03217      0.99297641    -379328.9       0.038823937    953.00115     -378375.9       2117.0785      2117.0785      2117.0785      941.46076      3058.5392      941.46076      3058.5392      941.46076      3058.5392      9.4887908e+09  0.5            554900         17.941207      7639.6879      15279.46       0.63147112   
   1050000   320.14472      0.99818219    -379813.86      0.038864132    953.33631     -378860.53      2116.3484      2116.3484      2116.3484      941.82581      3058.1742      941.82581      3058.1742      941.82581      3058.1742      9.4789772e+09  0.5            555000         17.959652      5421.39        10842.752      0.61929843   
   1050200   321.06425      1.0028745     -379921.53      0.038908414    956.0745      -378965.45      2115.5452      2115.5452      2115.5452      942.22741      3057.7726      942.22741      3057.7726      942.22741      3057.7726      9.468189e+09   0.5            555100         17.973185      7389.3784      14778.834      0.60695119   
   1050400   321.5117       1.0038247     -380072.44      0.038941303    957.40693     -379115.03      2114.9494      2114.9494      2114.9494      942.52528      3057.4747      942.52528      3057.4747      942.52528      3057.4747      9.4601924e+09  0.5            555200         17.98617       7701.1184      15402.228      0.59458421   
   1050600   321.49066      0.99620014    -380255.94      0.038965126    957.3443      -379298.59      2114.5183      2114.5183      2114.5183      942.74084      3057.2592      942.74084      3057.2592      942.74084      3057.2592      9.4544084e+09  0.5            555300         17.998343      8215.0665      16429.989      0.5821901    
   1050800   321.05841      1.0028718     -380429.21      0.038991396    956.05712     -379473.16      2114.0433      2114.0433      2114.0433      942.97833      3057.0217      942.97833      3057.0217      942.97833      3057.0217      9.4480387e+09  0.5            555400         18.011402      7657.5114      15315.121      0.56982434   
   1051000   320.26365      1.0010313     -380614.35      0.03901321     953.69045     -379660.66      2113.6493      2113.6493      2113.6493      943.17537      3056.8246      943.17537      3056.8246      943.17537      3056.8246      9.442756e+09   0.5            555500         18.024391      7699.0693      15398.199      0.55745544   
   1051200   319.92073      1.0042869     -381133.29      0.039044255    952.66931     -380180.62      2113.0889      2113.0889      2113.0889      943.45555      3056.5444      943.45555      3056.5444      943.45555      3056.5444      9.4352477e+09  0.5            555600         18.036918      7982.5699      15965.123      0.54507176   
   1051400   320.10127      0.99395633    -381309.41      0.039068271    953.20692     -380356.2       2112.6558      2112.6558      2112.6558      943.67208      3056.3279      943.67208      3056.3279      943.67208      3056.3279      9.4294478e+09  0.5            555700         18.049767      7782.5954      15565.157      0.53269738   
   1051600   320.33717      1.0060809     -381442.88      0.039104612    953.90938     -380488.97      2112.0012      2112.0012      2112.0012      943.99941      3056.0006      943.99941      3056.0006      943.99941      3056.0006      9.4206846e+09  0.5            555800         18.062836      7651.8846      15303.666      0.52032867   
   1051800   320.65588      1.0061244     -381954.69      0.039138612    954.85847     -380999.83      2111.3894      2111.3894      2111.3894      944.30528      3055.6947      944.30528      3055.6947      944.30528      3055.6947      9.4125009e+09  0.5            555900         18.075222      8073.6811      16147.543      0.5079398    
   1052000   320.83111      0.99982571    -382128.47      0.039164302    955.38027     -381173.09      2110.9277      2110.9277      2110.9277      944.53617      3055.4638      944.53617      3055.4638      944.53617      3055.4638      9.4063266e+09  0.5            556000         18.088221      7692.5018      15384.955      0.49556777   
   1052200   320.77167      0.99767305    -383024.09      0.039194199    955.20325     -382068.89      2110.3908      2110.3908      2110.3908      944.8046       3055.1954      944.8046       3055.1954      944.8046       3055.1954      9.3991516e+09  0.5            556100         18.101139      7741.5541      15483.053      0.48319267   
   1052400   320.43088      0.9877886     -383209.62      0.039215955    954.18845     -382255.43      2110.0005      2110.0005      2110.0005      944.99977      3055.0002      944.99977      3055.0002      944.99977      3055.0002      9.3939372e+09  0.5            556200         18.11419       7661.7761      15323.578      0.47082033   
   1052600   320.20289      0.99155607    -383360.85      0.039247271    953.50953     -382407.34      2109.4391      2109.4391      2109.4391      945.28045      3054.7196      945.28045      3054.7196      945.28045      3054.7196      9.3864416e+09  0.5            556300         18.127041      7781.6645      15563.375      0.45844197   
   1052800   320.37272      0.99483558    -383501.92      0.039281777    954.01525     -382547.91      2108.8213      2108.8213      2108.8213      945.58936      3054.4106      945.58936      3054.4106      945.58936      3054.4106      9.3781964e+09  0.5            556400         18.139953      7744.7066      15489.341      0.44606448   
   1053000   320.62565      1.021195      -383614.67      0.039324761    954.76845     -382659.9       2108.0526      2108.0526      2108.0526      945.97368      3054.0263      945.97368      3054.0263      945.97368      3054.0263      9.3679456e+09  0.5            556500         18.152345      8069.7621      16139.515      0.43367383   
   1053200   320.34776      0.99759259    -383824.97      0.039339356    953.94092     -382871.03      2107.7919      2107.7919      2107.7919      946.10404      3053.896       946.10404      3053.896       946.10404      3053.896       9.3644701e+09  0.5            556600         18.165762      7453.4293      14906.9        0.42130694   
   1053400   320.00139      0.97679333    -384022.92      0.039356694    952.90948     -383070.01      2107.4823      2107.4823      2107.4823      946.25883      3053.7412      946.25883      3053.7412      946.25883      3053.7412      9.3603445e+09  0.5            556700         18.179114      7489.3756      14978.796      0.40893717   
   1053600   320.23203      0.99617714    -384125.58      0.039402128    953.5963      -383171.98      2106.672       2106.672       2106.672       946.664        3053.336       946.664        3053.336       946.664        3053.336       9.3495514e+09  0.5            556800         18.192341      7560.3162      15120.612      0.39656334   
   1053800   320.79191      1.0196419     -384217.93      0.039451176    955.26354     -383262.66      2105.7986      2105.7986      2105.7986      947.1007       3052.8993      947.1007       3052.8993      947.1007       3052.8993      9.3379276e+09  0.5            556900         18.206179      7226.3326      14452.586      0.38420124   
   1054000   321.15757      0.99905715    -384773.42      0.039473651    956.35239     -383817.06      2105.3989      2105.3989      2105.3989      947.30056      3052.6994      947.30056      3052.6994      947.30056      3052.6994      9.3326109e+09  0.5            557000         18.221759      6418.732       12837.496      0.37187267   
   1054200   320.97703      1.018326      -384919.35      0.039507945    955.81479     -383963.53      2104.7895      2104.7895      2104.7895      947.60524      3052.3948      947.60524      3052.3948      947.60524      3052.3948      9.3245099e+09  0.5            557100         18.236714      6686.5391      13373.058      0.35952738   
   1054400   320.33303      0.94381475    -385213.54      0.039497579    953.89705     -384259.64      2104.9736      2104.9736      2104.9736      947.51319      3052.4868      947.51319      3052.4868      947.51319      3052.4868      9.3269571e+09  0.5            557200         18.251411      6804.2115      13608.542      0.34717361   
   1054600   320.14066      0.9832733     -385328.16      0.039540515    953.32422     -384374.83      2104.2114      2104.2114      2104.2114      947.89428      3052.1057      947.89428      3052.1057      947.89428      3052.1057      9.3168292e+09  0.5            557300         18.26789       6068.16        12136.285      0.33484935   
   1054800   319.91202      1.0437244     -385402.5       0.039593742    952.64335     -384449.86      2103.2681      2103.2681      2103.2681      948.36595      3051.634       948.36595      3051.634       948.36595      3051.634       9.3043042e+09  0.5            557400         18.282743      6732.8279      13465.552      0.32249076   
   1055000   319.51316      0.96837775    -385690.92      0.039584327    951.45563     -384739.46      2103.4348      2103.4348      2103.4348      948.28258      3051.7174      948.28258      3051.7174      948.28258      3051.7174      9.3065172e+09  0.5            557500         18.296243      7407.104       14814.317      0.31010586   
   1055200   319.75327      0.97391177    -385835.28      0.039617257    952.17063     -384883.11      2102.8519      2102.8519      2102.8519      948.57406      3051.4259      948.57406      3051.4259      948.57406      3051.4259      9.2987816e+09  0.5            557600         18.308981      7850.4921      15701.003      0.29770705   
   1055400   319.98051      0.98200889    -387075.68      0.039653339    952.84731     -386122.84      2102.2139      2102.2139      2102.2139      948.89307      3051.1069      948.89307      3051.1069      948.89307      3051.1069      9.2903202e+09  0.5            557700         18.321099      8252.5369      16504.988      0.28529812   
   1055600   319.64952      1.0100342     -387201.68      0.039691212    951.86168     -386249.82      2101.545       2101.545       2101.545       949.2275       3050.7725      949.2275       3050.7725      949.2275       3050.7725      9.2814555e+09  0.5            557800         18.333971      7769.0836      15538.19       0.27290081   
   1055800   319.41104      0.99056614    -387388.74      0.039710509    951.15153     -386437.59      2101.2046      2101.2046      2101.2046      949.39772      3050.6023      949.39772      3050.6023      949.39772      3050.6023      9.2769454e+09  0.5            557900         18.347081      7627.3555      15254.739      0.26050625   
   1056000   320.09095      1.0093601     -387824.11      0.039766104    953.17618     -386870.93      2100.2249      2100.2249      2100.2249      949.88755      3050.1124      949.88755      3050.1124      949.88755      3050.1124      9.2639757e+09  0.5            558000         18.359599      7988.7046      15977.412      0.24810272   
   1056200   320.91155      0.99064333    -387988.78      0.039794307    955.61981     -387033.16      2099.7286      2099.7286      2099.7286      950.13569      3049.8643      950.13569      3049.8643      950.13569      3049.8643      9.2574102e+09  0.5            558100         18.372502      7749.8936      15499.798      0.23570397   
   1056400   321.04202      1.0060467     -388129.58      0.039830197    956.00831     -387173.57      2099.0978      2099.0978      2099.0978      950.45112      3049.5489      950.45112      3049.5489      950.45112      3049.5489      9.2490684e+09  0.5            558200         18.385576      7648.7352      15297.46       0.22330662   
   1056600   320.21222      1.0021479     -388325.63      0.03984848     953.53732     -387372.1       2098.7767      2098.7767      2098.7767      950.61166      3049.3883      950.61166      3049.3883      950.61166      3049.3883      9.2448249e+09  0.5            558300         18.39814       7959.2024      15918.423      0.21090251   
   1056800   319.45976      0.99445163    -388512.16      0.03986822     951.29661     -387560.87      2098.4302      2098.4302      2098.4302      950.78489      3049.2151      950.78489      3049.2151      950.78489      3049.2151      9.2402474e+09  0.5            558400         18.411187      7664.5726      15329.122      0.19850339   
   1057000   319.66008      1.0009853     -389009.52      0.039905285    951.89314     -388057.63      2097.7803      2097.7803      2097.7803      951.10983      3048.8902      951.10983      3048.8902      951.10983      3048.8902      9.2316649e+09  0.5            558500         18.424247      7657.3026      15314.657      0.18610353   
   1057200   320.27708      1.0022866     -389156.79      0.039938004    953.73045     -388203.06      2097.2073      2097.2073      2097.2073      951.39634      3048.6037      951.39634      3048.6037      951.39634      3048.6037      9.224102e+09   0.5            558600         18.436584      8105.8764      16211.715      0.17369596   
   1057400   320.22527      1.0005199     -389686.37      0.039966541    953.57618     -388732.79      2096.708       2096.708       2096.708       951.64598      3048.354       951.64598      3048.354       951.64598      3048.354       9.2175157e+09  0.5            558700         18.449437      7780.0445      15559.992      0.16129301   
   1057600   319.82868      0.99674587    -390213.87      0.039994951    952.39519     -389261.47      2096.2115      2096.2115      2096.2115      951.89426      3048.1057      951.89426      3048.1057      951.89426      3048.1057      9.2109682e+09  0.5            558800         18.462496      7657.2862      15314.673      0.14889112   
   1057800   319.86636      0.99578718    -390353.67      0.040029131    952.50739     -389401.16      2095.6147      2095.6147      2095.6147      952.19266      3047.8073      952.19266      3047.8073      952.19266      3047.8073      9.2031032e+09  0.5            558900         18.474841      8100.8858      16201.778      0.13648306   
   1058000   320.38107      0.99781886    -390856.07      0.040066094    954.04012     -389902.03      2094.97        2094.97        2094.97        952.51499      3047.485       952.51499      3047.485       952.51499      3047.485       9.1946128e+09  0.5            559000         18.487837      7694.5663      15389.103      0.12407946   
   1058200   320.47326      1.0015641     -391024.4       0.040093023    954.31463     -390070.09      2094.5009      2094.5009      2094.5009      952.74956      3047.2504      952.74956      3047.2504      952.74956      3047.2504      9.1884371e+09  0.5            559100         18.500924      7641.2115      15282.429      0.11167561   
   1058400   320.04656      1.0028584     -391201.95      0.040116415    953.044       -390248.91      2094.0937      2094.0937      2094.0937      952.95314      3047.0469      952.95314      3047.0469      952.95314      3047.0469      9.1830794e+09  0.5            559200         18.513289      8087.6121      16175.249      0.099266974  
   1058600   319.60126      0.99872334    -391378.9       0.040139317    951.71798     -390427.18      2093.6954      2093.6954      2093.6954      953.15232      3046.8477      953.15232      3046.8477      953.15232      3046.8477      9.1778398e+09  0.5            559300         18.526247      7717.0682      15434.107      0.086861181  
   1058800   319.42759      1.0029575     -391528.66      0.040170038    951.2008      -390577.46      2093.1615      2093.1615      2093.1615      953.41925      3046.5807      953.41925      3046.5807      953.41925      3046.5807      9.1708208e+09  0.5            559400         18.539134      7759.3521      15518.705      0.074454364  
   1059000   319.57899      0.99922915    -392400.91      0.040205229    951.65166     -391449.25      2092.5506      2092.5506      2092.5506      953.72469      3046.2753      953.72469      3046.2753      953.72469      3046.2753      9.1627938e+09  0.5            559500         18.551729      7940.0179      15880.085      0.062045923  
   1059200   320.2728       0.99781752    -393624.58      0.040246623    953.7177      -392670.86      2091.833       2091.833       2091.833       954.08352      3045.9165      954.08352      3045.9165      954.08352      3045.9165      9.1533697e+09  0.5            559600         18.564824      7636.1666      15272.217      0.049638574  
   1059400   320.59688      1.0016966     -393779.76      0.04027766     954.68275     -392825.08      2091.2955      2091.2955      2091.2955      954.35225      3045.6478      954.35225      3045.6478      954.35225      3045.6478      9.1463163e+09  0.5            559700         18.577594      7831.3393      15662.748      0.037229651  
   1059600   320.30977      0.9995247     -393963.82      0.040299604    953.8278      -393009.99      2090.9159      2090.9159      2090.9159      954.54207      3045.4579      954.54207      3045.4579      954.54207      3045.4579      9.1413359e+09  0.5            559800         18.589952      8091.955       16183.96       0.024819698  
   1059800   319.73666      0.99379189    -394515.97      0.040320736    952.12116     -393563.85      2090.5505      2090.5505      2090.5505      954.72474      3045.2753      954.72474      3045.2753      954.72474      3045.2753      9.1365451e+09  0.5            559900         18.602299      8099.0088      16198.023      0.012409807  
   1060000   319.31789      1.0046723     -394663.81      0.040351926    950.87414     -393712.93      2090.0118      2090.0118      2090.0118      954.99412      3045.0059      954.99412      3045.0059      954.99412      3045.0059      9.129483e+09   0.5            560000         18.615471      7591.9774      15183.916      0            
Loop time of 18.6155 on 4 procs for 300000 steps with 1000 atoms

Performance: 696.194 ns/day, 0.034 hours/ns, 16115.607 timesteps/s
99.7% CPU use with 4 MPI tasks x 1 OpenMP threads

MPI task timing breakdown:
Section |  min time  |  avg time  |  max time  |%varavg| %total
---------------------------------------------------------------
Pair    | 0.18966    | 1.3124     | 3.7763     | 125.2 |  7.05
Neigh   | 0.20699    | 0.55346    | 1.2659     |  56.0 |  2.97
Comm    | 3.7882     | 6.728      | 7.9718     |  65.9 | 36.14
Output  | 0.062904   | 0.066805   | 0.07674    |   2.2 |  0.36
Modify  | 5.613      | 6.56       | 8.5759     |  46.2 | 35.24
Other   |            | 3.395      |            |       | 18.24

Nlocal:            250 ave         648 max          46 min
Histogram: 1 2 0 0 0 0 0 0 0 1
Nghost:          170.5 ave         264 max          83 min
Histogram: 1 0 0 0 2 0 0 0 0 1
Neighs:         135.75 ave         446 max           1 min
Histogram: 2 1 0 0 0 0 0 0 0 1

Total # of neighbors = 543
Ave neighs/atom = 0.543
Neighbor list builds = 7113
Dangerous builds = 44

# run_style
run_style verlet

# write restart
write_restart ${write_res}
write_restart ./pgnpmf/1000/equpmf1.res
System init for write_restart ...
Generated 0 of 1 mixed pair_coeff terms from geometric mixing rule

Total wall time: 0:00:43
