LAMMPS (23 Jun 2022 - Update 1)
# Read restart
read_restart ${read_res}
read_restart ./pgnpmf/200800/equpmf37.res
Reading restart file ...
  restart file = 23 Jun 2022, LAMMPS = 23 Jun 2022
  restoring atom style atomic from restart
  orthogonal box = (2063.5064 2063.5064 2063.5064) to (2936.4936 2936.4936 2936.4936)
  2 by 2 by 2 MPI processor grid
  restoring pair style table from restart
  1000 atoms
  read_restart CPU = 0.010 seconds

# Settings

pair_style table spline 9941

pair_coeff 1 1 ./pgnpmf/N20.txt DE_GNP 75.6
pair_coeff 2 2 ./pgnpmf/N100.txt DE_GNP 115.92
WARNING: 3 of 9941 force values in table DE_GNP are inconsistent with -dE/dr.
WARNING:  Should only be flagged at inflection points (../pair_table.cpp:463)
pair_coeff 1 2 ./pgnpmf/mixed_potential.txt DE_GNP 95.66
WARNING: 1562 of 9941 force values in table DE_GNP are inconsistent with -dE/dr.
WARNING:  Should only be flagged at inflection points (../pair_table.cpp:463)

#Neigh_list Calc Frequency

neigh_modify delay 0 every 1 check yes

# Saving Frequency (50 frames)

variable ts_save equal ${steps_equ}
variable ts_save equal 5000

# Dump
#dump 1 all custom ${ts_save} ./pgnpmf/${folder}/equilibration/trajectory/trajectory_${usic}_${trial}.equ.custom type x y z ix iy iz
#dump_modify 1 first no sort id
#dump 2 all cfg 50000 ./equilibration/trajectory/ovito/dumpgen.tens_*.cfg mass type xs ys zs fx fy fz

# thermo_style
thermo_style custom step temp press pe density ke etotal lx ly lz xlo xhi ylo yhi zlo zhi vol dt time cpu tpcpu spcpu cpuremain

# run info
timestep ${ts}
timestep 0.1
thermo 200

# fix

fix 1 all momentum 1000 linear 1 1 1 angular
variable T equal ${temp}
variable T equal 300
fix 2 all nvt temp ${T} 370000 100.0
fix 2 all nvt temp 300 370000 100.0

run 100000
Generated 0 of 1 mixed pair_coeff terms from geometric mixing rule
Unused restart file global fix info:
  fix style: npt, fix ID: 5
Neighbor list info ...
  update every 1 steps, delay 0 steps, check yes
  max neighbors/atom: 2000, page size: 100000
  master list distance cutoff = 117.92
  ghost atom cutoff = 117.92
  binsize = 58.96, bins = 15 15 15
  1 neighbor lists, perpetual/occasional/extra = 1 0 0
  (1) pair table, perpetual
      attributes: half, newton on
      pair build: half/bin/atomonly/newton
      stencil: half/bin/3d
      bin: standard
Per MPI rank memory allocation (min/avg/max) = 3.067 | 3.068 | 3.07 Mbytes
   Step          Temp          Press          PotEng        Density         KinEng         TotEng           Lx             Ly             Lz            Xlo            Xhi            Ylo            Yhi            Zlo            Zhi           Volume           Dt            Time           CPU           T/CPU          S/CPU         CPULeft    
  25905000   309.22084     -0.28597936    -39053205       0.9534573      920.80685     -39052284       872.98723      872.98723      872.98723      2063.5064      2936.4936      2063.5064      2936.4936      2063.5064      2936.4936      6.6530943e+08  0.1            2595000        0              0              0              0            
  25905200   353.37591     -0.50999191    -39053322       0.9534573      1052.2931     -39052270       872.98723      872.98723      872.98723      2063.5064      2936.4936      2063.5064      2936.4936      2063.5064      2936.4936      6.6530943e+08  0.1            2595020        0.014331323    1395.4902      13954.216      7.1523132    
  25905400   414.0203      -0.7479463     -39053448       0.9534573      1232.8818     -39052215       872.98723      872.98723      872.98723      2063.5064      2936.4936      2063.5064      2936.4936      2063.5064      2936.4936      6.6530943e+08  0.1            2595040        0.02857447     1404.1849      14041.933      7.1154947    
  25905600   480.97378     -1.0037733     -39053585       0.9534573      1432.2578     -39052152       872.98723      872.98723      872.98723      2063.5064      2936.4936      2063.5064      2936.4936      2063.5064      2936.4936      6.6530943e+08  0.1            2595060        0.042819586    1403.9941      14039.9        7.0940925    
  25905800   561.27337     -1.2767317     -39053731       0.9534573      1671.3763     -39052060       872.98723      872.98723      872.98723      2063.5064      2936.4936      2063.5064      2936.4936      2063.5064      2936.4936      6.6530943e+08  0.1            2595080        0.057739486    1340.4927      13404.925      7.1599298    
  25906000   655.3583      -1.5683573     -39053890       0.9534573      1951.5451     -39051938       872.98723      872.98723      872.98723      2063.5064      2936.4936      2063.5064      2936.4936      2063.5064      2936.4936      6.6530943e+08  0.1            2595100        0.071970691    1405.3589      14053.566      7.1252854    
  25906200   763.83242     -1.8793065     -39054061       0.9534573      2274.5625     -39051787       872.98723      872.98723      872.98723      2063.5064      2936.4936      2063.5064      2936.4936      2063.5064      2936.4936      6.6530943e+08  0.1            2595120        0.086273085    1398.3661      13983.692      7.1033075    
  25906400   888.43296     -2.2099419     -39054246       0.9534573      2645.6017     -39051600       872.98723      872.98723      872.98723      2063.5064      2936.4936      2063.5064      2936.4936      2063.5064      2936.4936      6.6530943e+08  0.1            2595140        0.10036432     1419.328       14193.239      7.0686467    
  25906600   1031.0044     -2.5602507     -39054445       0.9534573      3070.1551     -39051374       872.98723      872.98723      872.98723      2063.5064      2936.4936      2063.5064      2936.4936      2063.5064      2936.4936      6.6530943e+08  0.1            2595160        0.11450976     1413.8826      14138.853      7.0424648    
  25906800   1193.6486     -2.9299533     -39054659       0.9534573      3554.4818     -39051104       872.98723      872.98723      872.98723      2063.5064      2936.4936      2063.5064      2936.4936      2063.5064      2936.4936      6.6530943e+08  0.1            2595180        0.12876802     1402.6986      14027.018      7.0251068    
  25907000   1378.6915     -3.3186221     -39054888       0.9534573      4105.5077     -39050783       872.98723      872.98723      872.98723      2063.5064      2936.4936      2063.5064      2936.4936      2063.5064      2936.4936      6.6530943e+08  0.1            2595200        0.14302449     1402.8699      14028.632      7.0082906    
  25907200   1588.7767     -3.7254744     -39055135       0.9534573      4731.1059     -39050404       872.98723      872.98723      872.98723      2063.5064      2936.4936      2063.5064      2936.4936      2063.5064      2936.4936      6.6530943e+08  0.1            2595220        0.15775661     1357.5816      13575.87       7.0130792    
  25907400   1826.7636     -4.1495189     -39055399       0.9534573      5439.79       -39049959       872.98723      872.98723      872.98723      2063.5064      2936.4936      2063.5064      2936.4936      2063.5064      2936.4936      6.6530943e+08  0.1            2595240        0.17216977     1387.6172      13876.192      7.0016418    
  25907600   2095.8019     -4.5892925     -39055682       0.9534573      6240.9401     -39049441       872.98723      872.98723      872.98723      2063.5064      2936.4936      2063.5064      2936.4936      2063.5064      2936.4936      6.6530943e+08  0.1            2595260        0.18621113     1424.3651      14243.635      6.9758232    
  25907800   2399.3259     -5.0430955     -39055984       0.9534573      7144.783      -39048839       872.98723      872.98723      872.98723      2063.5064      2936.4936      2063.5064      2936.4936      2063.5064      2936.4936      6.6530943e+08  0.1            2595280        0.20028495     1421.0783      14210.755      6.9528125    
  25908000   2741.0341     -5.5091454     -39056306       0.9534573      8162.3315     -39048144       872.98723      872.98723      872.98723      2063.5064      2936.4936      2063.5064      2936.4936      2063.5064      2936.4936      6.6530943e+08  0.1            2595300        0.21439877     1417.0519      14170.605      6.9322811    
  25908200   3124.9922     -6.1876171     -39064028       0.9534573      9305.6931     -39054723       872.98723      872.98723      872.98723      2063.5064      2936.4936      2063.5064      2936.4936      2063.5064      2936.4936      6.6530943e+08  0.1            2595320        0.23115623     1193.4987      11934.93       6.9925309    
  25908400   3555.461      -6.6716871     -39064395       0.9534573      10587.556     -39053807       872.98723      872.98723      872.98723      2063.5064      2936.4936      2063.5064      2936.4936      2063.5064      2936.4936      6.6530943e+08  0.1            2595340        0.2452247      1421.6201      14216.267      6.9673144    
  25908600   4036.9765     -7.160905      -39064785       0.9534573      12021.427     -39052763       872.98723      872.98723      872.98723      2063.5064      2936.4936      2063.5064      2936.4936      2063.5064      2936.4936      6.6530943e+08  0.1            2595360        0.25997694     1355.7224      13557.166      6.9616542    
  25908800   4574.3007     -7.6531886     -39065199       0.9534573      13621.486     -39051577       872.98723      872.98723      872.98723      2063.5064      2936.4936      2063.5064      2936.4936      2063.5064      2936.4936      6.6530943e+08  0.1            2595380        0.27460898     1366.8599      13668.559      6.9519925    
  25909000   5172.3422     -8.1471162     -39065638       0.9534573      15402.352     -39050236       872.98723      872.98723      872.98723      2063.5064      2936.4936      2063.5064      2936.4936      2063.5064      2936.4936      6.6530943e+08  0.1            2595400        0.28894295     1395.2915      13952.952      6.9346746    
  25909200   5836.1694     -8.6441664     -39066104       0.9534573      17379.116     -39048725       872.98723      872.98723      872.98723      2063.5064      2936.4936      2063.5064      2936.4936      2063.5064      2936.4936      6.6530943e+08  0.1            2595420        0.30310098     1412.6246      14126.235      6.9136301    
  25909400   6570.8052     -9.1495491     -39066598       0.9534573      19566.736     -39047031       872.98723      872.98723      872.98723      2063.5064      2936.4936      2063.5064      2936.4936      2063.5064      2936.4936      6.6530943e+08  0.1            2595440        0.31717158     1421.4031      14214.077      6.8913114    
  25909600   7381.1705     -9.6699532     -39067119       0.9534573      21979.865     -39045139       872.98723      872.98723      872.98723      2063.5064      2936.4936      2063.5064      2936.4936      2063.5064      2936.4936      6.6530943e+08  0.1            2595460        0.33164552     1381.7962      13817.972      6.8780758    
  25909800   8271.9155     -10.214178     -39067670       0.9534573      24632.352     -39043038       872.98723      872.98723      872.98723      2063.5064      2936.4936      2063.5064      2936.4936      2063.5064      2936.4936      6.6530943e+08  0.1            2595480        0.34587564     1405.4687      14054.691      6.8599013    
  25910000   9247.2047     -10.791359     -39068251       0.9534573      27536.597     -39040715       872.98723      872.98723      872.98723      2063.5064      2936.4936      2063.5064      2936.4936      2063.5064      2936.4936      6.6530943e+08  0.1            2595500        0.36069736     1349.3721      13493.688      6.8532835    
  25910200   10310.57      -11.607919     -39076241       0.9534573      30703.118     -39045538       872.98723      872.98723      872.98723      2063.5064      2936.4936      2063.5064      2936.4936      2063.5064      2936.4936      6.6530943e+08  0.1            2595520        0.37532466     1367.3077      13673.055      6.8424902    
  25910400   11464.54      -12.260235     -39076886       0.9534573      34139.442     -39042746       872.98723      872.98723      872.98723      2063.5064      2936.4936      2063.5064      2936.4936      2063.5064      2936.4936      6.6530943e+08  0.1            2595540        0.3895592      1405.0346      14050.369      6.8245297    
  25910600   12710.22      -12.951316     -39077562       0.9534573      37848.864     -39039713       872.98723      872.98723      872.98723      2063.5064      2936.4936      2063.5064      2936.4936      2063.5064      2936.4936      6.6530943e+08  0.1            2595560        0.40384798     1399.6959      13996.957      6.8077529    
  25910800   14047.071     -13.686848     -39078271       0.9534573      41829.78      -39036441       872.98723      872.98723      872.98723      2063.5064      2936.4936      2063.5064      2936.4936      2063.5064      2936.4936      6.6530943e+08  0.1            2595580        0.41802104     1411.128       14111.242      6.7892675    
  25911000   15472.539     -14.563279     -39080908       0.9534573      46074.579     -39034834       872.98723      872.98723      872.98723      2063.5064      2936.4936      2063.5064      2936.4936      2063.5064      2936.4936      6.6530943e+08  0.1            2595600        0.43233886     1396.8595      13968.651      6.7733367    
  25911200   16981.395     -15.426032     -39081684       0.9534573      50567.696     -39031116       872.98723      872.98723      872.98723      2063.5064      2936.4936      2063.5064      2936.4936      2063.5064      2936.4936      6.6530943e+08  0.1            2595620        0.44649766     1412.5473      14125.448      6.7551045    
  25911400   18565.666     -16.780876     -39097247       0.9534573      55285.382     -39041962       872.98723      872.98723      872.98723      2063.5064      2936.4936      2063.5064      2936.4936      2063.5064      2936.4936      6.6530943e+08  0.1            2595640        0.46126668     1354.1898      13541.891      6.746051     
  25911600   20213.753     -17.828182     -39098088       0.9534573      60193.103     -39037894       872.98723      872.98723      872.98723      2063.5064      2936.4936      2063.5064      2936.4936      2063.5064      2936.4936      6.6530943e+08  0.1            2595660        0.47599593     1357.8401      13578.402      6.7360895    
  25911800   21910.433     -18.970341     -39098960       0.9534573      65245.527     -39033714       872.98723      872.98723      872.98723      2063.5064      2936.4936      2063.5064      2936.4936      2063.5064      2936.4936      6.6530943e+08  0.1            2595680        0.49028385     1399.7832      13997.862      6.7197974    
  25912000   23636.351     -20.187246     -39099863       0.9534573      70385.017     -39029478       872.98723      872.98723      872.98723      2063.5064      2936.4936      2063.5064      2936.4936      2063.5064      2936.4936      6.6530943e+08  0.1            2595700        0.50439613     1417.2069      14172.055      6.7012868    
  25912200   25367.795     -21.446384     -39100796       0.9534573      75540.963     -39025255       872.98723      872.98723      872.98723      2063.5064      2936.4936      2063.5064      2936.4936      2063.5064      2936.4936      6.6530943e+08  0.1            2595720        0.5185548      1412.5692      14125.707      6.6836168    
  25912400   27076.57      -22.728094     -39101758       0.9534573      80629.401     -39021128       872.98723      872.98723      872.98723      2063.5064      2936.4936      2063.5064      2936.4936      2063.5064      2936.4936      6.6530943e+08  0.1            2595740        0.53299354     1385.1585      13851.574      6.6696436    
  25912600   28730.38      -24.042086     -39102745       0.9534573      85554.166     -39017190       872.98723      872.98723      872.98723      2063.5064      2936.4936      2063.5064      2936.4936      2063.5064      2936.4936      6.6530943e+08  0.1            2595760        0.54710546     1417.2397      14172.382      6.6516721    
  25912800   30293.617     -25.416236     -39103755       0.9534573      90209.22      -39013546       872.98723      872.98723      872.98723      2063.5064      2936.4936      2063.5064      2936.4936      2063.5064      2936.4936      6.6530943e+08  0.1            2595780        0.56193432     1348.7202      13487.18       6.6423744    
  25913000   31728.706     -26.948931     -39106680       0.9534573      94482.668     -39012197       872.98723      872.98723      872.98723      2063.5064      2936.4936      2063.5064      2936.4936      2063.5064      2936.4936      6.6530943e+08  0.1            2595800        0.57637652     1384.8306      13848.291      6.6283513    
  25913200   32998.339     -28.465833     -39107726       0.9534573      98263.419     -39009463       872.98723      872.98723      872.98723      2063.5064      2936.4936      2063.5064      2936.4936      2063.5064      2936.4936      6.6530943e+08  0.1            2595820        0.59052439     1413.64        14136.4        6.6110139    
  25913400   34068.756     -30.030579     -39108785       0.9534573      101450.94     -39007334       872.98723      872.98723      872.98723      2063.5064      2936.4936      2063.5064      2936.4936      2063.5064      2936.4936      6.6530943e+08  0.1            2595840        0.60463868     1417.0066      14170.118      6.5934603    
  25913600   34914.539     -31.624933     -39109852       0.9534573      103969.54     -39005883       872.98723      872.98723      872.98723      2063.5064      2936.4936      2063.5064      2936.4936      2063.5064      2936.4936      6.6530943e+08  0.1            2595860        0.61869986     1422.3566      14223.547      6.5755039    
  25913800   35524.229     -33.282281     -39110923       0.9534573      105785.09     -39005138       872.98723      872.98723      872.98723      2063.5064      2936.4936      2063.5064      2936.4936      2063.5064      2936.4936      6.6530943e+08  0.1            2595880        0.63308431     1390.3905      13903.925      6.5610733    
  25914000   35905.495     -35.088235     -39113891       0.9534573      106920.43     -39006970       872.98723      872.98723      872.98723      2063.5064      2936.4936      2063.5064      2936.4936      2063.5064      2936.4936      6.6530943e+08  0.1            2595900        0.64743082     1394.0659      13940.64       6.546263     
  25914200   36087.578     -36.8737       -39115329       0.9534573      107462.64     -39007867       872.98723      872.98723      872.98723      2063.5064      2936.4936      2063.5064      2936.4936      2063.5064      2936.4936      6.6530943e+08  0.1            2595920        0.66404761     1203.6024      12036.061      6.5538775    
  25914400   36119.206     -38.364335     -39109017       0.9534573      107556.83     -39001461       872.98723      872.98723      872.98723      2063.5064      2936.4936      2063.5064      2936.4936      2063.5064      2936.4936      6.6530943e+08  0.1            2595940        0.67951751     1292.8348      12928.332      6.549409     
  25914600   36062.716     -40.115644     -39111972       0.9534573      107388.61     -39004583       872.98723      872.98723      872.98723      2063.5064      2936.4936      2063.5064      2936.4936      2063.5064      2936.4936      6.6530943e+08  0.1            2595960        0.69422591     1359.7637      13597.616      6.5373109    
  25914800   35984.943     -41.759033     -39113024       0.9534573      107157.02     -39005867       872.98723      872.98723      872.98723      2063.5064      2936.4936      2063.5064      2936.4936      2063.5064      2936.4936      6.6530943e+08  0.1            2595980        0.70844764     1406.3012      14063.052      6.5206251    
  25915000   35949.92      -43.28982      -39112174       0.9534573      107052.72     -39005121       872.98723      872.98723      872.98723      2063.5064      2936.4936      2063.5064      2936.4936      2063.5064      2936.4936      6.6530943e+08  0.1            2596000        0.72257408     1415.7835      14157.812      6.5031824    
  25915200   36014.655     -44.856231     -39113212       0.9534573      107245.49     -39005966       872.98723      872.98723      872.98723      2063.5064      2936.4936      2063.5064      2936.4936      2063.5064      2936.4936      6.6530943e+08  0.1            2596020        0.73704658     1381.9271      13819.276      6.4889165    
  25915400   36226.919     -46.415319     -39116138       0.9534573      107877.58     -39008261       872.98723      872.98723      872.98723      2063.5064      2936.4936      2063.5064      2936.4936      2063.5064      2936.4936      6.6530943e+08  0.1            2596040        0.75140079     1393.3175      13933.137      6.4736232    
  25915600   36624.988     -47.842201     -39117165       0.9534573      109062.96     -39008102       872.98723      872.98723      872.98723      2063.5064      2936.4936      2063.5064      2936.4936      2063.5064      2936.4936      6.6530943e+08  0.1            2596060        0.76603876     1366.3116      13663.154      6.4607574    
  25915800   37236.377     -49.325799     -39118190       0.9534573      110883.57     -39007307       872.98723      872.98723      872.98723      2063.5064      2936.4936      2063.5064      2936.4936      2063.5064      2936.4936      6.6530943e+08  0.1            2596080        0.78049885     1383.1159      13831.103      6.4463578    
  25916000   38075.101     -50.909922     -39119218       0.9534573      113381.15     -39005836       872.98723      872.98723      872.98723      2063.5064      2936.4936      2063.5064      2936.4936      2063.5064      2936.4936      6.6530943e+08  0.1            2596100        0.79463154     1415.1621      14151.578      6.4293069    
  25916200   39137.797     -52.568156     -39120251       0.9534573      116545.68     -39003705       872.98723      872.98723      872.98723      2063.5064      2936.4936      2063.5064      2936.4936      2063.5064      2936.4936      6.6530943e+08  0.1            2596120        0.80895233     1396.5716      13965.812      6.4138503    
  25916400   40401.252     -54.237802     -39121294       0.9534573      120308.03     -39000986       872.98723      872.98723      872.98723      2063.5064      2936.4936      2063.5064      2936.4936      2063.5064      2936.4936      6.6530943e+08  0.1            2596140        0.82323028     1400.7639      14007.646      6.3981012    
  25916600   41823.682     -55.847114     -39122348       0.9534573      124543.78     -38997804       872.98723      872.98723      872.98723      2063.5064      2936.4936      2063.5064      2936.4936      2063.5064      2936.4936      6.6530943e+08  0.1            2596160        0.8375908      1392.7085      13927.089      6.3830325    
  25916800   43349.581     -57.391383     -39123413       0.9534573      129087.65     -38994326       872.98723      872.98723      872.98723      2063.5064      2936.4936      2063.5064      2936.4936      2063.5064      2936.4936      6.6530943e+08  0.1            2596180        0.85197098     1390.7993      13907.965      6.3681353    
  25917000   44916.222     -58.910231     -39124490       0.9534573      133752.84     -38990737       872.98723      872.98723      872.98723      2063.5064      2936.4936      2063.5064      2936.4936      2063.5064      2936.4936      6.6530943e+08  0.1            2596200        0.86657996     1369.0238      13690.238      6.3549326    
  25917200   46459.422     -60.410301     -39125577       0.9534573      138348.22     -38987229       872.98723      872.98723      872.98723      2063.5064      2936.4936      2063.5064      2936.4936      2063.5064      2936.4936      6.6530943e+08  0.1            2596220        0.88100588     1386.3913      13863.899      6.3403671    
  25917400   47917.774     -61.6222       -39117401       0.9534573      142690.95     -38974710       872.98723      872.98723      872.98723      2063.5064      2936.4936      2063.5064      2936.4936      2063.5064      2936.4936      6.6530943e+08  0.1            2596240        0.89528795     1400.3596      14003.579      6.3247888    
  25917600   49235.347     -63.166039     -39118504       0.9534573      146614.46     -38971889       872.98723      872.98723      872.98723      2063.5064      2936.4936      2063.5064      2936.4936      2063.5064      2936.4936      6.6530943e+08  0.1            2596260        0.90972268     1385.5412      13855.439      6.3103116    
  25917800   50365.226     -64.57699      -39112232       0.9534573      149979.04     -38962253       872.98723      872.98723      872.98723      2063.5064      2936.4936      2063.5064      2936.4936      2063.5064      2936.4936      6.6530943e+08  0.1            2596280        0.92406876     1394.1113      13941.115      6.2952306    
  25918000   51273.353     -66.247702     -39113340       0.9534573      152683.29     -38960657       872.98723      872.98723      872.98723      2063.5064      2936.4936      2063.5064      2936.4936      2063.5064      2936.4936      6.6530943e+08  0.1            2596300        0.93874135     1363.0886      13630.882      6.2823577    
  25918200   51942.089     -68.13929      -39121826       0.9534573      154674.67     -38967151       872.98723      872.98723      872.98723      2063.5064      2936.4936      2063.5064      2936.4936      2063.5064      2936.4936      6.6530943e+08  0.1            2596320        0.95327772     1375.8603      13758.585      6.2685349    
  25918400   52373.483     -70.043536     -39130308       0.9534573      155959.29     -38974349       872.98723      872.98723      872.98723      2063.5064      2936.4936      2063.5064      2936.4936      2063.5064      2936.4936      6.6530943e+08  0.1            2596340        0.96804828     1354.0437      13540.467      6.2562039    
  25918600   52591.093     -71.838483     -39131775       0.9534573      156607.29     -38975168       872.98723      872.98723      872.98723      2063.5064      2936.4936      2063.5064      2936.4936      2063.5064      2936.4936      6.6530943e+08  0.1            2596360        0.98252721     1381.3186      13813.203      6.2419482    
  25918800   52639.202     -73.486926     -39130971       0.9534573      156750.56     -38974220       872.98723      872.98723      872.98723      2063.5064      2936.4936      2063.5064      2936.4936      2063.5064      2936.4936      6.6530943e+08  0.1            2596380        0.99660501     1420.6704      14206.664      6.2251817    
  25919000   52576.303     -75.18047      -39132051       0.9534573      156563.25     -38975488       872.98723      872.98723      872.98723      2063.5064      2936.4936      2063.5064      2936.4936      2063.5064      2936.4936      6.6530943e+08  0.1            2596400        1.0107727      1411.6696      14116.709      6.2090428    
  25919200   52469.262     -76.880333     -39133119       0.9534573      156244.5      -38976875       872.98723      872.98723      872.98723      2063.5064      2936.4936      2063.5064      2936.4936      2063.5064      2936.4936      6.6530943e+08  0.1            2596420        1.0250559      1400.2433      14002.475      6.1936579    
  25919400   52385.953     -78.63404      -39134176       0.9534573      155996.42     -38978180       872.98723      872.98723      872.98723      2063.5064      2936.4936      2063.5064      2936.4936      2063.5064      2936.4936      6.6530943e+08  0.1            2596440        1.0393656      1397.6553      13976.544      6.1784612    
  25919600   52389.636     -80.521876     -39135593       0.9534573      156007.39     -38979585       872.98723      872.98723      872.98723      2063.5064      2936.4936      2063.5064      2936.4936      2063.5064      2936.4936      6.6530943e+08  0.1            2596460        1.0537786      1387.6371      13876.357      6.1638932    
  25919800   52534.785     -82.34374      -39136633       0.9534573      156439.62     -38980194       872.98723      872.98723      872.98723      2063.5064      2936.4936      2063.5064      2936.4936      2063.5064      2936.4936      6.6530943e+08  0.1            2596480        1.0685492      1354.0446      13540.432      6.1513875    
  25920000   52865.102     -84.141932     -39137666       0.9534573      157423.25     -38980243       872.98723      872.98723      872.98723      2063.5064      2936.4936      2063.5064      2936.4936      2063.5064      2936.4936      6.6530943e+08  0.1            2596500        1.082923       1391.4104      13914.093      6.1365742    
  25920200   53412.746     -85.720276     -39131315       0.9534573      159054.04     -38972261       872.98723      872.98723      872.98723      2063.5064      2936.4936      2063.5064      2936.4936      2063.5064      2936.4936      6.6530943e+08  0.1            2596520        1.0970624      1414.4923      14144.953      6.1204632    
  25920400   54195.909     -87.657504     -39141612       0.9534573      161386.16     -38980226       872.98723      872.98723      872.98723      2063.5064      2936.4936      2063.5064      2936.4936      2063.5064      2936.4936      6.6530943e+08  0.1            2596540        1.111393       1395.6152      13956.126      6.1054543    
  25920600   55215.011     -89.124149     -39142636       0.9534573      164420.88     -38978215       872.98723      872.98723      872.98723      2063.5064      2936.4936      2063.5064      2936.4936      2063.5064      2936.4936      6.6530943e+08  0.1            2596560        1.1257537      1392.692       13926.862      6.0906262    
  25920800   56451.749     -90.273495     -39136281       0.9534573      168103.67     -38968178       872.98723      872.98723      872.98723      2063.5064      2936.4936      2063.5064      2936.4936      2063.5064      2936.4936      6.6530943e+08  0.1            2596580        1.1402963      1375.2703      13752.789      6.076778     
  25921000   57869.442     -91.835287     -39144685       0.9534573      172325.32     -38972359       872.98723      872.98723      872.98723      2063.5064      2936.4936      2063.5064      2936.4936      2063.5064      2936.4936      6.6530943e+08  0.1            2596600        1.1548413      1375.0417      13750.386      6.0629259    
  25921200   59415.259     -93.460289     -39153090       0.9534573      176928.5      -38976162       872.98723      872.98723      872.98723      2063.5064      2936.4936      2063.5064      2936.4936      2063.5064      2936.4936      6.6530943e+08  0.1            2596620        1.1698732      1330.5044      13305.094      6.051575     
  25921400   61025.272     -94.921227     -39154121       0.9534573      181722.84     -38972398       872.98723      872.98723      872.98723      2063.5064      2936.4936      2063.5064      2936.4936      2063.5064      2936.4936      6.6530943e+08  0.1            2596640        1.1840252      1413.2269      14132.243      6.0356495    
  25921600   62630.283     -96.414181     -39155154       0.9534573      186502.29     -38968651       872.98723      872.98723      872.98723      2063.5064      2936.4936      2063.5064      2936.4936      2063.5064      2936.4936      6.6530943e+08  0.1            2596660        1.1982048      1410.4789      14104.778      6.019905     
  25921800   64161.7       -97.940264     -39156187       0.9534573      191062.59     -38965124       872.98723      872.98723      872.98723      2063.5064      2936.4936      2063.5064      2936.4936      2063.5064      2936.4936      6.6530943e+08  0.1            2596680        1.2124932      1399.7347      13997.342      6.0047366    
  25922000   65556.21      -99.477836     -39157219       0.9534573      195215.2      -38962004       872.98723      872.98723      872.98723      2063.5064      2936.4936      2063.5064      2936.4936      2063.5064      2936.4936      6.6530943e+08  0.1            2596700        1.2266994      1407.8428      14078.396      5.9891876    
  25922200   66759.746     -101.23674     -39165628       0.9534573      198799.12     -38966829       872.98723      872.98723      872.98723      2063.5064      2936.4936      2063.5064      2936.4936      2063.5064      2936.4936      6.6530943e+08  0.1            2596720        1.2413024      1369.5784      13695.79       5.9755806    
  25922400   67731.723     -102.81071     -39166655       0.9534573      201693.51     -38964961       872.98723      872.98723      872.98723      2063.5064      2936.4936      2063.5064      2936.4936      2063.5064      2936.4936      6.6530943e+08  0.1            2596740        1.2556207      1396.8183      13968.201      5.960598     
  25922600   68449.042     -104.40953     -39167674       0.9534573      203829.56     -38963844       872.98723      872.98723      872.98723      2063.5064      2936.4936      2063.5064      2936.4936      2063.5064      2936.4936      6.6530943e+08  0.1            2596760        1.2703799      1355.0865      13550.89       5.9476954    
  25922800   68910.069     -106.06712     -39168684       0.9534573      205202.42     -38963482       872.98723      872.98723      872.98723      2063.5064      2936.4936      2063.5064      2936.4936      2063.5064      2936.4936      6.6530943e+08  0.1            2596780        1.2847567      1391.1242      13911.213      5.9329855    
  25923000   69135.958     -107.79557     -39169685       0.9534573      205875.08     -38963810       872.98723      872.98723      872.98723      2063.5064      2936.4936      2063.5064      2936.4936      2063.5064      2936.4936      6.6530943e+08  0.1            2596800        1.2990003      1404.1395      14041.428      5.9176757    
  25923200   69169.186     -109.56115     -39170674       0.9534573      205974.02     -38964700       872.98723      872.98723      872.98723      2063.5064      2936.4936      2063.5064      2936.4936      2063.5064      2936.4936      6.6530943e+08  0.1            2596820        1.3132909      1399.5181      13995.178      5.9026011    
  25923400   69069.184     -111.26381     -39171650       0.9534573      205676.24     -38965974       872.98723      872.98723      872.98723      2063.5064      2936.4936      2063.5064      2936.4936      2063.5064      2936.4936      6.6530943e+08  0.1            2596840        1.3273949      1418.038       14180.332      5.8867158    
  25923600   68905.604     -112.8177      -39172614       0.9534573      205189.12     -38967425       872.98723      872.98723      872.98723      2063.5064      2936.4936      2063.5064      2936.4936      2063.5064      2936.4936      6.6530943e+08  0.1            2596860        1.341736       1394.596       13945.958      5.8719062    
  25923800   68750.927     -114.20973     -39173564       0.9534573      204728.52     -38968835       872.98723      872.98723      872.98723      2063.5064      2936.4936      2063.5064      2936.4936      2063.5064      2936.4936      6.6530943e+08  0.1            2596880        1.3561631      1386.2791      13862.838      5.857478     
  25924000   68674.45      -115.74102     -39181877       0.9534573      204500.78     -38977376       872.98723      872.98723      872.98723      2063.5064      2936.4936      2063.5064      2936.4936      2063.5064      2936.4936      6.6530943e+08  0.1            2596900        1.3712122      1328.9845      13289.835      5.8457016    
  25924200   68737.879     -117.08429     -39182799       0.9534573      204689.67     -38978110       872.98723      872.98723      872.98723      2063.5064      2936.4936      2063.5064      2936.4936      2063.5064      2936.4936      6.6530943e+08  0.1            2596920        1.3856032      1389.7559      13897.56       5.8310876    
  25924400   68992.038     -118.54582     -39185606       0.9534573      205446.51     -38980159       872.98723      872.98723      872.98723      2063.5064      2936.4936      2063.5064      2936.4936      2063.5064      2936.4936      6.6530943e+08  0.1            2596940        1.3998533      1403.5021      14035.06       5.8158921    
  25924600   69474.391     -119.90896     -39186507       0.9534573      206882.87     -38979624       872.98723      872.98723      872.98723      2063.5064      2936.4936      2063.5064      2936.4936      2063.5064      2936.4936      6.6530943e+08  0.1            2596960        1.4140635      1407.4411      14074.4        5.8005529    
  25924800   70206.911     -121.43668     -39194778       0.9534573      209064.19     -38985714       872.98723      872.98723      872.98723      2063.5064      2936.4936      2063.5064      2936.4936      2063.5064      2936.4936      6.6530943e+08  0.1            2596980        1.428179       1416.8734      14168.693      5.7848534    
  25925000   71194.032     -122.80372     -39195664       0.9534573      212003.67     -38983660       872.98723      872.98723      872.98723      2063.5064      2936.4936      2063.5064      2936.4936      2063.5064      2936.4936      6.6530943e+08  0.1            2597000        1.4426213      1384.8297      13848.303      5.7704919    
  25925200   72420.555     -124.43594     -39203924       0.9534573      215656.05     -38988268       872.98723      872.98723      872.98723      2063.5064      2936.4936      2063.5064      2936.4936      2063.5064      2936.4936      6.6530943e+08  0.1            2597020        1.4572444      1367.6947      13676.926      5.7568437    
  25925400   73851.128     -125.81637     -39204803       0.9534573      219916.05     -38984887       872.98723      872.98723      872.98723      2063.5064      2936.4936      2063.5064      2936.4936      2063.5064      2936.4936      6.6530943e+08  0.1            2597040        1.4719552      1359.5512      13595.528      5.7435181    
  25925600   75431.698     -127.22176     -39213056       0.9534573      224622.72     -38988434       872.98723      872.98723      872.98723      2063.5064      2936.4936      2063.5064      2936.4936      2063.5064      2936.4936      6.6530943e+08  0.1            2597060        1.4861454      1409.4193      14094.216      5.728159     
  25925800   77095.638     -127.82715     -39199171       0.9534573      229577.64     -38969593       872.98723      872.98723      872.98723      2063.5064      2936.4936      2063.5064      2936.4936      2063.5064      2936.4936      6.6530943e+08  0.1            2597080        1.5003466      1408.3269      14083.254      5.7128649    
  25926000   78769.284     -128.85022     -39201929       0.9534573      234561.48     -38967368       872.98723      872.98723      872.98723      2063.5064      2936.4936      2063.5064      2936.4936      2063.5064      2936.4936      6.6530943e+08  0.1            2597100        1.5145457      1408.5457      14085.464      5.6975829    
  25926200   80378.409     -130.15131     -39212060       0.9534573      239353.18     -38972706       872.98723      872.98723      872.98723      2063.5064      2936.4936      2063.5064      2936.4936      2063.5064      2936.4936      6.6530943e+08  0.1            2597120        1.5288936      1393.9303      13939.294      5.6828751    
  25926400   81853.747     -130.97925     -39205165       0.9534573      243746.48     -38961418       872.98723      872.98723      872.98723      2063.5064      2936.4936      2063.5064      2936.4936      2063.5064      2936.4936      6.6530943e+08  0.1            2597140        1.5433778      1380.8165      13808.174      5.6686742    
  25926600   83134.811     -132.13626     -39206009       0.9534573      247561.27     -38958447       872.98723      872.98723      872.98723      2063.5064      2936.4936      2063.5064      2936.4936      2063.5064      2936.4936      6.6530943e+08  0.1            2597160        1.5579604      1371.4918      13714.926      5.6548256    
  25926800   84175.169     -133.49387     -39208737       0.9534573      250659.28     -38958078       872.98723      872.98723      872.98723      2063.5064      2936.4936      2063.5064      2936.4936      2063.5064      2936.4936      6.6530943e+08  0.1            2597180        1.5727522      1352.105       13521.036      5.6417135    
  25927000   84947.751     -135.2427      -39218834       0.9534573      252959.9      -38965875       872.98723      872.98723      872.98723      2063.5064      2936.4936      2063.5064      2936.4936      2063.5064      2936.4936      6.6530943e+08  0.1            2597200        1.5870624      1397.6066      13976.07       5.6268635    
  25927200   85446.725     -136.86983     -39219649       0.9534573      254445.76     -38965204       872.98723      872.98723      872.98723      2063.5064      2936.4936      2063.5064      2936.4936      2063.5064      2936.4936      6.6530943e+08  0.1            2597220        1.6012935      1405.3657      14053.679      5.6117463    
  25927400   85689.565     -138.47725     -39220453       0.9534573      255168.89     -38965284       872.98723      872.98723      872.98723      2063.5064      2936.4936      2063.5064      2936.4936      2063.5064      2936.4936      6.6530943e+08  0.1            2597240        1.6154642      1411.365       14113.6        5.5964358    
  25927600   85716.295     -140.21209     -39228989       0.9534573      255248.49     -38973741       872.98723      872.98723      872.98723      2063.5064      2936.4936      2063.5064      2936.4936      2063.5064      2936.4936      6.6530943e+08  0.1            2597260        1.6298006      1395.0511      13950.508      5.5817124    
  25927800   85586.088     -141.42875     -39222386       0.9534573      254860.76     -38967525       872.98723      872.98723      872.98723      2063.5064      2936.4936      2063.5064      2936.4936      2063.5064      2936.4936      6.6530943e+08  0.1            2597280        1.6442455      1384.5727      13845.753      5.5673634    
  25928000   85371.281     -143.07226     -39230524       0.9534573      254221.1      -38976303       872.98723      872.98723      872.98723      2063.5064      2936.4936      2063.5064      2936.4936      2063.5064      2936.4936      6.6530943e+08  0.1            2597300        1.6589565      1359.5316      13595.322      5.5539034    
  25928200   85148.841     -144.52157     -39233164       0.9534573      253558.71     -38979605       872.98723      872.98723      872.98723      2063.5064      2936.4936      2063.5064      2936.4936      2063.5064      2936.4936      6.6530943e+08  0.1            2597320        1.6735642      1369.1355      13691.357      5.5400802    
  25928400   84994.222     -145.7127      -39233895       0.9534573      253098.28     -38980797       872.98723      872.98723      872.98723      2063.5064      2936.4936      2063.5064      2936.4936      2063.5064      2936.4936      6.6530943e+08  0.1            2597340        1.6879026      1394.8556      13948.54       5.5253622    
  25928600   84975.64      -146.85817     -39234980       0.9534573      253042.94     -38981937       872.98723      872.98723      872.98723      2063.5064      2936.4936      2063.5064      2936.4936      2063.5064      2936.4936      6.6530943e+08  0.1            2597360        1.7021066      1408.0496      14080.529      5.5102151    
  25928800   85150.312     -147.87599     -39235683       0.9534573      253563.09     -38982120       872.98723      872.98723      872.98723      2063.5064      2936.4936      2063.5064      2936.4936      2063.5064      2936.4936      6.6530943e+08  0.1            2597380        1.716271       1411.9946      14119.882      5.4949575    
  25929000   85561.064     -148.89936     -39236370       0.9534573      254786.24     -38981583       872.98723      872.98723      872.98723      2063.5064      2936.4936      2063.5064      2936.4936      2063.5064      2936.4936      6.6530943e+08  0.1            2597400        1.7306521      1390.7098      13907.099      5.4804039    
  25929200   86234.921     -150.38188     -39251797       0.9534573      256792.87     -38995004       872.98723      872.98723      872.98723      2063.5064      2936.4936      2063.5064      2936.4936      2063.5064      2936.4936      6.6530943e+08  0.1            2597420        1.7451332      1381.1188      13811.194      5.4661664    
  25929400   87180.193     -151.41289     -39252456       0.9534573      259607.73     -38992848       872.98723      872.98723      872.98723      2063.5064      2936.4936      2063.5064      2936.4936      2063.5064      2936.4936      6.6530943e+08  0.1            2597440        1.7598181      1361.9442      13619.47       5.4525565    
  25929600   88384.603     -152.48961     -39260481       0.9534573      263194.25     -38997287       872.98723      872.98723      872.98723      2063.5064      2936.4936      2063.5064      2936.4936      2063.5064      2936.4936      6.6530943e+08  0.1            2597460        1.7741858      1392.0142      13920.109      5.4379568    
  25929800   89814.41      -153.25589     -39263014       0.9534573      267451.98     -38995562       872.98723      872.98723      872.98723      2063.5064      2936.4936      2063.5064      2936.4936      2063.5064      2936.4936      6.6530943e+08  0.1            2597480        1.788756       1372.6554      13726.575      5.4239752    
  25930000   91416.727     -153.79048     -39263644       0.9534573      272223.4      -38991421       872.98723      872.98723      872.98723      2063.5064      2936.4936      2063.5064      2936.4936      2063.5064      2936.4936      6.6530943e+08  0.1            2597500        1.8031383      1390.5976      13905.915      5.4094204    
  25930200   93123.654     -154.20664     -39262004       0.9534573      277306.34     -38984698       872.98723      872.98723      872.98723      2063.5064      2936.4936      2063.5064      2936.4936      2063.5064      2936.4936      6.6530943e+08  0.1            2597520        1.8174065      1401.72        14017.159      5.3945297    
  25930400   94857.927     -154.84999     -39262619       0.9534573      282470.71     -38980148       872.98723      872.98723      872.98723      2063.5064      2936.4936      2063.5064      2936.4936      2063.5064      2936.4936      6.6530943e+08  0.1            2597540        1.8320344      1367.2512      13672.568      5.3807049    
  25930600   96539.771     -155.5258      -39263222       0.9534573      287478.95     -38975743       872.98723      872.98723      872.98723      2063.5064      2936.4936      2063.5064      2936.4936      2063.5064      2936.4936      6.6530943e+08  0.1            2597560        1.8463979      1392.423       13924.283      5.3660988    
  25930800   98094.149     -156.47789     -39271193       0.9534573      292107.63     -38979086       872.98723      872.98723      872.98723      2063.5064      2936.4936      2063.5064      2936.4936      2063.5064      2936.4936      6.6530943e+08  0.1            2597580        1.8614008      1333.0721      13330.701      5.3533359    
  25931000   99455.591     -157.05071     -39264029       0.9534573      296161.77     -38967867       872.98723      872.98723      872.98723      2063.5064      2936.4936      2063.5064      2936.4936      2063.5064      2936.4936      6.6530943e+08  0.1            2597600        1.8760265      1367.4579      13674.595      5.3394649    
  25931200   100572.61     -157.87922     -39262706       0.9534573      299488.05     -38963218       872.98723      872.98723      872.98723      2063.5064      2936.4936      2063.5064      2936.4936      2063.5064      2936.4936      6.6530943e+08  0.1            2597620        1.8905116      1380.7316      13807.295      5.3251863    
  25931400   101411.61     -158.78318     -39263264       0.9534573      301986.45     -38961277       872.98723      872.98723      872.98723      2063.5064      2936.4936      2063.5064      2936.4936      2063.5064      2936.4936      6.6530943e+08  0.1            2597640        1.9050092      1379.533       13795.288      5.3109399    
  25931600   101960.77     -159.73177     -39263805       0.9534573      303621.77     -38960184       872.98723      872.98723      872.98723      2063.5064      2936.4936      2063.5064      2936.4936      2063.5064      2936.4936      6.6530943e+08  0.1            2597660        1.919367       1392.9717      13929.756      5.2963033    
  25931800   102233.31     -160.83914     -39264329       0.9534573      304433.35     -38959895       872.98723      872.98723      872.98723      2063.5064      2936.4936      2063.5064      2936.4936      2063.5064      2936.4936      6.6530943e+08  0.1            2597680        1.9338002      1385.6936      13856.957      5.2818772    
  25932000   102267.15     -162.03007     -39264835       0.9534573      304534.1      -38960301       872.98723      872.98723      872.98723      2063.5064      2936.4936      2063.5064      2936.4936      2063.5064      2936.4936      6.6530943e+08  0.1            2597700        1.9484949      1361.041       13610.39       5.2681576    
  25932200   102120.84     -163.1615      -39265326       0.9534573      304098.43     -38961227       872.98723      872.98723      872.98723      2063.5064      2936.4936      2063.5064      2936.4936      2063.5064      2936.4936      6.6530943e+08  0.1            2597720        1.9634927      1333.5201      13335.207      5.2552354    
  25932400   101867        -164.21571     -39265800       0.9534573      303342.52     -38962458       872.98723      872.98723      872.98723      2063.5064      2936.4936      2063.5064      2936.4936      2063.5064      2936.4936      6.6530943e+08  0.1            2597740        1.9781709      1362.5688      13625.694      5.2414357    
  25932600   101586.35     -165.22132     -39266259       0.9534573      302506.81     -38963753       872.98723      872.98723      872.98723      2063.5064      2936.4936      2063.5064      2936.4936      2063.5064      2936.4936      6.6530943e+08  0.1            2597760        1.9924909      1396.6518      13966.502      5.2266836    
  25932800   101360.1      -165.8419      -39259326       0.9534573      301833.07     -38957493       872.98723      872.98723      872.98723      2063.5064      2936.4936      2063.5064      2936.4936      2063.5064      2936.4936      6.6530943e+08  0.1            2597780        2.0066999      1407.5482      14075.501      5.2116498    
  25933000   101262.37     -166.39626     -39259755       0.9534573      301542.06     -38958213       872.98723      872.98723      872.98723      2063.5064      2936.4936      2063.5064      2936.4936      2063.5064      2936.4936      6.6530943e+08  0.1            2597800        2.0209498      1403.5284      14035.285      5.1967325    
  25933200   101356.33     -166.83231     -39260166       0.9534573      301821.86     -38958344       872.98723      872.98723      872.98723      2063.5064      2936.4936      2063.5064      2936.4936      2063.5064      2936.4936      6.6530943e+08  0.1            2597820        2.0354816      1376.2944      13762.941      5.1825426    
  25933400   101692.31     -167.79966     -39277212       0.9534573      302822.33     -38974389       872.98723      872.98723      872.98723      2063.5064      2936.4936      2063.5064      2936.4936      2063.5064      2936.4936      6.6530943e+08  0.1            2597840        2.0496865      1407.9592      14079.614      5.1675238    
  25933600   102303.32     -168.35554     -39279488       0.9534573      304641.82     -38974846       872.98723      872.98723      872.98723      2063.5064      2936.4936      2063.5064      2936.4936      2063.5064      2936.4936      6.6530943e+08  0.1            2597860        2.0646787      1334.0259      13340.239      5.154482     
  25933800   103201.44     -168.78684     -39279856       0.9534573      307316.27     -38972540       872.98723      872.98723      872.98723      2063.5064      2936.4936      2063.5064      2936.4936      2063.5064      2936.4936      6.6530943e+08  0.1            2597880        2.0793775      1360.6607      13606.643      5.1406875    
  25934000   104376.9      -169.15467     -39280209       0.9534573      310816.58     -38969393       872.98723      872.98723      872.98723      2063.5064      2936.4936      2063.5064      2936.4936      2063.5064      2936.4936      6.6530943e+08  0.1            2597900        2.0936627      1400.0493      14000.489      5.1258679    
  25934200   105797.71     -169.32224     -39273172       0.9534573      315047.53     -38958124       872.98723      872.98723      872.98723      2063.5064      2936.4936      2063.5064      2936.4936      2063.5064      2936.4936      6.6530943e+08  0.1            2597920        2.1079891      1396.0215      13960.206      5.1111558    
  25934400   107411.37     -169.44001     -39266123       0.9534573      319852.73     -38946270       872.98723      872.98723      872.98723      2063.5064      2936.4936      2063.5064      2936.4936      2063.5064      2936.4936      6.6530943e+08  0.1            2597940        2.1223198      1395.6059      13956.026      5.0964593    
  25934600   109148.5      -169.67205     -39266440       0.9534573      325025.6      -38941415       872.98723      872.98723      872.98723      2063.5064      2936.4936      2063.5064      2936.4936      2063.5064      2936.4936      6.6530943e+08  0.1            2597960        2.1368164      1379.6303      13796.308      5.0821622    
  25934800   110929.26     -169.92504     -39266745       0.9534573      330328.41     -38936417       872.98723      872.98723      872.98723      2063.5064      2936.4936      2063.5064      2936.4936      2063.5064      2936.4936      6.6530943e+08  0.1            2597980        2.1515134      1360.8262      13608.28       5.0683344    
  25935000   112670.81     -170.36147     -39274415       0.9534573      335514.43     -38938900       872.98723      872.98723      872.98723      2063.5064      2936.4936      2063.5064      2936.4936      2063.5064      2936.4936      6.6530943e+08  0.1            2598000        2.1663154      1351.164       13511.61       5.0547401    
  25935200   114294.1      -170.75189     -39282072       0.9534573      340348.31     -38941724       872.98723      872.98723      872.98723      2063.5064      2936.4936      2063.5064      2936.4936      2063.5064      2936.4936      6.6530943e+08  0.1            2598020        2.1810296      1359.2335      13592.393      5.0409267    
  25935400   115728.32     -171.05191     -39282339       0.9534573      344619.18     -38937719       872.98723      872.98723      872.98723      2063.5064      2936.4936      2063.5064      2936.4936      2063.5064      2936.4936      6.6530943e+08  0.1            2598040        2.1954145      1390.3523      13903.538      5.0263474    
  25935600   116916.69     -171.58221     -39288074       0.9534573      348157.93     -38939916       872.98723      872.98723      872.98723      2063.5064      2936.4936      2063.5064      2936.4936      2063.5064      2936.4936      6.6530943e+08  0.1            2598060        2.2096581      1404.1323      14041.288      5.0114508    
  25935800   117821.8      -172.16322     -39295690       0.9534573      350853.21     -38944837       872.98723      872.98723      872.98723      2063.5064      2936.4936      2063.5064      2936.4936      2063.5064      2936.4936      6.6530943e+08  0.1            2598080        2.2238929      1405.0113      14050.118      4.9965423    
  25936000   118427.17     -172.57573     -39295912       0.9534573      352655.9      -38943256       872.98723      872.98723      872.98723      2063.5064      2936.4936      2063.5064      2936.4936      2063.5064      2936.4936      6.6530943e+08  0.1            2598100        2.2384964      1369.5389      13695.358      4.9824635    
  25936200   118741.38     -173.12002     -39296115       0.9534573      353591.54     -38942523       872.98723      872.98723      872.98723      2063.5064      2936.4936      2063.5064      2936.4936      2063.5064      2936.4936      6.6530943e+08  0.1            2598120        2.2528892      1389.579       13895.805      4.9679134    
  25936400   118798.83     -173.67993     -39296303       0.9534573      353762.63     -38942540       872.98723      872.98723      872.98723      2063.5064      2936.4936      2063.5064      2936.4936      2063.5064      2936.4936      6.6530943e+08  0.1            2598140        2.2677723      1343.8108      13438.145      4.9544361    
  25936600   118655.79     -173.99311     -39294582       0.9534573      353336.68     -38941245       872.98723      872.98723      872.98723      2063.5064      2936.4936      2063.5064      2936.4936      2063.5064      2936.4936      6.6530943e+08  0.1            2598160        2.2822087      1385.3838      13853.816      4.9399745    
  25936800   118384.09     -174.28464     -39295110       0.9534573      352527.62     -38942583       872.98723      872.98723      872.98723      2063.5064      2936.4936      2063.5064      2936.4936      2063.5064      2936.4936      6.6530943e+08  0.1            2598180        2.2966403      1385.8427      13858.386      4.9255029    
  25937000   118065.24     -174.4329      -39295255       0.9534573      351578.12     -38943677       872.98723      872.98723      872.98723      2063.5064      2936.4936      2063.5064      2936.4936      2063.5064      2936.4936      6.6530943e+08  0.1            2598200        2.3110419      1388.7352      13887.386      4.9109678    
  25937200   117783.06     -174.54322     -39295383       0.9534573      350737.84     -38944645       872.98723      872.98723      872.98723      2063.5064      2936.4936      2063.5064      2936.4936      2063.5064      2936.4936      6.6530943e+08  0.1            2598220        2.3254339      1389.6639      13896.639      4.8964142    
  25937400   117617.64     -174.69169     -39295496       0.9534573      350245.24     -38945251       872.98723      872.98723      872.98723      2063.5064      2936.4936      2063.5064      2936.4936      2063.5064      2936.4936      6.6530943e+08  0.1            2598240        2.3399758      1375.3319      13753.331      4.8821753    
  25937600   117638.55     -174.78584     -39295592       0.9534573      350307.5      -38945285       872.98723      872.98723      872.98723      2063.5064      2936.4936      2063.5064      2936.4936      2063.5064      2936.4936      6.6530943e+08  0.1            2598260        2.3545198      1375.1435      13751.42       4.8679371    
  25937800   117901.34     -174.89042     -39295672       0.9534573      351090.07     -38944582       872.98723      872.98723      872.98723      2063.5064      2936.4936      2063.5064      2936.4936      2063.5064      2936.4936      6.6530943e+08  0.1            2598280        2.369147       1367.3115      13673.129      4.8538657    
  25938000   118444.12     -175.06653     -39295737       0.9534573      352706.36     -38943031       872.98723      872.98723      872.98723      2063.5064      2936.4936      2063.5064      2936.4936      2063.5064      2936.4936      6.6530943e+08  0.1            2598300        2.3833719      1405.991       14059.882      4.8389706    
  25938200   119284.74     -175.30869     -39295788       0.9534573      355209.58     -38940579       872.98723      872.98723      872.98723      2063.5064      2936.4936      2063.5064      2936.4936      2063.5064      2936.4936      6.6530943e+08  0.1            2598320        2.3977546      1390.556       13905.522      4.8244014    
  25938400   120418.31     -175.59602     -39295828       0.9534573      358585.16     -38937243       872.98723      872.98723      872.98723      2063.5064      2936.4936      2063.5064      2936.4936      2063.5064      2936.4936      6.6530943e+08  0.1            2598340        2.412115       1392.7138      13927.191      4.8097898    
  25938600   121815.9      -176.29686     -39310614       0.9534573      362746.95     -38947867       872.98723      872.98723      872.98723      2063.5064      2936.4936      2063.5064      2936.4936      2063.5064      2936.4936      6.6530943e+08  0.1            2598360        2.4262591      1414.0241      14140.228      4.7947535    
  25938800   123425.32     -176.38185     -39310634       0.9534573      367539.52     -38943094       872.98723      872.98723      872.98723      2063.5064      2936.4936      2063.5064      2936.4936      2063.5064      2936.4936      6.6530943e+08  0.1            2598380        2.4406854      1386.357       13863.516      4.7802808    
  25939000   125176.13     -176.09262     -39310638       0.9534573      372753.13     -38937885       872.98723      872.98723      872.98723      2063.5064      2936.4936      2063.5064      2936.4936      2063.5064      2936.4936      6.6530943e+08  0.1            2598400        2.4552943      1369.0289      13690.301      4.7661629    
  25939200   126987.19     -175.66588     -39310628       0.9534573      378146.16     -38932482       872.98723      872.98723      872.98723      2063.5064      2936.4936      2063.5064      2936.4936      2063.5064      2936.4936      6.6530943e+08  0.1            2598420        2.4702978      1333.0141      13330.179      4.7527986    
  25939400   128772.98     -175.66675     -39317980       0.9534573      383463.94     -38934516       872.98723      872.98723      872.98723      2063.5064      2936.4936      2063.5064      2936.4936      2063.5064      2936.4936      6.6530943e+08  0.1            2598440        2.4848611      1373.3192      13733.154      4.7385758    
  25939600   130451.39     -175.94535     -39325319       0.9534573      388461.96     -38936857       872.98723      872.98723      872.98723      2063.5064      2936.4936      2063.5064      2936.4936      2063.5064      2936.4936      6.6530943e+08  0.1            2598460        2.4990917      1405.4184      14054.207      4.72372      
  25939800   131949.28     -176.17621     -39325270       0.9534573      392922.43     -38932348       872.98723      872.98723      872.98723      2063.5064      2936.4936      2063.5064      2936.4936      2063.5064      2936.4936      6.6530943e+08  0.1            2598480        2.5134447      1393.4435      13925.704      4.7091176    
  25940000   133205.52     -176.25219     -39325209       0.9534573      396663.29     -38928545       872.98723      872.98723      872.98723      2063.5064      2936.4936      2063.5064      2936.4936      2063.5064      2936.4936      6.6530943e+08  0.1            2598500        2.527966       1377.2816      13781.379      4.6947973    
  25940200   134176.35     -176.17252     -39327024       0.9534573      399554.25     -38927470       872.98723      872.98723      872.98723      2063.5064      2936.4936      2063.5064      2936.4936      2063.5064      2936.4936      6.6530943e+08  0.1            2598520        2.5424565      1380.2222      13802.219      4.6804344    
  25940400   134840.83     -176.10527     -39328819       0.9534573      401532.95     -38927286       872.98723      872.98723      872.98723      2063.5064      2936.4936      2063.5064      2936.4936      2063.5064      2936.4936      6.6530943e+08  0.1            2598540        2.5570111      1374.1318      13741.315      4.6661873    
  25940600   135204.42     -176.2777      -39337607       0.9534573      402615.67     -38934992       872.98723      872.98723      872.98723      2063.5064      2936.4936      2063.5064      2936.4936      2063.5064      2936.4936      6.6530943e+08  0.1            2598560        2.5717076      1360.8697      13608.721      4.6521932    
  25940800   135297.69     -176.1714      -39337111       0.9534573      402893.43     -38934217       872.98723      872.98723      872.98723      2063.5064      2936.4936      2063.5064      2936.4936      2063.5064      2936.4936      6.6530943e+08  0.1            2598580        2.5861021      1389.4143      13894.06       4.6376503    
  25941000   135173.03     -176.08618     -39336972       0.9534573      402522.2      -38934450       872.98723      872.98723      872.98723      2063.5064      2936.4936      2063.5064      2936.4936      2063.5064      2936.4936      6.6530943e+08  0.1            2598600        2.600543       1384.9487      13849.56       4.6231909    
  25941200   134900.98     -175.96169     -39334927       0.9534573      401712.08     -38933215       872.98723      872.98723      872.98723      2063.5064      2936.4936      2063.5064      2936.4936      2063.5064      2936.4936      6.6530943e+08  0.1            2598620        2.6150041      1383.0337      13830.327      4.6087672    
  25941400   134563.53     -175.78221     -39327389       0.9534573      400707.21     -38926682       872.98723      872.98723      872.98723      2063.5064      2936.4936      2063.5064      2936.4936      2063.5064      2936.4936      6.6530943e+08  0.1            2598640        2.6293429      1394.8166      13948.172      4.5941296    
  25941600   134246.74     -175.8937      -39329115       0.9534573      399763.87     -38929351       872.98723      872.98723      872.98723      2063.5064      2936.4936      2063.5064      2936.4936      2063.5064      2936.4936      6.6530943e+08  0.1            2598660        2.6439127      1372.7063      13727.088      4.5798953    
  25941800   134033.79     -175.7219      -39321928       0.9534573      399129.75     -38922798       872.98723      872.98723      872.98723      2063.5064      2936.4936      2063.5064      2936.4936      2063.5064      2936.4936      6.6530943e+08  0.1            2598680        2.6585131      1369.8224      13698.22       4.5657102    
  25942000   133998.93     -175.62469     -39319848       0.9534573      399025.94     -38920822       872.98723      872.98723      872.98723      2063.5064      2936.4936      2063.5064      2936.4936      2063.5064      2936.4936      6.6530943e+08  0.1            2598700        2.6739973      1291.6387      12916.37       4.5530253    
  25942200   134202.11     -175.32255     -39312276       0.9534573      399630.97     -38912645       872.98723      872.98723      872.98723      2063.5064      2936.4936      2063.5064      2936.4936      2063.5064      2936.4936      6.6530943e+08  0.1            2598720        2.6884393      1384.8433      13848.412      4.5385511    
  25942400   134685.22     -175.42977     -39319448       0.9534573      401069.59     -38918378       872.98723      872.98723      872.98723      2063.5064      2936.4936      2063.5064      2936.4936      2063.5064      2936.4936      6.6530943e+08  0.1            2598740        2.7027897      1393.6951      13936.984      4.5239236    
  25942600   135469.24     -175.09111     -39311850       0.9534573      403404.26     -38908446       872.98723      872.98723      872.98723      2063.5064      2936.4936      2063.5064      2936.4936      2063.5064      2936.4936      6.6530943e+08  0.1            2598760        2.7169218      1415.2187      14152.202      4.5089368    
  25942800   136552.9      -174.73802     -39311617       0.9534573      406631.22     -38904986       872.98723      872.98723      872.98723      2063.5064      2936.4936      2063.5064      2936.4936      2063.5064      2936.4936      6.6530943e+08  0.1            2598780        2.7311459      1406.0621      14060.644      4.4941105    
  25943000   137910.42     -174.40422     -39313267       0.9534573      410673.68     -38902593       872.98723      872.98723      872.98723      2063.5064      2936.4936      2063.5064      2936.4936      2063.5064      2936.4936      6.6530943e+08  0.1            2598800        2.7457161      1372.6682      13726.639      4.4798553    
  25943200   139493.97     -174.03959     -39313012       0.9534573      415389.21     -38897623       872.98723      872.98723      872.98723      2063.5064      2936.4936      2063.5064      2936.4936      2063.5064      2936.4936      6.6530943e+08  0.1            2598820        2.7605851      1345.0716      13450.689      4.4660804    
  25943400   141235.96     -173.47451     -39312750       0.9534573      420576.58     -38892173       872.98723      872.98723      872.98723      2063.5064      2936.4936      2063.5064      2936.4936      2063.5064      2936.4936      6.6530943e+08  0.1            2598840        2.7752398      1364.7587      13647.611      4.4519499    
  25943600   143055.96     -173.00022     -39327235       0.9534573      425996.22     -38901239       872.98723      872.98723      872.98723      2063.5064      2936.4936      2063.5064      2936.4936      2063.5064      2936.4936      6.6530943e+08  0.1            2598860        2.7893911      1413.2992      14133.002      4.4370133    
  25943800   144866.07     -171.94451     -39325056       0.9534573      431386.41     -38893670       872.98723      872.98723      872.98723      2063.5064      2936.4936      2063.5064      2936.4936      2063.5064      2936.4936      6.6530943e+08  0.1            2598880        2.8036348      1404.1256      14041.24       4.4222308    
  25944000   146581        -170.89016     -39317379       0.9534573      436493.2      -38880886       872.98723      872.98723      872.98723      2063.5064      2936.4936      2063.5064      2936.4936      2063.5064      2936.4936      6.6530943e+08  0.1            2598900        2.8178192      1409.9985      14099.915      4.4073611    
  25944200   148124.89     -170.17752     -39309691       0.9534573      441090.64     -38868600       872.98723      872.98723      872.98723      2063.5064      2936.4936      2063.5064      2936.4936      2063.5064      2936.4936      6.6530943e+08  0.1            2598920        2.8321689      1393.7592      13937.659      4.3927544    
  25944400   149435.3      -169.85136     -39309371       0.9534573      444992.8      -38864378       872.98723      872.98723      872.98723      2063.5064      2936.4936      2063.5064      2936.4936      2063.5064      2936.4936      6.6530943e+08  0.1            2598940        2.8466687      1379.335       13793.337      4.3783814    
  25944600   150467.27     -168.75022     -39286910       0.9534573      448065.83     -38838844       872.98723      872.98723      872.98723      2063.5064      2936.4936      2063.5064      2936.4936      2063.5064      2936.4936      6.6530943e+08  0.1            2598960        2.8612264      1373.8323      13738.328      4.3640955    
  25944800   151196.11     -168.20882     -39286573       0.9534573      450236.2      -38836337       872.98723      872.98723      872.98723      2063.5064      2936.4936      2063.5064      2936.4936      2063.5064      2936.4936      6.6530943e+08  0.1            2598980        2.8759925      1354.464       13544.625      4.3501219    
  25945000   151621.15     -167.56285     -39278851       0.9534573      451501.9      -38827349       872.98723      872.98723      872.98723      2063.5064      2936.4936      2063.5064      2936.4936      2063.5064      2936.4936      6.6530943e+08  0.1            2599000        2.8902235      1405.3779      14053.762      4.3353379    
  25945200   151765.95     -167.16259     -39278497       0.9534573      451933.08     -38826564       872.98723      872.98723      872.98723      2063.5064      2936.4936      2063.5064      2936.4936      2063.5064      2936.4936      6.6530943e+08  0.1            2599020        2.9042861      1422.2092      14222.168      4.3203087    
  25945400   151677.16     -166.79103     -39278130       0.9534573      451668.67     -38826461       872.98723      872.98723      872.98723      2063.5064      2936.4936      2063.5064      2936.4936      2063.5064      2936.4936      6.6530943e+08  0.1            2599040        2.9184037      1416.6723      14166.663      4.3053705    
  25945600   151422.14     -166.46935     -39277752       0.9534573      450909.29     -38826843       872.98723      872.98723      872.98723      2063.5064      2936.4936      2063.5064      2936.4936      2063.5064      2936.4936      6.6530943e+08  0.1            2599060        2.9324246      1426.4491      14264.545      4.2902985    
  25945800   151081.28     -166.03035     -39277365       0.9534573      449894.24     -38827471       872.98723      872.98723      872.98723      2063.5064      2936.4936      2063.5064      2936.4936      2063.5064      2936.4936      6.6530943e+08  0.1            2599080        2.9466871      1402.2728      14022.714      4.2755877    
  25946000   150740.28     -165.46301     -39276966       0.9534573      448878.82     -38828087       872.98723      872.98723      872.98723      2063.5064      2936.4936      2063.5064      2936.4936      2063.5064      2936.4936      6.6530943e+08  0.1            2599100        2.9611008      1387.5715      13875.682      4.2610987    
  25946200   150485.01     -165.04486     -39276556       0.9534573      448118.66     -38828438       872.98723      872.98723      872.98723      2063.5064      2936.4936      2063.5064      2936.4936      2063.5064      2936.4936      6.6530943e+08  0.1            2599120        2.9758402      1356.9087      13569.141      4.2470753    
  25946400   150394.5      -164.78613     -39275771       0.9534573      447849.15     -38827922       872.98723      872.98723      872.98723      2063.5064      2936.4936      2063.5064      2936.4936      2063.5064      2936.4936      6.6530943e+08  0.1            2599140        2.990029       1409.5526      14095.506      4.2322657    
  25946600   150534.57     -164.40368     -39275351       0.9534573      448266.25     -38827085       872.98723      872.98723      872.98723      2063.5064      2936.4936      2063.5064      2936.4936      2063.5064      2936.4936      6.6530943e+08  0.1            2599160        3.0043615      1395.4295      13954.239      4.2176639    
  25946800   150952.75     -163.48515     -39265654       0.9534573      449511.52     -38816142       872.98723      872.98723      872.98723      2063.5064      2936.4936      2063.5064      2936.4936      2063.5064      2936.4936      6.6530943e+08  0.1            2599180        3.0184026      1424.3949      14243.984      4.2026587    
  25947000   151675.68     -162.56575     -39257847       0.9534573      451664.29     -38806182       872.98723      872.98723      872.98723      2063.5064      2936.4936      2063.5064      2936.4936      2063.5064      2936.4936      6.6530943e+08  0.1            2599200        3.0325437      1414.317       14143.139      4.1878009    
  25947200   152705.89     -161.96053     -39264789       0.9534573      454732.05     -38810057       872.98723      872.98723      872.98723      2063.5064      2936.4936      2063.5064      2936.4936      2063.5064      2936.4936      6.6530943e+08  0.1            2599220        3.0468473      1398.2482      13982.511      4.1731724    
  25947400   154020.87     -161.08604     -39264345       0.9534573      458647.84     -38805697       872.98723      872.98723      872.98723      2063.5064      2936.4936      2063.5064      2936.4936      2063.5064      2936.4936      6.6530943e+08  0.1            2599240        3.0614804      1366.764       13667.63       4.1589947    
  25947600   155574.85     -160.25468     -39263891       0.9534573      463275.33     -38800616       872.98723      872.98723      872.98723      2063.5064      2936.4936      2063.5064      2936.4936      2063.5064      2936.4936      6.6530943e+08  0.1            2599260        3.0760391      1373.7478      13737.497      4.1447124    
  25947800   157301.82     -159.36354     -39263429       0.9534573      468417.97     -38795011       872.98723      872.98723      872.98723      2063.5064      2936.4936      2063.5064      2936.4936      2063.5064      2936.4936      6.6530943e+08  0.1            2599280        3.0902439      1407.9735      14079.655      4.1299547    
  25948000   159122.02     -158.56935     -39270335       0.9534573      473838.19     -38796496       872.98723      872.98723      872.98723      2063.5064      2936.4936      2063.5064      2936.4936      2063.5064      2936.4936      6.6530943e+08  0.1            2599300        3.1044787      1405.0149      14050.206      4.1152415    
  25948200   160949.43     -157.56272     -39269855       0.9534573      479279.92     -38790575       872.98723      872.98723      872.98723      2063.5064      2936.4936      2063.5064      2936.4936      2063.5064      2936.4936      6.6530943e+08  0.1            2599320        3.118508       1425.5804      14255.823      4.1002629    
  25948400   162698.15     -156.73161     -39276747       0.9534573      484487.29     -38792259       872.98723      872.98723      872.98723      2063.5064      2936.4936      2063.5064      2936.4936      2063.5064      2936.4936      6.6530943e+08  0.1            2599340        3.1325977      1419.4769      14194.75       4.0853717    
  25948600   164288.4      -156.03111     -39285525       0.9534573      489222.8      -38796302       872.98723      872.98723      872.98723      2063.5064      2936.4936      2063.5064      2936.4936      2063.5064      2936.4936      6.6530943e+08  0.1            2599360        3.1469351      1394.9577      13949.606      4.0708082    
  25948800   165653.02     -155.1834      -39285019       0.9534573      493286.42     -38791733       872.98723      872.98723      872.98723      2063.5064      2936.4936      2063.5064      2936.4936      2063.5064      2936.4936      6.6530943e+08  0.1            2599380        3.1615431      1369.1142      13691.153      4.056594     
  25949000   166743.66     -154.59169     -39284507       0.9534573      496534.14     -38787972       872.98723      872.98723      872.98723      2063.5064      2936.4936      2063.5064      2936.4936      2063.5064      2936.4936      6.6530943e+08  0.1            2599400        3.1764161      1344.7189      13447.179      4.0427136    
  25949200   167532.51     -153.89706     -39283989       0.9534573      498883.2      -38785106       872.98723      872.98723      872.98723      2063.5064      2936.4936      2063.5064      2936.4936      2063.5064      2936.4936      6.6530943e+08  0.1            2599420        3.1905432      1415.7195      14157.208      4.0278825    
  25949400   168013.73     -153.28169     -39290842       0.9534573      500316.18     -38790526       872.98723      872.98723      872.98723      2063.5064      2936.4936      2063.5064      2936.4936      2063.5064      2936.4936      6.6530943e+08  0.1            2599440        3.2047385      1408.9167      14089.152      4.0131431    
  25949600   168206.69     -152.7742      -39297687       0.9534573      500890.8      -38796796       872.98723      872.98723      872.98723      2063.5064      2936.4936      2063.5064      2936.4936      2063.5064      2936.4936      6.6530943e+08  0.1            2599460        3.2188316      1419.1329      14191.302      3.9982818    
  25949800   168155.13     -152.24406     -39304525       0.9534573      500737.26     -38803788       872.98723      872.98723      872.98723      2063.5064      2936.4936      2063.5064      2936.4936      2063.5064      2936.4936      6.6530943e+08  0.1            2599480        3.2329085      1420.7618      14207.632      3.9834073    
[...]
  26594400   309.50177      1.5059305     -39869490       0.99613686     921.64341     -39868569       860.33708      860.33708      860.33708      2069.8315      2930.1685      2069.8315      2930.1685      2069.8315      2930.1685      6.368042e+08   0.1            2663940        25.802958      1103.4509      11034.537      0.94509806   
  26594600   309.52295      4.4269228     -39869604       0.99625064     921.7065      -39868682       860.30432      860.30432      860.30432      2069.8478      2930.1522      2069.8478      2930.1522      2069.8478      2930.1522      6.3673147e+08  0.1            2663960        25.820423      1145.1686      11451.628      0.92725283   
  26594800   309.50676      3.1625497     -39869722       0.99621164     921.65827     -39868801       860.31555      860.31555      860.31555      2069.8422      2930.1578      2069.8422      2930.1578      2069.8422      2930.1578      6.367564e+08   0.1            2663980        25.837619      1163.0321      11630.355      0.90939868   
  26595000   309.44676     -0.19139553    -39869840       0.99609634     921.4796      -39868919       860.34874      860.34874      860.34874      2069.8256      2930.1744      2069.8256      2930.1744      2069.8256      2930.1744      6.368301e+08   0.1            2664000        25.854633      1175.5168      11755.142      0.89153914   
  26595200   309.45061     -1.8202345     -39869956       0.99604402     921.49108     -39869035       860.3638       860.3638       860.3638       2069.8181      2930.1819      2069.8181      2930.1819      2069.8181      2930.1819      6.3686355e+08  0.1            2664020        25.871976      1153.2128      11532.139      0.87369188   
  26595400   309.47147     -0.61852318    -39870073       0.99609505     921.5532      -39869152       860.34911      860.34911      860.34911      2069.8254      2930.1746      2069.8254      2930.1746      2069.8254      2930.1746      6.3683092e+08  0.1            2664040        25.889224      1159.5547      11595.551      0.85584218   
  26595600   309.48757      1.6680751     -39870189       0.99618577     921.60113     -39869268       860.323        860.323        860.323        2069.8385      2930.1615      2069.8385      2930.1615      2069.8385      2930.1615      6.3677293e+08  0.1            2664060        25.906748      1141.2689      11412.686      0.83800225   
  26595800   309.49038      2.9419228     -39870305       0.99623955     921.60951     -39869383       860.30752      860.30752      860.30752      2069.8462      2930.1538      2069.8462      2930.1538      2069.8462      2930.1538      6.3673856e+08  0.1            2664080        25.923998      1159.4479      11594.489      0.82015406   
  26596000   309.45283      2.5319927     -39870422       0.99623178     921.49769     -39869500       860.30975      860.30975      860.30975      2069.8451      2930.1549      2069.8451      2930.1549      2069.8451      2930.1549      6.3674353e+08  0.1            2664100        25.94097       1178.3853      11783.842      0.80229811   
  26596200   309.45877      1.1591507     -39870539       0.9961888      921.51538     -39869617       860.32212      860.32212      860.32212      2069.8389      2930.1611      2069.8389      2930.1611      2069.8389      2930.1611      6.36771e+08    0.1            2664120        25.957972      1176.3372      11763.393      0.78444428   
  26596400   309.46146     -0.048306486   -39870655       0.99615188     921.52338     -39869734       860.33275      860.33275      860.33275      2069.8336      2930.1664      2069.8336      2930.1664      2069.8336      2930.1664      6.367946e+08   0.1            2664140        25.975237      1158.4161      11584.167      0.76659937   
  26596600   309.4574      -0.40222454    -39870771       0.99614617     921.51131     -39869850       860.33439      860.33439      860.33439      2069.8328      2930.1672      2069.8328      2930.1672      2069.8328      2930.1672      6.3679824e+08  0.1            2664160        25.992619      1150.639       11506.385      0.74875862   
  26596800   309.45412      0.10071739    -39870888       0.99617183     921.50153     -39869966       860.32701      860.32701      860.32701      2069.8365      2930.1635      2069.8365      2930.1635      2069.8365      2930.1635      6.3678184e+08  0.1            2664180        26.010263      1133.5356      11335.355      0.73092588   
  26597000   309.42652      1.0141038     -39871004       0.99621253     921.41935     -39870082       860.31529      860.31529      860.31529      2069.8424      2930.1576      2069.8424      2930.1576      2069.8424      2930.1576      6.3675583e+08  0.1            2664200        26.027567      1155.769       11557.641      0.71308409   
  26597200   309.44883      1.8123798     -39871119       0.99624905     921.48578     -39870198       860.30478      860.30478      860.30478      2069.8476      2930.1524      2069.8476      2930.1524      2069.8476      2930.1524      6.3673249e+08  0.1            2664220        26.044719      1166.0696      11660.744      0.69523896   
  26597400   309.4633       2.1513446     -39871235       0.99626877     921.52886     -39870314       860.2991       860.2991       860.2991       2069.8504      2930.1496      2069.8504      2930.1496      2069.8504      2930.1496      6.3671988e+08  0.1            2664240        26.061955      1160.351       11603.513      0.67739697   
  26597600   309.46051      1.9526244     -39871352       0.99626883     921.52057     -39870430       860.29909      860.29909      860.29909      2069.8505      2930.1495      2069.8505      2930.1495      2069.8505      2930.1495      6.3671985e+08  0.1            2664260        26.079281      1154.3498      11543.455      0.65955808   
  26597800   309.44894      1.3567342     -39871468       0.99625434     921.48611     -39870546       860.30326      860.30326      860.30326      2069.8484      2930.1516      2069.8484      2930.1516      2069.8484      2930.1516      6.3672911e+08  0.1            2664280        26.096896      1135.3997      11354.04       0.64172699   
  26598000   309.4089       0.61966103    -39871584       0.99623469     921.36688     -39870663       860.30891      860.30891      860.30891      2069.8455      2930.1545      2069.8455      2930.1545      2069.8455      2930.1545      6.3674167e+08  0.1            2664300        26.114236      1153.4038      11534.028      0.62388964   
  26598200   309.42032      0.010371765   -39871700       0.99621972     921.40087     -39870779       860.31322      860.31322      860.31322      2069.8434      2930.1566      2069.8434      2930.1566      2069.8434      2930.1566      6.3675123e+08  0.1            2664320        26.131269      1174.1874      11741.878      0.60604584   
  26598400   309.42988     -0.26389388    -39871816       0.99621702     921.42935     -39870894       860.314        860.314        860.314        2069.843       2930.157       2069.843       2930.157       2069.843       2930.157       6.3675296e+08  0.1            2664340        26.148141      1185.3977      11853.962      0.58819953   
  26598600   309.42959     -0.10090233    -39871932       0.99623034     921.42847     -39871010       860.31016      860.31016      860.31016      2069.8449      2930.1551      2069.8449      2930.1551      2069.8449      2930.1551      6.3674444e+08  0.1            2664360        26.165435      1156.4477      11564.454      0.57036375   
  26598800   309.42673      0.47754397    -39872048       0.9962589      921.41997     -39871126       860.30195      860.30195      860.30195      2069.849       2930.151       2069.849       2930.151       2069.849       2930.151       6.3672619e+08  0.1            2664380        26.182335      1183.4226      11834.251      0.55252039   
  26599000   309.39879      1.3304562     -39872163       0.99629751     921.33677     -39871242       860.29083      860.29083      860.29083      2069.8546      2930.1454      2069.8546      2930.1454      2069.8546      2930.1454      6.3670151e+08  0.1            2664400        26.199866      1140.8503      11408.533      0.53469118   
  26599200   309.42152      2.223978      -39872278       0.99633762     921.40446     -39871357       860.27929      860.27929      860.27929      2069.8604      2930.1396      2069.8604      2930.1396      2069.8604      2930.1396      6.3667588e+08  0.1            2664420        26.217292      1147.7292      11477.226      0.51686031   
  26599400   309.43811      2.8755268     -39872394       0.99636887     921.45386     -39871472       860.27029      860.27029      860.27029      2069.8649      2930.1351      2069.8649      2930.1351      2069.8649      2930.1351      6.3665592e+08  0.1            2664440        26.234393      1169.5223      11695.261      0.49902381   
  26599600   309.43771      3.0193708     -39872509       0.9963815      921.45266     -39871588       860.26666      860.26666      860.26666      2069.8667      2930.1333      2069.8667      2930.1333      2069.8667      2930.1333      6.3664784e+08  0.1            2664460        26.2513        1182.8914      11828.922      0.48118477   
  26599800   309.42648      2.4909516     -39872625       0.99636948     921.41922     -39871704       860.27012      860.27012      860.27012      2069.8649      2930.1351      2069.8649      2930.1351      2069.8649      2930.1351      6.3665552e+08  0.1            2664480        26.268863      1138.7911      11387.924      0.46335854   
  26600000   309.38325      1.3140843     -39872742       0.99633369     921.29047     -39871820       860.28042      860.28042      860.28042      2069.8598      2930.1402      2069.8598      2930.1402      2069.8598      2930.1402      6.3667839e+08  0.1            2664500        26.286177      1155.1137      11551.1        0.44552846   
  26600200   309.38716     -0.2408538     -39872857       0.99628404     921.30213     -39871936       860.29471      860.29471      860.29471      2069.8526      2930.1474      2069.8526      2930.1474      2069.8526      2930.1474      6.3671012e+08  0.1            2664520        26.304051      1118.944       11189.429      0.42770818   
  26600400   309.38756     -1.6800727     -39872972       0.99623861     921.30332     -39872051       860.30778      860.30778      860.30778      2069.8461      2930.1539      2069.8461      2930.1539      2069.8461      2930.1539      6.3673916e+08  0.1            2664540        26.321515      1145.2261      11452.246      0.40988145   
  26600600   309.37992     -2.4384629     -39873087       0.99621812     921.28057     -39872166       860.31368      860.31368      860.31368      2069.8432      2930.1568      2069.8432      2930.1568      2069.8432      2930.1568      6.3675225e+08  0.1            2664560        26.338566      1172.9603      11729.665      0.39204905   
  26600800   309.37464     -2.1346842     -39873203       0.99623655     921.26484     -39872282       860.30838      860.30838      860.30838      2069.8458      2930.1542      2069.8458      2930.1542      2069.8458      2930.1542      6.3674048e+08  0.1            2664580        26.355584      1175.2208      11752.209      0.37421724   
  26601000   309.35036     -0.80182448    -39873319       0.99629268     921.19255     -39872398       860.29222      860.29222      860.29222      2069.8539      2930.1461      2069.8539      2930.1461      2069.8539      2930.1461      6.367046e+08   0.1            2664600        26.373124      1140.2196      11402.214      0.3563936    
  26601200   309.38014      1.077479      -39873434       0.99636882     921.28122     -39872513       860.27031      860.27031      860.27031      2069.8648      2930.1352      2069.8648      2930.1352      2069.8648      2930.1352      6.3665595e+08  0.1            2664620        26.390453      1154.1529      11541.481      0.33856762   
  26601400   309.40453      2.7989287     -39873549       0.99643915     921.35387     -39872627       860.25007      860.25007      860.25007      2069.875       2930.125       2069.875       2930.125       2069.875       2930.125       6.3661101e+08  0.1            2664640        26.408134      1131.1662      11311.634      0.32074659   
  26601600   309.41033      3.7896535     -39873663       0.99648269     921.37114     -39872741       860.23754      860.23754      860.23754      2069.8812      2930.1188      2069.8812      2930.1188      2069.8812      2930.1188      6.365832e+08   0.1            2664660        26.425256      1168.1257      11681.32       0.30291934   
  26601800   309.40341      3.8473311     -39873778       0.996492       921.35051     -39872857       860.23486      860.23486      860.23486      2069.8826      2930.1174      2069.8826      2930.1174      2069.8826      2930.1174      6.3657725e+08  0.1            2664680        26.442195      1180.7037      11807.063      0.28509107   
  26602000   309.36402      3.140679      -39873894       0.99647327     921.23321     -39872973       860.24025      860.24025      860.24025      2069.8799      2930.1201      2069.8799      2930.1201      2069.8799      2930.1201      6.3658921e+08  0.1            2664700        26.459321      1167.7672      11677.626      0.26726589   
  26602200   309.37115      2.0411213     -39874010       0.99644012     921.25447     -39873089       860.24979      860.24979      860.24979      2069.8751      2930.1249      2069.8751      2930.1249      2069.8751      2930.1249      6.3661039e+08  0.1            2664720        26.476682      1151.9958      11519.945      0.24944386   
  26602400   309.37395      0.93091411    -39874126       0.99640655     921.26279     -39873204       860.25945      860.25945      860.25945      2069.8703      2930.1297      2069.8703      2930.1297      2069.8703      2930.1297      6.3663184e+08  0.1            2664740        26.494063      1150.7275      11507.306      0.23162262   
  26602600   309.36563      0.079632106   -39874241       0.99638244     921.23801     -39873320       860.26639      860.26639      860.26639      2069.8668      2930.1332      2069.8668      2930.1332      2069.8668      2930.1332      6.3664724e+08  0.1            2664760        26.511646      1137.4626      11374.602      0.21380361   
  26602800   309.35455     -0.39604031    -39874356       0.99637209     921.20504     -39873435       860.26937      860.26937      860.26937      2069.8653      2930.1347      2069.8653      2930.1347      2069.8653      2930.1347      6.3665386e+08  0.1            2664780        26.528868      1161.2868      11612.892      0.19598225   
  26603000   309.31987     -0.50901007    -39874471       0.99637501     921.10175     -39873550       860.26852      860.26852      860.26852      2069.8657      2930.1343      2069.8657      2930.1343      2069.8657      2930.1343      6.3665199e+08  0.1            2664800        26.545845      1178.034       11780.288      0.17816005   
  26603200   309.33655     -0.34896628    -39874586       0.99638795     921.15141     -39873665       860.2648       860.2648       860.2648       2069.8676      2930.1324      2069.8676      2930.1324      2069.8676      2930.1324      6.3664373e+08  0.1            2664820        26.562815      1178.606       11786.088      0.16033893   
  26603400   309.35031     -0.028941621   -39874701       0.99640674     921.1924      -39873779       860.25939      860.25939      860.25939      2069.8703      2930.1297      2069.8703      2930.1297      2069.8703      2930.1297      6.3663172e+08  0.1            2664840        26.580138      1154.5434      11545.432      0.14252086   
  26603600   309.35157      0.35183965    -39874816       0.99642776     921.19616     -39873894       860.25335      860.25335      860.25335      2069.8733      2930.1267      2069.8733      2930.1267      2069.8733      2930.1267      6.3661829e+08  0.1            2664860        26.597804      1132.0742      11320.745      0.12470505   
  26603800   309.34724      0.72434473    -39874930       0.99644847     921.18326     -39874009       860.24739      860.24739      860.24739      2069.8763      2930.1237      2069.8763      2930.1237      2069.8763      2930.1237      6.3660506e+08  0.1            2664880        26.615793      1111.7957      11117.942      0.10689074   
  26604000   309.31642      1.0510258     -39875045       0.9964675      921.09149     -39874124       860.24191      860.24191      860.24191      2069.879       2930.121       2069.879       2930.121       2069.879       2930.121       6.365929e+08   0.1            2664900        26.633186      1149.8705      11498.696      0.089074209  
  26604200   309.33411      1.3192863     -39875160       0.99648437     921.14415     -39874239       860.23705      860.23705      860.23705      2069.8815      2930.1185      2069.8815      2930.1185      2069.8815      2930.1185      6.3658212e+08  0.1            2664920        26.650315      1167.6274      11676.271      0.071257533  
  26604400   309.34726      1.531495      -39875274       0.99649919     921.1833      -39874353       860.23279      860.23279      860.23279      2069.8836      2930.1164      2069.8836      2930.1164      2069.8836      2930.1164      6.3657266e+08  0.1            2664940        26.667654      1153.4783      11534.828      0.053442196  
  26604600   309.34711      1.6972668     -39875389       0.99651229     921.18286     -39874468       860.22902      860.22902      860.22902      2069.8855      2930.1145      2069.8855      2930.1145      2069.8855      2930.1145      6.3656429e+08  0.1            2664960        26.684838      1163.8816      11638.799      0.03562729   
  26604800   309.34118      1.8287569     -39875503       0.99652412     921.16522     -39874582       860.22562      860.22562      860.22562      2069.8872      2930.1128      2069.8872      2930.1128      2069.8872      2930.1128      6.3655673e+08  0.1            2664980        26.702709      1119.1252      11191.264      0.017813683  
  26605000   309.30915      1.9372601     -39875618       0.9965351      921.06982     -39874697       860.22246      860.22246      860.22246      2069.8888      2930.1112      2069.8888      2930.1112      2069.8888      2930.1112      6.3654971e+08  0.1            2665000        26.71997       1158.6554      11586.5        0            
Loop time of 26.72 on 8 procs for 300000 steps with 1000 atoms

Performance: 97.006 ns/day, 0.247 hours/ns, 11227.534 timesteps/s
99.4% CPU use with 8 MPI tasks x no OpenMP threads

MPI task timing breakdown:
Section |  min time  |  avg time  |  max time  |%varavg| %total
---------------------------------------------------------------
Pair    | 1.6707     | 4.1848     | 7.6023     |  88.0 | 15.66
Neigh   | 0.0010919  | 0.0028814  | 0.0052229  |   2.3 |  0.01
Comm    | 11.217     | 13.019     | 14.42      |  29.1 | 48.72
Output  | 0.058296   | 0.13126    | 0.62946    |  52.0 |  0.49
Modify  | 6.6157     | 7.6446     | 8.2628     |  19.1 | 28.61
Other   |            | 1.737      |            |       |  6.50

Nlocal:            125 ave         217 max          54 min
Histogram: 1 1 1 1 0 2 1 0 0 1
Nghost:        391.125 ave         460 max         335 min
Histogram: 1 1 0 2 0 2 0 1 0 1
Neighs:            697 ave        1383 max         245 min
Histogram: 1 1 2 0 2 0 1 0 0 1

Total # of neighbors = 5576
Ave neighs/atom = 5.576
Neighbor list builds = 40
Dangerous builds = 17

# run_style
run_style verlet

# write restart
write_restart ${write_res}
write_restart ./pgnpmf/200800/equpmf38.res
System init for write_restart ...
Generated 0 of 1 mixed pair_coeff terms from geometric mixing rule

Total wall time: 0:00:55
