ITEM: TIMESTEP
0
ITEM: NUMBER OF ATOMS
1000
ITEM: BOX BOUNDS pp pp pp
-1.0000000000000000e+02 4.1000000000000000e+03
-1.0000000000000000e+02 4.1000000000000000e+03
-1.0000000000000000e+02 4.1000000000000000e+03
ITEM: ATOMS type x y z ix iy iz
1 534.927 295.558 213.477 0 0 0
1 381.284 625.458 447.298 0 0 0
1 104.865 579.621 584.044 0 0 0
1 847.084 903.407 119.041 0 0 0
1 5.281 47.272 63.116 0 0 0
1 872.949 308.133 856.715 0 0 0
1 561.432 854.525 491.128 0 0 0
1 511.334 933.628 40.61 0 0 0
1 664.281 655.034 983.347 0 0 0
1 835.826 844.489 643.652 0 0 0
1 102.032 227.919 672.487 0 0 0
1 894.549 136.18 988.486 0 0 0
1 796.44 546.297 367.919 0 0 0
1 1619.92 1593.52 1255.85 0 0 0
1 714.711 22.413 603.005 0 0 0
1 412.128 504.834 613.586 0 0 0
1 377.167 953.04 173.343 0 0 0
1 787.543 20.508 899.653 0 0 0
1 74.117 534.591 717.191 0 0 0
1 435.147 575.084 71.92 0 0 0
1 803.448 38.969 263.954 0 0 0
1 756.876 441.241 272.011 0 0 0
1 294.3 214.446 976.725 0 0 0
1 312.931 295.419 333.787 0 0 0
1 648.675 660.447 412.503 0 0 0
1 252.146 911.945 494.475 0 0 0
1 439.259 464.266 502.02 0 0 0
1 43.518 738.752 499.808 0 0 0
1 796.639 660.823 24.794 0 0 0
1 415.639 48.142 429.357 0 0 0
1 349.866 1.039 879.344 0 0 0
1 241.511 709.48 896.14 0 0 0
1 509.287 664.07 440.073 0 0 0
1 922.731 351.393 45.814 0 0 0
1 162.46 964.515 186.019 0 0 0
1 352.866 145.193 819.576 0 0 0
1 191.368 425.241 489.084 0 0 0
1 56.874 967.972 71.927 0 0 0
1 674.348 421.892 759.473 0 0 0
1 822.77 741.703 924.793 0 0 0
1 949.937 295.325 439.063 0 0 0
1 582.886 578.954 314.966 0 0 0
1 176.516 674.171 213.018 0 0 0
1 981.297 599.982 434.989 0 0 0
1 26.604 494.763 168.414 0 0 0
1 364.855 45.722 303.608 0 0 0
1 247.912 63.73 856.438 0 0 0
1 897.457 81.412 528.409 0 0 0
1 902.511 708.559 318.543 0 0 0
1 881.873 941.093 559.824 0 0 0
1 516.732 980.559 963.964 0 0 0
1 530.318 97.948 42.19 0 0 0
1 938.659 509.658 164.933 0 0 0
1 298.722 435.824 1001.51 0 0 0
1 879.419 935.148 817.783 0 0 0
1 778.803 194.917 111.189 0 0 0
1 713.919 2.591 1.01 0 0 0
1 760.848 618.078 272.091 0 0 0
1 386.687 775.731 42.174 0 0 0
1 688.72 542.852 463.74 0 0 0
1 565.773 375.038 719.953 0 0 0
1 151.096 864.636 307.055 0 0 0
1 17.646 535.525 894.987 0 0 0
1 626.948 608.827 183.003 0 0 0
1 759.228 141.36 566.773 0 0 0
1 491.314 594.475 839.259 0 0 0
1 104.661 286.505 446.82 0 0 0
1 625.049 690.341 3.374 0 0 0
1 175.217 603.497 0.003 0 0 0
1 526.924 431.397 418.997 0 0 0
1 242.568 557.468 939.183 0 0 0
1 527.675 263.916 678.212 0 0 0
1 330.051 395.047 739.282 0 0 0
1 274.438 169.47 479.558 0 0 0
1 578.988 102.686 853.708 0 0 0
1 856.702 142.163 188.256 0 0 0
1 57.791 463.341 298.258 0 0 0
1 574.066 425.311 135.613 0 0 0
1 791.544 800.009 373.471 0 0 0
1 624.401 251.283 347.897 0 0 0
1 311.502 565.424 246.204 0 0 0
1 67.553 596.91 334.372 0 0 0
1 805.722 528.917 164.132 0 0 0
1 155.768 237.745 792.919 0 0 0
1 789.893 763.061 553.426 0 0 0
1 430.081 275.643 357.78 0 0 0
1 597.076 207.81 91.179 0 0 0
1 752.213 195.908 368.047 0 0 0
1 852.499 846.793 236.82 0 0 0
1 120.751 150.596 972.735 0 0 0
1 499.68 735.755 669.164 0 0 0
1 877.597 327.1 603.088 0 0 0
1 671.343 547.234 713.519 0 0 0
1 0.001 662.248 410.587 0 0 0
1 656.649 842.236 630.031 0 0 0
1 885.746 411.941 715.889 0 0 0
1 431.176 870.358 481.855 0 0 0
1 656.332 878.557 969.537 0 0 0
1 233.975 290.736 633.464 0 0 0
1 934.846 999.317 231.851 0 0 0
1 705.071 1391.37 12.138 0 0 0
1 889.428 538.284 929.779 0 0 0
1 728.514 862.463 505.678 0 0 0
1 758.919 639.613 653.26 0 0 0
1 802.668 394.082 35.715 0 0 0
1 632.249 685.942 582.454 0 0 0
1 272.023 379.302 876.299 0 0 0
1 519.672 940.185 768.409 0 0 0
1 373.8 346.633 623.368 0 0 0
1 741.406 356.143 358.44 0 0 0
1 440.722 750.346 908.261 0 0 0
1 635.942 12.037 288.876 0 0 0
1 219.069 58.617 627.607 0 0 0
1 2510.72 1344.26 505.97 0 0 0
1 2319.99 928.021 163.896 0 0 0
1 2773.97 724.454 357.482 0 0 0
1 3054.41 792.543 823.387 0 0 0
1 2608.42 456.507 0 0 0 0
1 2295.01 23.706 870.013 0 0 0
1 2710.39 393.615 214.327 0 0 0
1 2531.69 384.511 753.616 0 0 0
1 3043.86 386.195 626.267 0 0 0
1 2783.29 754.669 776.941 0 0 0
1 2832.64 350.053 855.617 0 0 0
1 2893.3 229.251 884.116 0 0 0
1 3014.83 840.469 524.349 0 0 0
1 2686.13 0 936.804 0 0 0
1 2932.28 333.878 585.991 0 0 0
1 2779.24 478.931 848.599 0 0 0
1 2632.48 844.973 1029.17 0 0 0
1 2458.72 812.391 634.332 0 0 0
1 2620.84 756.988 137.848 0 0 0
1 2323.51 1044.53 694.499 0 0 0
1 2746.42 370.784 498.674 0 0 0
1 2492.86 927.553 385.87 0 0 0
1 2915.84 665.47 0.285 0 0 0
1 2952.96 0 135.931 0 0 0
1 2329.22 207.207 683.31 0 0 0
1 2789.74 773.067 488.716 0 0 0
1 2393.25 88.748 794.397 0 0 0
1 2496.93 994.672 489.668 0 0 0
1 2604 431.102 163.392 0 0 0
1 2676.11 188.346 574.625 0 0 0
1 3102.45 257.774 366.209 0 0 0
1 3100.49 692.887 906.397 0 0 0
1 2687.68 948.636 42.4 0 0 0
1 2932.67 275.505 722.488 0 0 0
1 2752.45 515.765 340.164 0 0 0
1 2258.26 145.078 844.344 0 0 0
1 3031.45 283.36 931.252 0 0 0
1 3083.71 964.223 378.976 0 0 0
1 2751.06 841.473 0 0 0 0
1 2549.18 846.345 1386.57 0 0 0
1 2831.16 413.789 416.436 0 0 0
1 2860.76 823.313 288.681 0 0 0
1 2691.33 26.278 300.386 0 0 0
1 2287.15 421.953 0 0 0 0
1 3013.33 441.913 508.448 0 0 0
1 2452.91 144.417 220.247 0 0 0
1 2293.75 458.518 357.382 0 0 0
1 2658.11 231.704 263.942 0 0 0
1 2738.89 620.336 277.168 0 0 0
1 2637.2 453.682 436.237 0 0 0
1 2612.07 796.426 11.496 0 0 0
1 2522.7 767.87 942.464 0 0 0
1 2485.66 437.031 210.032 0 0 0
1 2621.17 821.02 539.003 0 0 0
1 2752.92 558.646 555.616 0 0 0
1 2560.95 903.947 647.004 0 0 0
1 3125.77 0 759.558 0 0 0
1 2584.71 784.292 397.384 0 0 0
1 2673.5 45.823 625.59 0 0 0
1 2294.22 433.049 785.474 0 0 0
1 3183.38 830.39 762.215 0 0 0
1 3097.9 882.605 912.804 0 0 0
1 2911.67 240.263 319.705 0 0 0
1 2988.54 768.915 981.987 0 0 0
1 2949.22 618.778 872.702 0 0 0
1 3036.25 147.724 724.782 0 0 0
1 3053.26 831.843 335.814 0 0 0
1 2608.2 481.176 308.395 0 0 0
1 2476.81 399.417 610.726 0 0 0
1 2472.44 591.197 204.376 0 0 0
1 3039 317.059 10.361 0 0 0
1 2356.65 695.125 192.172 0 0 0
1 3082.76 510.75 0 0 0 0
1 2656.58 731.429 1105.56 0 0 0
1 2772.74 287.821 352.325 0 0 0
1 2255.79 296.723 0 0 0 0
1 2529.76 298.78 361.276 0 0 0
1 2595.69 102.89 229.531 0 0 0
1 2958.43 149.363 427.209 0 0 0
1 2360.44 1228.5 886.627 0 0 0
1 2764.32 666.166 946.652 0 0 0
1 2513.32 575.649 540.944 0 0 0
1 2912.05 973.639 260.827 0 0 0
1 3057.84 938.033 780.939 0 0 0
1 2325.56 0 1016.89 0 0 0
1 2957.12 207.952 13.184 0 0 0
1 2929.97 640.662 306.852 0 0 0
1 2769.89 493.097 681.106 0 0 0
1 2913.45 183.648 608.969 0 0 0
1 3072.9 311.968 227.524 0 0 0
1 2851.33 631.431 638.341 0 0 0
1 2690.75 268.844 1162.77 0 0 0
1 2744.72 255.062 18.714 0 0 0
1 2485.94 927.231 52.606 0 0 0
1 2654.12 329.683 91.424 0 0 0
1 2664.86 419.071 812.672 0 0 0
1 2642.93 1120.8 639.401 0 0 0
1 2332.75 621.211 668.532 0 0 0
1 2909.16 0 994.185 0 0 0
1 2991.32 739.262 272.357 0 0 0
1 3212.27 887.923 651.751 0 0 0
1 2770.36 393.075 755.544 0 0 0
1 3110.74 56.57 22.326 0 0 0
1 3140.78 1099.33 101.537 0 0 0
1 2827.76 651.533 199.134 0 0 0
1 3004.16 511.202 185.21 0 0 0
1 2564.15 673.253 0 0 0 0
1 2499.01 439.152 862.644 0 0 0
1 2862.29 553.102 0 0 0 0
1 2412.35 713.871 689.854 0 0 0
1 2530.74 333.095 0 0 0 0
1 2849.36 768.185 148.43 0 0 0
1 439.021 3191.71 252.673 0 0 0
1 435.618 3027.16 310.75 0 0 0
1 663.811 2494.02 396.872 0 0 0
1 285.9 2604.31 741.163 0 0 0
1 7.849 3133.38 51.39 0 0 0
1 826.704 2952.68 361.641 0 0 0
1 815.673 3120.41 29.077 0 0 0
1 548.19 2743.71 258.597 0 0 0
1 403.608 3037.51 432.857 0 0 0
1 898.085 2387.46 241.124 0 0 0
1 615.12 2969.94 155.156 0 0 0
1 296.803 2900.37 819.24 0 0 0
1 111.404 3038.56 147.694 0 0 0
1 736.768 3010.57 651.933 0 0 0
1 398.082 2844.62 375.237 0 0 0
1 944.061 3193.41 502.216 0 0 0
1 370.505 2658.88 260.99 0 0 0
1 304.529 2682.83 915.753 0 0 0
1 539.008 2459.13 753.583 0 0 0
1 817.578 2889.76 645.325 0 0 0
1 737.527 2743.81 289.83 0 0 0
1 728.526 3022.99 445.044 0 0 0
1 377.523 3021.34 0.327 0 0 0
1 53.715 2690.53 143.368 0 0 0
1 8.193 2996.42 813.879 0 0 0
1 795.764 3107.3 513.696 0 0 0
1 984.079 2685.68 272.44 0 0 0
1 107.008 2559.18 358.916 0 0 0
1 0.089 2549.88 159.533 0 0 0
1 192.419 3160.73 197.351 0 0 0
1 1020.7 2856.44 775.737 0 0 0
1 225.883 2933.56 140.728 0 0 0
1 485.985 2912.19 299.177 0 0 0
1 666.252 3253.78 318.052 0 0 0
1 213.465 2815.29 796.514 0 0 0
1 172.275 3198.98 557.208 0 0 0
1 274.946 2798.11 287.693 0 0 0
1 193.188 2964.36 665.71 0 0 0
1 30.974 2865.34 748.063 0 0 0
1 871.181 2903.85 755.55 0 0 0
1 744.348 2485.1 553.683 0 0 0
1 379.449 2859.51 663.371 0 0 0
1 717.801 2645.47 378.539 0 0 0
1 110.777 3021 754.607 0 0 0
1 479.172 2556.09 808.295 0 0 0
1 299.677 2643.42 621.04 0 0 0
1 577.619 3101.84 708.434 0 0 0
1 972.78 3034.68 865.238 0 0 0
1 84.146 3257.86 834.348 0 0 0
1 885.366 2592.93 950.313 0 0 0
1 266.919 2695.48 152.334 0 0 0
1 622.339 2651.71 548.273 0 0 0
1 984.494 3218.43 66.239 0 0 0
1 126.778 2466.98 256.246 0 0 0
1 276.232 3232.03 325.876 0 0 0
1 815.286 2397.07 510.005 0 0 0
1 425.598 2763.61 863.768 0 0 0
1 817.301 2521.38 200.162 0 0 0
1 973.346 2896.68 665.794 0 0 0
1 229.318 2405.42 274.713 0 0 0
1 65.444 2845.7 413.918 0 0 0
1 331.791 3103.58 802.463 0 0 0
1 159.628 2635.96 855.269 0 0 0
1 145.265 2586.66 136.151 0 0 0
1 245.994 2452.81 725.781 0 0 0
1 305.792 2483.98 91.147 0 0 0
1 660.862 2404.33 871.642 0 0 0
1 817.934 3006.12 180.17 0 0 0
1 423.881 2490.36 131.41 0 0 0
1 303.881 3158.22 481.918 0 0 0
1 249.643 2583.62 469.049 0 0 0
1 724.203 2885.82 828.783 0 0 0
1 551.215 2554.14 920.636 0 0 0
1 7.001 2607.82 288.96 0 0 0
1 1.257 3233.28 617.291 0 0 0
1 0.294 2472.38 316.877 0 0 0
1 6.229 2611.2 556.281 0 0 0
1 15.411 2482.41 676.189 0 0 0
1 91.084 2754.03 542.526 0 0 0
1 927.582 2526.98 458.557 0 0 0
1 426.108 2455.88 878.85 0 0 0
1 54.019 3200.89 211.024 0 0 0
1 50.362 2710.08 369.794 0 0 0
1 454.939 2664.28 490.148 0 0 0
1 923.844 2657.14 793.982 0 0 0
1 588.613 3098.36 116.621 0 0 0
1 526.639 2651.87 629.168 0 0 0
1 343.716 2926.13 446.54 0 0 0
1 48.816 2666.15 743.018 0 0 0
1 55.732 3009.18 436.804 0 0 0
1 431.379 3123.04 884.467 0 0 0
1 205.655 3089.37 796.516 0 0 0
1 653.031 2873.37 379.203 0 0 0
1 438.852 2476.47 379.139 0 0 0
1 416.896 2667.81 784.186 0 0 0
1 555.767 2462.02 60.38 0 0 0
1 716.357 2532.17 1001.49 0 0 0
1 367.99 3079.92 131.096 0 0 0
1 372.243 2997.5 647.879 0 0 0
1 546.102 2619.76 390.714 0 0 0
1 256.903 2913.43 561.101 0 0 0
1 188.888 2717.96 659.92 0 0 0
1 22.096 3124.23 920.488 0 0 0
1 278.759 3034.38 468.372 0 0 0
1 948.912 2742.17 711.442 0 0 0
1 727.933 2602.9 796.226 0 0 0
1 141.869 3119.56 0.407 0 0 0
1 796.271 3182.16 644.265 0 0 0
1 579.265 3232.82 235.526 0 0 0
1 365.229 2739.16 661.755 0 0 0
1 889.64 3096.1 686.079 0 0 0
1 444.233 2982.38 93.785 0 0 0
1 882.998 2770.38 858.754 0 0 0
1 175.152 267.597 2839.64 0 0 0
1 558.166 760.114 2891.96 0 0 0
1 312.155 591.44 2516.99 0 0 0
1 946.534 71.758 2560.63 0 0 0
1 112.811 505.96 2893.47 0 0 0
1 661.291 27.79 2732.78 0 0 0
1 166.037 615.638 2966.28 0 0 0
1 474.43 279.488 2743.99 0 0 0
1 761.306 342.904 2903.79 0 0 0
1 822.604 823.557 2509.4 0 0 0
1 743.798 770.408 3097.43 0 0 0
1 224.638 106.547 2738.03 0 0 0
1 189.071 677.947 2519.47 0 0 0
1 780.668 772.245 2612.35 0 0 0
1 512.934 268.027 2966.87 0 0 0
1 335.839 145.07 2801.91 0 0 0
1 962.933 775.382 2572.51 0 0 0
1 911.531 935.869 2849.45 0 0 0
1 181.434 663.499 2812.69 0 0 0
1 467.957 85.992 3153.67 0 0 0
1 55.049 255.698 2718.57 0 0 0
1 271.467 900.816 2763.76 0 0 0
1 972.215 384.703 2439.96 0 0 0
1 732.834 931.925 3105.2 0 0 0
1 620.187 698.224 2608.39 0 0 0
1 470.321 131.405 2839.75 0 0 0
1 758.824 128.02 2835.24 0 0 0
1 48.781 751.582 3124.14 0 0 0
1 716.71 786.223 2396.68 0 0 0
1 807.168 121.879 2641.64 0 0 0
1 91.068 624.796 2458.58 0 0 0
1 675.601 618.72 2814.78 0 0 0
1 237.524 339.961 2470.73 0 0 0
1 368.444 245.948 2680.82 0 0 0
1 912.369 700.086 2812.35 0 0 0
1 284.368 320.718 2809.35 0 0 0
1 550.437 341.156 2846.26 0 0 0
1 195.181 387.214 2924.72 0 0 0
1 426.756 1028.34 2428.96 0 0 0
1 728.135 865.68 2721.72 0 0 0
1 502.498 604.97 3119.78 0 0 0
1 363.927 322.3 2934.95 0 0 0
1 885.003 246.132 2509.41 0 0 0
1 437.213 898.335 2383.47 0 0 0
1 825.51 558.417 2784.7 0 0 0
1 273.618 233.79 3014.28 0 0 0
1 989.579 597.913 3096.84 0 0 0
1 725.521 355.014 3122.95 0 0 0
1 464.352 740.501 2798.31 0 0 0
1 66.499 630.417 3202.96 0 0 0
1 454.002 1039.28 2973.57 0 0 0
1 379.017 631.406 2837.95 0 0 0
1 167.02 959.519 2710.1 0 0 0
1 838.085 509.027 3165.77 0 0 0
1 487.984 940.232 2549.73 0 0 0
1 289.68 564.71 2380.45 0 0 0
1 775.744 267.082 2736.89 0 0 0
1 235.871 762.86 3123.68 0 0 0
1 304.48 645.661 2693.97 0 0 0
1 779.054 502.813 2486.09 0 0 0
1 691.614 27.532 2864.88 0 0 0
1 397.188 853.095 2543.15 0 0 0
1 511.842 719.625 2662.63 0 0 0
1 590.223 422.686 3114.26 0 0 0
1 126.767 25.922 2707.97 0 0 0
1 10.382 110.262 2883.93 0 0 0
1 1028.17 493.091 2871.24 0 0 0
1 1001.78 813.384 2950.9 0 0 0
1 11.204 923.856 2607.23 0 0 0
1 83.411 700.447 2679.27 0 0 0
1 830.283 357.504 2513.21 0 0 0
1 922.416 404.536 2954.63 0 0 0
1 854.409 190.739 2369.71 0 0 0
1 76.805 455.132 3099.89 0 0 0
1 122.563 450.035 2733.15 0 0 0
1 885.784 682.68 3104.33 0 0 0
1 235.025 99.522 2884.08 0 0 0
1 467.028 862.291 2832.8 0 0 0
1 72.264 386.071 2575.4 0 0 0
1 714.007 644.693 2512.23 0 0 0
1 267.685 708.748 2960.41 0 0 0
1 193.501 836.821 2306.49 0 0 0
1 38.568 507.896 2657.01 0 0 0
1 11.127 594.027 3011.79 0 0 0
1 46.492 177.315 3071.1 0 0 0
1 554.752 924.14 3193.44 0 0 0
1 970.35 502.788 2643.17 0 0 0
1 653.741 606.109 2680 0 0 0
1 140.14 826.542 2550.36 0 0 0
1 928.636 583.77 2561.22 0 0 0
1 659.269 234.772 3033.53 0 0 0
1 946.761 57.329 3098.59 0 0 0
1 425.494 491.004 2540.3 0 0 0
1 792.268 209.317 3071.46 0 0 0
1 280.961 302.64 2598.37 0 0 0
1 13.042 654.307 2552.64 0 0 0
1 938.98 161.496 2794.38 0 0 0
1 505.701 863.707 3039.68 0 0 0
1 604.381 976.816 2497.94 0 0 0
1 638.087 527.766 3062.46 0 0 0
1 593.921 841.231 2671.87 0 0 0
1 687.668 118.979 3012.82 0 0 0
1 472.199 426.472 2680.04 0 0 0
1 50.101 846.529 2823.43 0 0 0
1 862.672 615.51 2983.34 0 0 0
1 400.523 44.88 2957.3 0 0 0
1 623.448 368.872 2670.24 0 0 0
1 870.615 381.198 2766.87 0 0 0
1 209.701 807.676 2844.97 0 0 0
1 100.641 790.607 2926.66 0 0 0
1 430.535 646.052 2580.64 0 0 0
1 71.01 24.071 2994.77 0 0 0
1 3025.4 2719.6 141.226 0 0 0
1 2447.56 3010.88 192.249 0 0 0
1 2498.11 2705.48 453.865 0 0 0
1 2819.24 3015.24 95.893 0 0 0
1 2547.64 2870.23 639.794 0 0 0
1 3041.23 3064.35 693.728 0 0 0
1 2569.53 2351.25 160.386 0 0 0
1 2877.73 2872.53 350.863 0 0 0
1 2578.11 2700.6 117.008 0 0 0
1 2784.61 2745.06 79.5 0 0 0
1 3080.1 2880.92 722.472 0 0 0
1 2536.31 2755.55 873.358 0 0 0
1 2515.12 3101.84 429.5 0 0 0
1 2605.38 3058.15 194.245 0 0 0
1 2670.01 2808.05 590.369 0 0 0
1 3004.55 3127.72 449.861 0 0 0
1 2672.7 2624.82 887.93 0 0 0
1 3039.57 3156.26 583.327 0 0 0
1 2750.77 2783.17 807.037 0 0 0
1 3133.61 2678.16 528.803 0 0 0
1 2670.87 3138.25 131.021 0 0 0
1 2770.42 2610.25 78.468 0 0 0
1 2911.71 2575.1 940.675 0 0 0
1 3150.96 3048.68 365.226 0 0 0
1 2827.54 3165.93 463.311 0 0 0
1 2684.07 2847.92 32.094 0 0 0
1 2945.04 2836.41 197.829 0 0 0
1 3009.55 2643.53 13.533 0 0 0
1 2865.47 2740.95 546.126 0 0 0
1 2819.85 2555.23 208.174 0 0 0
1 2720.33 2680.04 177.689 0 0 0
1 3109.57 3020.95 999.935 0 0 0
1 3047.07 2962.29 516.648 0 0 0
1 2688.76 2884.11 965.2 0 0 0
1 3009.98 2794.11 24.796 0 0 0
1 2425.76 2634.3 857.816 0 0 0
1 3117.53 3138.5 253.347 0 0 0
1 2483.14 2718.14 31.612 0 0 0
1 2470.03 2998.8 512.326 0 0 0
1 2415.62 3150.43 5.539 0 0 0
1 2505.28 2721.23 212.369 0 0 0
1 3122.66 2745.54 331.551 0 0 0
1 3045.66 2578.66 391.754 0 0 0
1 2878.35 3025.17 257.647 0 0 0
1 2789.03 3137.98 912.405 0 0 0
1 2883.05 2682.16 13.179 0 0 0
1 2427.04 2579.63 491.044 0 0 0
1 3163.04 2915.94 524.804 0 0 0
1 2393.4 3024.03 300.813 0 0 0
1 2777.03 2851.55 695.901 0 0 0
1 2903.84 3002.69 790.718 0 0 0
1 2816.7 2582.42 345.699 0 0 0
1 2504.84 2738.88 336.775 0 0 0
1 3142.14 2729.92 65.064 0 0 0
1 2893.61 2391.22 17.991 0 0 0
1 3008.56 2774.28 410.839 0 0 0
1 2873.71 2829.17 776.478 0 0 0
1 2702.63 2615.15 289.539 0 0 0
1 3015.91 3172.61 11.689 0 0 0
1 2913.85 3117.21 886.509 0 0 0
1 2659.15 2664.38 568.767 0 0 0
1 2502.29 3065.08 930.421 0 0 0
1 2956.37 2869.22 973.078 0 0 0
1 2675.78 3178.18 470.024 0 0 0
1 3015.44 2889.97 824.704 0 0 0
1 2801.28 2458.38 405.375 0 0 0
1 2490.76 3212.4 193.073 0 0 0
1 2618.93 2588.38 388.315 0 0 0
1 2452.38 2542.46 635.337 0 0 0
1 2655.8 2458.27 387.37 0 0 0
1 2449.76 2437.12 177.223 0 0 0
1 2484.16 3120.73 284.141 0 0 0
1 3159.21 3046.23 576.007 0 0 0
1 2901.91 2857.47 5.778 0 0 0
1 2627.26 2857.52 391.811 0 0 0
1 2921.59 2487.29 249.089 0 0 0
1 2739.88 2734.86 657.22 0 0 0
1 2511.69 2548.38 793.766 0 0 0
1 2759.95 3014.66 234.478 0 0 0
1 2776.21 2776.59 927.391 0 0 0
1 2553.11 2703.94 641.241 0 0 0
1 2628.8 3054.34 313.866 0 0 0
1 2740.17 3025.98 955.932 0 0 0
1 2654.28 2788.76 886.639 0 0 0
1 2409.12 3153.23 400.853 0 0 0
1 2481.28 3009.09 774.6 0 0 0
1 2435.86 2728.21 590.684 0 0 0
1 2652.95 2597.97 113.444 0 0 0
1 2739.64 2886.55 322.53 0 0 0
1 3152.07 2663.62 748.062 0 0 0
1 3027.72 2556.3 164.077 0 0 0
1 2781.22 2932.01 837.873 0 0 0
1 2890.98 2490.64 546.51 0 0 0
1 3116.03 3005.95 853.19 0 0 0
1 2556.09 2376.07 463.935 0 0 0
1 3086.94 2515.44 33.821 0 0 0
1 2883.41 2715.92 886.294 0 0 0
1 2871.32 2431.76 743.125 0 0 0
1 2534.17 2493.26 387.304 0 0 0
1 3101.95 2791.4 871.804 0 0 0
1 3044.12 2577.42 663.161 0 0 0
1 2636.34 2979.2 911.799 0 0 0
1 3111.58 2485.85 496.43 0 0 0
1 2355.12 2639 569.433 0 0 0
1 2848.13 3009.12 462.953 0 0 0
1 3177.59 2504.62 729.177 0 0 0
1 3004.62 2979.74 934.854 0 0 0
1 2918.51 3073.4 613.648 0 0 0
1 3092.75 2458.01 654.867 0 0 0
1 3158.91 3170.05 464.389 0 0 0
1 2959.49 2539.8 63.844 0 0 0
1 2891.39 2648.48 470.923 0 0 0
1 2434.09 2395.84 490.748 0 0 0
1 2968.81 180.411 2805.96 0 0 0
1 2715.79 129.941 2682.59 0 0 0
1 2601.82 759.443 2989.23 0 0 0
1 2578.31 233.47 2638.92 0 0 0
1 2527.24 616.233 2449.92 0 0 0
1 2804.27 233.284 2852.75 0 0 0
1 2742.16 531.803 2736.02 0 0 0
1 2950.6 412.85 2410.17 0 0 0
1 2620.07 348.967 2991.17 0 0 0
1 3038.17 386.855 2838.87 0 0 0
1 2848.88 119.363 2763.51 0 0 0
1 2901.12 314.534 2460.51 0 0 0
1 2394.49 122.977 2655.68 0 0 0
1 2931.78 735.387 2706.74 0 0 0
1 2784.99 222.182 2726.46 0 0 0
1 2835.27 565.913 2490.54 0 0 0
1 2760.66 19.463 2587.39 0 0 0
1 2629.8 0 2905.89 0 0 0
1 2744.03 716.74 2989.82 0 0 0
1 2395.01 326.139 2987.79 0 0 0
1 2394.28 922.424 2880.14 0 0 0
1 2981.06 128.844 2603.2 0 0 0
1 2563.72 477.031 2918.45 0 0 0
1 3024.06 932.974 2584.4 0 0 0
1 2795.92 938.023 3012 0 0 0
1 2440.66 860.38 2395.77 0 0 0
1 2403.64 730.231 2532.84 0 0 0
1 2438.72 565.154 2866.47 0 0 0
1 2428.64 68.311 2380.15 0 0 0
1 2882.31 822.809 2943.6 0 0 0
1 2651.55 386.431 2606.11 0 0 0
1 2440.05 844.983 2520.64 0 0 0
1 2452.28 196.17 2556.73 0 0 0
1 2681.22 741.085 2798.97 0 0 0
1 3007.61 869.722 2308.2 0 0 0
1 2741.99 129.383 2458.02 0 0 0
1 2709.25 934.862 2778.88 0 0 0
1 2351.72 735.37 3021.28 0 0 0
1 2763.27 746.53 2459.45 0 0 0
1 2513.84 762.334 2455.39 0 0 0
1 2357.31 677.422 2865.73 0 0 0
1 2818.28 480.255 2654.88 0 0 0
1 2759.61 692.349 2637.31 0 0 0
1 2949.48 203.852 3005.73 0 0 0
1 2893.63 13.233 2800.59 0 0 0
1 2653.76 737.114 2386.87 0 0 0
1 2708.77 142.689 2891.48 0 0 0
1 2973.95 207.184 2459.55 0 0 0
1 2539.16 325.978 2539.44 0 0 0
1 2910.64 295.579 2782.11 0 0 0
1 2933.2 704.259 2830.26 0 0 0
1 2458.34 115.272 3090.33 0 0 0
1 2871 295.055 2939.79 0 0 0
1 2705.07 388.423 2877.23 0 0 0
1 2669.16 937.98 2664.74 0 0 0
1 2903.66 891.74 2744.55 0 0 0
1 2495.67 742.296 2885.1 0 0 0
1 2640.94 447.965 2393.98 0 0 0
1 2605.07 464.584 3050.89 0 0 0
1 2696.22 285.961 2663.53 0 0 0
1 2467.15 965.367 2676.28 0 0 0
1 2939.4 497.042 2641.2 0 0 0
1 2808.23 228.376 2497.99 0 0 0
1 2597.61 674.092 2903.56 0 0 0
1 2530.6 122.557 2646.89 0 0 0
1 2644.64 575.911 2427.03 0 0 0
1 2451.47 690.877 2778.72 0 0 0
1 2689.94 76.04 3027.19 0 0 0
1 2527.83 841.953 2720.69 0 0 0
1 2402.79 0 2956.99 0 0 0
1 2381.74 346.135 2677.59 0 0 0
1 2732.02 622.264 2890.84 0 0 0
1 2440.64 114.377 2789.1 0 0 0
1 2804.85 344.448 2558.35 0 0 0
1 2558.14 206.559 2455.75 0 0 0
1 2888.4 844.177 2524.36 0 0 0
1 2695.11 311.499 2498.61 0 0 0
1 2555.89 704.51 2693.98 0 0 0
1 2407 289.894 2495.03 0 0 0
1 2902.48 225.778 2583.72 0 0 0
1 2767.6 508.352 2391.51 0 0 0
1 3027.39 899.666 2877.24 0 0 0
1 2910.88 931.928 2882.53 0 0 0
1 2416.7 454.989 2586.42 0 0 0
1 2514.96 942.546 2484.49 0 0 0
1 2375.53 251.22 2814.8 0 0 0
1 2621.42 55.128 2782.41 0 0 0
1 2890.03 677.709 2494.33 0 0 0
1 2475.53 753.32 3042.8 0 0 0
1 2609.42 391.395 2776.24 0 0 0
1 2916.95 349.179 2643.38 0 0 0
1 2516.07 474.592 2786.25 0 0 0
1 2755.75 488.265 2538.44 0 0 0
1 2827.33 127.553 2604.07 0 0 0
1 2798.7 852.819 2655.05 0 0 0
1 2538.64 828.755 2600.07 0 0 0
1 2413.41 802.37 2813.18 0 0 0
1 2689.35 274.841 2382.01 0 0 0
1 3000.98 276.39 2922.64 0 0 0
1 2804.64 372.215 2718.25 0 0 0
1 2910.54 420.762 2836.84 0 0 0
1 2600.05 515.645 2522.41 0 0 0
1 2998.82 578.988 2859.37 0 0 0
1 2966.3 702.285 2399.55 0 0 0
1 2666.53 257.6 2820.47 0 0 0
1 2970.44 833.949 2648.08 0 0 0
1 2907.03 607.047 2716.16 0 0 0
1 2992.11 806.46 2457.22 0 0 0
1 2794.6 780.976 2773.1 0 0 0
1 2661.78 199.627 2556.33 0 0 0
1 2586.15 619.72 2774.87 0 0 0
1 2394.42 808.032 2634.64 0 0 0
1 510.479 2640.89 3159.26 0 0 0
1 249.426 3102.36 3244.37 0 0 0
1 188.437 2895.44 2443.76 0 0 0
1 764.512 2718.39 2820.87 0 0 0
1 296.55 2472.31 2539.63 0 0 0
1 829.419 3172.08 3058.24 0 0 0
1 449.731 3022.73 2520.38 0 0 0
1 706.015 2920.27 2817.12 0 0 0
1 936.055 2636.52 2562.48 0 0 0
1 6.601 2613.72 3168.68 0 0 0
1 899.506 2958.22 2759.18 0 0 0
1 559.923 2958.97 3186.72 0 0 0
1 489.543 3221.63 3161.03 0 0 0
1 250.233 3168.04 2975.69 0 0 0
1 411.092 2771.84 3128.88 0 0 0
1 40.872 2429.52 3105.25 0 0 0
1 291.457 2559.81 2424.25 0 0 0
1 9.877 3022.49 3122.3 0 0 0
1 289.196 3071.72 2749.79 0 0 0
1 602.688 3247.75 2604.55 0 0 0
1 43.337 2695.96 2741.34 0 0 0
1 639.961 3320.28 2456.6 0 0 0
1 979.606 3095.16 2884.04 0 0 0
1 678.139 2796.89 2905.65 0 0 0
1 693.502 3053.93 3145.57 0 0 0
1 532.101 3129.96 2556.7 0 0 0
1 421.176 2719.62 2641.55 0 0 0
1 366.631 3298.11 3184.61 0 0 0
1 588.273 2910.79 3023.67 0 0 0
1 858.486 3040.02 2869.04 0 0 0
1 969.666 2990.59 3084.85 0 0 0
1 560.104 2782.43 3082.78 0 0 0
1 850.09 3322.38 2640.31 0 0 0
1 455.908 2637.89 3032.45 0 0 0
1 111.099 3017.94 3351.51 0 0 0
1 102.278 3184.87 3298.11 0 0 0
1 955.066 2736.34 3272.23 0 0 0
1 67.285 2951.21 2907.02 0 0 0
1 306.063 2816.37 2634.39 0 0 0
1 713.426 3127.74 3039.62 0 0 0
1 127.677 2879.14 3137.01 0 0 0
1 520.211 3062.76 2695.48 0 0 0
1 770.159 2481.17 3177.82 0 0 0
1 286.292 2844.52 3138.46 0 0 0
1 312.56 3069.88 2875.71 0 0 0
1 503.735 2571.78 2447.8 0 0 0
1 266.943 2867.51 2906.9 0 0 0
1 882.127 2982.28 3328.46 0 0 0
1 441.373 2734.37 2777.76 0 0 0
1 449.032 3002.26 2922.33 0 0 0
1 0.501 2612.89 3047.35 0 0 0
1 120.378 3005.91 2807.35 0 0 0
1 320.964 2609.78 2580.7 0 0 0
1 904.011 2531.65 2752.44 0 0 0
1 313.9 3029.15 2993.71 0 0 0
1 595.086 2650.76 2805.14 0 0 0
1 628.894 3027 2882.4 0 0 0
1 75.738 2459.99 2963.68 0 0 0
1 99.974 2731.15 3082.72 0 0 0
1 145.584 2587.09 2726.11 0 0 0
1 567.774 3109.96 3038.24 0 0 0
1 243.067 2564.3 3156.74 0 0 0
1 69.782 3285.27 2775.29 0 0 0
1 373.445 2576.89 3143.05 0 0 0
1 805.892 2855.13 2898.37 0 0 0
1 122.121 3084.01 3175.62 0 0 0
1 863.236 3226.18 2840.18 0 0 0
1 171.182 2721.98 2883.43 0 0 0
1 142.028 2807.98 2579.04 0 0 0
1 14.279 3078.59 2926.93 0 0 0
1 180.946 3295.35 2906.41 0 0 0
1 815.865 2999.14 3158.71 0 0 0
1 677.684 2718.95 2667.22 0 0 0
1 495.44 2587.58 2670.48 0 0 0
1 499.23 3061.88 3260.09 0 0 0
1 195.367 2966.26 3018.16 0 0 0
1 341.429 2587.09 3274.75 0 0 0
1 962.059 2760.46 2700.82 0 0 0
1 759.767 3012.82 3010.07 0 0 0
1 935.444 3109.02 2622.92 0 0 0
1 752.861 2598.52 2606.8 0 0 0
1 116.287 3273.02 3173.26 0 0 0
1 946.698 3279.59 2473.58 0 0 0
1 187.109 3150.45 2734.29 0 0 0
1 565.182 2947.79 2647.25 0 0 0
1 602.752 2641.23 2943.5 0 0 0
1 736.688 3100.52 3294.5 0 0 0
1 657.019 3257.67 2991.69 0 0 0
1 887.568 2947.69 2955.22 0 0 0
1 99.46 2903.64 2669.11 0 0 0
1 466.771 2928.65 3269.89 0 0 0
1 242.729 3231.59 3198.75 0 0 0
1 190.602 2588.68 2563.53 0 0 0
1 170.682 3243.2 2444.21 0 0 0
1 848.722 3189.73 2695.51 0 0 0
1 564.269 2782.33 3251.36 0 0 0
1 57.218 2975.79 2523.5 0 0 0
1 669.68 2963.03 3310.09 0 0 0
1 217.851 2774.06 2755.49 0 0 0
1 983.982 2562.74 3189.36 0 0 0
1 134.504 3104.22 2962.69 0 0 0
1 675.589 3006.96 2618.35 0 0 0
1 306.65 2820.14 3319.41 0 0 0
1 105.198 2882.81 3017.67 0 0 0
1 161.435 3130.97 2575.37 0 0 0
1 637.335 2590.19 2642.51 0 0 0
1 730.688 3129.87 2813.91 0 0 0
1 828.366 3137.73 2934.16 0 0 0
1 280.528 2721.87 3040.81 0 0 0
1 937.515 3081.79 3178.07 0 0 0
1 92.872 2551.79 2502.11 0 0 0
1 173.507 2915.41 3280.11 0 0 0
1 226.149 2681.23 2645.92 0 0 0
1 2648.11 2671.98 2536.48 0 0 0
1 2908.32 2968.55 3257.76 0 0 0
1 3089.13 2824.84 2802.26 0 0 0
1 3172.2 2616.12 3371.72 0 0 0
1 2971.66 2800.84 3050.25 0 0 0
1 2558.51 3244.77 2562.56 0 0 0
1 3158.76 3247.21 3217.47 0 0 0
1 2748.31 3169.46 2706.78 0 0 0
1 3266.65 2700.47 2702.12 0 0 0
1 3071.52 2652.06 3096.85 0 0 0
1 3202.22 2886.33 2577.99 0 0 0
1 2749.55 3294.26 3258.06 0 0 0
1 3151.41 2684.15 2935.54 0 0 0
1 2979.93 2870.68 2919.56 0 0 0
1 3359.89 2859.39 2891.1 0 0 0
1 2659.91 2950.31 2603.8 0 0 0
1 2789.78 2826.56 2685.82 0 0 0
1 2855.6 3343.86 2556.37 0 0 0
1 3135.77 3066.44 2416.42 0 0 0
1 2836.63 2878.24 2964.32 0 0 0
1 3046.73 2945.08 3155.86 0 0 0
1 3350.69 3400.33 3127.78 0 0 0
1 2553.52 3067.14 2964.36 0 0 0
1 2504.22 2907.89 2492.36 0 0 0
1 2741.8 3258.31 3060.5 0 0 0
1 2938.12 2549.38 2690.76 0 0 0
1 3061.47 2684.65 2777.66 0 0 0
1 3062.6 3008.7 3013.88 0 0 0
1 2792.05 3162.92 2952.89 0 0 0
1 2633.06 2819.4 2515.26 0 0 0
1 2656.97 3172.27 3191.49 0 0 0
1 2718.03 3297.12 2686.47 0 0 0
1 3262.96 3234.22 2527 0 0 0
1 3230.25 2999.1 2998.86 0 0 0
1 2717.77 2908.49 3134.2 0 0 0
1 2984.92 3282.65 2673.4 0 0 0
1 2695.51 3185.75 3332.86 0 0 0
1 2714.81 2638.95 3401.74 0 0 0
1 2522.93 2600.89 2933.01 0 0 0
1 2521.05 3126.35 2561.77 0 0 0
1 3121.08 3436.99 2964 0 0 0
1 3310.39 2770.39 2502.17 0 0 0
1 2872.07 2912.13 2782.7 0 0 0
1 3348.98 2756.65 3190.05 0 0 0
1 2510.79 2538.55 3183.55 0 0 0
1 2789 2497.18 2988.94 0 0 0
1 3214.97 3382.72 2657.47 0 0 0
1 2592.09 2649.68 3248.94 0 0 0
1 2524.76 2588.94 2727.02 0 0 0
1 3011.82 2508.68 2829.58 0 0 0
1 3168.91 2806.03 3031.75 0 0 0
1 3073.19 3147.44 2935.79 0 0 0
1 3236.35 3187.48 2854.78 0 0 0
1 2816.86 3004.68 2584.55 0 0 0
1 3298.92 3227.29 2957.57 0 0 0
1 2608.33 2955.23 2863.44 0 0 0
1 2671.04 2615.57 3151.74 0 0 0
1 3360.16 2505.65 2817.09 0 0 0
1 3270.94 3297.29 3077.11 0 0 0
1 2633.5 2818.73 2821.66 0 0 0
1 3309.91 3069.66 2684.82 0 0 0
1 3193.72 2741.4 2532.82 0 0 0
1 2642.64 2505.72 3068.42 0 0 0
1 2730.99 2934.15 2945.38 0 0 0
1 3065.82 2573.16 2966.41 0 0 0
1 3036.38 2783.37 2642.78 0 0 0
1 2639.72 2781.65 3406.79 0 0 0
1 3055.07 3384.7 2723.43 0 0 0
1 2803.56 3089.12 3048.8 0 0 0
1 2913.92 3098.23 2839.97 0 0 0
1 2922.48 3125.55 3402.44 0 0 0
1 2980.67 3029.64 2498.1 0 0 0
1 3371.11 3178.85 2479.64 0 0 0
1 2821.66 2487.76 3185.39 0 0 0
1 3141.69 3253.04 2658.79 0 0 0
1 2496.84 2726.07 2906.45 0 0 0
1 3010 3205.46 2514.8 0 0 0
1 3066.97 3152.35 3319.4 0 0 0
1 3055.78 3262.07 3144.11 0 0 0
1 2549.77 3093.45 3268.96 0 0 0
1 3126.49 2490.64 3211.54 0 0 0
1 3157.58 3086.03 3069.99 0 0 0
1 2546.09 3312.17 2700.23 0 0 0
1 3405.49 2688.82 2857.72 0 0 0
1 2582.18 2769.36 3276.83 0 0 0
1 3196.55 2573.42 2883.99 0 0 0
1 3019.99 2736.42 3265.36 0 0 0
1 3313.3 3143.96 3088.02 0 0 0
1 2532.78 2581.91 3331.69 0 0 0
1 3318.68 2871.74 3076.08 0 0 0
1 2502.65 3398.33 2621.13 0 0 0
1 2675.48 2809.85 3057.53 0 0 0
1 3241.14 2529.79 3045.82 0 0 0
1 2969.69 3389.82 3286.79 0 0 0
1 2656.38 3140.08 2780.09 0 0 0
1 3174.38 3034.34 2855.88 0 0 0
1 3031.37 2568.15 3228.95 0 0 0
1 2830.02 2648.58 2937.26 0 0 0
1 2572.91 2856.8 2643.3 0 0 0
1 2890.62 3367.49 2761.72 0 0 0
1 3060.03 2950.62 3380.64 0 0 0
1 3109.04 3007.88 2678.31 0 0 0
1 2809.51 2586.19 2642.86 0 0 0
1 2766.62 3127.67 2551.45 0 0 0
1 3311.22 2943.89 2529.14 0 0 0
1 2860.84 2551.73 2496.94 0 0 0
1 2512.15 3012.31 3171.39 0 0 0
1 2856.81 2888.81 2515.73 0 0 0
1 3212.16 3359.46 2820.05 0 0 0
1 3298.26 3037.2 3241.52 0 0 0
1 2870.07 3248.52 2904.62 0 0 0
1 2546.26 3199.27 3105.81 0 0 0
2 541.294 757.876 261.548 0 0 0
2 59.791 808.546 120.758 0 0 0
2 122.661 169.487 415.886 0 0 0
2 618.209 656.469 785.81 0 0 0
2 339.973 478.695 361.63 0 0 0
2 406.441 238.759 214.623 0 0 0
2 227.329 707.229 707.139 0 0 0
2 528.235 120.922 221.11 0 0 0
2 420.229 411.603 206.394 0 0 0
2 297.974 731.284 337.21 0 0 0
2 393.91 283.781 836.257 0 0 0
2 22.367 875.46 305.45 0 0 0
2 149.756 619.022 816.745 0 0 0
2 3627.34 329.685 477.674 0 0 0
2 3684.55 26.928 479.765 0 0 0
2 3532.46 125.391 500.552 0 0 0
2 3215.06 719.465 312.56 0 0 0
2 2988.45 760.299 417.479 0 0 0
2 3385.42 895.188 498.927 0 0 0
2 3170.28 68.87 459.02 0 0 0
2 3712.37 587.462 190.184 0 0 0
2 3501.55 164.867 285.993 0 0 0
2 3167.58 673.734 503.843 0 0 0
2 3388.92 458.965 131.8 0 0 0
2 3160.48 921.099 189.812 0 0 0
2 208.386 2034.03 879.599 0 0 0
2 463.57 2038.59 56.468 0 0 0
2 616.451 2041.88 552.543 0 0 0
2 316.403 2036.54 138.45 0 0 0
2 27.783 2037.05 636.912 0 0 0
2 404.618 2055.94 627.14 0 0 0
2 875.561 2047.4 275.117 0 0 0
2 813.444 2047.11 391.496 0 0 0
2 1302.19 2000 496.72 0 0 0
2 0 2361.57 374.477 0 0 0
2 86.343 2066.45 6.226 0 0 0
2 640.326 2047.87 767.679 0 0 0
2 457.849 2061.32 244.779 0 0 0
2 662.158 244.386 3965.5 0 0 0
2 230.48 274.473 3988.83 0 0 0
2 462.434 595.308 3764.21 0 0 0
2 195.77 289.058 3105.94 0 0 0
2 647.213 375.804 2927.58 0 0 0
2 394.005 504.555 3147.2 0 0 0
2 378.112 162.739 3515.75 0 0 0
2 244.458 430.461 3052.5 0 0 0
2 306.299 403.658 3156.2 0 0 0