ITEM: TIMESTEP
0
ITEM: NUMBER OF ATOMS
1000
ITEM: BOX BOUNDS pp pp pp
-1.0000000000000000e+02 4.1000000000000000e+03
-1.0000000000000000e+02 4.1000000000000000e+03
-1.0000000000000000e+02 4.1000000000000000e+03
ITEM: ATOMS type x y z ix iy iz
1 230.498 414.099 168.205 0 0 0
1 597.492 471.409 326.646 0 0 0
1 5.353 574.993 309.849 0 0 0
1 620.153 653.521 826.771 0 0 0
1 143.171 359.521 789.895 0 0 0
1 679.177 19.626 752.303 0 0 0
1 386.633 699.359 539.797 0 0 0
1 671.747 258.188 728.784 0 0 0
1 548.836 532.559 453.389 0 0 0
1 314.666 544.853 568.956 0 0 0
1 211.233 684.025 191.511 0 0 0
1 462.51 528.695 721.408 0 0 0
1 922.336 502.707 762.632 0 0 0
1 525.623 92.475 245.379 0 0 0
1 786.078 152.226 969.559 0 0 0
1 537.53 629.707 8.01 0 0 0
1 331.589 484.027 66.072 0 0 0
1 48.438 295.068 4.638 0 0 0
1 667.829 58.83 436.857 0 0 0
1 257.487 659.421 23.809 0 0 0
1 480.927 249.217 176.203 0 0 0
1 118.231 49.724 513.997 0 0 0
1 846.806 575.014 560.931 0 0 0
1 313.794 692.631 345.342 0 0 0
1 351.998 634.362 727.684 0 0 0
1 2494.34 4.931 877.305 0 0 0
1 2992.09 617.295 582.383 0 0 0
1 2722.78 572.212 246.443 0 0 0
1 2861.75 44.268 697.546 0 0 0
1 2825.85 790.352 807.072 0 0 0
1 2748 388.497 561.667 0 0 0
1 2891.73 520.276 390.872 0 0 0
1 2444.48 424.601 340.942 0 0 0
1 3032.3 302.427 250.699 0 0 0
1 2393.99 306.667 357.002 0 0 0
1 3062.96 179.502 944.669 0 0 0
1 3084.96 961.272 441.438 0 0 0
1 3066.42 611.582 73.172 0 0 0
1 3020.66 198.931 680.97 0 0 0
1 2398.36 920.504 600.14 0 0 0
1 2651.19 421.089 458.961 0 0 0
1 2824.38 523.694 187.383 0 0 0
1 2996.43 820.327 285.086 0 0 0
1 2762.65 143.768 641.602 0 0 0
1 2811.08 393.326 338.502 0 0 0
1 2561.23 792.734 813.401 0 0 0
1 2521.05 922.728 370.588 0 0 0
1 2694.71 544.535 938.197 0 0 0
1 2622.42 221.406 707.926 0 0 0
1 3002.79 792.457 404.46 0 0 0
1 283.347 2290.94 56.046 0 0 0
1 504.979 2546.13 289.472 0 0 0
1 630.494 2592 382.629 0 0 0
1 384.509 2483.47 41.553 0 0 0
1 405.645 2314.27 342.505 0 0 0
1 516.656 2317.19 506.097 0 0 0
1 594.398 2238.18 176.611 0 0 0
1 379.841 2255.79 547.548 0 0 0
1 185.277 2252.54 216.771 0 0 0
1 158.366 2304.58 56.633 0 0 0
1 232.498 2487.61 612.558 0 0 0
1 725.689 2421.93 744.343 0 0 0
1 801.397 2320.4 274.601 0 0 0
1 160.828 2498.54 7.327 0 0 0
1 285.688 2316.27 305.325 0 0 0
1 443.306 2098.78 160.372 0 0 0
1 311.467 2240.8 648.329 0 0 0
1 681.708 2272.11 370.59 0 0 0
1 0.209 2312.95 591.486 0 0 0
1 378.42 2493.03 658.344 0 0 0
1 355.7 2336.88 454.44 0 0 0
1 469.639 2214.87 431.652 0 0 0
1 661.016 2417.75 474.588 0 0 0
1 621.726 2492.31 289.67 0 0 0
1 415.496 2497.29 541.911 0 0 0
1 266.358 801.243 3066.43 0 0 0
1 927.262 1180.69 2963.36 0 0 0
1 1861.7 1068.1 2409.57 0 0 0
1 394.347 509.388 2671.59 0 0 0
1 1195.73 2.235 2469.26 0 0 0
1 0.817 2.053 3535.55 0 0 0
1 22.402 2.087 3412.29 0 0 0
1 397.309 647.68 2677.44 0 0 0
1 539.432 621.569 3143.62 0 0 0
1 3.117 583.133 3078.59 0 0 0
1 184.912 688.902 2934.96 0 0 0
1 28.4 984.792 2736.02 0 0 0
1 859.656 625.304 2725.76 0 0 0
1 346.08 1882.26 2000.43 0 0 0
1 183.372 466.343 3157.63 0 0 0
1 178.676 648.686 3104.99 0 0 0
1 860.241 446.79 3212.98 0 0 0
1 599.311 853.007 2563.52 0 0 0
1 434.196 486.857 2553.83 0 0 0
1 504.292 672.251 2912.43 0 0 0
1 771.94 779.035 2984.8 0 0 0
1 46.451 1830.69 2779.92 0 0 0
1 91.082 485.409 2523.23 0 0 0
1 772.894 523.47 2809.59 0 0 0
1 1238.37 1246.54 2095.82 0 0 0
1 2402.07 2664.01 64.273 0 0 0
1 2611.39 2493.94 572.91 0 0 0
1 2875.64 2935.41 60.81 0 0 0
1 2592.07 2671.25 628.872 0 0 0
1 2766.95 2532.96 624.513 0 0 0
1 2380.84 2421.08 111.154 0 0 0
1 2794.3 2739.89 186.109 0 0 0
1 2814.97 2959.51 322.514 0 0 0
1 2441.59 2577.42 416.139 0 0 0
1 2921.3 2476.86 164.784 0 0 0
1 2427.94 2426.03 440.977 0 0 0
1 2356.65 2599 527.339 0 0 0
1 2556.13 3011.42 263.685 0 0 0
1 3041.83 2604.78 952.088 0 0 0
1 2429.18 2694.86 365.402 0 0 0
1 3074.89 2903.69 601.565 0 0 0
1 2427.93 2473.88 314.579 0 0 0
1 2662.61 2508.34 246.305 0 0 0
1 2377.3 2661.08 783.9 0 0 0
1 2742.78 2433.95 725.326 0 0 0
1 2554.3 2419.11 821.582 0 0 0
1 2312.17 2441.64 595.847 0 0 0
1 2677.5 2604.57 174.464 0 0 0
1 2785.18 2824.5 467.507 0 0 0
1 2817.05 2920.32 665.481 0 0 0
1 2822.89 25.785 3222.12 0 0 0
1 2960.46 815.514 2854.93 0 0 0
1 3049.75 894.512 3189.09 0 0 0
1 3321.91 338.603 3187.66 0 0 0
1 2642.21 404.662 3232.13 0 0 0
1 3359.48 871.85 2991.25 0 0 0
1 2805.4 614.746 2491.55 0 0 0
1 2576.89 43.552 2675.27 0 0 0
1 3077.51 265.73 2666.33 0 0 0
1 2767.95 165.85 3292.72 0 0 0
1 2638.45 891.338 2901.14 0 0 0
1 2566.93 910.073 2723.73 0 0 0
1 2584.66 946.338 2544.49 0 0 0
1 3309.74 151.569 3154.89 0 0 0
1 2992.11 298.573 3188.51 0 0 0
1 2643.1 498.288 2687.52 0 0 0
1 2761.23 272.279 2485.02 0 0 0
1 3336.67 803.54 3277.42 0 0 0
1 3249.73 450.687 3213.95 0 0 0
1 2724.27 425.323 2628.91 0 0 0
1 3004.51 745.647 2961.31 0 0 0
1 2850.74 179.208 2884.3 0 0 0
1 3301.13 562.987 3022.69 0 0 0
1 2628.38 100.218 3257.31 0 0 0
1 3299.77 307.113 2917.36 0 0 0
1 154.152 2466.68 2288.76 0 0 0
1 530.704 2610.97 2673.62 0 0 0
1 719.087 2620.04 2229.45 0 0 0
1 673.585 2422.72 2323.1 0 0 0
1 112.933 2591.01 2204.43 0 0 0
1 563.031 2391.25 2605.81 0 0 0
1 513.697 2138.99 2327.57 0 0 0
1 785.268 2527.22 2345.13 0 0 0
1 23.852 2387.2 2684.51 0 0 0
1 358.228 2536.85 2611.46 0 0 0
1 16.965 2736.23 2287.19 0 0 0
1 96.217 2638.59 2341.05 0 0 0
1 474.307 2285.86 2674.91 0 0 0
1 262.052 2330.38 2268.39 0 0 0
1 584.238 2222.62 2452.28 0 0 0
1 599.925 2554.89 2220.17 0 0 0
1 787.962 2754.72 2663.02 0 0 0
1 645.002 2210.21 2683.49 0 0 0
1 38.145 2360.64 2308.92 0 0 0
1 377.251 2331.18 2179.74 0 0 0
1 243.602 2577.94 2307.34 0 0 0
1 145.33 2320.47 2233.35 0 0 0
1 374.868 2252.72 2544.27 0 0 0
1 612.787 2725.55 2253.87 0 0 0
1 0.026 2591.17 2564.12 0 0 0
1 2433.49 2972.49 2819.62 0 0 0
1 2933.13 2962.48 2495.42 0 0 0
1 2390.95 2659.51 3008.84 0 0 0
1 2697.04 2916.1 2827.48 0 0 0
1 2962.69 2679.8 2921.86 0 0 0
1 2669.17 2449.86 2977.5 0 0 0
1 2450.31 3017.07 3043.81 0 0 0
1 2698.36 2732.59 3075.74 0 0 0
1 2570.18 2694.45 2439.04 0 0 0
1 2612.31 2403.3 2580.09 0 0 0
1 2449.93 2569 2730.38 0 0 0
1 3026.75 2988.13 2753.39 0 0 0
1 2518.87 2603.97 2849.25 0 0 0
1 2562.86 2899.4 2702.22 0 0 0
1 2368.32 2904.39 2657.05 0 0 0
1 2773.99 2679.68 2677.43 0 0 0
1 3049.72 2544.67 2428.42 0 0 0
1 2548.47 2473.74 3084.95 0 0 0
1 3018.66 2789.76 2499.02 0 0 0
1 2798.64 3016.94 2765.03 0 0 0
1 2592.24 2412.41 2350.08 0 0 0
1 3059.72 2409.88 2709.62 0 0 0
1 2151.76 2891.98 2588.47 0 0 0
1 2997.46 2765.05 2669.7 0 0 0
1 2308.03 2848.18 2840.74 0 0 0
2 572.449 627.299 1032.83 0 0 0
2 189.878 14.164 107.909 0 0 0
2 430.761 326.833 617.786 0 0 0
2 786.394 727.835 307.001 0 0 0
2 555.474 758.589 616.045 0 0 0
2 590.698 854.059 509.14 0 0 0
2 853.614 552.902 110.734 0 0 0
2 828.973 797.396 477.755 0 0 0
2 380.106 947.794 599.588 0 0 0
2 20.098 516.063 186.23 0 0 0
2 543.682 947.53 897.249 0 0 0
2 830.41 117.378 836.294 0 0 0
2 846.614 788.278 172.115 0 0 0
2 183.255 317.092 468.433 0 0 0
2 493.118 0 590.035 0 0 0
2 0.483 979.12 792.047 0 0 0
2 87.483 451.702 512.003 0 0 0
2 739.727 570.142 409.991 0 0 0
2 315.935 329.412 925.441 0 0 0
2 291.056 603.944 427.286 0 0 0
2 662.577 701.769 538.173 0 0 0
2 237.781 1019.52 160.399 0 0 0
2 362.186 591.911 971.22 0 0 0
2 0 716.038 561.109 0 0 0
2 144.297 514.328 171.959 0 0 0
2 132.033 365.496 585.998 0 0 0
2 170.954 136.01 211.555 0 0 0
2 420.098 486.242 361.035 0 0 0
2 620.664 716.141 176.656 0 0 0
2 554.97 135.098 388.75 0 0 0
2 438.096 896.291 20.061 0 0 0
2 695.587 798.876 129.93 0 0 0
2 461.177 726.526 928.345 0 0 0
2 634.036 645.016 655.148 0 0 0
2 697.13 285.045 373.808 0 0 0
2 665.423 973.938 382.166 0 0 0
2 246.494 898.784 91.608 0 0 0
2 317.078 21.389 525.738 0 0 0
2 932.022 681.61 402.274 0 0 0
2 707.559 244.269 500.414 0 0 0
2 610.935 531.158 723.011 0 0 0
2 8.903 359.233 173.704 0 0 0
2 275.349 914.351 816.764 0 0 0
2 80.289 797.217 497.12 0 0 0
2 923.707 290.346 613.372 0 0 0
2 17.077 536.08 20.046 0 0 0
2 843.411 856.338 675.207 0 0 0
2 479.066 606.749 574.143 0 0 0
2 626.646 511.609 964.056 0 0 0
2 291.459 427.518 421.934 0 0 0
2 168.421 469.489 367.196 0 0 0
2 792.568 5.245 869.023 0 0 0
2 696.843 304.877 208.607 0 0 0
2 735.601 608.425 111.265 0 0 0
2 1.346 301.764 788.096 0 0 0
2 508.985 137.42 604.415 0 0 0
2 466.697 239.566 50.129 0 0 0
2 716.046 812.882 726.921 0 0 0
2 908.486 728.48 84.02 0 0 0
2 412.668 837.706 939.026 0 0 0
2 145.574 915.734 817.213 0 0 0
2 254.241 644.78 842.022 0 0 0
2 741.555 493.509 59.827 0 0 0
2 303.877 273.74 599.518 0 0 0
2 125.847 649.197 673.909 0 0 0
2 749.606 691.319 0 0 0 0
2 869.827 538.007 315.039 0 0 0
2 680.166 32.874 958.785 0 0 0
2 859.394 37.863 712.33 0 0 0
2 343.751 503.37 266.255 0 0 0
2 31.362 226.464 344.038 0 0 0
2 640.079 932.368 68.199 0 0 0
2 763.554 366.781 510.804 0 0 0
2 399.828 225.765 865.144 0 0 0
2 490.491 373.229 13.35 0 0 0
2 832.083 261.958 474.928 0 0 0
2 708.894 379.984 932.04 0 0 0
2 57.861 618.559 517.31 0 0 0
2 578.94 815.906 389.762 0 0 0
2 640.071 644.936 307.341 0 0 0
2 887.682 361.118 253.766 0 0 0
2 887.456 375.679 997.089 0 0 0
2 861.561 938.827 23.201 0 0 0
2 529.315 189.208 846.329 0 0 0
2 711.663 890.796 495.077 0 0 0
2 93.754 774.15 856.747 0 0 0
2 917.035 84.592 921.344 0 0 0
2 175.483 568.092 507.497 0 0 0
2 682.215 154.586 622.718 0 0 0
2 785.528 984.905 192.203 0 0 0
2 688.914 120.261 275.038 0 0 0
2 3.854 510.441 735.619 0 0 0
2 189.804 625.837 349.617 0 0 0
2 454.246 645.18 121.104 0 0 0
2 418.295 114.639 79.705 0 0 0
2 863.695 1000.28 684.841 0 0 0
2 534.662 444.09 188.794 0 0 0
2 789.699 263.167 837.821 0 0 0
2 435.178 13.333 482.929 0 0 0
2 791.653 729.422 798.721 0 0 0
2 2484.81 433.868 579.749 0 0 0
2 2971.1 54.458 592.671 0 0 0
2 2867.3 289.296 209.953 0 0 0
2 2340.71 846.815 470.148 0 0 0
2 2542.45 231.383 301.226 0 0 0
2 2417.77 87.122 86.585 0 0 0
2 2464.57 1025.67 400.612 0 0 0
2 2730.84 734.354 434.66 0 0 0
2 2584.79 394.824 650.097 0 0 0
2 2716.83 813.849 279.817 0 0 0
2 2701.81 837.085 814.399 0 0 0
2 2577.41 782.669 623.646 0 0 0
2 2486.94 239.652 948.879 0 0 0
2 2636.39 492.777 761.298 0 0 0
2 2525.16 92.743 446.883 0 0 0
2 2896.61 18.026 482.756 0 0 0
2 2780.79 740.731 647.3 0 0 0
2 2287.07 1034.57 548.564 0 0 0
2 2583.14 466.797 329.147 0 0 0
2 2937.61 249.046 448.257 0 0 0
2 2899.01 111.981 824.912 0 0 0
2 2748.97 880.54 972.113 0 0 0
2 2409.33 794.795 866.685 0 0 0
2 2484.25 977.054 820.61 0 0 0
2 2789.92 644.697 785.176 0 0 0
2 2840.22 724.056 178.094 0 0 0
2 2569.22 894.054 241.637 0 0 0
2 2941.01 250.463 318.381 0 0 0
2 2404.09 151.906 229.396 0 0 0
2 2851.12 730.079 422.209 0 0 0
2 2485.96 92.876 561.639 0 0 0
2 2490.2 824.282 150.935 0 0 0
2 2406.99 345.059 550.293 0 0 0
2 2423.86 282.322 228.681 0 0 0
2 2515.18 434.31 943.59 0 0 0
2 2445.89 756.152 444.937 0 0 0
2 2494.49 352.988 155.791 0 0 0
2 2413.75 838.751 696.149 0 0 0
2 2563.38 150.291 66.255 0 0 0
2 2368.74 612.875 464.5 0 0 0
2 2629.7 840.657 368.407 0 0 0
2 2786.08 249.452 505.959 0 0 0
2 2313.41 741.746 756.711 0 0 0
2 2654.8 887.537 1.532 0 0 0
2 2401.15 767.673 210.218 0 0 0
2 2291.42 0.286 24.971 0 0 0
2 2898.93 181.95 575.361 0 0 0
2 2420.99 561.963 619.032 0 0 0
2 2845.52 191.17 128.28 0 0 0
2 2935.3 94.974 154.448 0 0 0
2 2883.95 449.714 497.539 0 0 0
2 2727.02 266.142 9.893 0 0 0
2 2531.06 840.791 7.933 0 0 0
2 2909.89 829.78 166.713 0 0 0
2 2362.19 790.713 329.334 0 0 0
2 2696.61 935.143 193.936 0 0 0
2 2613.66 163.253 503.453 0 0 0
2 2949.63 887.894 611.75 0 0 0
2 2345.64 385.119 970.614 0 0 0
2 2467.21 495.052 209.056 0 0 0
2 2459.58 137.807 354.68 0 0 0
2 2976.39 620.638 414.815 0 0 0
2 2951.82 497.87 188.26 0 0 0
2 2388.41 6.153 323.657 0 0 0
2 2644.96 533.779 1.415 0 0 0
2 2633.25 767.494 27.593 0 0 0
2 2437.52 207.427 525.881 0 0 0
2 2916.52 525.373 632.072 0 0 0
2 2951.68 377.005 193.968 0 0 0
2 2671.09 8.484 636.108 0 0 0
2 2901.47 528.655 968.45 0 0 0
2 2505.42 502.944 455.39 0 0 0
2 2985.32 354.653 792.712 0 0 0
2 2733.54 638.742 12.832 0 0 0
2 2387.03 244.643 9.215 0 0 0
2 2301.33 965.956 196.554 0 0 0
2 2685.26 322.033 156.628 0 0 0
2 2284.21 210.913 672.803 0 0 0
2 2660.98 166.424 815.114 0 0 0
2 2782.49 542.243 510.274 0 0 0
2 2939.55 287.745 91.83 0 0 0
2 2477.29 341.203 439.795 0 0 0
2 2828.65 516.786 66.612 0 0 0
2 2535.58 600.808 311.697 0 0 0
2 2465.01 723.005 658.926 0 0 0
2 2448.51 794.182 561.497 0 0 0
2 2596.38 524.409 580.215 0 0 0
2 2747.95 621.361 386.721 0 0 0
2 2251.07 87.253 887.188 0 0 0
2 2876.41 911.521 309.865 0 0 0
2 2621.76 353.233 312.98 0 0 0
2 2387.09 649.116 130.409 0 0 0
2 2600.43 260.122 906.038 0 0 0
2 2560.19 137.708 646.027 0 0 0
2 2877.3 327.182 925.437 0 0 0
2 2589.42 0.025 403.12 0 0 0
2 2746.73 166.134 903.401 0 0 0
2 2787.19 9.024 810.428 0 0 0
2 2592.91 914.962 471.913 0 0 0
2 2840.58 670.58 913.608 0 0 0
2 659.179 3016.27 473.944 0 0 0
2 514.178 2487.76 922.582 0 0 0
2 864.006 2793.19 641.179 0 0 0
2 771.165 2837.37 218.76 0 0 0
2 676.221 3138.89 225.898 0 0 0
2 121.798 2596.85 651.632 0 0 0
2 479.914 3108.19 5.782 0 0 0
2 92.923 2734.1 175.771 0 0 0
2 683.085 2563.26 715.605 0 0 0
2 610.578 2504.72 575.349 0 0 0
2 136.055 2936.98 544.085 0 0 0
2 291.707 2692.37 275.629 0 0 0
2 387.489 2684.96 627.16 0 0 0
2 6.885 2597.78 766.593 0 0 0
2 268.385 2921.1 405.984 0 0 0
2 928.786 2896.4 244.896 0 0 0
2 238.092 2946.99 940.345 0 0 0
2 109.205 2837.36 450.843 0 0 0
2 6.199 2660.4 350.132 0 0 0
2 690.521 3063.62 587.325 0 0 0
2 474.99 2943.04 530.409 0 0 0
2 920.174 2904.06 534.311 0 0 0
2 490.46 2347.76 637.799 0 0 0
2 1.174 2444.12 104.875 0 0 0
2 50.005 3121.72 881.225 0 0 0
2 769.605 2612.35 408.063 0 0 0
2 190.097 2923.89 827.687 0 0 0
2 883.508 2752.41 128.983 0 0 0
2 450.573 2498.11 810.114 0 0 0
2 927.355 3101.83 972.559 0 0 0
2 539.456 2782.5 401.582 0 0 0
2 349.572 2899.67 732.156 0 0 0
2 410.404 2732.53 261.484 0 0 0
2 385.975 2895.99 463.13 0 0 0
2 966.498 2450.85 137.457 0 0 0
2 831.734 2984.74 573.468 0 0 0
2 216.962 2425.86 337.393 0 0 0
2 293.639 2601.57 403.71 0 0 0
2 171.328 2516.53 819.949 0 0 0
2 398.974 3111.76 368.317 0 0 0
2 875.088 2817.69 380.947 0 0 0
2 306.885 2496.36 804.825 0 0 0
2 932.444 2582.62 253.722 0 0 0
2 194.097 2661.11 169.134 0 0 0
2 82.088 2597.44 249.913 0 0 0
2 713.827 2951.66 240.331 0 0 0
2 35.225 2334.2 447.682 0 0 0
2 194.566 3023.37 42.087 0 0 0
2 292.896 2559.48 1.33 0 0 0
2 84.754 2527.9 131.513 0 0 0
2 286.07 3014.99 199.698 0 0 0
2 235.26 2719.19 629.895 0 0 0
2 512.497 2614.38 625.105 0 0 0
2 94.072 2633.73 867.833 0 0 0
2 907.192 2484.36 405.344 0 0 0
2 214.92 3098.3 523.334 0 0 0
2 128.023 2516.09 517.654 0 0 0
2 751.013 2709.97 732.346 0 0 0
2 367.238 2396.06 241.065 0 0 0
2 514.442 2799.67 537.441 0 0 0
2 909.58 2410.73 553.021 0 0 0
2 376.448 2692.14 439.773 0 0 0
2 480.915 2882.01 345.177 0 0 0
2 11.276 2988.82 955.005 0 0 0
2 657.783 2693.48 919.934 0 0 0
2 792.089 2942.27 416.619 0 0 0
2 90.21 3009.29 311.59 0 0 0
2 235.858 2869.16 261.802 0 0 0
2 40.974 2513.62 614.387 0 0 0
2 397.595 2513.59 201.83 0 0 0
2 47.93 2791.99 567.377 0 0 0
2 851.431 3109.67 247.838 0 0 0
2 819.063 3115.95 107.674 0 0 0
2 854.051 2502.95 126.747 0 0 0
2 440.518 3090.28 183.585 0 0 0
2 904.431 3100.3 828.167 0 0 0
2 957.791 2921.14 865 0 0 0
2 162.233 2719.57 771.769 0 0 0
2 756.777 2350.15 120.086 0 0 0
2 811.694 2966.09 949.744 0 0 0
2 959.503 3055.24 271.963 0 0 0
2 35.206 3083.53 150.504 0 0 0
2 18.456 3021.37 492.887 0 0 0
2 881.218 2575.85 877.137 0 0 0
2 269.428 2417.08 971.03 0 0 0
2 448.023 2814.43 657.805 0 0 0
2 619.159 2864.15 361.136 0 0 0
2 193.877 2547.11 302.787 0 0 0
2 197.857 2610.5 547.243 0 0 0
2 642.41 2816.04 520.091 0 0 0
2 521.335 2622.64 40.558 0 0 0
2 497.031 2625.44 460.778 0 0 0
2 874.6 2724.98 0 0 0 0
2 1025.8 2791.68 571.417 0 0 0
2 309.735 3139.88 886.679 0 0 0
2 723.924 2764.34 89.285 0 0 0
2 625.067 2386.09 596.511 0 0 0
2 26.165 2610.87 458.709 0 0 0
2 38.46 2829.68 918.543 0 0 0
2 585.775 2571.72 847.157 0 0 0
2 23.041 158.708 2476.73 0 0 0
2 2.328 249.493 2280.09 0 0 0
2 482.543 778.876 2782.88 0 0 0
2 823.781 661.268 2343.93 0 0 0
2 161.511 233.825 2317.45 0 0 0
2 497.436 461.133 2719.95 0 0 0
2 594.571 332.522 2695.16 0 0 0
2 63.831 392.489 2837.88 0 0 0
2 253.715 715.632 2680.46 0 0 0
2 559.619 873.573 2911.07 0 0 0
2 576.692 661.812 2414.15 0 0 0
2 344.37 390.051 2828.13 0 0 0
2 0.209 314.269 2392.55 0 0 0
2 655.847 1.514 2680.78 0 0 0
2 548.523 525.809 2546.34 0 0 0
2 120.103 536.9 2807.64 0 0 0
2 210.813 494.887 2583.78 0 0 0
2 135.051 32.534 2603.08 0 0 0
2 835.469 649.221 2879.38 0 0 0
2 635.98 212.192 2445.95 0 0 0
2 258.154 805.513 2883.63 0 0 0
2 349.423 753.889 2560.08 0 0 0
2 220.174 1.275 2479.8 0 0 0
2 11.26 244.712 2864.81 0 0 0
2 614.595 6.447 2819.97 0 0 0
2 588.259 1038.56 2757.46 0 0 0
2 245.735 539.692 2736.78 0 0 0
2 285.89 886.574 2454.99 0 0 0
2 31.059 718.407 2878.49 0 0 0
2 744.894 482.576 2668.68 0 0 0
2 517.814 940.778 2734.4 0 0 0
2 462.876 585.653 2343.01 0 0 0
2 582.233 640.229 2633.05 0 0 0
2 240.39 808.618 2548.07 0 0 0
2 358.726 686.885 2303.1 0 0 0
2 89.493 372.401 2619.76 0 0 0
2 774.532 729.885 2796 0 0 0
2 175.791 344.413 2498.2 0 0 0
2 712.603 638.172 2700.53 0 0 0
2 382.914 464.681 2368.15 0 0 0
2 509.539 771.509 2606.93 0 0 0
2 539.743 793.239 2461.82 0 0 0
2 706.634 1.271 2523.43 0 0 0
2 373.286 592.776 2784.67 0 0 0
2 19.261 273.882 2651.54 0 0 0
2 768.879 53.341 2742.56 0 0 0
2 785.748 163.623 2581.69 0 0 0
2 155.953 610.452 2678.2 0 0 0
2 201.916 936.615 2553.97 0 0 0
2 513.961 455.867 2366.6 0 0 0
2 769.419 912.774 2331.63 0 0 0
2 737.224 312.921 2858.11 0 0 0
2 420.751 279.266 2686.2 0 0 0
2 228.756 18.686 2762.94 0 0 0
2 353.262 398.69 2482.86 0 0 0
2 261.463 350.971 2603.82 0 0 0
2 737.897 476.015 2542.64 0 0 0
2 673.931 429.721 2306.01 0 0 0
2 732.801 792.129 2303.85 0 0 0
2 91.562 836.492 2525.93 0 0 0
2 304.929 179.537 2376.69 0 0 0
2 493.293 321.936 2296.12 0 0 0
2 248.084 219.842 2744.83 0 0 0
2 712.374 63.958 2317.48 0 0 0
2 485.912 933.29 2384.5 0 0 0
2 566.603 322.421 2425.61 0 0 0
2 861.598 452.984 2858.81 0 0 0
2 754.694 882.857 2537.63 0 0 0
2 665.657 197.702 2635.72 0 0 0
2 817.986 142.201 2450.95 0 0 0
2 838.839 219.99 2355.26 0 0 0
2 296.877 144.639 2621.57 0 0 0
2 954.568 442.277 2688.61 0 0 0
2 786.168 38.295 2863.6 0 0 0
2 901.587 169.843 2833.03 0 0 0
2 755.37 842.762 2853.02 0 0 0
2 698.328 114.515 2481.2 0 0 0
2 933.45 750.441 2596.34 0 0 0
2 797.233 348.004 2650.26 0 0 0
2 392.322 903.206 2702.73 0 0 0
2 564.667 104.564 2890.05 0 0 0
2 514.165 222.132 2600.58 0 0 0
2 299.496 712.552 2423.74 0 0 0
2 584.784 567.928 2846.38 0 0 0
2 504.566 199.688 2416.33 0 0 0
2 934.515 500.274 2540.4 0 0 0
2 963.884 704.772 2483.55 0 0 0
2 384.122 553.253 2458.67 0 0 0
2 349.534 297.07 2406.03 0 0 0
2 68.029 779.908 2303.26 0 0 0
2 1002.71 234.017 2547.96 0 0 0
2 150.705 218.252 2863.34 0 0 0
2 11.371 923.883 2870.96 0 0 0
2 657.029 738.699 2829.48 0 0 0
2 642.252 548.736 2427.82 0 0 0
2 982.798 632.42 2802.31 0 0 0
2 837.927 275.951 2561.58 0 0 0
2 179.72 803.702 2790.15 0 0 0
2 607.384 423.438 2579.22 0 0 0
2 489.96 108.871 2732.5 0 0 0
2 2915.14 2804.01 409.13 0 0 0
2 2670.36 2374.94 514.666 0 0 0
2 2493.7 2688.56 702.231 0 0 0
2 2929.8 2756.04 684.172 0 0 0
2 2899.81 2862.55 291.461 0 0 0
2 2467.4 2333.8 164.442 0 0 0
2 2475.66 2719.47 490.998 0 0 0
2 2576.68 2924.63 0 0 0 0
2 2392.79 2701 250.168 0 0 0
2 2880.26 2882.03 761.337 0 0 0
2 2345.66 2880.41 365.564 0 0 0
2 2813.77 2730.54 661.114 0 0 0
2 2895.89 2799.28 573.541 0 0 0
2 2659.03 2275.34 419.692 0 0 0
2 2357.39 2869.99 113.158 0 0 0
2 2635.86 2779.78 736.3 0 0 0
2 2600.93 2857.98 169.383 0 0 0
2 2744.19 2620.12 61.305 0 0 0
2 2514.43 2831.47 765.75 0 0 0
2 2550.48 2879.8 955.209 0 0 0
2 2681.98 2616.3 373.233 0 0 0
2 2878.97 2986.12 534.623 0 0 0
2 2912.95 2683.27 880.35 0 0 0
2 2891.28 2486.92 646.655 0 0 0
2 2575.97 2489.11 691.414 0 0 0
2 2536.59 2580.84 3.87 0 0 0
2 2591.09 2352.41 125.398 0 0 0
2 2636.7 2778.67 995.163 0 0 0
2 2924.62 2331.02 502.206 0 0 0
2 2503.63 2945.82 510.477 0 0 0
2 2318.1 2932.18 916.409 0 0 0
2 2685.12 2283.9 596.028 0 0 0
2 3025.72 2457.14 492.303 0 0 0
2 2725.03 2542.34 882.937 0 0 0
2 2442.66 2461.69 718.897 0 0 0
2 2502.1 2790.98 353.372 0 0 0
2 2779.31 2478.03 2.51 0 0 0
2 2519.68 2813.89 69.292 0 0 0
2 2970.95 2249.21 814.595 0 0 0
2 2848.24 2719.61 483.163 0 0 0
2 2799.42 2388.14 590.522 0 0 0
2 2846.46 2432.85 833.194 0 0 0
2 2573.62 2661.75 108.904 0 0 0
2 2757.21 2377.04 225.91 0 0 0
2 2811.16 2388.9 459.154 0 0 0
2 2384.4 2855.01 783.697 0 0 0
2 2562.91 2699.54 254.421 0 0 0
2 2698.9 2727.57 458.932 0 0 0
2 2438.24 2344.48 557.175 0 0 0
2 2699.74 2278.82 294.271 0 0 0
2 2634.77 2913.75 334.031 0 0 0
2 2420.09 2539.61 626.221 0 0 0
2 2702.31 2722.9 284.765 0 0 0
2 2620.8 2604.04 484.027 0 0 0
2 2371.49 2448.81 997.963 0 0 0
2 2276.93 2714.11 438.704 0 0 0
2 2848.45 2895.57 918.454 0 0 0
2 2393.58 2500.58 826.978 0 0 0
2 2605.65 2732.18 378.072 0 0 0
2 2470.61 2824.74 237.674 0 0 0
2 2534.92 2959.28 723.868 0 0 0
2 2780.72 2289.78 521.53 0 0 0
2 2663.24 2892.67 487.596 0 0 0
2 2839.85 2567.32 367.138 0 0 0
2 2451.57 2603.29 209.599 0 0 0
2 2758.52 2824.74 842.48 0 0 0
2 2375.99 2298.47 452.685 0 0 0
2 2516.94 2747.82 872.822 0 0 0
2 2368.99 2787.73 3.298 0 0 0
2 2427.21 2835.42 628.495 0 0 0
2 2919.85 2414.73 1007.41 0 0 0
2 2740.2 2687.34 776.349 0 0 0
2 2314.34 2796.1 235.667 0 0 0
2 2554.27 2371.14 473.157 0 0 0
2 2339.14 2357.39 835.902 0 0 0
2 2528.89 2644.62 809.39 0 0 0
2 2600.39 2399.94 270.556 0 0 0
2 2588.5 2775.08 521.806 0 0 0
2 2578.09 2714.55 0.123 0 0 0
2 2654.25 2631.74 841.49 0 0 0
2 2598.51 2837 852.592 0 0 0
2 2695.22 2774.02 14.9 0 0 0
2 2352.99 2576.98 301.202 0 0 0
2 2693.9 2773.19 584.214 0 0 0
2 2957.2 2502.91 816.725 0 0 0
2 2456.45 2462.01 196.335 0 0 0
2 2508.36 2548.36 536.433 0 0 0
2 2676.36 2401.2 0 0 0 0
2 2388.92 2713.44 604.142 0 0 0
2 2985.72 2628.59 291.946 0 0 0
2 2338.91 2270.7 620.713 0 0 0
2 2294.73 2649.41 645.106 0 0 0
2 2628.78 2477.3 929.165 0 0 0
2 2741.21 2421.89 893.374 0 0 0
2 2265.05 2646.11 134.241 0 0 0
2 2741.13 2440.72 332.186 0 0 0
2 2342.11 2831.62 491.673 0 0 0
2 2557.85 2615.98 363.399 0 0 0
2 2886.84 2564.3 981.401 0 0 0
2 2893.55 2553.41 477.605 0 0 0
2 2526.76 796.684 2691.78 0 0 0
2 2781.53 112.154 2446.28 0 0 0
2 2542.41 1.855 2917.54 0 0 0
2 2638.77 714.634 2810.3 0 0 0
2 2719.97 514.628 2497.12 0 0 0
2 2359.81 805.219 2412.1 0 0 0
2 2819.99 116.678 2778.9 0 0 0
2 2882.52 330.526 2566.67 0 0 0
2 2547 539.655 2620.76 0 0 0
2 2882.33 683.188 2592.89 0 0 0
2 2654.9 806.467 2558.58 0 0 0
2 2412.59 118.733 2730.3 0 0 0
2 2724.76 45.306 2737.82 0 0 0
2 2639.02 690.845 2506.54 0 0 0
2 2824.49 427.828 2834.42 0 0 0
2 2517.58 266.813 2672.64 0 0 0
2 2926.6 557.328 2848.82 0 0 0
2 2423.31 755.095 2310.22 0 0 0
2 2755.66 849.775 2649.43 0 0 0
2 2787.84 741.882 2705.81 0 0 0
2 2536.05 646.678 2768.12 0 0 0
2 2368.9 390.148 2445.53 0 0 0
2 2631.16 707.927 2630.36 0 0 0
2 2297.07 210.38 2869.95 0 0 0
2 2505.09 16.78 2407.51 0 0 0
2 2451.56 83.115 2916.83 0 0 0
2 2407.66 403.175 2870.6 0 0 0
2 2711.3 657.468 2890.39 0 0 0
2 2760.69 83.821 2315.61 0 0 0
2 2358.13 633.23 2331.44 0 0 0
2 2542.66 418.247 2440.31 0 0 0
2 2509.24 391.623 2298.81 0 0 0
2 2581.69 245.399 2499.31 0 0 0
2 2623.01 518.733 2424.36 0 0 0
2 2850.76 610.669 2760 0 0 0
2 2869.56 862.627 2748.22 0 0 0
2 2767.33 19.665 2523.05 0 0 0
2 2348.19 684.293 2743.77 0 0 0
2 2552.52 704.741 2352.95 0 0 0
2 2435.62 854.18 2597.54 0 0 0
2 2607.83 433.876 2805.88 0 0 0
2 2359.31 502.419 2385.9 0 0 0
2 2322.91 498.915 2559.58 0 0 0
2 2881.6 435.721 2382.46 0 0 0
2 2592.89 223.684 2837.3 0 0 0
2 2570.19 506.951 2250.36 0 0 0
2 2668.47 827.302 2730.42 0 0 0
2 2292.97 4.44 2821.47 0 0 0
2 2855.28 114.095 2633.03 0 0 0
2 2889.41 249.563 2727.25 0 0 0
2 2543.79 815.891 2427.36 0 0 0
2 2334.08 463.131 2794.96 0 0 0
2 2340.76 331.902 2775.89 0 0 0
2 2658.14 441.963 2303.45 0 0 0
2 2251.48 593.78 2468.32 0 0 0
2 2596.86 336.456 2610.62 0 0 0
2 2777.86 374.075 2394.25 0 0 0
2 2734.61 936.969 2754.47 0 0 0
2 2862 811.817 2500.67 0 0 0
2 2329.57 272.705 2625.53 0 0 0
2 2898.33 4.187 2605.74 0 0 0
2 2545.94 158.888 2619.57 0 0 0
2 2478.08 473.212 2784.16 0 0 0
2 2577.32 129.567 2428.95 0 0 0
2 2451.29 951.014 2509.75 0 0 0
2 2688.63 196.362 2558.33 0 0 0
2 2310.44 229.265 2500.65 0 0 0
2 2365.91 9.261 2445.66 0 0 0
2 2406.38 248.638 2716.74 0 0 0
2 2468.57 809.74 2838.09 0 0 0
2 2835.6 349.097 2677.22 0 0 0
2 2924.05 449.194 2719.48 0 0 0
2 2437.59 741.995 2488.24 0 0 0
2 2805.51 494.921 2685.48 0 0 0
2 2875.07 1.989 2784.96 0 0 0
2 2688.9 142.733 2853.59 0 0 0
2 2452.55 287.909 2549.16 0 0 0
2 2731.62 134.218 2653.92 0 0 0
2 2726.7 623.114 2641.6 0 0 0
2 2824.19 436.856 2503.44 0 0 0
2 2796.27 223.811 2296.11 0 0 0
2 2537.82 934.044 2847.6 0 0 0
2 2369.7 884.912 2853.25 0 0 0
2 2510.86 521.427 2378.94 0 0 0
2 2483.76 305.875 2801.73 0 0 0
2 2488.64 162.788 2828.36 0 0 0
2 2530.69 88.915 2306.61 0 0 0
2 2639.95 204.06 2318.66 0 0 0
2 2459.96 191.085 2442.47 0 0 0
2 2448.5 649.891 2670.05 0 0 0
2 2744.52 333.566 2817.53 0 0 0
2 2495.1 395.066 2686.93 0 0 0
2 2710.57 210.264 2745.71 0 0 0
2 2600.11 369.902 2911.47 0 0 0
2 2552.92 550.348 2839.78 0 0 0
2 2238.19 321.006 2386.39 0 0 0
2 2660.79 329.328 2427.63 0 0 0
2 2458.1 107.045 2552.14 0 0 0
2 2616.27 315.84 2744.1 0 0 0
2 2301.55 876.51 2315.86 0 0 0
2 484.129 2639.53 2879.78 0 0 0
2 915.042 2406.8 2382.95 0 0 0
2 755.112 2659 2914.59 0 0 0
2 151.614 2681.21 2918.22 0 0 0
2 446.885 2861.96 2496.67 0 0 0
2 719.03 2453.4 2939.19 0 0 0
2 914.113 2426.64 2573.88 0 0 0
2 321.015 2488.1 2721.76 0 0 0
2 317.245 2747 2377.99 0 0 0
2 437.625 2705 2404.52 0 0 0
2 267.512 2934.35 2857.64 0 0 0
2 258.42 2780.1 2953.92 0 0 0
2 187.222 2369.81 2459.81 0 0 0
2 635.711 2582.59 2353.25 0 0 0
2 838.121 2653.51 2380.07 0 0 0
2 24.311 2626.79 2677.2 0 0 0
2 547.466 2954.91 2586.66 0 0 0
2 691.996 2517.29 2769.67 0 0 0
2 128.88 2751.88 2471.01 0 0 0
2 690.708 2714.73 2791.95 0 0 0
2 695.463 2912.49 2669.3 0 0 0
2 260.258 2591 2457.42 0 0 0
2 654.374 2903.72 2533.49 0 0 0
2 347.504 2931.79 2644.25 0 0 0
2 835.145 2898.93 2690.07 0 0 0
2 798.033 2493.03 2615.13 0 0 0
2 775.819 2628.31 2797.47 0 0 0
2 518.315 2578.79 2393.66 0 0 0
2 12.377 2868.72 2450.6 0 0 0
2 507.069 2306.79 2372.08 0 0 0
2 362.552 2806.48 2897.85 0 0 0
2 240.15 2355.97 2746.61 0 0 0
2 71.038 2378.85 2852.96 0 0 0
2 829.602 2787.92 2771.8 0 0 0
2 98.457 2476.88 2543.71 0 0 0
2 248.01 2669.28 2748.91 0 0 0
2 1008.53 2595.36 2698.75 0 0 0
2 568.738 2637.96 2516.54 0 0 0
2 240.138 2810.49 2454.78 0 0 0
2 231.35 2358.19 2930.64 0 0 0
2 738.431 2402.28 2434.82 0 0 0
2 281.563 2434.7 2607.89 0 0 0
2 677.645 2391.57 2815.92 0 0 0
2 547.137 2834.07 2416.17 0 0 0
2 928.136 2375.57 2900.6 0 0 0
2 76.209 2323.76 2532.84 0 0 0
2 852.262 2686.13 2504.66 0 0 0
2 773.022 2921.5 2910.33 0 0 0
2 630.419 2487.53 2448.21 0 0 0
2 715.407 2738.28 2338.76 0 0 0
2 957.703 2864.22 2331.1 0 0 0
2 501.52 2769.5 2324.53 0 0 0
2 425.166 2374.54 2838.53 0 0 0
2 847.707 2919.32 2494.82 0 0 0
2 660.851 2616.73 2708.16 0 0 0
2 486.974 2406.16 2481.28 0 0 0
2 101.133 2590.62 2497.43 0 0 0
2 893.733 2562.32 2477.86 0 0 0
2 17.136 2745.16 2423.52 0 0 0
2 216.379 2817.03 2777.73 0 0 0
2 182.428 2786.35 2587.36 0 0 0
2 374.044 2732.97 2695.03 0 0 0
2 306.248 2841.2 2574.61 0 0 0
2 227.879 2488.44 2399.56 0 0 0
2 939.045 2913.36 2942.15 0 0 0
2 329.961 2323.97 2405.12 0 0 0
2 268.188 2552.61 2865.97 0 0 0
2 503.077 2284.64 2811.52 0 0 0
2 764.373 2360.65 2687.51 0 0 0
2 915.735 2720.51 2648.06 0 0 0
2 143.503 2468.37 2688.47 0 0 0
2 112.516 2751.56 2796.05 0 0 0
2 33.661 2714.39 2590.34 0 0 0
2 777.812 2320.3 2529.07 0 0 0
2 389.499 2643.06 2524.02 0 0 0
2 168.524 2833.45 2335.23 0 0 0
2 405.046 2899.3 2791.26 0 0 0
2 689.378 2775.87 2905.33 0 0 0
2 974.914 2672.76 2497.84 0 0 0
2 192.772 2477.96 2804.03 0 0 0
2 643.866 2379.18 2516.52 0 0 0
2 59.142 2816.39 2651.15 0 0 0
2 3.134 2389.31 2455.32 0 0 0
2 924.338 2784.98 2440.99 0 0 0
2 148.147 2910.97 2550.91 0 0 0
2 964.329 2905.45 2595.05 0 0 0
2 986.555 2677.98 2357.87 0 0 0
2 622.642 2528 2610.68 0 0 0
2 903.521 2816.11 2865.16 0 0 0
2 587.649 2361.85 2740.7 0 0 0
2 779.087 2509.93 2496.82 0 0 0
2 868.651 2571.5 2722.65 0 0 0
2 611.085 2743.65 2661.73 0 0 0
2 410.212 2427.54 2581.26 0 0 0
2 515.376 2803.88 2741.26 0 0 0
2 488.073 2529.53 2585.55 0 0 0
2 2.052 2608 2427.21 0 0 0
2 410.341 2440.01 2393.91 0 0 0
2 474.349 2411.26 2692.03 0 0 0
2 144.906 2591.96 2730.86 0 0 0
2 3025.04 2288.99 2850.13 0 0 0
2 2847.77 2967.36 2959 0 0 0
2 2691.21 3038.2 3002.74 0 0 0
2 2507.55 2822.74 2966.5 0 0 0
2 2527.29 2733.73 2569.2 0 0 0
2 3003.01 2575.7 2785.91 0 0 0
2 3065.34 2533.48 2637.17 0 0 0
2 2320.16 2804.1 2536.44 0 0 0
2 2813.08 2971.39 2414.57 0 0 0
2 2908.05 2864.46 3033.5 0 0 0
2 2305.13 2495.65 2868.41 0 0 0
2 2502.54 2409.89 2668.44 0 0 0
2 2925.51 2995.42 2846.22 0 0 0
2 2854.17 2765.56 2915.64 0 0 0
2 2644.24 2814.37 2674.11 0 0 0
2 2881.67 2826.46 2450.52 0 0 0
2 2579.57 2545.34 2662.15 0 0 0
2 2836.59 2328.15 2474.41 0 0 0
2 2629.24 2735.64 2905.89 0 0 0
2 2548.59 2859.35 2537.69 0 0 0
2 2524.48 2704.95 2761.32 0 0 0
2 2331.24 2957.71 2494.87 0 0 0
2 2963.76 2995.67 3026.8 0 0 0
2 2455.5 2717.1 2872.72 0 0 0
2 2791.46 2795.49 2538.74 0 0 0
2 2595.56 2966.89 2954.36 0 0 0
2 2522.03 2982.92 2298.99 0 0 0
2 2571.66 3037.35 2796.76 0 0 0
2 3007.46 2833.09 2924.77 0 0 0
2 2515.69 2654.21 3120.99 0 0 0
2 2618.6 2824.95 3055.74 0 0 0
2 2748.61 2407.58 2332.86 0 0 0
2 2586.1 2449.5 2832.65 0 0 0
2 2830.08 2844.63 2737.12 0 0 0
2 2913.41 2420.39 2641.32 0 0 0
2 2713.82 2858.24 2962.8 0 0 0
2 2931.38 2631.62 2402.31 0 0 0
2 2911.56 2505.65 3022.76 0 0 0
2 2408.83 2540.52 3021.74 0 0 0
2 3002.02 2639.76 2528.89 0 0 0
2 2491.21 2378.85 2858.54 0 0 0
2 2679.72 2572.26 2960.73 0 0 0
2 3125.96 2476.46 2785.96 0 0 0
2 2744.57 2666.44 2552.12 0 0 0
2 2641.99 2633.64 2607.7 0 0 0
2 2353.74 2457.69 2745.04 0 0 0
2 2574.33 2621.34 2994.29 0 0 0