ITEM: TIMESTEP
0
ITEM: NUMBER OF ATOMS
996
ITEM: BOX BOUNDS pp pp pp
-1.0000000000000000e+02 5.1000000000000000e+03
-1.0000000000000000e+02 5.1000000000000000e+03
-1.0000000000000000e+02 5.1000000000000000e+03
ITEM: ATOMS type x y z ix iy iz
1 136.953 509.505 890.703 0 0 0
1 54.121 91.933 955.29 0 0 0
1 809.213 519.897 191.04 0 0 0
1 692.307 702.95 591.005 0 0 0
1 299.457 272.822 87.356 0 0 0
1 447.179 564.168 47.126 0 0 0
1 479.266 208.543 173.587 0 0 0
1 46.402 800.264 444.01 0 0 0
1 25.481 377.001 457.406 0 0 0
1 184.865 624.433 134.712 0 0 0
1 710.824 484.102 444.781 0 0 0
1 129.708 395.453 523.96 0 0 0
1 528.611 630.358 831.948 0 0 0
1 120.654 857.552 782.2 0 0 0
1 831.404 66.999 443.607 0 0 0
1 921.853 483.306 128.641 0 0 0
1 885.279 582.515 725.475 0 0 0
1 743.936 769.194 128.62 0 0 0
1 878.555 353.338 858.426 0 0 0
1 562.619 615.097 603.663 0 0 0
1 147.618 857.975 258.704 0 0 0
1 635.049 570.281 35.008 0 0 0
1 30.657 909.707 394.862 0 0 0
1 519.726 191.429 914.059 0 0 0
1 291.699 173.381 2.015 0 0 0
1 276.493 494.119 477.898 0 0 0
1 519.83 413.083 449.637 0 0 0
1 973.481 678.627 290.709 0 0 0
1 265.622 767.236 814.474 0 0 0
1 136.149 586.743 688.812 0 0 0
1 825.808 794.935 954.799 0 0 0
1 153.687 506.674 112.475 0 0 0
1 545.522 325.631 79.224 0 0 0
1 619.293 1010.22 908.431 0 0 0
1 847.057 693.295 564.522 0 0 0
1 297.021 420.189 1046.02 0 0 0
1 119.566 506.221 574.229 0 0 0
1 67.728 33.004 193.882 0 0 0
1 3653.32 756.897 881.568 0 0 0
1 3603.7 680.014 437.824 0 0 0
1 3550.11 811.722 423.316 0 0 0
1 3660.44 705.173 30.717 0 0 0
1 3673.07 453.214 366.414 0 0 0
1 3081.26 708.322 809.585 0 0 0
1 3608.25 644.523 216.843 0 0 0
1 3193.28 488.618 638.384 0 0 0
1 3196.54 369.347 543.299 0 0 0
1 3557.68 920.413 353.905 0 0 0
1 3159.11 620.684 260.876 0 0 0
1 3414.69 643.995 755.777 0 0 0
1 3288 970.072 668.257 0 0 0
1 3470.72 537.601 189.103 0 0 0
1 3531.13 559.705 740.375 0 0 0
1 3096.08 702.417 166.156 0 0 0
1 3567.58 109.15 578.421 0 0 0
1 3432.91 556.668 305.067 0 0 0
1 3720.14 986.181 804.666 0 0 0
1 3326.52 712.707 326.587 0 0 0
1 3083.55 463.587 436.502 0 0 0
1 3100.03 275.513 720.452 0 0 0
1 3342.07 222.877 422.19 0 0 0
1 3728.51 857.956 41.739 0 0 0
1 3735.89 624.536 280.388 0 0 0
1 3366.07 161.764 572.349 0 0 0
1 3539.78 857.404 216.472 0 0 0
1 3565.4 462.582 310.795 0 0 0
1 3111.46 106.901 883.632 0 0 0
1 3214.93 429.243 362.293 0 0 0
1 3591.64 456.053 622.73 0 0 0
1 3073.65 866.807 254.324 0 0 0
1 3519.14 714.556 802.367 0 0 0
1 3429.53 273.071 282.411 0 0 0
1 3280.36 662.738 46.044 0 0 0
1 3581.17 296.539 416.193 0 0 0
1 3391.03 746.083 685.382 0 0 0
1 754.262 4057.65 837.002 0 0 0
1 464.654 3988.78 197.991 0 0 0
1 216.692 4002.6 800.801 0 0 0
1 237.311 3218.82 822.711 0 0 0
1 781.742 3261.37 734.413 0 0 0
1 766.66 3382.09 233.257 0 0 0
1 152.904 3434.1 753.476 0 0 0
1 537.592 3800.45 377.983 0 0 0
1 1019.69 3186.07 350.747 0 0 0
1 906.964 4057.5 282.518 0 0 0
1 495.369 3412.08 606.233 0 0 0
1 439.575 3774.93 125.903 0 0 0
1 306.625 3291.16 576.015 0 0 0
1 864.024 3231.38 239.635 0 0 0
1 953.976 3563.16 628.627 0 0 0
1 812.097 3509.38 155.19 0 0 0
1 899.361 4026.68 129.646 0 0 0
1 805.693 3641.89 800.025 0 0 0
1 646.118 3913.18 848.46 0 0 0
1 552.474 3940.46 588.432 0 0 0
1 33.047 3746.73 922.776 0 0 0
1 474.668 3220.57 154.52 0 0 0
1 272.978 3600.09 520.415 0 0 0
1 980.969 3944.04 943.881 0 0 0
1 359.013 3417.57 551.155 0 0 0
1 81.81 3423.66 530.172 0 0 0
1 81.665 3257.79 176.722 0 0 0
1 84.44 3453.18 176.589 0 0 0
1 262.645 3983.84 632.479 0 0 0
1 778.43 3366.72 590.431 0 0 0
1 257.683 3361.78 264.705 0 0 0
1 303.367 3811.97 611.911 0 0 0
1 66.813 3872.51 909.301 0 0 0
1 1011.98 3694.27 617.221 0 0 0
1 917.165 3628.04 1022.09 0 0 0
1 159.196 4016.24 941.789 0 0 0
1 394.091 3450.35 831.265 0 0 0
1 686.066 3960.33 683.452 0 0 0
1 2.982 2.018 3427.74 0 0 0
1 1422.57 1293.97 4640.34 0 0 0
1 1473.24 2364.62 4844.42 0 0 0
1 237.902 692.279 3245.8 0 0 0
1 1162.04 1159.58 3437.04 0 0 0
1 668.767 378.31 3577.76 0 0 0
1 59.942 139.438 3467.87 0 0 0
1 725 895.256 3872.69 0 0 0
1 579.715 907.065 3547.62 0 0 0
1 196.188 31.404 3473.94 0 0 0
1 993.284 42.943 3243.22 0 0 0
1 444.536 454.712 3406.65 0 0 0
1 377.649 385.863 3861.97 0 0 0
1 761.107 404.178 3232.88 0 0 0
1 431.964 418.511 3624 0 0 0
1 939.687 455.29 3216.09 0 0 0
1 98.867 71.711 3641.73 0 0 0
1 4.633 280.406 3601.04 0 0 0
1 706.12 902.601 3305.18 0 0 0
1 141.82 852.107 3201.66 0 0 0
1 328.136 111.35 3838.36 0 0 0
1 988.267 262.781 3437.46 0 0 0
1 837.286 400.648 3387.47 0 0 0
1 123.046 518.399 3653.45 0 0 0
1 0 2500 4585.31 0 0 0
1 972.15 886.045 3849.55 0 0 0
1 750.497 218.999 3791.08 0 0 0
1 828.827 134.693 3848.43 0 0 0
1 502.023 638.764 3307.87 0 0 0
1 53.801 798.854 3289.28 0 0 0
1 529.32 92.859 3205.11 0 0 0
1 63.261 628.454 3594.54 0 0 0
1 551.945 407.347 3743.46 0 0 0
1 209.056 109.818 3682.78 0 0 0
1 820.241 568.863 3186.34 0 0 0
1 869.339 261.892 3286.3 0 0 0
1 859.278 880.271 3407.08 0 0 0
1 4999.97 3541.83 2499.93 0 0 0
1 4070.21 3327.72 1943.72 0 0 0
1 2748.36 4391.13 884.29 0 0 0
1 2500 3304.99 0.001 0 0 0
1 4648.79 4989.99 2480.26 0 0 0
1 5000 5000 1397.35 0 0 0
1 3680.89 3479.05 332.77 0 0 0
1 3520.86 3928.45 926.112 0 0 0
1 3267.15 3532.36 78.121 0 0 0
1 3637.12 3522.91 142.263 0 0 0
1 3560.62 3533.91 858.952 0 0 0
1 3495.14 3449.31 443.768 0 0 0
1 3213.62 3734.95 543.705 0 0 0
1 3653.99 3266.74 602.413 0 0 0
1 3666.74 3549.37 435.502 0 0 0
1 3816.82 3782.24 713.5 0 0 0
1 3812.59 3880.62 384.867 0 0 0
1 3900.79 3806.25 938.86 0 0 0
1 3412.49 3568.91 314.225 0 0 0
1 3113.38 4608 0 0 0 0
1 4999.99 4750.49 2491.66 0 0 0
1 3936.67 3230.27 312.737 0 0 0
1 3868.27 4045.58 623.656 0 0 0
1 3408.92 3143.74 99.281 0 0 0
1 3354.19 4042.84 414.47 0 0 0
1 3780.14 3936.26 571.646 0 0 0
1 3321.22 3097.73 480.918 0 0 0
1 3876.71 3919.9 271.884 0 0 0
1 4017.12 3412.51 140.477 0 0 0
1 3552.34 3585.16 969.239 0 0 0
1 3413.28 3279.67 451.84 0 0 0
1 3957.51 3676.36 0 0 0 0
1 3920.65 3262.46 568.996 0 0 0
1 4232.74 3748.51 400.254 0 0 0
1 3286.43 3937.02 861.174 0 0 0
1 3068.51 3462.23 1697.71 0 0 0
1 3967.31 4331.8 1907.91 0 0 0
1 3046.76 3627.02 457.73 0 0 0
1 3306.19 1584.15 3377.66 0 0 0
1 4835.15 2303.32 2805.53 0 0 0
1 4999.99 2499.98 4999.98 0 0 0
1 3245.83 2042.63 4941.72 0 0 0
1 4999.72 44.505 4866.98 0 0 0
1 3144.73 210.776 3159.91 0 0 0
1 3380.61 99.937 3343.82 0 0 0
1 3205.75 52.143 3800.01 0 0 0
1 4961.39 1371.35 3327.1 0 0 0
1 3479.97 263.721 3822.81 0 0 0
1 3635.34 511.02 3712.04 0 0 0
1 2791.55 518.211 3185.43 0 0 0
1 3480.31 422.383 3709.66 0 0 0
1 3268.57 783.209 3459.2 0 0 0
1 3777.59 311.276 3689.95 0 0 0
1 3073.3 696.768 3472.42 0 0 0
1 3762.73 197.716 3355.05 0 0 0
1 3352.07 553.49 3709.2 0 0 0
1 3779.81 525.735 3490.85 0 0 0
1 3772.01 890.275 3251.15 0 0 0
1 3632.7 865.894 3462.01 0 0 0
1 2768.47 0 4843.4 0 0 0
1 3233.13 742.473 3301.65 0 0 0
1 3667.03 240.812 3811.28 0 0 0
1 3675.88 638.815 3364.11 0 0 0
1 3153.42 147.126 3424.57 0 0 0
1 3091.65 201.466 3304.16 0 0 0
1 2500 1821.28 2500 0 0 0
1 3459.97 831.879 3144.85 0 0 0
1 3767.64 1999.57 2500 0 0 0
1 3141.98 788.534 3743.83 0 0 0
1 3161.26 532.702 3151.88 0 0 0
1 3767.63 644.509 3585.5 0 0 0
1 3460.39 115.191 3437.23 0 0 0
1 3459.47 852.785 3270.14 0 0 0
1 4999.99 2499.94 4442.06 0 0 0
1 3255.6 141.927 3679.18 0 0 0
1 515.418 3821.81 3656.63 0 0 0
1 625.142 3909.09 4049.79 0 0 0
1 353.868 3547.55 3231.57 0 0 0
1 568.44 3457.88 3336.61 0 0 0
1 303.591 3414.81 3239.31 0 0 0
1 250.631 3325.72 3908.81 0 0 0
1 901.766 3441.06 3720.04 0 0 0
1 343.667 3224.8 4017.49 0 0 0
1 610.121 3844.8 3481.6 0 0 0
1 507.186 3286.93 3474.8 0 0 0
1 343.992 3830.15 3906.37 0 0 0
1 314.074 3505.92 3950.93 0 0 0
1 931.619 3645.74 3210.77 0 0 0
1 358.321 3635.61 3937.24 0 0 0
1 870.664 3208.27 3498.86 0 0 0
1 417.688 3622.09 3372.24 0 0 0
1 652.493 3853.29 3310.66 0 0 0
1 895.453 3311.76 3776.86 0 0 0
1 548.401 3870.65 3237.52 0 0 0
1 321.539 3916.24 3540.24 0 0 0
1 807.401 3272.59 3980.39 0 0 0
1 663.893 3348.91 3607.48 0 0 0
1 307.818 3709.54 3714.53 0 0 0
1 286.956 3203.49 3257.7 0 0 0
1 206.772 3510.57 3339.34 0 0 0
1 219.084 3828.72 3362.2 0 0 0
1 543.506 3664.47 3750.39 0 0 0
1 353.712 3798.72 3619.27 0 0 0
1 85.21 3438.11 3637.96 0 0 0
1 406.142 3186.45 3785.59 0 0 0
1 142.669 3828.15 3477.91 0 0 0
1 481.684 3267.39 3984.09 0 0 0
1 635.488 3723.91 3680.33 0 0 0
1 224.851 3332.95 3405.8 0 0 0
1 57.892 3606.91 3337.82 0 0 0
1 854.584 3841.59 3787.8 0 0 0
1 79.361 3490.44 3984.03 0 0 0
1 593.125 3627.17 3556.14 0 0 0
1 3332.61 3620.76 3294.46 0 0 0
1 3335.82 3369.92 3553.85 0 0 0
1 3511.78 3689.31 3559.89 0 0 0
1 3485.43 3219.9 3334.43 0 0 0
1 3790.31 3296.36 3275.65 0 0 0
1 3662.41 3686.89 3265.16 0 0 0
1 3792.3 3642.42 3823.19 0 0 0
1 3332.35 3656.36 3750.44 0 0 0
1 3518.12 3264.22 3833.98 0 0 0
1 3434.13 3359.98 3438.87 0 0 0
1 3314.98 3353.76 3792.99 0 0 0
1 3228.72 3453.03 3840.25 0 0 0
1 3426.48 3251.22 3755.23 0 0 0
1 3431.23 3776.91 3394.53 0 0 0
1 3622.14 3045.99 3212.8 0 0 0
1 3529.56 3538.56 3454.84 0 0 0
1 3422.16 3570.07 3370.94 0 0 0
1 3177.25 3117.65 3150.06 0 0 0
1 3509.69 3094.25 3185.97 0 0 0
1 3794.93 3244.65 3519.52 0 0 0
1 3630.17 3191.86 3395.23 0 0 0
1 3740 3192.91 3321.45 0 0 0
1 3652.88 3071.23 3612.04 0 0 0
1 3272.38 3252.24 3059.41 0 0 0
1 3454.05 3719.57 3682.91 0 0 0
1 3827.51 3474.45 3314.58 0 0 0
1 3671.6 3697.32 3134.26 0 0 0
1 3541.12 3405.36 3130.32 0 0 0
1 3391.03 3604.45 3488.45 0 0 0
1 3839.73 3731.47 3686.76 0 0 0
1 3270.65 3754.09 3662.73 0 0 0
1 3719.46 3407.65 3495.57 0 0 0
1 3236.72 3126.98 3835.37 0 0 0
1 3223.68 3630.26 3539.78 0 0 0
1 3518.41 3592.93 3659.88 0 0 0
1 3351.75 3236.24 3268.15 0 0 0
1 3626.01 3220.17 3129.89 0 0 0
2 0.07 0.423 2375.34 0 0 0
2 2480.36 486.459 1265.7 0 0 0
2 0.001 0.002 0.001 0 0 0
2 299.736 2499.98 0.092 0 0 0
2 1.321 2495.48 6.103 0 0 0
2 520.724 266.193 1558.11 0 0 0
2 2196.16 697.698 1871.62 0 0 0
2 917.155 451.459 752.881 0 0 0
2 1123.01 166.035 679.943 0 0 0
2 31.528 9.198 2499.2 0 0 0
2 435.45 923.068 778.244 0 0 0
2 256.557 699.501 438.087 0 0 0
2 350.42 368.854 445.528 0 0 0
2 115.442 395.117 85.299 0 0 0
2 153.308 728.546 791.185 0 0 0
2 647.737 53.276 673.689 0 0 0
2 627.198 403.087 287.47 0 0 0
2 810.033 479.748 716.205 0 0 0
2 105.071 253.847 873.611 0 0 0
2 405.089 678.41 961.592 0 0 0
2 264.214 74.783 485.61 0 0 0
2 745.331 547.621 782.307 0 0 0
2 260.225 812.191 931.372 0 0 0
2 288.502 826.974 386.382 0 0 0
2 451.373 253.724 370.72 0 0 0
2 892.62 65.751 609.879 0 0 0
2 929.346 744.512 909.541 0 0 0
2 666.052 499.037 127.839 0 0 0
2 47.142 494.59 990.511 0 0 0
2 703.803 73.202 184.513 0 0 0
2 567.532 512.242 696.936 0 0 0
2 229.072 375.965 142.079 0 0 0
2 488.368 404.068 6.914 0 0 0
2 934.293 215.893 927.954 0 0 0
2 552.057 729.269 562.572 0 0 0
2 75.669 511.378 375.814 0 0 0
2 8.825 763.505 963.591 0 0 0
2 387.09 327.346 209.665 0 0 0
2 894.226 78.663 929.307 0 0 0
2 665.106 743.121 710.241 0 0 0
2 200.819 375.094 938.015 0 0 0
2 742.322 836.248 726.683 0 0 0
2 670.019 364.915 696.625 0 0 0
2 149.299 708.119 920.669 0 0 0
2 259.615 236.571 502.269 0 0 0
2 569.349 400.075 888.249 0 0 0
2 379.755 712.276 433.205 0 0 0
2 392.642 632.294 588.759 0 0 0
2 480.722 430.91 580.518 0 0 0
2 46.515 207.948 757.076 0 0 0
2 825.118 233.536 607.343 0 0 0
2 287.676 118.717 367.498 0 0 0
2 346.356 831.044 595.52 0 0 0
2 375.176 696.801 836.567 0 0 0
2 570.752 903.703 418.456 0 0 0
2 694.729 959.461 278.578 0 0 0
2 349.703 149.478 143.119 0 0 0
2 999.713 604.119 798.118 0 0 0
2 516.138 461.351 131.462 0 0 0
2 250.714 44.022 188.319 0 0 0
2 80.437 431.162 796.466 0 0 0
2 466.789 102.39 102.838 0 0 0
2 666.026 510.946 866.041 0 0 0
2 379.511 357.927 940.996 0 0 0
2 602.759 181.619 637.498 0 0 0
2 1054.21 488.22 548.613 0 0 0
2 493.186 772.099 921.468 0 0 0
2 834.048 170.047 257.879 0 0 0
2 49.136 666.218 832.706 0 0 0
2 834.335 612.946 80.889 0 0 0
2 782.173 393.592 325.983 0 0 0
2 536.325 653.463 160.874 0 0 0
2 17.427 921.667 660.734 0 0 0
2 20.154 173.754 369.417 0 0 0
2 172.986 936.78 956.082 0 0 0
2 847.936 602.184 857.882 0 0 0
2 862.92 295.487 247.88 0 0 0
2 803.81 321.968 497.751 0 0 0
2 218.853 983.754 493.587 0 0 0
2 879.108 191.5 790.43 0 0 0
2 0 1971.28 2500 0 0 0
2 1652.13 1508.72 470.939 0 0 0
2 197.459 1336.64 -0 0 0 0
2 1316 1389.96 487.721 0 0 0
2 2427.25 102.905 2442.48 0 0 0
2 29.661 217.775 2496.41 0 0 0
2 387.626 848.515 153.556 0 0 0
2 3717.98 2042.15 201.203 0 0 0
2 3271.4 1541.88 860.443 0 0 0
2 2837.63 1374.59 1.694 0 0 0
2 3993 968.115 2490.88 0 0 0
2 4987.73 2498.81 2005.49 0 0 0
2 3400.75 1971.99 491.211 0 0 0
2 2500.12 1828.71 0.043 0 0 0
2 2500 456.169 451.482 0 0 0
2 2818.08 1718.26 0 0 0 0
2 4156.39 2429.75 831.52 0 0 0
2 4408.98 2500 0 0 0 0
2 2500 0.025 0.01 0 0 0
2 2525.06 2336.14 2478.4 0 0 0
2 2843.04 465.231 577.238 0 0 0
2 2886.77 102.795 275.428 0 0 0
2 2806.14 471.552 729.015 0 0 0
2 2937.83 699.746 708.416 0 0 0
2 2879.82 706.213 838.99 0 0 0
2 2680.43 135.169 215.408 0 0 0
2 2828.81 604.072 48.594 0 0 0
2 2708.01 448.628 662.025 0 0 0
2 2812.13 439.058 906.83 0 0 0
2 2708.37 781.683 774.241 0 0 0
2 2897.47 635.635 196.008 0 0 0
2 2708.47 256.759 675.707 0 0 0
2 2641.03 363.698 590.461 0 0 0
2 2802.41 861.823 730.996 0 0 0
2 2755.02 245.879 92.905 0 0 0
2 2663.39 749.38 616.596 0 0 0
2 2747.29 692.887 246.468 0 0 0
2 2861.13 291.359 150.913 0 0 0
2 2777.02 117.934 36.644 0 0 0
2 2867.66 0 446.493 0 0 0
2 2857.55 578.651 638.316 0 0 0
2 2871.75 608.806 471.042 0 0 0
2 2835.23 89.812 771.346 0 0 0
2 2704.2 1.325 757.874 0 0 0
2 2611.36 250.325 488.998 0 0 0
2 2797.43 662.045 709.789 0 0 0
2 2695.56 96.933 341.781 0 0 0
2 2668.39 72.406 106.408 0 0 0
2 2858.15 572.468 805.494 0 0 0
2 2669.51 58.154 471.983 0 0 0
2 2732.45 674.255 77.422 0 0 0
2 2643.55 173.214 31.617 0 0 0
2 2703.21 345.403 155.418 0 0 0
2 2769.65 703.098 888.965 0 0 0
2 2885.63 808.979 590.695 0 0 0
2 2788.99 204.781 221.088 0 0 0
2 2694 668.109 400.242 0 0 0
2 2679.98 921.803 764.844 0 0 0
2 2627.44 526.549 587.004 0 0 0
2 2800.7 510.719 457.56 0 0 0
2 2768.04 851.877 200.777 0 0 0
2 2668.66 818.821 292.761 0 0 0
2 2715.94 186.162 447.419 0 0 0
2 2626.28 359.768 783.373 0 0 0
2 2896.44 143.992 450.467 0 0 0
2 2764.14 390.217 430.233 0 0 0
2 2778.74 65.859 228.472 0 0 0
2 2649.38 291.03 252.026 0 0 0
2 2819.72 236.374 735.156 0 0 0
2 2820.65 367.182 655.039 0 0 0
2 2871.71 339 778.603 0 0 0
2 2846.82 943.075 411.033 0 0 0
2 2619.91 802.042 496.374 0 0 0
2 2865.92 639.688 969.498 0 0 0
2 2664.89 532.509 157.274 0 0 0
2 2898.62 798.295 179.57 0 0 0
2 2921.09 669.856 319.17 0 0 0
2 2688.79 461.666 857.938 0 0 0
2 2787.08 899.988 68.433 0 0 0
2 2653.02 637.987 699.988 0 0 0
2 2659.86 262.799 369.238 0 0 0
2 2785.32 771.402 647.832 0 0 0
2 2777.72 912.158 323.266 0 0 0
2 2761.54 330.462 536.112 0 0 0
2 2782.27 552.607 243.162 0 0 0
2 2827.46 92.858 627.26 0 0 0
2 2747.66 566.555 871.312 0 0 0
2 4996.85 2258.4 745.099 0 0 0
2 2799.36 632.515 352.558 0 0 0
2 2717.97 859.621 438.397 0 0 0
2 4224.03 334.858 0 0 0 0
2 2520.79 2158.93 2392.09 0 0 0
2 4974.08 2497.31 1004.4 0 0 0
2 2870.77 77.948 132.107 0 0 0
2 1812.81 4781.46 2100.14 0 0 0
2 1202.04 2902.6 1622.8 0 0 0
2 765.365 2786.35 1114.93 0 0 0
2 2076.34 3822.37 797.547 0 0 0
2 1836.42 3043.53 775.146 0 0 0
2 1668.3 2707.6 2052.04 0 0 0
2 2499.48 2500.03 1007.23 0 0 0
2 2497.49 4987.77 1131.08 0 0 0
2 0 3637.76 657.52 0 0 0
2 2500 3474.14 2028.09 0 0 0
2 0 4246.07 2.784 0 0 0
2 983.911 3305.82 1878.42 0 0 0
2 807.263 2506.64 2499.82 0 0 0
2 0 3943.25 1067.44 0 0 0
2 115.464 2634.54 378.581 0 0 0
2 236.213 2696.91 390.407 0 0 0
2 655.227 2568.24 692.517 0 0 0
2 563.648 2737.48 818.955 0 0 0
2 628.331 2681.12 727.321 0 0 0
2 822.989 2659.23 928.374 0 0 0
2 417.316 2577.58 112.533 0 0 0
2 444.484 2551.5 522.346 0 0 0
2 140.975 2610.64 107.235 0 0 0
2 393.002 2695.91 871.637 0 0 0
2 158.437 2530.93 643.983 0 0 0
2 470.122 2738.15 344.871 0 0 0
2 628.59 2643.56 602.567 0 0 0
2 47.646 2663.15 247.783 0 0 0
2 281.913 2656.64 496.226 0 0 0
2 177.506 2576.3 205.293 0 0 0
2 337.115 2551.06 466.542 0 0 0
2 943.701 2551.48 264.996 0 0 0
2 868.578 2590.76 65.046 0 0 0
2 196.311 2685.9 714.061 0 0 0
2 950.419 2602.23 730.991 0 0 0
2 398.947 2669.6 568.722 0 0 0
2 864.583 4778.84 403.457 0 0 0
2 84.617 2575.46 923.703 0 0 0
2 257.901 2570 110.866 0 0 0
2 583.578 2564.86 477.4 0 0 0
2 10.045 2710.8 539.9 0 0 0
2 483.624 2546.14 225.281 0 0 0
2 540.307 2586.99 768.825 0 0 0
2 525.379 2600.6 591.539 0 0 0
2 940.111 2658.43 866.618 0 0 0
2 163.641 2720.62 170.295 0 0 0
2 810.948 2707.43 803.424 0 0 0
2 0 2634.49 88.545 0 0 0
2 455.669 2508.13 805.547 0 0 0
2 753.006 2558.04 520.261 0 0 0
2 883.051 2566.71 509.149 0 0 0
2 744.447 2633.06 422.879 0 0 0
2 0 2799.58 52.95 0 0 0
2 252.348 2524.82 549.103 0 0 0
2 31.935 2655.43 768.437 0 0 0
2 866.122 2684.48 441.064 0 0 0
2 238.389 2603 310.8 0 0 0
2 663.25 2528.42 858.532 0 0 0
2 713.729 2591.43 113.643 0 0 0
2 351.24 2566.2 357.202 0 0 0
2 262.33 2563.12 697.008 0 0 0
2 364.551 2721.64 415.214 0 0 0
2 396.54 2630.06 773.634 0 0 0
2 535.106 2577.81 125.845 0 0 0
2 792 2561.95 863.222 0 0 0
2 286.338 2500 927.823 0 0 0
2 892.535 2706.64 703.388 0 0 0
2 977.259 2611.8 398.919 0 0 0
2 244.064 2664.47 845.234 0 0 0
2 650.25 2549.5 219.792 0 0 0
2 415.38 2546.1 923.854 0 0 0
2 522.528 2634.08 287.001 0 0 0
2 556.142 2596.56 905.847 0 0 0
2 263.53 2654.41 617.518 0 0 0
2 330.559 2720.96 106.242 0 0 0
2 48.854 2500.12 678.889 0 0 0
2 446.679 2659.51 678.989 0 0 0
2 605.64 2549.8 325.453 0 0 0
2 476.595 2667.2 443.246 0 0 0
2 114.624 2643.41 635.558 0 0 0
2 266.029 2709.59 255.66 0 0 0
2 1821.27 4883.36 0 0 0 0
2 0 2500 1622.84 0 0 0
2 1048.81 4999.99 2499.91 0 0 0
2 2499.95 4999.96 0.033 0 0 0
2 2216.34 4993.27 2.315 0 0 0
2 831.049 2583.27 192.526 0 0 0
2 2382.7 0 2500 0 0 0
2 2260.66 58.374 2560.98 0 0 0
2 2498.07 629.372 4999.4 0 0 0
2 187.456 1423.01 4117.17 0 0 0
2 2392.39 1266.31 4988.64 0 0 0
2 0.12 0 4999.98 0 0 0
2 397.505 1612.92 3079.82 0 0 0
2 0 891.187 2500 0 0 0
2 1137.19 60.454 3996.56 0 0 0
2 2476.93 2442.17 4901.4 0 0 0
2 1339.74 -0 2500 0 0 0
2 959.907 1694.05 4401.89 0 0 0
2 1.36 2491.05 3802.59 0 0 0
2 771.642 873.986 2655.4 0 0 0
2 501.19 96.089 2536.09 0 0 0
2 865.632 522.182 2691.18 0 0 0
2 234.513 439.76 2691.65 0 0 0
2 599.272 266.823 2847.04 0 0 0
2 315.766 607.475 2685.56 0 0 0
2 651.948 821.966 2732.97 0 0 0
2 173.606 289.343 2709.26 0 0 0
2 712.846 110.309 2512.38 0 0 0
2 255.696 591.325 2563.79 0 0 0
2 462.578 570.598 2547.97 0 0 0
2 226.413 1864.89 2769.07 0 0 0
2 739.931 741.292 2711.56 0 0 0
2 1108.23 546.811 2664.82 0 0 0
2 58.403 718.592 2724.07 0 0 0
2 619.396 274.017 2654.86 0 0 0
2 776.224 750.995 2583.81 0 0 0
2 48.026 169.247 2648.22 0 0 0
2 715.21 350.717 2500.15 0 0 0
2 864.524 124.313 2725.55 0 0 0
2 770.508 242.914 2500.08 0 0 0
2 1016.92 415.734 2694.63 0 0 0
2 424.058 494.49 2691.84 0 0 0
2 343.023 472.025 2568.88 0 0 0
2 216.927 288.291 2549.84 0 0 0
2 0 1520.08 2500 0 0 0
2 393.237 75.295 2634.15 0 0 0
2 1077.94 814.497 2590.2 0 0 0
2 935.285 284.985 2571.36 0 0 0
2 1136.91 614.502 2804.32 0 0 0
2 597.942 158.796 2619.29 0 0 0
2 537.64 942.062 2576.72 0 0 0
2 247.727 953.035 2634.23 0 0 0
2 824.913 358.622 2557.71 0 0 0
2 824.84 961.738 2724.04 0 0 0
2 646.416 233.406 2500.42 0 0 0
2 471.195 630.688 2670.48 0 0 0
2 921.914 129.925 2546.71 0 0 0
2 922.588 55.224 2644.62 0 0 0
2 675.939 1739.82 2612.41 0 0 0
2 1324.71 2393.51 2711.3 0 0 0
2 694.817 466.371 2529.43 0 0 0
2 808.474 947.89 2560.39 0 0 0
2 824.574 289.489 2684.72 0 0 0
2 577.734 717.298 2577.68 0 0 0
2 117.435 386.398 2633.03 0 0 0
2 133.867 229.586 4910.84 0 0 0
2 519.035 442.898 2746.32 0 0 0
2 685.316 757.129 2500.72 0 0 0
2 679.171 566.738 2628.51 0 0 0
2 705.853 1031.09 2651.83 0 0 0
2 617.505 1.744 2615.03 0 0 0
2 0 635.672 2625.08 0 0 0
2 642.43 404.374 2709.45 0 0 0
2 928.275 623.285 2553.31 0 0 0
2 247.972 820.968 2668.14 0 0 0
2 658.269 878.989 2565.08 0 0 0
2 54.148 561.66 2542.95 0 0 0
2 283.038 173.251 2579 0 0 0
2 641.849 101.829 2721.38 0 0 0
2 480.315 195.507 2652.34 0 0 0
2 533.68 230.256 2545.15 0 0 0
2 979.78 478.592 2584 0 0 0
2 877.472 835.275 2657.75 0 0 0
2 952.607 887.863 2547.41 0 0 0
2 341.634 322.007 2518.44 0 0 0
2 141.777 541.845 2643.34 0 0 0
2 286.157 40.904 2580.75 0 0 0
2 1820.17 2129.53 3207.42 0 0 0
2 0 0 3198.58 0 0 0
2 168.705 405.216 3020.81 0 0 0
2 439.566 2137.96 4085.76 0 0 0
2 1651.75 0 2500.02 0 0 0
2 713.476 523.459 2767.95 0 0 0
2 2500.02 3124.09 0.39 0 0 0
2 2572.6 4787.4 2494.57 0 0 0
2 2500.6 4968.21 2353.59 0 0 0
2 4999.97 3383.74 0.023 0 0 0
2 2519.39 3092.22 1140.7 0 0 0
2 3016.47 2500.02 1225.95 0 0 0
2 4912.12 4207.82 -0 0 0 0
2 3166.65 4999.92 0.037 0 0 0
2 4602.11 3074.22 459.813 0 0 0
2 2506.32 3424.91 2.7 0 0 0
2 4999.89 4867.48 1373.2 0 0 0
2 3765.09 2503.28 2494.2 0 0 0
2 2811.76 2556.57 733.773 0 0 0
2 2511.14 2604.82 328.627 0 0 0
2 2579.1 2709.3 507.462 0 0 0
2 2643.65 2849.65 119.895 0 0 0
2 2931.33 2792.89 403.083 0 0 0
2 2654.86 2661.53 1014.38 0 0 0
2 4615.8 4533.39 1236.89 0 0 0
2 2847.59 2663.79 178.118 0 0 0
2 2699.2 2811.95 924.359 0 0 0
2 2766.53 2609.88 16.363 0 0 0
2 2754.76 2825.55 730.872 0 0 0
2 2631.68 2678.4 33.926 0 0 0
2 2623.85 2593.52 371.53 0 0 0
2 2832.05 2530.13 848.665 0 0 0
2 2522.43 2921.26 814.025 0 0 0
2 2608.52 2524.58 1132.93 0 0 0
2 3632.79 4384.8 0.076 0 0 0
2 2825.09 2500 604.111 0 0 0
2 2500 4240.3 0 0 0 0
2 2575.21 2777.44 0 0 0 0
2 2720.69 2707.83 164.286 0 0 0
2 2693.39 2739.66 826.245 0 0 0
2 2530.31 2545.68 682.268 0 0 0
2 2667.9 2597.52 531.681 0 0 0
2 2728.38 3297.05 386.624 0 0 0
2 2595.13 2772.61 259.82 0 0 0
2 3072.43 2771.8 354.513 0 0 0
2 2806 5000 2500 0 0 0
2 2929.01 2681.96 326.078 0 0 0
2 2647.23 3008.3 929.816 0 0 0
2 2751.86 2904.78 534.984 0 0 0
2 2784.47 2672.15 1022.17 0 0 0
2 2634.88 2827.76 701.576 0 0 0
2 2871.55 2838.82 511.532 0 0 0
2 4890.31 2501.51 506.589 0 0 0
2 2827.51 2500 982.544 0 0 0
2 2976.64 2680.52 563.228 0 0 0
2 2690.19 2501.98 705.336 0 0 0
2 2846.86 2804.44 45.292 0 0 0
2 2545.57 2839.13 515.205 0 0 0
2 3011.12 5000 0 0 0 0
2 5000 3375.11 774.923 0 0 0
2 2616.94 4984.42 2496.96 0 0 0
2 2868.97 2713.01 502.465 0 0 0
2 2618.28 3002.1 134.657 0 0 0
2 2500 2567.42 168.775 0 0 0
2 2650.62 2971.77 644.81 0 0 0
2 2686.92 2500 318.049 0 0 0
2 2863.96 2870.49 757.488 0 0 0
2 2679 2608.04 794.081 0 0 0
2 2768.18 2876.14 107.659 0 0 0
2 2500 2940.99 468.363 0 0 0
2 4970.71 2513.1 61.455 0 0 0
2 2607.65 2591.91 102.401 0 0 0
2 2795.27 2534.79 154.442 0 0 0
2 2889.93 2722.54 697.872 0 0 0
2 2763.36 2921.07 655.192 0 0 0
2 2754.77 2717.55 35.579 0 0 0
2 2681.29 2500 186.676 0 0 0
2 2927.97 2733.43 829.434 0 0 0
2 2794.71 2544.18 266.092 0 0 0
2 2500 2627.25 450.11 0 0 0
2 2777.03 2795.42 615.818 0 0 0
2 2503.02 2625.44 570.848 0 0 0
2 2862.12 2589.26 495.926 0 0 0
2 2826.28 2520.99 47.548 0 0 0
2 2523.55 2603.38 780.273 0 0 0
2 2907.24 2813.56 166.509 0 0 0
2 2856.04 2609.7 954.082 0 0 0
2 2554.84 2850.95 933.686 0 0 0
2 4999.93 4826.85 0.166 0 0 0
2 2500.01 3962.05 2499.96 0 0 0
2 4999.97 4411.07 0.022 0 0 0
2 2500 3821.29 1809.55 0 0 0
2 2796.98 2817.92 237.246 0 0 0
2 2500.09 1832.46 4999.98 0 0 0
2 2508.32 474.096 3978.05 0 0 0
2 4996.04 309.651 4996.33 0 0 0
2 2589.81 387.654 4963.85 0 0 0
2 2503.24 2040.3 2999.28 0 0 0
2 4834.99 2499.37 4995.4 0 0 0
2 5000 1951.42 2500 0 0 0
2 2695.15 1183.91 3857.35 0 0 0
2 4941.67 2475.77 2500.04 0 0 0
2 3230.86 494.827 2787.45 0 0 0
2 3806.6 0 2538.07 0 0 0
2 4641.17 0 2500 0 0 0
2 2652.77 869.931 2770.26 0 0 0
2 2651.19 434.149 2775.31 0 0 0
2 2925.9 270.412 2646.16 0 0 0
2 2797.93 540.049 2838.63 0 0 0
2 2556.26 1098.51 2572.12 0 0 0
2 2702.68 213.32 2765.65 0 0 0
2 2665.96 585.983 2841.64 0 0 0
2 2724.3 801.161 2903.97 0 0 0
2 2555.61 823.916 2840.16 0 0 0
2 3756.85 2500 3515.22 0 0 0
2 2698.89 154.173 2539.85 0 0 0
2 2761.3 361.289 2786.46 0 0 0
2 2559.47 987.98 2785.88 0 0 0
2 2644.35 377.88 2500 0 0 0
2 2666.23 1107.5 2698.12 0 0 0
2 2749.82 802.246 2744.92 0 0 0
2 2924.81 145.796 2642.97 0 0 0
2 2563.69 368.985 2611.82 0 0 0
2 2877.45 647.614 2619.32 0 0 0
2 2932.3 501.34 2605.77 0 0 0
2 2896.23 170.768 2789.49 0 0 0
2 2725.4 38.13 2501.58 0 0 0
2 4858.38 55.155 4994.35 0 0 0
2 2588.51 267.458 2533.13 0 0 0
2 2585.38 884.383 2656.27 0 0 0
2 2744.23 923.758 2903.98 0 0 0
2 2954.15 735.099 2500 0 0 0
2 2798.45 535.408 2518.71 0 0 0
2 2807.41 249.856 2705.08 0 0 0
2 2897.59 385.435 2604.13 0 0 0
2 5000 0.003 5000 0 0 0
2 2755.48 2.493 2658.85 0 0 0
2 2706.52 682.132 2740.16 0 0 0
2 2841.49 640.135 2775.07 0 0 0
2 2792.65 817.979 2620.75 0 0 0
2 2548.34 622.47 2829.24 0 0 0
2 2539.55 508.042 2788.71 0 0 0
2 2599.23 164.376 2633.57 0 0 0
2 2606.99 747.735 2719.24 0 0 0
2 2773.33 455.646 2624.82 0 0 0
2 2648.2 25.434 2680.08 0 0 0
2 2805.01 190.263 2869.21 0 0 0
2 2618.6 495.774 2639.62 0 0 0
2 2850.99 749.916 2704.09 0 0 0
2 2632.44 122.215 2903.07 0 0 0
2 3235.67 959.382 3658.33 0 0 0
2 2500.01 0.043 4896.87 0 0 0
2 2866.11 528.903 2719.11 0 0 0
2 2722.81 628 2500 0 0 0
2 2578.37 347.184 2733.33 0 0 0
2 2544.59 81.546 2743.04 0 0 0
2 2639.34 375.286 2937.13 0 0 0
2 2698.89 741.887 2629.58 0 0 0
2 2500 248.244 2611.62 0 0 0
2 2697.93 121.015 2703.38 0 0 0
2 2800.1 298.87 2546.87 0 0 0
2 2852.7 298.043 2839.86 0 0 0
2 2554.44 1469.4 4885.51 0 0 0
2 2649.8 1042.13 2839.12 0 0 0
2 2665.05 252.371 2640.33 0 0 0
2 2867.3 881.026 2540.71 0 0 0
2 2674.28 872.174 2573.32 0 0 0
2 2557.25 782.742 2590.89 0 0 0
2 2882.41 808.781 2815.29 0 0 0
2 3422.17 2466.52 2540.1 0 0 0
2 2751.1 569.581 2718.41 0 0 0
2 2839.22 894.874 2737.14 0 0 0
2 2774.49 1050.98 2831.03 0 0 0
2 2821.95 1056.05 2727.11 0 0 0
2 4791.41 101.322 4452.63 0 0 0
2 2501.75 125.62 4992.95 0 0 0
2 2973.77 1848.83 3875.54 0 0 0
2 2514.16 2407.39 2731.4 0 0 0
2 2522.81 584.446 3912.96 0 0 0
2 2698.5 986.189 2731.91 0 0 0
2 2313.9 4970.83 2655.89 0 0 0
2 1636.06 4997.55 2505.83 0 0 0
2 2000.98 2833.96 2830.96 0 0 0
2 1.443 4391.58 4154.31 0 0 0
2 2500 3550.78 4999.98 0 0 0
2 1670.94 3160.36 2500 0 0 0
2 2401.91 2575.68 2658.72 0 0 0
2 0.098 4999.94 4414.08 0 0 0
2 1912.45 3722.26 2823.18 0 0 0
2 813.663 3679.91 2813.47 0 0 0
2 1054.69 4344 3021.19 0 0 0
2 451.114 2587.46 2981.09 0 0 0
2 34.234 4082.49 2556.05 0 0 0
2 0.001 2500 5000 0 0 0
2 969.783 2964.17 2500 0 0 0
2 97.284 2554.56 4979.23 0 0 0
2 287.416 2500 3061.29 0 0 0
2 788.339 2501.22 2965.92 0 0 0
2 985.207 2851.37 2500 0 0 0
2 1160.15 3007.21 2698.33 0 0 0
2 69.11 2884.68 2890.35 0 0 0
2 396.483 2500 3118.71 0 0 0
2 0 2995.72 3252.41 0 0 0
2 403.271 2687.92 4927.11 0 0 0
2 161.108 2796.14 2528.22 0 0 0
2 0 2804.24 2971.94 0 0 0
2 1569.26 3117.18 2500 0 0 0
2 476.37 2519.64 2733.3 0 0 0
2 8.225 3105.11 2547.16 0 0 0
2 1117.43 2880.5 2500 0 0 0
2 376.828 2576.84 2500 0 0 0
2 778.277 3035.12 2914.72 0 0 0
2 232.036 2777.23 2627.11 0 0 0
2 832.961 2743.55 2747.94 0 0 0
2 781.357 2949.72 2791.68 0 0 0
2 1005.23 2608.51 2503.83 0 0 0
2 102.845 2925.59 2589.22 0 0 0
2 339.213 2501.91 2695.82 0 0 0
2 540.579 2903.96 3109.99 0 0 0
2 717.029 3025.07 2500 0 0 0
2 1470.66 4054.11 3710.82 0 0 0
2 676.877 2500 2961.04 0 0 0
2 385.036 2827.61 3056.75 0 0 0
2 1022.89 2500 2500 0 0 0
2 163.811 3036.82 2600.57 0 0 0
2 22.06 2848.26 2671.97 0 0 0
2 2060.65 3451.25 2626.53 0 0 0
2 729.003 2982.2 2651.4 0 0 0
2 613.103 2996.79 2711.38 0 0 0
2 0 2605.33 3058.2 0 0 0
2 134.641 2602.85 3289.71 0 0 0
2 602.248 2500 2829.95 0 0 0
2 478.456 3096.33 2500 0 0 0
2 902.523 2500 2694.57 0 0 0
2 713.131 2654.22 3105.36 0 0 0
2 628.55 2667.18 2836.97 0 0 0
2 631.88 2887.85 2566.68 0 0 0
2 599.707 3051.18 2566.64 0 0 0
2 445.12 2500 2552.51 0 0 0
2 2500 3761.55 3950.86 0 0 0
2 532.308 2500 3666.56 0 0 0
2 404.925 2694.19 2512.06 0 0 0
2 902.195 2631.47 3019.05 0 0 0
2 514.845 2639.02 2873.3 0 0 0
2 0.089 2705.07 3989.56 0 0 0
2 601.633 3028.23 2827.83 0 0 0
2 569.886 2972.44 2951.22 0 0 0
2 19.473 4906.44 2602.36 0 0 0
2 374.034 2649.68 2635.21 0 0 0
2 1128.45 2500 4999.99 0 0 0
2 1003.32 2507.82 2811.98 0 0 0
2 339.812 2941.9 2539.52 0 0 0
2 107.165 2775.3 2668.87 0 0 0
2 723.271 2634.88 2545.64 0 0 0
2 435.053 2991.53 2770.51 0 0 0
2 310.047 2643.03 2994.94 0 0 0
2 296.755 3028.63 2954.69 0 0 0
2 2499.99 4182.15 2500.03 0 0 0
2 2500 5000 2879.66 0 0 0
2 818.901 2955.98 2500 0 0 0
2 372.397 3151.03 2569.29 0 0 0
2 350.123 2831.69 2500 0 0 0
2 292.551 2508.96 2919.28 0 0 0
2 1.388 4278.48 3200.81 0 0 0
2 1698.18 2505.28 5000 0 0 0
2 359.144 4432.03 2622.18 0 0 0
2 497.955 2953.87 2500.92 0 0 0
2 4999.98 5000 2500 0 0 0
2 4999.94 2501.14 3175.45 0 0 0
2 2764 4816.25 2675.5 0 0 0
2 4999.98 4999.58 4998.7 0 0 0
2 2524.72 2565.96 4658.96 0 0 0
2 4994.36 4888.7 4999.99 0 0 0
2 3923.77 4390.5 3986.84 0 0 0
2 3739.36 3314.11 2768.23 0 0 0
2 3923.7 3986.62 4316.92 0 0 0
2 4422.95 3286.1 3220.32 0 0 0
2 4555.09 2651.98 4978.84 0 0 0
2 3778.34 5000 5000 0 0 0
2 2624.83 2691.35 2500.66 0 0 0
2 4892.35 2500 2630.69 0 0 0
2 2995.85 2747.41 2629.5 0 0 0
2 3026.17 2983.62 2504.04 0 0 0
2 2611.15 2824.9 2693.74 0 0 0
2 3664.05 2502.78 2713.67 0 0 0
2 2509.38 3053.45 3528.01 0 0 0
2 3699.57 2819.01 4661.27 0 0 0
2 2677.34 2504.39 2736.7 0 0 0
2 2797.33 2957.99 2517.16 0 0 0
2 2542.95 2500 2810.23 0 0 0
2 3653.13 4539.28 3877.45 0 0 0
2 2544.82 2561.4 2938.32 0 0 0
2 4957.58 4903.48 2564.89 0 0 0
2 2987.79 4972.86 2500 0 0 0
2 5000 3002.64 5000 0 0 0
2 3402.2 2725.56 2999.68 0 0 0
2 3133.7 2699.51 2500 0 0 0
2 3078.08 2628.67 2588.57 0 0 0
2 2524.1 2500.22 4179.67 0 0 0
2 2500 3478.59 2500 0 0 0
2 2759.5 2955.83 2754.87 0 0 0
2 4943.89 4877.22 2798.95 0 0 0
2 2687.69 2566.66 2567.8 0 0 0
2 3721.17 3859.87 3676.37 0 0 0
2 2585.42 2912.81 2500 0 0 0
2 2641.42 2934.14 2888.48 0 0 0
2 2729.75 2865.69 2619.63 0 0 0
2 2762.94 2500 3194.5 0 0 0
2 2819.99 2595.7 2819.31 0 0 0
2 2594.54 3043.39 2591.4 0 0 0
2 2534.02 2632.98 2589.93 0 0 0
2 2909.43 2684.76 2510.24 0 0 0
2 2513.94 2999.24 2500 0 0 0
2 2988.34 2504.49 2536.38 0 0 0
2 2503.95 2630.94 3043.26 0 0 0
2 3018.71 3287.05 2500 0 0 0
2 2550.45 2762.01 2764.4 0 0 0