LAMMPS data file, Author: Jerry Qin

1000 atoms
0 bonds
0 angles

2 atom types

-100 4100 xlo xhi
-100 4100 ylo yhi
-100 4100 zlo zhi

Masses

1 221851
2 422051

Atoms

1 1  505.243 304.431 193.592
2 1  371.676 627.876 425.658
3 1  179.469 491.015 592.241
4 1  829.026 889.345 117.704
5 1  702.927 174.627 628.439
6 1  871.840 299.339 871.066
7 1  597.643 851.143 495.010
8 1  525.329 939.296 42.192
9 1  643.020 643.408 991.202
10 1  835.826 844.489 643.652
11 1  81.996 228.568 640.213
12 1  894.549 136.180 988.486
13 1  798.354 541.559 373.948
14 1  793.668 315.033 690.523
15 1  714.711 22.413 603.005
16 1  447.933 570.197 619.277
17 1  365.279 976.051 227.802
18 1  787.543 20.508 899.653
19 1  64.533 548.346 755.866
20 1  435.147 575.084 71.920
21 1  804.281 14.331 266.907
22 1  756.223 437.650 275.657
23 1  294.300 214.446 976.725
24 1  310.621 297.374 338.753
25 1  670.772 660.404 400.442
26 1  231.646 916.611 495.797
27 1  514.819 496.448 484.735
28 1  43.009 788.511 499.043
29 1  730.510 753.937 23.478
30 1  415.639 48.142 429.357
31 1  349.209 11.546 917.192
32 1  263.444 686.272 860.531
33 1  481.328 666.046 525.824
34 1  880.745 366.321 42.283
35 1  162.460 964.515 186.019
36 1  354.808 154.551 816.136
37 1  194.097 452.866 474.884
38 1  56.874 967.972 71.927
39 1  674.348 421.892 759.473
40 1  844.031 753.330 916.938
41 1  964.141 231.758 465.513
42 1  582.886 578.954 314.966
43 1  161.133 686.490 184.564
44 1  993.818 583.500 449.780
45 1  31.354 489.978 188.189
46 1  364.855 45.722 303.608
47 1  247.323 40.370 772.664
48 1  897.457 81.412 528.409
49 1  891.970 706.962 327.736
50 1  881.873 941.093 559.824
51 1  516.732 980.559 963.964
52 1  490.676 143.009 97.370
53 1  938.659 509.658 164.933
54 1  310.454 426.343 1010.075
55 1  879.419 935.148 817.783
56 1  736.627 116.280 73.020
57 1  733.128 7.655 12.347
58 1  766.037 621.554 272.167
59 1  385.859 769.709 42.909
60 1  676.195 493.256 438.624
61 1  596.673 293.886 715.700
62 1  151.096 864.636 307.055
63 1  17.646 535.525 894.987
64 1  616.197 604.097 178.987
65 1  738.156 727.155 169.940
66 1  480.570 627.576 853.912
67 1  79.138 268.956 422.447
68 1  625.049 690.341 3.374
69 1  138.883 673.494 50.239
70 1  542.862 406.296 332.495
71 1  232.487 546.942 937.044
72 1  471.794 277.820 734.741
73 1  339.035 379.393 752.925
74 1  269.812 154.337 497.073
75 1  578.988 102.686 853.708
76 1  888.031 160.439 166.465
77 1  136.143 496.034 266.341
78 1  576.460 433.248 130.850
79 1  791.712 814.386 388.691
80 1  622.031 313.169 391.380
81 1  249.741 593.158 280.555
82 1  88.033 588.126 334.191
83 1  805.722 528.917 164.132
84 1  175.082 225.554 790.159
85 1  808.675 751.901 542.628
86 1  434.477 274.843 358.480
87 1  597.076 207.810 91.179
88 1  802.148 172.990 339.706
89 1  816.361 851.390 245.766
90 1  120.751 150.596 972.735
91 1  528.916 661.582 647.337
92 1  876.203 313.450 593.100
93 1  667.016 556.130 719.407
94 1  5.887 670.405 377.726
95 1  637.867 853.396 640.828
96 1  888.249 434.386 711.525
97 1  415.465 869.074 476.650
98 1  656.332 878.557 969.537
99 1  281.277 288.373 666.651
100 1  944.561 1016.890 228.639
101 1  2765.818 790.365 4.328
102 1  2793.803 523.509 928.594
103 1  2730.053 859.276 401.995
104 1  2779.966 490.501 758.076
105 1  2771.128 438.161 16.133
106 1  2540.505 644.321 534.648
107 1  2438.122 369.929 875.621
108 1  2659.333 921.999 686.804
109 1  2488.932 449.052 682.805
110 1  2684.559 470.397 360.219
111 1  2496.315 650.442 876.772
112 1  2647.773 15.146 293.777
113 1  2408.473 88.114 537.435
114 1  2344.171 950.949 669.910
115 1  2277.229 908.158 292.817
116 1  2529.066 662.556 361.116
117 1  2476.971 944.516 805.122
118 1  2466.102 451.842 0.000
119 1  2319.697 0.000 816.918
120 1  2593.957 437.729 216.745
121 1  2361.754 293.376 820.226
122 1  2786.678 348.117 657.786
123 1  2499.265 669.778 756.035
124 1  2633.891 356.443 864.179
125 1  2731.153 90.393 946.420
126 1  2803.479 843.169 666.897
127 1  2499.199 15.841 942.508
128 1  2657.006 258.209 591.450
129 1  2566.436 496.411 853.994
130 1  2407.576 721.647 835.171
131 1  2243.708 527.296 438.857
132 1  2460.690 699.521 136.176
133 1  2291.174 957.205 787.130
134 1  2500.911 292.064 506.153
135 1  2430.362 854.724 323.125
136 1  2740.256 647.929 234.398
137 1  2669.814 0.000 154.419
138 1  2315.339 223.033 697.420
139 1  2605.258 785.314 337.608
140 1  2199.306 97.406 805.335
141 1  2288.197 803.879 189.289
142 1  2348.892 415.538 0.000
143 1  2509.761 153.601 607.675
144 1  2806.491 299.694 386.297
145 1  2818.241 680.736 914.262
146 1  2511.307 933.163 42.558
147 1  2526.340 209.588 788.017
148 1  2580.935 558.950 297.090
149 1  2428.161 41.920 1043.098
150 1  2766.907 276.529 939.339
151 1  2807.433 950.518 381.698
152 1  2611.482 748.382 0.174
153 1  2461.684 877.743 1175.718
154 1  2500.411 433.104 422.242
155 1  2690.922 840.828 193.605
156 1  2509.267 0.131 318.154
157 1  2307.439 591.649 0.000
158 1  2747.944 457.993 561.716
159 1  2300.091 230.862 274.936
160 1  2272.722 757.527 357.429
161 1  2512.923 301.147 345.769
162 1  2528.807 785.367 208.640
163 1  2469.584 536.134 363.291
164 1  2434.024 686.316 3.174
165 1  2449.378 745.639 1001.487
166 1  2406.189 361.540 153.326
167 1  2393.496 653.465 488.141
168 1  2795.761 834.863 519.646
169 1  2363.513 987.321 499.373
170 1  2710.006 0.460 844.239
171 1  2439.675 777.544 426.685
172 1  2581.203 22.229 850.892
173 1  2295.659 491.289 771.233
174 1  2904.607 812.098 774.744
175 1  2816.312 867.989 920.726
176 1  2646.667 171.914 248.700
177 1  2735.000 755.776 990.526
178 1  2626.814 681.758 949.130
179 1  2770.471 142.655 731.027
180 1  2823.183 751.891 392.228
181 1  2472.440 537.390 179.998
182 1  2279.939 358.914 578.863
183 1  2244.897 543.266 131.814
184 1  2772.530 281.178 104.867
185 1  2337.780 626.985 246.671
186 1  2717.770 604.907 79.432
187 1  2272.273 744.120 961.605
188 1  2713.500 329.415 231.519
189 1  2254.517 369.652 195.942
190 1  2357.677 292.478 397.941
191 1  2498.858 147.462 131.727
192 1  2712.615 144.273 430.799
193 1  2416.194 1092.708 898.433
194 1  2589.645 870.042 969.162
195 1  2387.962 570.784 589.166
196 1  2678.124 957.841 262.933
197 1  2723.677 868.688 813.924
198 1  2236.402 82.169 971.647
199 1  2702.534 190.280 0.000
200 1  2719.243 477.479 130.515
201 1  547.954 2804.983 589.377
202 1  713.916 2569.597 585.498
203 1  855.043 2700.506 152.035
204 1  622.846 2880.696 493.575
205 1  357.438 2462.176 856.689
206 1  544.159 2567.045 11.284
207 1  152.152 3115.152 49.887
208 1  333.248 2723.342 81.125
209 1  469.501 2843.740 760.598
210 1  551.764 2967.518 752.829
211 1  207.497 2954.588 800.943
212 1  819.654 2409.570 830.748
213 1  828.198 2989.215 308.807
214 1  861.960 2970.576 588.310
215 1  514.060 2684.948 713.623
216 1  982.873 2432.918 26.155
217 1  767.529 3042.669 179.723
218 1  729.710 2876.551 16.705
219 1  688.391 2720.182 176.220
220 1  105.291 2901.857 6.588
221 1  128.354 2693.309 862.849
222 1  688.116 2734.728 2.292
223 1  226.990 3094.990 710.822
224 1  247.810 2572.932 32.934
225 1  522.958 3036.549 159.688
226 1  456.266 3094.831 244.224
227 1  431.822 2962.289 290.376
228 1  647.748 2441.723 370.987
229 1  322.467 2574.900 713.878
230 1  0.172 3040.891 41.555
231 1  826.639 2874.017 347.288
232 1  815.604 3025.724 38.782
233 1  548.022 2685.022 251.698
234 1  393.408 2946.658 431.921
235 1  909.506 2345.639 240.878
236 1  579.415 2829.808 116.388
237 1  309.480 2867.860 782.548
238 1  119.567 3007.598 127.667
239 1  736.670 2926.380 616.580
240 1  348.697 2803.696 393.207
241 1  944.040 3091.738 477.694
242 1  370.270 2608.296 253.919
243 1  304.269 2629.958 861.316
244 1  538.837 2427.637 710.877
245 1  853.060 2800.819 542.276
246 1  796.246 2653.260 324.997
247 1  733.819 2923.501 439.704
248 1  396.972 2926.368 16.843
249 1  63.709 2659.555 140.077
250 1  9.370 2928.061 781.229
251 1  796.062 3032.793 484.717
252 1  984.073 2632.533 264.540
253 1  120.088 2515.867 343.445
254 1  7.931 2480.682 141.887
255 1  210.464 3082.961 184.083
256 1  1068.856 2802.923 767.768
257 1  225.594 2856.727 142.356
258 1  524.676 2844.123 233.565
259 1  666.128 3146.342 306.852
260 1  247.197 2749.361 692.774
261 1  171.967 3096.781 528.708
262 1  274.676 2734.220 278.689
263 1  181.898 2878.508 594.155
264 1  0.521 2761.301 648.251
265 1  865.470 2875.230 746.331
266 1  748.875 2424.901 520.912
267 1  413.698 2750.975 650.114
268 1  637.130 2609.738 368.142
269 1  74.056 2998.439 659.993
270 1  473.721 2507.209 784.149
271 1  303.021 2597.249 590.134
272 1  597.426 3043.300 638.815
273 1  972.770 2948.183 814.456
274 1  69.023 3121.251 804.828
275 1  885.323 2548.652 893.376
276 1  265.348 2650.320 187.155
277 1  614.591 2631.931 522.377
278 1  984.489 3114.373 73.255
279 1  87.961 2437.046 251.801
280 1  287.888 3135.842 331.068
281 1  837.268 2352.007 474.465
282 1  420.409 2685.124 799.216
283 1  805.774 2501.110 192.102
284 1  951.951 2865.824 586.930
285 1  244.429 2372.155 267.582
286 1  65.095 2777.265 395.784
287 1  359.173 2988.165 768.220
288 1  161.383 2580.506 801.358
289 1  144.946 2542.980 138.110
290 1  245.713 2421.918 685.087
291 1  305.533 2450.108 96.362
292 1  659.857 2420.523 840.442
293 1  856.573 2914.933 160.884
294 1  443.023 2452.116 124.045
295 1  303.622 3059.917 458.865
296 1  249.363 2540.226 446.926
297 1  705.310 2803.414 817.804
298 1  625.893 2542.949 918.993
299 1  4.373 2569.850 301.380
300 1  3.630 3085.758 613.236
301 1  10.266 56.926 2523.386
302 1  3.100 264.401 2691.898
303 1  13.991 71.951 2760.127
304 1  73.245 395.070 2736.026
305 1  929.479 125.400 2635.338
306 1  411.365 14.911 2877.646
307 1  53.413 931.194 2452.103
308 1  0.148 300.130 2522.588
309 1  437.794 338.742 2626.107
310 1  901.980 276.162 2838.192
311 1  586.088 777.821 2430.593
312 1  552.947 264.941 2775.774
313 1  378.899 532.042 2601.974
314 1  51.827 286.750 2808.225
315 1  0.190 711.529 2616.938
316 1  432.646 842.987 2892.698
317 1  184.033 795.245 2842.773
318 1  597.519 547.837 2495.566
319 1  495.866 0.002 2592.676
320 1  359.801 334.457 2862.610
321 1  523.884 52.570 2370.771
322 1  676.497 99.047 2943.979
323 1  328.386 759.690 2389.986
324 1  342.146 609.102 2794.698
325 1  594.434 234.729 2563.878
326 1  283.616 532.055 2683.558
327 1  170.849 299.218 2732.886
328 1  36.783 914.016 2888.839
329 1  285.429 723.500 2640.444
330 1  933.887 383.777 2777.771
331 1  664.746 182.215 2855.073
332 1  124.442 842.661 2336.201
333 1  784.313 964.796 2753.283
334 1  596.972 1021.376 2467.397
335 1  351.696 439.557 2753.938
336 1  881.438 803.269 2772.187
337 1  434.688 661.225 2351.200
338 1  829.160 438.147 2805.847
339 1  143.514 179.477 2719.110
340 1  549.040 760.998 2743.490
341 1  326.244 573.568 2448.557
342 1  923.685 86.142 2458.446
343 1  84.902 515.637 2814.517
344 1  595.673 101.922 2684.840
345 1  167.858 605.705 2847.002
346 1  510.838 161.824 2618.023
347 1  759.635 354.199 2743.991
348 1  812.183 827.544 2422.330
349 1  732.563 771.442 2914.760
350 1  213.350 104.705 2622.715
351 1  217.802 651.736 2388.487
352 1  752.326 751.362 2502.129
353 1  485.278 337.196 2864.357
354 1  313.518 174.993 2725.620
355 1  940.936 729.067 2474.913
356 1  917.419 912.810 2726.088
357 1  163.588 743.434 2588.187
358 1  390.903 139.168 2963.805
359 1  69.150 184.683 2611.966
360 1  265.600 903.754 2636.629
361 1  958.383 380.109 2366.724
362 1  721.723 935.316 2921.230
363 1  616.315 663.872 2532.788
364 1  474.912 66.689 2731.279
365 1  678.336 188.306 2730.292
366 1  29.795 766.618 2948.272
367 1  620.293 859.767 2303.221
368 1  807.868 124.143 2554.273
369 1  111.951 718.762 2379.130
370 1  670.163 455.099 2711.208
371 1  230.272 337.561 2450.013
372 1  361.797 254.113 2555.698
373 1  899.218 700.094 2677.129
374 1  325.453 299.547 2711.914
375 1  566.732 394.587 2674.752
376 1  188.743 418.927 2795.486
377 1  434.128 1007.223 2356.995
378 1  717.078 868.104 2601.581
379 1  494.006 603.590 2933.390
380 1  425.980 231.306 2723.795
381 1  873.045 214.213 2410.220
382 1  488.825 884.437 2317.280
383 1  838.114 523.925 2684.501
384 1  241.422 242.464 2815.810
385 1  983.270 600.710 2916.792
386 1  714.493 349.987 2936.025
387 1  468.507 743.230 2642.701
388 1  0.158 578.775 2936.134
389 1  457.474 990.537 2832.289
390 1  384.005 650.940 2684.014
391 1  170.018 974.309 2570.191
392 1  879.277 543.066 2882.690
393 1  500.095 872.869 2501.776
394 1  283.313 562.470 2315.649
395 1  764.145 260.771 2614.226
396 1  312.738 779.427 2907.051
397 1  361.306 675.308 2535.976
398 1  749.886 481.947 2375.523
399 1  687.705 47.009 2744.436
400 1  355.735 889.777 2471.326
401 1  2401.064 2601.365 456.473
402 1  2536.226 2475.092 979.506
403 1  2307.833 2216.429 432.585
404 1  2280.364 2376.945 640.304
405 1  2683.424 2568.247 581.293
406 1  2873.907 2766.607 575.597
407 1  2271.888 2871.873 288.919
408 1  2340.548 2551.919 309.590
409 1  2710.658 2401.443 190.852
410 1  2648.366 2401.353 743.528
411 1  2744.006 2316.863 11.976
412 1  2254.269 2524.128 986.126
413 1  2383.365 2422.919 331.955
414 1  2744.960 2613.225 938.987
415 1  2339.461 2303.917 563.282
416 1  2504.279 2664.930 545.085
417 1  2173.102 2452.780 274.956
418 1  2697.826 2679.156 160.590
419 1  2351.324 2636.785 849.171
420 1  2302.427 2659.559 0.297
421 1  2220.300 2542.451 341.376
422 1  2261.324 2576.515 747.553
423 1  2289.446 2284.373 902.963
424 1  2454.789 2687.343 1000.228
425 1  2831.725 2601.546 375.796
426 1  2714.638 2597.153 406.712
427 1  2340.704 2643.320 131.911
428 1  2744.251 2531.444 260.242
429 1  2596.562 2389.035 608.307
430 1  2754.177 2285.632 905.572
431 1  2482.557 2582.980 137.340
432 1  2709.042 2388.560 854.957
433 1  2485.958 2333.748 362.264
434 1  2189.442 2545.696 191.894
435 1  2747.841 2316.175 504.798
436 1  2429.541 2779.610 745.519
437 1  2567.857 2826.362 96.354
438 1  2599.854 2604.101 806.280
439 1  2631.731 2849.917 312.246
440 1  2642.286 2266.150 696.551
441 1  2460.509 2482.961 406.795
442 1  2197.767 2747.534 595.582
443 1  2664.781 2531.153 883.803
444 1  2505.920 2268.490 727.192
445 1  2573.262 2431.039 399.457
446 1  2663.689 2449.637 488.980
447 1  2422.897 2654.938 640.738
448 1  2310.328 2684.316 700.687
449 1  2427.070 2681.582 338.431
450 1  2298.024 2272.737 771.219
451 1  2669.249 2500.234 96.182
452 1  2291.747 2741.520 210.903
453 1  2311.248 2513.647 501.059
454 1  2536.264 2662.946 14.720
455 1  2304.556 2589.338 612.109
456 1  2707.883 2756.985 682.456
457 1  2362.786 2291.391 186.064
458 1  2536.357 2525.492 307.952
459 1  2352.754 2408.606 57.712
460 1  2551.837 2500.705 65.053
461 1  2740.135 2609.644 729.320
462 1  2390.194 2496.208 834.893
463 1  2428.767 2871.440 374.940
464 1  2343.304 2779.208 353.672
465 1  2440.997 2515.394 561.069
466 1  2672.177 2765.478 429.191
467 1  2481.825 2415.867 868.168
468 1  2689.646 2765.401 559.715
469 1  2500.897 2520.461 779.432
470 1  2828.072 2421.119 519.891
471 1  2474.536 2735.040 91.310
472 1  2595.253 2297.978 97.346
473 1  2608.098 2337.451 918.299
474 1  2765.664 2716.927 366.993
475 1  2541.941 2769.345 493.310
476 1  2429.530 2579.391 9.206
477 1  2591.340 2496.167 202.546
478 1  2614.865 2384.996 0.666
479 1  2563.076 2508.658 551.914
480 1  2595.994 2375.263 225.251
481 1  2424.750 2413.947 155.285
482 1  2722.298 2728.250 1002.975
483 1  2616.132 2636.912 497.421
484 1  2481.734 2578.971 939.274
485 1  2698.895 2672.455 0.178
486 1  2250.029 2441.418 767.782
487 1  2750.582 2750.488 248.697
488 1  2300.900 2515.167 17.263
489 1  2276.410 2632.579 460.294
490 1  2270.170 2775.920 9.458
491 1  2325.873 2518.932 160.990
492 1  2836.232 2445.721 249.916
493 1  2734.077 2285.473 328.485
494 1  2560.970 2648.879 307.873
495 1  2540.634 2770.198 938.574
496 1  2471.729 2409.130 26.723
497 1  2258.666 2349.553 405.262
498 1  2860.500 2594.348 501.676
499 1  2172.424 2704.743 323.820
500 1  2577.395 2549.067 679.049
501 1  2708.999 796.104 2770.252
502 1  2688.111 372.258 2487.704
503 1  2316.796 470.694 2468.660
504 1  2909.601 419.905 2317.338
505 1  2680.075 13.277 2314.637
506 1  2761.389 466.754 2508.901
507 1  2595.956 589.612 2742.809
508 1  2537.195 244.933 2354.891
509 1  2765.486 987.392 2306.425
510 1  2663.752 942.395 2764.646
511 1  2504.140 337.916 2671.514
512 1  2365.977 869.825 2860.782
513 1  2769.746 605.251 2954.055
514 1  2549.128 936.540 2549.054
515 1  2797.071 634.431 2780.609
516 1  2584.368 36.634 2525.564
517 1  2374.300 1052.829 2422.629
518 1  2414.736 295.455 2600.208
519 1  2306.526 182.603 2691.049
520 1  2494.870 114.111 2550.638
521 1  2304.907 43.807 2402.549
522 1  2327.670 944.562 2456.981
523 1  2871.235 839.296 2637.585
524 1  2702.706 544.761 2306.421
525 1  2445.554 539.117 2602.147
526 1  3302.628 1426.034 2094.267
527 1  2571.584 458.635 2671.319
528 1  2416.451 149.148 2759.042
529 1  2568.068 853.172 2462.265
530 1  2541.563 463.521 2914.160
531 1  2410.866 419.447 2707.768
532 1  2473.295 801.584 2549.426
533 1  2575.120 914.817 2882.749
534 1  2476.846 418.214 2816.684
535 1  2300.974 908.367 2570.053
536 1  2369.549 774.395 2752.982
537 1  2323.736 435.982 2621.701
538 1  2472.706 78.748 2377.030
539 1  2600.247 659.567 2464.239
540 1  2916.822 289.255 2771.523
541 1  2779.257 216.228 2412.058
542 1  2497.384 667.412 2715.829
543 1  2616.548 114.859 2641.383
544 1  2846.163 768.046 2750.777
545 1  2468.148 0.011 2583.567
546 1  2846.573 153.332 2307.301
547 1  2656.563 456.660 2757.437
548 1  2667.340 35.809 2764.020
549 1  2396.931 52.934 2498.143
550 1  2849.534 519.692 2788.434
551 1  2792.283 269.502 2660.989
552 1  2471.831 680.286 2835.397
553 1  2843.337 66.433 2580.227
554 1  2292.947 298.025 2631.017
555 1  2605.201 752.868 2576.971
556 1  2912.657 157.333 2780.026
557 1  2781.364 710.187 2879.056
558 1  2697.650 866.506 2670.754
559 1  2837.066 59.056 2722.313
560 1  2870.011 967.681 2612.990
561 1  2716.049 124.499 2279.168
562 1  2700.269 274.339 2580.377
563 1  2375.000 0.713 2670.787
564 1  2925.526 154.900 2645.493
565 1  2646.036 160.546 2520.016
566 1  2468.741 798.917 2859.856
567 1  2581.375 258.256 2605.710
568 1  2439.276 711.276 2335.016
569 1  2566.149 317.869 2812.709
570 1  2645.715 556.456 2632.546
571 1  2771.322 454.204 2370.544
572 1  2514.385 284.431 2977.078
573 1  2820.398 400.510 2756.218
574 1  2746.302 91.056 2648.573
575 1  2831.271 347.862 2398.427
576 1  2205.637 122.539 2501.556
577 1  2768.354 775.792 2626.549
578 1  2651.056 341.364 2677.158
579 1  2702.932 547.891 2430.359
580 1  2128.219 14.664 2847.669
581 1  2541.775 56.226 2813.429
582 1  2657.642 776.558 2894.047
583 1  2311.404 424.500 2880.796
584 1  2347.122 955.197 2748.954
585 1  2874.150 152.180 2496.051
586 1  2479.573 559.201 2818.422
587 1  2874.433 966.238 2486.707
588 1  2689.349 1006.329 2884.355
589 1  2375.490 921.756 2237.321
590 1  2336.607 754.018 2458.217
591 1  2392.862 589.119 2723.052
592 1  2379.128 82.973 2297.538
593 1  2803.785 882.894 2757.936
594 1  2600.731 456.188 2478.109
595 1  2447.225 912.600 2455.454
596 1  2289.680 205.509 2447.718
597 1  2598.729 774.809 2702.811
598 1  2863.555 895.717 2313.942
599 1  2645.175 183.718 2362.634
600 1  2661.431 998.850 2653.910
601 1  18.578 2820.223 2975.241
602 1  587.881 2790.439 2405.324
603 1  224.977 2811.265 2422.496
604 1  49.574 2798.910 2826.629
605 1  639.415 2674.685 2568.836
606 1  539.403 2826.939 2549.209
607 1  833.326 2455.589 2935.091
608 1  763.670 2324.498 2742.185
609 1  413.368 2837.204 2340.143
610 1  484.006 2373.819 2859.172
611 1  873.964 2450.728 2475.168
612 1  250.496 2551.264 2516.085
613 1  806.340 2506.592 2737.299
614 1  797.972 2824.237 2867.120
615 1  146.908 2388.474 2987.105
616 1  693.107 2565.644 2905.705
617 1  562.455 2542.897 2872.371
618 1  481.181 2939.372 2640.347
619 1  734.871 2921.518 2672.726
620 1  184.836 2802.033 2835.105
621 1  436.763 2607.076 2353.872
622 1  336.009 2631.763 2948.015
623 1  470.010 2513.009 2633.613
624 1  155.350 2997.276 2612.717
625 1  861.908 2646.071 2591.336
626 1  604.305 2469.644 2439.895
627 1  318.235 2775.992 2847.911
628 1  247.562 2404.168 2601.284
629 1  359.090 2703.857 2386.324
630 1  197.132 2750.854 2712.373
631 1  374.787 2348.167 2904.761
632 1  193.951 2907.263 2717.903
633 1  175.766 2335.277 2880.193
634 1  34.426 2561.563 2650.098
635 1  497.179 2784.556 2827.958
636 1  142.784 2373.994 2766.357
637 1  557.355 2544.122 2539.787
638 1  294.000 2471.469 2431.403
639 1  763.829 2890.986 2483.082
640 1  467.942 2509.836 2451.332
641 1  302.844 2789.387 2649.571
642 1  89.791 2494.666 2427.350
643 1  750.823 2460.096 2480.742
644 1  528.361 2676.941 2294.385
645 1  880.323 2917.331 2819.585
646 1  713.151 2947.982 2808.358
647 1  112.694 2639.570 2586.078
648 1  203.663 2939.301 2450.426
649 1  28.138 2493.680 2750.909
650 1  372.664 2356.219 2727.456
651 1  748.643 2762.032 2457.599
652 1  235.819 2872.965 2945.413
653 1  363.575 2591.076 2662.885
654 1  781.382 2559.461 2622.688
655 1  209.853 2627.472 2761.204
656 1  477.763 2678.707 2543.047
657 1  593.605 2419.778 2582.905
658 1  600.909 2922.502 2646.389
659 1  269.268 2895.608 2543.813
660 1  86.049 2945.331 2764.993
661 1  472.488 2481.403 2332.027
662 1  888.645 2525.674 2839.275
663 1  678.623 2532.229 2564.802
664 1  747.068 2615.662 2775.778
665 1  382.597 2629.021 2481.236
666 1  918.312 2668.260 2793.461
667 1  848.382 2767.361 2370.196
668 1  540.949 2471.612 2748.312
669 1  868.370 2898.383 2593.924
670 1  727.686 2773.126 2627.256
671 1  900.567 2897.077 2378.085
672 1  665.734 2826.860 2719.455
673 1  477.948 2409.938 2521.780
674 1  310.385 2705.293 2744.963
675 1  51.236 2861.578 2580.329
676 1  423.592 2476.344 2793.884
677 1  225.545 2713.569 2949.179
678 1  169.795 2645.422 2340.422
679 1  738.722 2414.799 2660.323
680 1  276.437 2323.348 2393.276
681 1  826.841 2760.873 2757.826
682 1  465.794 2761.264 2453.613
683 1  714.686 2654.666 2662.993
684 1  909.595 2470.816 2350.044
685 1  10.913 2435.331 2855.531
686 1  840.854 2756.283 2543.939
687 1  525.154 2674.078 2910.792
688 1  505.906 2915.173 2895.225
689 1  175.072 2837.228 2598.575
690 1  402.410 2591.955 2827.588
691 1  27.729 2313.984 2809.216
692 1  271.129 2397.629 2297.882
693 1  0.129 2664.538 2850.137
694 1  214.216 2736.974 2542.591
695 1  539.525 2910.688 2443.052
696 1  36.714 2492.249 2548.096
697 1  601.294 2957.249 2329.128
698 1  888.621 2795.590 2654.716
699 1  591.802 2651.166 2800.719
700 1  662.169 2749.335 2861.229
701 1  2782.845 3001.543 2440.702
702 1  2716.651 2649.698 2556.133
703 1  2665.409 3123.941 2996.260
704 1  2818.449 2784.378 2860.730
705 1  3010.921 2867.437 2687.841
706 1  3045.510 2879.144 2900.242
707 1  2726.807 2649.028 2955.182
708 1  2987.190 3125.660 2529.838
709 1  2715.245 2550.132 2883.892
710 1  2475.286 2869.051 3135.206
711 1  2435.525 3019.052 3103.007
712 1  3068.156 2622.444 3070.898
713 1  2416.878 2801.291 2754.066
714 1  2612.796 2714.110 2538.193
715 1  2921.398 2971.285 2854.790
716 1  2463.022 2746.379 2971.962
717 1  2726.831 2895.787 2575.086
718 1  2933.022 2406.455 2988.465
719 1  2592.296 2701.999 2972.368
720 1  2601.271 2901.780 2725.432
721 1  2750.056 2426.425 2439.566
722 1  2628.907 2711.230 2813.764
723 1  3015.711 2830.286 3114.833
724 1  2686.951 2624.697 2672.262
725 1  2716.832 2836.110 2778.151
726 1  2368.582 2516.209 2883.526
727 1  2499.510 2852.551 2678.464
728 1  2559.752 2407.329 2422.132
729 1  3030.685 2451.089 2633.365
730 1  2608.408 2866.301 2856.621
731 1  2766.431 2512.240 2708.435
732 1  2829.518 2864.149 2743.440
733 1  2421.676 2393.646 2812.649
734 1  2438.104 2623.354 2910.732
735 1  2411.980 2514.205 2699.359
736 1  2783.906 2935.207 2873.933
737 1  2532.549 2476.878 2973.741
738 1  2415.749 3088.217 2657.903
739 1  2654.982 2489.915 2970.091
740 1  2888.093 2721.054 2674.592
741 1  2442.131 2900.100 2959.892
742 1  3014.275 3025.632 2707.447
743 1  2490.715 2607.812 2752.125
744 1  2433.231 2658.364 2375.597
745 1  2371.045 2910.974 2786.328
746 1  2506.084 3088.630 2771.650
747 1  2951.333 2829.348 2981.018
748 1  2869.896 2641.907 2541.447
749 1  2778.606 2540.415 2580.599
750 1  2732.298 2891.418 3058.610
751 1  2499.235 2811.421 2871.140
752 1  2611.631 2497.804 3089.542
753 1  3075.325 2645.268 2590.925
754 1  2935.933 2835.531 2856.982
755 1  3076.754 2916.340 2523.579
756 1  2917.192 2494.935 2482.583
757 1  2426.237 3080.260 2979.991
758 1  3062.015 3077.213 2398.634
759 1  2509.472 3020.805 2615.346
760 1  2786.764 2775.367 2567.380
761 1  2822.861 2561.334 2805.333
762 1  2913.508 2938.204 3093.141
763 1  2816.164 3102.500 2823.413
764 1  3042.277 2793.447 2812.211
765 1  2391.523 2811.023 2633.448
766 1  2716.851 2773.169 3102.080
767 1  2530.996 3045.404 3031.752
768 1  2551.488 2472.168 2524.434
769 1  2495.246 3050.424 2370.791
770 1  2955.952 3008.755 2582.817
771 1  2780.169 2660.158 3076.179
772 1  2409.705 2821.829 2436.106
773 1  2855.160 2816.693 3065.526
774 1  2512.895 2613.475 2630.428
775 1  3089.379 2477.115 3001.139
776 1  2498.002 2941.939 2809.435
777 1  2890.526 2898.791 2502.916
778 1  2594.812 2691.932 3095.374
779 1  2381.052 2740.035 2876.427
780 1  2490.692 2957.613 2502.138
781 1  2848.824 2400.688 2542.750
782 1  2889.106 2953.988 2687.103
783 1  3050.940 2935.090 2789.164
784 1  2580.986 2592.968 2874.609
785 1  3076.965 2913.610 3013.688
786 1  2443.501 2419.224 2380.084
787 1  2494.263 2758.892 3088.197
788 1  2597.566 2585.162 2541.896
789 1  2533.877 2588.124 2309.380
790 1  2705.924 2767.637 2937.689
791 1  2892.421 2589.002 2699.972
792 1  2914.062 2484.576 3085.802
793 1  2773.898 2674.554 2823.518
794 1  2400.379 2974.862 2416.245
795 1  2886.405 2934.510 2972.711
796 1  2605.234 2889.568 2539.285
797 1  3004.150 2553.026 2555.733
798 1  2837.888 2463.410 2905.992
799 1  2943.249 2694.185 2449.661
800 1  2598.323 2960.723 2976.427
801 2  663.645 275.303 518.067
802 2  586.874 390.813 501.487
803 2  927.060 397.709 396.462
804 2  253.559 464.185 97.072
805 2  330.643 382.606 196.778
806 2  395.506 892.403 26.687
807 2  762.272 570.524 0.216
808 2  298.002 398.271 523.255
809 2  508.849 524.541 727.788
810 2  905.661 964.587 681.024
811 2  57.144 632.693 501.704
812 2  30.128 454.539 15.971
813 2  347.282 817.476 627.982
814 2  482.892 75.831 225.176
815 2  608.229 194.576 232.907
816 2  613.545 598.200 547.918
817 2  330.470 723.931 501.582
818 2  180.601 379.634 50.377
819 2  174.844 722.798 763.677
820 2  253.231 865.688 220.644
821 2  879.873 683.366 115.506
822 2  778.658 564.591 632.061
823 2  192.284 520.608 730.845
824 2  531.732 850.400 206.871
825 2  206.148 791.258 931.426
826 2  2616.675 225.776 867.926
827 2  2521.045 167.485 472.999
828 2  2584.768 666.982 200.961
829 2  2000.000 2000.000 0.000
830 2  3236.299 334.938 80.215
831 2  2891.710 492.287 329.952
832 2  3271.348 321.369 707.337
833 2  2000.000 0.000 878.504
834 2  2762.719 65.037 523.989
835 2  3149.630 939.875 221.803
836 2  2550.689 686.103 1095.684
837 2  2527.465 130.710 266.189
838 2  2965.112 76.390 378.709
839 2  3057.997 388.682 533.349
840 2  3018.078 667.895 496.075
841 2  2953.481 597.833 46.263
842 2  2820.417 562.466 134.802
843 2  3441.454 935.474 850.806
844 2  2593.510 552.620 460.708
845 2  4000.000 593.789 172.115
846 2  3281.509 73.400 367.320
847 2  4000.000 0.000 1694.696
848 2  2682.844 317.959 379.184
849 2  3215.883 655.770 191.711
850 2  3095.751 311.105 140.403
851 2  184.351 2449.255 579.312
852 2  263.427 2669.743 440.119
853 2  616.225 2473.034 501.149
854 2  645.357 2588.850 159.157
855 2  1233.794 3041.059 2000.000
856 2  646.145 2948.494 314.929
857 2  302.875 2791.940 518.256
858 2  463.440 2753.242 400.978
859 2  145.399 2833.244 1066.783
860 2  476.344 2783.573 48.401
861 2  951.877 2824.844 4.167
862 2  380.105 2428.687 618.638
863 2  743.597 2889.226 246.258
864 2  21.158 2578.239 429.419
865 2  517.758 2943.442 30.909
866 2  947.462 2645.259 682.409
867 2  618.716 2866.730 730.643
868 2  148.531 2803.132 778.842
869 2  722.891 2446.771 679.202
870 2  745.783 2799.252 617.872
871 2  76.435 2842.948 272.337
872 2  969.659 2587.956 386.009
873 2  0.000 2162.900 0.000
874 2  754.620 2510.641 400.409
875 2  570.297 2577.384 701.038
876 2  853.356 662.635 2944.071
877 2  108.509 131.972 3144.562
878 2  920.764 376.956 3005.890
879 2  0.218 891.190 2586.836
880 2  211.737 339.851 2917.293
881 2  829.416 35.722 2929.025
882 2  520.327 903.662 3096.515
883 2  196.212 695.929 2728.123
884 2  773.453 605.257 2814.968
885 2  555.337 150.948 3031.839
886 2  341.648 112.042 2855.293
887 2  179.083 435.551 2577.004
888 2  437.390 881.956 2686.041
889 2  609.869 524.300 3159.060
890 2  682.642 541.273 2626.453
891 2  316.548 108.319 2534.407
892 2  147.675 612.816 2544.760
893 2  834.051 568.338 2517.899
894 2  390.604 105.738 2416.133
895 2  161.254 506.655 2988.298
896 2  314.583 436.838 2520.315
897 2  756.657 818.238 2712.259
898 2  729.957 559.076 3053.107
899 2  415.840 766.299 2797.761
900 2  114.248 669.045 2945.138
901 2  2816.855 2826.907 162.275
902 2  2414.480 2875.236 18.973
903 2  2444.185 2511.509 228.129
904 2  2844.237 2705.695 799.209
905 2  2692.018 2646.234 282.148
906 2  2828.432 2422.058 27.916
907 2  2530.482 2797.887 658.415
908 2  2824.179 2364.550 143.133
909 2  2787.878 2546.535 125.972
910 2  2649.260 2810.460 189.420
911 2  2801.693 2428.506 765.778
912 2  2444.700 2703.061 207.250
913 2  2513.288 2686.128 838.346
914 2  2876.758 2488.711 641.137
915 2  2836.319 2306.899 620.731
916 2  2735.253 2379.085 623.205
917 2  2523.396 2758.173 373.287
918 2  2349.037 2812.243 568.565
919 2  2664.446 2911.104 673.506
920 2  2471.549 2326.812 571.519
921 2  2864.563 2718.648 196.243
922 2  2704.344 2402.856 353.923
923 2  2604.745 2864.104 577.037
924 2  2609.274 2611.634 102.762
925 2  2514.666 2922.001 201.211
926 2  2472.904 152.159 3029.935
927 2  2656.106 319.827 2304.591
928 2  2755.859 448.738 2846.735