LAMMPS (23 Jun 2022 - Update 1)
OMP_NUM_THREADS environment is not set. Defaulting to 1 thread. (src/comm.cpp:98)
  using 1 OpenMP thread(s) per MPI task
# Read restart
read_restart ${read_res}
read_restart ./pgnpmf/8020/equpmf33.res
Reading restart file ...
  restart file = 23 Jun 2022, LAMMPS = 23 Jun 2022
  restoring atom style atomic from restart
  orthogonal box = (1716.3285 1716.3285 1716.3285) to (2283.6715 2283.6715 2283.6715)
  1 by 2 by 2 MPI processor grid
  restoring pair style table from restart
  1000 atoms
  read_restart CPU = 0.003 seconds

# Settings

pair_style table spline 9941

pair_coeff 1 1 ./pgnpmf/N20.txt DE_GNP 75.6
pair_coeff 2 2 ./pgnpmf/N100.txt DE_GNP 115.92
WARNING: 3 of 9941 force values in table DE_GNP are inconsistent with -dE/dr.
WARNING:  Should only be flagged at inflection points (src/pair_table.cpp:463)
pair_coeff 1 2 ./pgnpmf/mixed_potential.txt DE_GNP 95.66
WARNING: 1562 of 9941 force values in table DE_GNP are inconsistent with -dE/dr.
WARNING:  Should only be flagged at inflection points (src/pair_table.cpp:463)

#Neigh_list Calc Frequency

neigh_modify delay 0 every 1 check yes

# Saving Frequency (50 frames)

variable ts_save equal ${steps_equ}
variable ts_save equal 5000

# Dump
#dump 1 all custom ${ts_save} ./pgnpmf/${folder}/equilibration/trajectory/trajectory_${usic}_${trial}.equ.custom type x y z ix iy iz
#dump_modify 1 first no sort id
dump 2 all cfg 50000 ./pgnpmf/${folder}/equilibration/trajectory/dumpgen.tens_*.cfg mass type xs ys zs fx fy fz
dump 2 all cfg 50000 ./pgnpmf/8020/equilibration/trajectory/dumpgen.tens_*.cfg mass type xs ys zs fx fy fz
dump_modify 2 element N20 N100

# thermo_style
thermo_style custom step temp press pe density ke etotal lx ly lz xlo xhi ylo yhi zlo zhi vol dt time cpu tpcpu spcpu cpuremain

# run info
timestep ${ts}
timestep 0.25
thermo 200

# fix

fix 1 all momentum 1000 linear 1 1 1 angular
variable T equal ${temp}
variable T equal 300
fix 2 all nvt temp ${T} 370000 100.0
fix 2 all nvt temp 300 370000 100.0

run 100000
Generated 0 of 1 mixed pair_coeff terms from geometric mixing rule
Unused restart file global fix info:
  fix style: npt, fix ID: 5
Neighbor list info ...
  update every 1 steps, delay 0 steps, check yes
  max neighbors/atom: 2000, page size: 100000
  master list distance cutoff = 117.92
  ghost atom cutoff = 117.92
  binsize = 58.96, bins = 10 10 10
  1 neighbor lists, perpetual/occasional/extra = 1 0 0
  (1) pair table, perpetual
      attributes: half, newton on
      pair build: half/bin/atomonly/newton
      stencil: half/bin/3d
      bin: standard
Per MPI rank memory allocation (min/avg/max) = 3.093 | 3.093 | 3.093 Mbytes
   Step          Temp          Press          PotEng        Density         KinEng         TotEng           Lx             Ly             Lz            Xlo            Xhi            Ylo            Yhi            Zlo            Zhi           Volume           Dt            Time           CPU           T/CPU          S/CPU         CPULeft    
  34010000   291.04803     -3.2325611     -16038855       2.381402       866.69134     -16037988       567.34292      567.34292      567.34292      1716.3285      2283.6715      1716.3285      2283.6715      1716.3285      2283.6715      1.826152e+08   0.25           9260000        0              0              0              0            
  34010200   318.86883     -2.9189577     -16038872       2.381402       949.53692     -16037922       567.34292      567.34292      567.34292      1716.3285      2283.6715      1716.3285      2283.6715      1716.3285      2283.6715      1.826152e+08   0.25           9260050        0.016204567    3085.416       12341.127      8.0871857    
  34010400   371.65934     -2.6461955     -16038889       2.381402       1106.7381     -16037782       567.34292      567.34292      567.34292      1716.3285      2283.6715      1716.3285      2283.6715      1716.3285      2283.6715      1.826152e+08   0.25           9260100        0.030450113    3509.7815      14038.963      7.5827522    
  34010600   450.71794     -2.4628116     -16038908       2.381402       1342.161      -16037566       567.34292      567.34292      567.34292      1716.3285      2283.6715      1716.3285      2283.6715      1716.3285      2283.6715      1.826152e+08   0.25           9260150        0.044371596    3591.5812      14366.403      7.3513313    
  34010800   557.76059     -2.3700404     -16038928       2.381402       1660.9158     -16037267       567.34292      567.34292      567.34292      1716.3285      2283.6715      1716.3285      2283.6715      1716.3285      2283.6715      1.826152e+08   0.25           9260200        0.058390252    3566.7007      14266.817      7.2406968    
  34011000   698.72169     -2.2894635     -16038949       2.381402       2080.6739     -16036868       567.34292      567.34292      567.34292      1716.3285      2283.6715      1716.3285      2283.6715      1716.3285      2283.6715      1.826152e+08   0.25           9260250        0.072508387    3541.555       14166.13       7.1785868    
  34011200   884.07318     -2.1578818     -16038970       2.381402       2632.619      -16036337       567.34292      567.34292      567.34292      1716.3285      2283.6715      1716.3285      2283.6715      1716.3285      2283.6715      1.826152e+08   0.25           9260300        0.08635078     3611.9411      14447.886      7.1097979    
  34011400   1126.3013     -1.9814413     -16038993       2.381402       3353.9329     -16035639       567.34292      567.34292      567.34292      1716.3285      2283.6715      1716.3285      2283.6715      1716.3285      2283.6715      1.826152e+08   0.25           9260350        0.10070375     3483.7411      13934.944      7.0925902    
  34011600   1442.0156     -1.6616569     -16039019       2.381402       4294.0762     -16034725       567.34292      567.34292      567.34292      1716.3285      2283.6715      1716.3285      2283.6715      1716.3285      2283.6715      1.826152e+08   0.25           9260400        0.11458793     3601.1797      14404.527      7.0473348    
  34011800   1850.8931     -1.2802508     -16039047       2.381402       5511.6437     -16033535       567.34292      567.34292      567.34292      1716.3285      2283.6715      1716.3285      2283.6715      1716.3285      2283.6715      1.826152e+08   0.25           9260450        0.1290787      3450.5773      13802.522      7.0420737    
  34012000   2374.6343     -1.0834225     -16039440       2.381402       7071.2556     -16032369       567.34292      567.34292      567.34292      1716.3285      2283.6715      1716.3285      2283.6715      1716.3285      2283.6715      1.826152e+08   0.25           9260500        0.14346364     3475.8088      13903.221      7.0298291    
  34012200   3041.4305     -0.50004978    -16039460       2.381402       9056.8607     -16030403       567.34292      567.34292      567.34292      1716.3285      2283.6715      1716.3285      2283.6715      1716.3285      2283.6715      1.826152e+08   0.25           9260550        0.15755568     3548.1202      14192.199      7.0041816    
  34012400   3881.7892      0.39434541    -16039849       2.381402       11559.305     -16028290       567.34292      567.34292      567.34292      1716.3285      2283.6715      1716.3285      2283.6715      1716.3285      2283.6715      1.826152e+08   0.25           9260600        0.17159531     3561.3596      14245.621      6.9783058    
  34012600   4923.6207      1.3358842     -16039868       2.381402       14661.702     -16025206       567.34292      567.34292      567.34292      1716.3285      2283.6715      1716.3285      2283.6715      1716.3285      2283.6715      1.826152e+08   0.25           9260650        0.18584187     3509.6034      14038.414      6.9620095    
  34012800   6186.74        2.0503223     -16040248       2.381402       18423.055     -16021825       567.34292      567.34292      567.34292      1716.3285      2283.6715      1716.3285      2283.6715      1716.3285      2283.6715      1.826152e+08   0.25           9260700        0.20026015     3467.8486      13871.483      6.9519617    
  34013000   7675.2118      3.0243426     -16040253       2.381402       22855.47      -16017397       567.34292      567.34292      567.34292      1716.3285      2283.6715      1716.3285      2283.6715      1716.3285      2283.6715      1.826152e+08   0.25           9260750        0.21372251     3713.9327      14855.591      6.9104489    
  34013200   9367.0051      4.6787047     -16040251       2.381402       27893.342     -16012357       567.34292      567.34292      567.34292      1716.3285      2283.6715      1716.3285      2283.6715      1716.3285      2283.6715      1.826152e+08   0.25           9260800        0.22980614     3108.846       12435.496      6.9516998    
  34013400   11191.84       6.9750734     -16040231       2.381402       33327.387     -16006904       567.34292      567.34292      567.34292      1716.3285      2283.6715      1716.3285      2283.6715      1716.3285      2283.6715      1.826152e+08   0.25           9260850        0.24397135     3529.757       14119.016      6.9317165    
  34013600   13030.413      8.9525017     -16040197       2.381402       38802.346     -16001395       567.34292      567.34292      567.34292      1716.3285      2283.6715      1716.3285      2283.6715      1716.3285      2283.6715      1.826152e+08   0.25           9260900        0.25762305     3662.5003      14649.897      6.8986383    
  34013800   14709.861      7.520761      -16049425       2.381402       43803.453     -16005622       567.34292      567.34292      567.34292      1716.3285      2283.6715      1716.3285      2283.6715      1716.3285      2283.6715      1.826152e+08   0.25           9260950        0.27207183     3460.5467      13842.224      6.887769     
  34014000   16025.176      9.5477875     -16049358       2.381402       47720.238     -16001638       567.34292      567.34292      567.34292      1716.3285      2283.6715      1716.3285      2283.6715      1716.3285      2283.6715      1.826152e+08   0.25           9261000        0.28611179     3561.2442      14244.952      6.8667396    
  34014200   16825.174      11.319326     -16048901       2.381402       50102.496     -15998798       567.34292      567.34292      567.34292      1716.3285      2283.6715      1716.3285      2283.6715      1716.3285      2283.6715      1.826152e+08   0.25           9261050        0.29983044     3644.7099      14578.982      6.8390361    
  34014400   17114.751      12.338633     -16048781       2.381402       50964.805     -15997817       567.34292      567.34292      567.34292      1716.3285      2283.6715      1716.3285      2283.6715      1716.3285      2283.6715      1.826152e+08   0.25           9261100        0.31338917     3687.6232      14750.364      6.8091423    
  34014600   17126.353      13.60371      -16040889       2.381402       50999.356     -15989889       567.34292      567.34292      567.34292      1716.3285      2283.6715      1716.3285      2283.6715      1716.3285      2283.6715      1.826152e+08   0.25           9261150        0.32847524     3314.3327      13257.26       6.8123392    
  34014800   17217.434      16.117006     -16038833       2.381402       51270.579     -15987562       567.34292      567.34292      567.34292      1716.3285      2283.6715      1716.3285      2283.6715      1716.3285      2283.6715      1.826152e+08   0.25           9261200        0.3422201      3637.6994      14550.829      6.7874116    
  34015000   17685.339      18.400591     -16040545       2.381402       52663.919     -15987881       567.34292      567.34292      567.34292      1716.3285      2283.6715      1716.3285      2283.6715      1716.3285      2283.6715      1.826152e+08   0.25           9261250        0.35641769     3521.7128      14086.972      6.7719794    
  34015200   18646.813      21.102799     -16037702       2.381402       55527.026     -15982175       567.34292      567.34292      567.34292      1716.3285      2283.6715      1716.3285      2283.6715      1716.3285      2283.6715      1.826152e+08   0.25           9261300        0.36994191     3696.9747      14787.835      6.744375     
  34015400   19971.18       22.10727      -16037083       2.381402       59470.762     -15977612       567.34292      567.34292      567.34292      1716.3285      2283.6715      1716.3285      2283.6715      1716.3285      2283.6715      1.826152e+08   0.25           9261350        0.38404262     3546.0158      14183.999      6.7279001    
  34015600   21368.308      23.805973     -16035692       2.381402       63631.171     -15972061       567.34292      567.34292      567.34292      1716.3285      2283.6715      1716.3285      2283.6715      1716.3285      2283.6715      1.826152e+08   0.25           9261400        0.39815147     3543.8938      14175.535      6.7117381    
  34015800   22540.851      28.042647     -16035370       2.381402       67122.807     -15968247       567.34292      567.34292      567.34292      1716.3285      2283.6715      1716.3285      2283.6715      1716.3285      2283.6715      1.826152e+08   0.25           9261450        0.41247        3491.9752      13967.972      6.6991189    
  34016000   23302.042      30.259165     -16035011       2.381402       69389.503     -15965622       567.34292      567.34292      567.34292      1716.3285      2283.6715      1716.3285      2283.6715      1716.3285      2283.6715      1.826152e+08   0.25           9261500        0.42722941     3387.6709      13550.657      6.6932984    
  34016200   23652.322      32.959407     -16031982       2.381402       70432.576     -15961549       567.34292      567.34292      567.34292      1716.3285      2283.6715      1716.3285      2283.6715      1716.3285      2283.6715      1.826152e+08   0.25           9261550        0.44139367     3530.0404      14120.195      6.6778922    
  34016400   23786.986      34.29786      -16030819       2.381402       70833.583     -15959985       567.34292      567.34292      567.34292      1716.3285      2283.6715      1716.3285      2283.6715      1716.3285      2283.6715      1.826152e+08   0.25           9261600        0.45551909     3539.7087      14158.915      6.6619965    
  34016600   23996.652      36.989778     -16029991       2.381402       71457.932     -15958534       567.34292      567.34292      567.34292      1716.3285      2283.6715      1716.3285      2283.6715      1716.3285      2283.6715      1.826152e+08   0.25           9261650        0.46909343     3683.3994      14733.486      6.6384155    
  34016800   24528.137      42.09516      -16029492       2.381402       73040.605     -15956451       567.34292      567.34292      567.34292      1716.3285      2283.6715      1716.3285      2283.6715      1716.3285      2283.6715      1.826152e+08   0.25           9261700        0.48331511     3515.7069      14062.885      6.624293     
  34017000   25476.727      46.040925     -16030854       2.381402       75865.343     -15954988       567.34292      567.34292      567.34292      1716.3285      2283.6715      1716.3285      2283.6715      1716.3285      2283.6715      1.826152e+08   0.25           9261750        0.4967034      3734.6652      14938.602      6.5990911    
  34017200   26732.776      50.21642      -16029543       2.381402       79605.641     -15949938       567.34292      567.34292      567.34292      1716.3285      2283.6715      1716.3285      2283.6715      1716.3285      2283.6715      1.826152e+08   0.25           9261800        0.51088979     3524.5068      14098.083      6.5848297    
  34017400   28040.541      53.123761     -16029288       2.381402       83499.942     -15945788       567.34292      567.34292      567.34292      1716.3285      2283.6715      1716.3285      2283.6715      1716.3285      2283.6715      1.826152e+08   0.25           9261850        0.5254446      3435.2763      13741.047      6.575189     
  34017600   29134.663      58.760871     -16028248       2.381402       86758.051     -15941490       567.34292      567.34292      567.34292      1716.3285      2283.6715      1716.3285      2283.6715      1716.3285      2283.6715      1.826152e+08   0.25           9261900        0.53925399     3620.7457      14482.992      6.5562207    
  34017800   29858.716      63.348296     -16029438       2.381402       88914.159     -15940524       567.34292      567.34292      567.34292      1716.3285      2283.6715      1716.3285      2283.6715      1716.3285      2283.6715      1.826152e+08   0.25           9261950        0.55283612     3681.3088      14725.315      6.534832     
  34018000   30222.325      66.382339     -16030588       2.381402       89996.923     -15940591       567.34292      567.34292      567.34292      1716.3285      2283.6715      1716.3285      2283.6715      1716.3285      2283.6715      1.826152e+08   0.25           9262000        0.56677373     3587.4205      14349.621      6.5179226    
  34018200   30414.335      72.356481     -16032079       2.381402       90568.697     -15941510       567.34292      567.34292      567.34292      1716.3285      2283.6715      1716.3285      2283.6715      1716.3285      2283.6715      1.826152e+08   0.25           9262050        0.58028245     3701.3253      14805.308      6.4963575    
  34018400   30697.707      77.481453     -16031649       2.381402       91412.529     -15940236       567.34292      567.34292      567.34292      1716.3285      2283.6715      1716.3285      2283.6715      1716.3285      2283.6715      1.826152e+08   0.25           9262100        0.594694       3469.4406      13877.809      6.4850191    
  34018600   31283.877      81.200957     -16030808       2.381402       93158.044     -15937650       567.34292      567.34292      567.34292      1716.3285      2283.6715      1716.3285      2283.6715      1716.3285      2283.6715      1.826152e+08   0.25           9262150        0.60899366     3496.5465      13985.97       6.4723566    
  34018800   32240.514      86.485195     -16029553       2.381402       96006.745     -15933546       567.34292      567.34292      567.34292      1716.3285      2283.6715      1716.3285      2283.6715      1716.3285      2283.6715      1.826152e+08   0.25           9262200        0.62310376     3543.5859      14174.371      6.4576453    
  34019000   33461.498      92.15159      -16023148       2.381402       99642.627     -15923506       567.34292      567.34292      567.34292      1716.3285      2283.6715      1716.3285      2283.6715      1716.3285      2283.6715      1.826152e+08   0.25           9262250        0.63631972     3783.297       15133.27       6.4339227    
  34019200   34713.728      99.173254     -16018400       2.381402       103371.55     -15915029       567.34292      567.34292      567.34292      1716.3285      2283.6715      1716.3285      2283.6715      1716.3285      2283.6715      1.826152e+08   0.25           9262300        0.6499998      3654.9651      14619.87       6.4152374    
  34019400   35755.923      104.53724     -16017408       2.381402       106475.03     -15910933       567.34292      567.34292      567.34292      1716.3285      2283.6715      1716.3285      2283.6715      1716.3285      2283.6715      1.826152e+08   0.25           9262350        0.66343272     3721.5398      14885.934      6.3944083    
  34019600   36447.774      111.27277     -16016382       2.381402       108535.25     -15907847       567.34292      567.34292      567.34292      1716.3285      2283.6715      1716.3285      2283.6715      1716.3285      2283.6715      1.826152e+08   0.25           9262400        0.67782126     3475.4655      13902.193      6.3828404    
  34019800   36819.206      117.63214     -16014964       2.381402       109641.31     -15905323       567.34292      567.34292      567.34292      1716.3285      2283.6715      1716.3285      2283.6715      1716.3285      2283.6715      1.826152e+08   0.25           9262450        0.69130917     3707.078       14827.941      6.3628908    
  34020000   37050.934      119.98135     -16014268       2.381402       110331.35     -15903937       567.34292      567.34292      567.34292      1716.3285      2283.6715      1716.3285      2283.6715      1716.3285      2283.6715      1.826152e+08   0.25           9262500        0.70599344     3405.0498      13620.381      6.3539607    
  34020200   37387.288      125.93928     -16012815       2.381402       111332.96     -15901483       567.34292      567.34292      567.34292      1716.3285      2283.6715      1716.3285      2283.6715      1716.3285      2283.6715      1.826152e+08   0.25           9262550        0.71971108     3644.9333      14579.84       6.3362996    
  34020400   38025.042      132.79332     -16009838       2.381402       113232.08     -15896606       567.34292      567.34292      567.34292      1716.3285      2283.6715      1716.3285      2283.6715      1716.3285      2283.6715      1.826152e+08   0.25           9262600        0.73439237     3405.6992      13622.794      6.3270914    
  34020600   39002.697      138.26461     -16008360       2.381402       116143.37     -15892217       567.34292      567.34292      567.34292      1716.3285      2283.6715      1716.3285      2283.6715      1716.3285      2283.6715      1.826152e+08   0.25           9262650        0.74779526     3730.465       14921.89       6.3068975    
  34020800   40208.941      144.20648     -16005719       2.381402       119735.36     -15885983       567.34292      567.34292      567.34292      1716.3285      2283.6715      1716.3285      2283.6715      1716.3285      2283.6715      1.826152e+08   0.25           9262700        0.76241837     3419.2956      13677.045      6.2970307    
  34021000   41416          148.82977     -16005326       2.381402       123329.78     -15881996       567.34292      567.34292      567.34292      1716.3285      2283.6715      1716.3285      2283.6715      1716.3285      2283.6715      1.826152e+08   0.25           9262750        0.77598697     3684.9552      14739.931      6.278459     
  34021200   42400.63       156.70119     -16006066       2.381402       126261.83     -15879804       567.34292      567.34292      567.34292      1716.3285      2283.6715      1716.3285      2283.6715      1716.3285      2283.6715      1.826152e+08   0.25           9262800        0.79025866     3503.4901      14014.06       6.2656382    
  34021400   43056.956      163.12516     -16005287       2.381402       128216.26     -15877071       567.34292      567.34292      567.34292      1716.3285      2283.6715      1716.3285      2283.6715      1716.3285      2283.6715      1.826152e+08   0.25           9262850        0.80441528     3531.9083      14127.542      6.251876     
  34021600   43425.238      168.13524     -16006406       2.381402       129312.94     -15877093       567.34292      567.34292      567.34292      1716.3285      2283.6715      1716.3285      2283.6715      1716.3285      2283.6715      1.826152e+08   0.25           9262900        0.81902343     3422.7598      13691.109      6.2415384    
  34021800   43683.013      173.43459     -16005255       2.381402       130080.55     -15875175       567.34292      567.34292      567.34292      1716.3285      2283.6715      1716.3285      2283.6715      1716.3285      2283.6715      1.826152e+08   0.25           9262950        0.83369999     3406.772       13626.992      6.2315711    
  34022000   44064.476      178.51474     -16001850       2.381402       131216.48     -15870634       567.34292      567.34292      567.34292      1716.3285      2283.6715      1716.3285      2283.6715      1716.3285      2283.6715      1.826152e+08   0.25           9263000        0.84743042     3641.4593      14565.756      6.2145333    
  34022200   44738.391      183.77623     -16008084       2.381402       133223.29     -15874860       567.34292      567.34292      567.34292      1716.3285      2283.6715      1716.3285      2283.6715      1716.3285      2283.6715      1.826152e+08   0.25           9263050        0.86275089     3263.5602      13054.234      6.2089983    
  34022400   45732.363      190.71376     -15998810       2.381402       136183.17     -15862627       567.34292      567.34292      567.34292      1716.3285      2283.6715      1716.3285      2283.6715      1716.3285      2283.6715      1.826152e+08   0.25           9263100        0.87709712     3485.3006      13941.239      6.1962852    
  34022600   46930.171      198.05702     -15990281       2.381402       139750.04     -15850531       567.34292      567.34292      567.34292      1716.3285      2283.6715      1716.3285      2283.6715      1716.3285      2283.6715      1.826152e+08   0.25           9263150        0.89111446     3567.0549      14268.125      6.1812398    
  34022800   48106.976      203.41634     -15991806       2.381402       143254.36     -15848552       567.34292      567.34292      567.34292      1716.3285      2283.6715      1716.3285      2283.6715      1716.3285      2283.6715      1.826152e+08   0.25           9263200        0.90565453     3438.7784      13755.272      6.1697868    
  34023000   49049.576      208.94775     -15988366       2.381402       146061.26     -15842305       567.34292      567.34292      567.34292      1716.3285      2283.6715      1716.3285      2283.6715      1716.3285      2283.6715      1.826152e+08   0.25           9263250        0.92195863     3066.7349      12266.805      6.1700475    
  34023200   49656.713      214.56897     -15986782       2.381402       147869.21     -15838913       567.34292      567.34292      567.34292      1716.3285      2283.6715      1716.3285      2283.6715      1716.3285      2283.6715      1.826152e+08   0.25           9263300        0.93634189     3476.2605      13905.199      6.1571719    
  34023400   49995.787      220.40276     -15978534       2.381402       148878.92     -15829655       567.34292      567.34292      567.34292      1716.3285      2283.6715      1716.3285      2283.6715      1716.3285      2283.6715      1.826152e+08   0.25           9263350        0.95052531     3525.2463      14100.958      6.1429615    
  34023600   50273.369      226.5064      -15973529       2.381402       149705.51     -15823824       567.34292      567.34292      567.34292      1716.3285      2283.6715      1716.3285      2283.6715      1716.3285      2283.6715      1.826152e+08   0.25           9263400        0.96433422     3620.8519      14483.349      6.1263737    
  34023800   50699.414      233.16363     -15979676       2.381402       150974.2      -15828702       567.34292      567.34292      567.34292      1716.3285      2283.6715      1716.3285      2283.6715      1716.3285      2283.6715      1.826152e+08   0.25           9263450        0.97884428     3445.8516      13783.499      6.1142449    
  34024000   51415.608      238.93373     -15978034       2.381402       153106.9      -15824927       567.34292      567.34292      567.34292      1716.3285      2283.6715      1716.3285      2283.6715      1716.3285      2283.6715      1.826152e+08   0.25           9263500        0.99248812     3664.6051      14658.413      6.0967285    
  34024200   52439.491      246.3676      -15982219       2.381402       156155.85     -15826064       567.34292      567.34292      567.34292      1716.3285      2283.6715      1716.3285      2283.6715      1716.3285      2283.6715      1.826152e+08   0.25           9263550        1.0070351      3437.1974      13748.792      6.0847748    
  34024400   53629.646      253.31652     -15984305       2.381402       159699.93     -15824605       567.34292      567.34292      567.34292      1716.3285      2283.6715      1716.3285      2283.6715      1716.3285      2283.6715      1.826152e+08   0.25           9263600        1.0207333      3650.1437      14600.602      6.067705     
  34024600   54767.806      262.73373     -15982926       2.381402       163089.17     -15819837       567.34292      567.34292      567.34292      1716.3285      2283.6715      1716.3285      2283.6715      1716.3285      2283.6715      1.826152e+08   0.25           9263650        1.0355951      3364.3366      13457.275      6.0575349    
  34024800   55662.909      270.23755     -15979609       2.381402       165754.64     -15813854       567.34292      567.34292      567.34292      1716.3285      2283.6715      1716.3285      2283.6715      1716.3285      2283.6715      1.826152e+08   0.25           9263700        1.0490777      3708.4563      14833.901      6.0392979    
  34025000   56241.357      275.22608     -15978148       2.381402       167477.16     -15810671       567.34292      567.34292      567.34292      1716.3285      2283.6715      1716.3285      2283.6715      1716.3285      2283.6715      1.826152e+08   0.25           9263750        1.0633913      3493.1769      13972.55       6.0258988    
  34025200   56576.924      279.73804     -15978158       2.381402       168476.42     -15809682       567.34292      567.34292      567.34292      1716.3285      2283.6715      1716.3285      2283.6715      1716.3285      2283.6715      1.826152e+08   0.25           9263800        1.0786976      3266.6294      13066.593      6.0180105    
  34025400   56869.541      285.31079     -15978502       2.381402       169347.78     -15809154       567.34292      567.34292      567.34292      1716.3285      2283.6715      1716.3285      2283.6715      1716.3285      2283.6715      1.826152e+08   0.25           9263850        1.0942415      3216.7146      12866.81       6.0112358    
  34025600   57332.796      292.57028     -15971800       2.381402       170727.28     -15801073       567.34292      567.34292      567.34292      1716.3285      2283.6715      1716.3285      2283.6715      1716.3285      2283.6715      1.826152e+08   0.25           9263900        1.1097394      3226.2282      12904.824      6.0039887    
  34025800   58096.644      300.42782     -15967908       2.381402       173001.89     -15794906       567.34292      567.34292      567.34292      1716.3285      2283.6715      1716.3285      2283.6715      1716.3285      2283.6715      1.826152e+08   0.25           9263950        1.1244209      3405.6336      13622.663      5.9921797    
  34026000   59150.598      307.68983     -15966246       2.381402       176140.38     -15790106       567.34292      567.34292      567.34292      1716.3285      2283.6715      1716.3285      2283.6715      1716.3285      2283.6715      1.826152e+08   0.25           9264000        1.1380667      3664.1289      14656.513      5.9748627    
  34026200   60340.586      318.5699      -15964540       2.381402       179683.96     -15784856       567.34292      567.34292      567.34292      1716.3285      2283.6715      1716.3285      2283.6715      1716.3285      2283.6715      1.826152e+08   0.25           9264050        1.1536231      3214.1185      12856.499      5.9675192    
  34026400   61446.54       327.56556     -15963151       2.381402       182977.3      -15780174       567.34292      567.34292      567.34292      1716.3285      2283.6715      1716.3285      2283.6715      1716.3285      2283.6715      1.826152e+08   0.25           9264100        1.1684106      3381.2241      13524.824      5.9560571    
  34026600   62299.296      337.24505     -15959465       2.381402       185516.67     -15773948       567.34292      567.34292      567.34292      1716.3285      2283.6715      1716.3285      2283.6715      1716.3285      2283.6715      1.826152e+08   0.25           9264150        1.1821773      3631.9844      14527.755      5.9393852    
  34026800   62843.763      342.19169     -15957630       2.381402       187137.99     -15770492       567.34292      567.34292      567.34292      1716.3285      2283.6715      1716.3285      2283.6715      1716.3285      2283.6715      1.826152e+08   0.25           9264200        1.1966051      3465.5522      13862.539      5.9260544    
  34027000   63182.649      348.32045     -15955046       2.381402       188147.14     -15766899       567.34292      567.34292      567.34292      1716.3285      2283.6715      1716.3285      2283.6715      1716.3285      2283.6715      1.826152e+08   0.25           9264250        1.2110199      3468.6255      13874.395      5.9126377    
  34027200   63517.509      357.78158     -15951312       2.381402       189144.29     -15762168       567.34292      567.34292      567.34292      1716.3285      2283.6715      1716.3285      2283.6715      1716.3285      2283.6715      1.826152e+08   0.25           9264300        1.2252983      3501.8111      14007.224      5.8985397    
  34027400   64031.709      363.61289     -15953608       2.381402       190675.49     -15762933       567.34292      567.34292      567.34292      1716.3285      2283.6715      1716.3285      2283.6715      1716.3285      2283.6715      1.826152e+08   0.25           9264350        1.2400807      3382.4069      13529.809      5.8868294    
  34027600   64831.381      369.7574      -15950192       2.381402       193056.78     -15757135       567.34292      567.34292      567.34292      1716.3285      2283.6715      1716.3285      2283.6715      1716.3285      2283.6715      1.826152e+08   0.25           9264400        1.2539215      3612.5181      14449.873      5.8706431    
  34027800   65898.319      376.10618     -15948314       2.381402       196233.94     -15752080       567.34292      567.34292      567.34292      1716.3285      2283.6715      1716.3285      2283.6715      1716.3285      2283.6715      1.826152e+08   0.25           9264450        1.2680527      3538.2481      14153.079      5.8558487    
  34028000   67071.908      381.85348     -15949075       2.381402       199728.69     -15749346       567.34292      567.34292      567.34292      1716.3285      2283.6715      1716.3285      2283.6715      1716.3285      2283.6715      1.826152e+08   0.25           9264500        1.2824218      3479.7009      13918.749      5.8421543    
  34028200   68143.231      389.2982      -15947569       2.381402       202918.9      -15744650       567.34292      567.34292      567.34292      1716.3285      2283.6715      1716.3285      2283.6715      1716.3285      2283.6715      1.826152e+08   0.25           9264550        1.2968959      3454.4407      13817.771      5.828916     
  34028400   68957.212      400.42547     -15944176       2.381402       205342.8      -15738833       567.34292      567.34292      567.34292      1716.3285      2283.6715      1716.3285      2283.6715      1716.3285      2283.6715      1.826152e+08   0.25           9264600        1.3110213      3539.723       14158.93       5.814104     
  34028600   69483.643      407.44228     -15940068       2.381402       206910.42     -15733158       567.34292      567.34292      567.34292      1716.3285      2283.6715      1716.3285      2283.6715      1716.3285      2283.6715      1.826152e+08   0.25           9264650        1.3261524      3304.4184      13217.56       5.8037106    
  34028800   69828.425      413.56821     -15938255       2.381402       207937.13     -15730318       567.34292      567.34292      567.34292      1716.3285      2283.6715      1716.3285      2283.6715      1716.3285      2283.6715      1.826152e+08   0.25           9264700        1.3398216      3657.7649      14631.264      5.7869       
  34029000   70171.404      419.95618     -15939865       2.381402       208958.46     -15730906       567.34292      567.34292      567.34292      1716.3285      2283.6715      1716.3285      2283.6715      1716.3285      2283.6715      1.826152e+08   0.25           9264750        1.3542711      3460.4495      13841.759      5.7734807    
  34029200   70709.824      427.54327     -15939966       2.381402       210561.78     -15729404       567.34292      567.34292      567.34292      1716.3285      2283.6715      1716.3285      2283.6715      1716.3285      2283.6715      1.826152e+08   0.25           9264800        1.3679996      3641.9354      14567.633      5.7570098    
  34029400   71538.757      434.91511     -15938557       2.381402       213030.2      -15725527       567.34292      567.34292      567.34292      1716.3285      2283.6715      1716.3285      2283.6715      1716.3285      2283.6715      1.826152e+08   0.25           9264850        1.3818177      3618.5394      14474.125      5.7409641    
  34029600   72616.895      444.67475     -15936010       2.381402       216240.71     -15719770       567.34292      567.34292      567.34292      1716.3285      2283.6715      1716.3285      2283.6715      1716.3285      2283.6715      1.826152e+08   0.25           9264900        1.3963215      3447.3841      13789.653      5.727777     
  34029800   73781.076      455.89395     -15934639       2.381402       219707.44     -15714932       567.34292      567.34292      567.34292      1716.3285      2283.6715      1716.3285      2283.6715      1716.3285      2283.6715      1.826152e+08   0.25           9264950        1.4099494      3668.964       14675.835      5.7110158    
  34030000   74824.019      463.40883     -15932542       2.381402       222813.15     -15709729       567.34292      567.34292      567.34292      1716.3285      2283.6715      1716.3285      2283.6715      1716.3285      2283.6715      1.826152e+08   0.25           9265000        1.4252324      3271.5762      13086.357      5.7009383    
  34030200   75601.028      468.11191     -15930448       2.381402       225126.95     -15705321       567.34292      567.34292      567.34292      1716.3285      2283.6715      1716.3285      2283.6715      1716.3285      2283.6715      1.826152e+08   0.25           9265050        1.4394966      3505.2917      14021.055      5.6867338    
  34030400   76093.492      476.55946     -15927206       2.381402       226593.42     -15700612       567.34292      567.34292      567.34292      1716.3285      2283.6715      1716.3285      2283.6715      1716.3285      2283.6715      1.826152e+08   0.25           9265100        1.4539975      3448.118       13792.595      5.6734486    
  34030600   76421.199      485.96816     -15924710       2.381402       227569.28     -15697140       567.34292      567.34292      567.34292      1716.3285      2283.6715      1716.3285      2283.6715      1716.3285      2283.6715      1.826152e+08   0.25           9265150        1.4676394      3665.1034      14660.217      5.6568327    
  34030800   76779.596      491.13048     -15923373       2.381402       228636.53     -15694736       567.34292      567.34292      567.34292      1716.3285      2283.6715      1716.3285      2283.6715      1716.3285      2283.6715      1.826152e+08   0.25           9265200        1.4819857      3485.2272      13941.046      5.6429538    
  34031000   77354.67       498.88205     -15922052       2.381402       230349        -15691703       567.34292      567.34292      567.34292      1716.3285      2283.6715      1716.3285      2283.6715      1716.3285      2283.6715      1.826152e+08   0.25           9265250        1.496558       3431.1838      13724.748      5.6299168    
  34031200   78222.131      508.87147     -15921883       2.381402       232932.15     -15688951       567.34292      567.34292      567.34292      1716.3285      2283.6715      1716.3285      2283.6715      1716.3285      2283.6715      1.826152e+08   0.25           9265300        1.510445       3600.478       14401.936      5.6143035    
  34031400   79323.086      522.92048     -15910237       2.381402       236210.61     -15674026       567.34292      567.34292      567.34292      1716.3285      2283.6715      1716.3285      2283.6715      1716.3285      2283.6715      1.826152e+08   0.25           9265350        1.525489       3323.6113      13294.442      5.6029717    
  34031600   80474.459      531.50872     -15906625       2.381402       239639.2      -15666986       567.34292      567.34292      567.34292      1716.3285      2283.6715      1716.3285      2283.6715      1716.3285      2283.6715      1.826152e+08   0.25           9265400        1.539985       3449.1831      13796.645      5.5895837    
  34031800   81491.779      539.53928     -15903032       2.381402       242668.6      -15660364       567.34292      567.34292      567.34292      1716.3285      2283.6715      1716.3285      2283.6715      1716.3285      2283.6715      1.826152e+08   0.25           9265450        1.5534454      3714.6534      14858.537      5.5724589    
  34032000   82229.89       546.86971     -15903578       2.381402       244866.57     -15658711       567.34292      567.34292      567.34292      1716.3285      2283.6715      1716.3285      2283.6715      1716.3285      2283.6715      1.826152e+08   0.25           9265500        1.5678573      3469.3453      13877.52       5.5587743    
  34032200   82692.263      556.09601     -15892941       2.381402       246243.44     -15646697       567.34292      567.34292      567.34292      1716.3285      2283.6715      1716.3285      2283.6715      1716.3285      2283.6715      1.826152e+08   0.25           9265550        1.5826883      3371.3491      13485.39       5.5465447    
  34032400   83020.873      562.08784     -15890121       2.381402       247221.98     -15642899       567.34292      567.34292      567.34292      1716.3285      2283.6715      1716.3285      2283.6715      1716.3285      2283.6715      1.826152e+08   0.25           9265600        1.5966749      3574.794       14299.098      5.5313461    
  34032600   83402.998      566.47358     -15886866       2.381402       248359.89     -15638507       567.34292      567.34292      567.34292      1716.3285      2283.6715      1716.3285      2283.6715      1716.3285      2283.6715      1.826152e+08   0.25           9265650        1.611301       3418.5687      13674.343      5.5183566    
  34032800   84010.598      571.03066     -15883226       2.381402       250169.21     -15633057       567.34292      567.34292      567.34292      1716.3285      2283.6715      1716.3285      2283.6715      1716.3285      2283.6715      1.826152e+08   0.25           9265700        1.6269535      3194.3795      12777.493      5.5088146    
  34033000   84911.001      579.03076     -15881849       2.381402       252850.46     -15628999       567.34292      567.34292      567.34292      1716.3285      2283.6715      1716.3285      2283.6715      1716.3285      2283.6715      1.826152e+08   0.25           9265750        1.6417115      3387.9555      13551.784      5.4961725    
  34033200   86026.381      588.99746     -15879723       2.381402       256171.87     -15623551       567.34292      567.34292      567.34292      1716.3285      2283.6715      1716.3285      2283.6715      1716.3285      2283.6715      1.826152e+08   0.25           9265800        1.6568135      3310.8454      13243.415      5.4846313    
  34033400   87178.3        593.43552     -15879488       2.381402       259602.09     -15619886       567.34292      567.34292      567.34292      1716.3285      2283.6715      1716.3285      2283.6715      1716.3285      2283.6715      1.826152e+08   0.25           9265850        1.6712584      3461.3787      13845.388      5.47088      
  34033600   88164.413      603.04136     -15877707       2.381402       262538.57     -15615169       567.34292      567.34292      567.34292      1716.3285      2283.6715      1716.3285      2283.6715      1716.3285      2283.6715      1.826152e+08   0.25           9265900        1.685019       3633.4563      14533.931      5.4549011    
  34033800   88877.083      613.94355     -15874421       2.381402       264660.78     -15609760       567.34292      567.34292      567.34292      1716.3285      2283.6715      1716.3285      2283.6715      1716.3285      2283.6715      1.826152e+08   0.25           9265950        1.6994562      3463.4191      13853.745      5.4411228    
  34034000   89325.116      622.27894     -15866612       2.381402       265994.94     -15600617       567.34292      567.34292      567.34292      1716.3285      2283.6715      1716.3285      2283.6715      1716.3285      2283.6715      1.826152e+08   0.25           9266000        1.7133032      3610.8899      14443.519      5.425467     
  34034200   89656.913      631.09502     -15864888       2.381402       266982.98     -15597905       567.34292      567.34292      567.34292      1716.3285      2283.6715      1716.3285      2283.6715      1716.3285      2283.6715      1.826152e+08   0.25           9266050        1.7287112      3245.013       12980.04       5.414731     
  34034400   90061.757      639.1951      -15865439       2.381402       268188.53     -15597250       567.34292      567.34292      567.34292      1716.3285      2283.6715      1716.3285      2283.6715      1716.3285      2283.6715      1.826152e+08   0.25           9266100        1.7431999      3451.0107      13804.016      5.4010691    
  34034600   90698.73       647.90258     -15854453       2.381402       270085.33     -15584368       567.34292      567.34292      567.34292      1716.3285      2283.6715      1716.3285      2283.6715      1716.3285      2283.6715      1.826152e+08   0.25           9266150        1.7575486      3484.6428      13938.65       5.3869646    
  34034800   91630.727      658.24315     -15853519       2.381402       272860.66     -15580658       567.34292      567.34292      567.34292      1716.3285      2283.6715      1716.3285      2283.6715      1716.3285      2283.6715      1.826152e+08   0.25           9266200        1.771418       3605.0597      14397.933      5.3714684    
  34035000   92762.439      668.90644     -15847352       2.381402       276230.7      -15571121       567.34292      567.34292      567.34292      1716.3285      2283.6715      1716.3285      2283.6715      1716.3285      2283.6715      1.826152e+08   0.25           9266250        1.7859212      3447.5364      13810.648      5.3577697    
  34035200   93901.285      675.78104     -15845355       2.381402       279621.99     -15565733       567.34292      567.34292      567.34292      1716.3285      2283.6715      1716.3285      2283.6715      1716.3285      2283.6715      1.826152e+08   0.25           9266300        1.8001769      3507.3217      14029.126      5.3433895    
  34035400   94847.363      679.5259      -15842553       2.381402       282439.25     -15560114       567.34292      567.34292      567.34292      1716.3285      2283.6715      1716.3285      2283.6715      1716.3285      2283.6715      1.826152e+08   0.25           9266350        1.8144978      3491.4136      13965.631      5.3292016    
  34035600   95517.373      685.04793     -15836203       2.381402       284434.43     -15551769       567.34292      567.34292      567.34292      1716.3285      2283.6715      1716.3285      2283.6715      1716.3285      2283.6715      1.826152e+08   0.25           9266400        1.8293573      3364.8542      13459.579      5.316576     
  34035800   95931.912      693.85877     -15836123       2.381402       285668.85     -15550454       567.34292      567.34292      567.34292      1716.3285      2283.6715      1716.3285      2283.6715      1716.3285      2283.6715      1.826152e+08   0.25           9266450        1.8432875      3589.2974      14357.02       5.3012448    
  34036000   96261.098      701.90199     -15836836       2.381402       286649.11     -15550187       567.34292      567.34292      567.34292      1716.3285      2283.6715      1716.3285      2283.6715      1716.3285      2283.6715      1.826152e+08   0.25           9266500        1.857741       3459.3865      13837.6        5.2874233    
  34036200   96685.358      706.91717     -15837909       2.381402       287912.49     -15549996       567.34292      567.34292      567.34292      1716.3285      2283.6715      1716.3285      2283.6715      1716.3285      2283.6715      1.826152e+08   0.25           9266550        1.8720167      3502.4746      14009.902      5.2730916    
  34036400   97369.79       714.08515     -15832589       2.381402       289950.61     -15542639       567.34292      567.34292      567.34292      1716.3285      2283.6715      1716.3285      2283.6715      1716.3285      2283.6715      1.826152e+08   0.25           9266600        1.8865615      3437.6481      13750.495      5.2595117    
  34036600   98345.809      723.33163     -15829201       2.381402       292857.02     -15536344       567.34292      567.34292      567.34292      1716.3285      2283.6715      1716.3285      2283.6715      1716.3285      2283.6715      1.826152e+08   0.25           9266650        1.9009361      3478.3881      13913.737      5.2454461    
  34036800   99488.191      734.3023      -15827704       2.381402       296258.84     -15531445       567.34292      567.34292      567.34292      1716.3285      2283.6715      1716.3285      2283.6715      1716.3285      2283.6715      1.826152e+08   0.25           9266700        1.9149782      3560.6627      14242.368      5.2304702    
  34037000   100600.88      744.18777     -15826563       2.381402       299572.25     -15526991       567.34292      567.34292      567.34292      1716.3285      2283.6715      1716.3285      2283.6715      1716.3285      2283.6715      1.826152e+08   0.25           9266750        1.9299473      3340.2704      13361.189      5.2180113    
  34037200   101511.29      749.12933     -15825798       2.381402       302283.29     -15523515       567.34292      567.34292      567.34292      1716.3285      2283.6715      1716.3285      2283.6715      1716.3285      2283.6715      1.826152e+08   0.25           9266800        1.9444033      3458.7616      13835.244      5.2041435    
  34037400   102131.2       751.07141     -15822759       2.381402       304129.27     -15518630       567.34292      567.34292      567.34292      1716.3285      2283.6715      1716.3285      2283.6715      1716.3285      2283.6715      1.826152e+08   0.25           9266850        1.9582503      3610.8576      14443.168      5.1886551    
  34037600   102514.04      763.75087     -15821967       2.381402       305269.3      -15516697       567.34292      567.34292      567.34292      1716.3285      2283.6715      1716.3285      2283.6715      1716.3285      2283.6715      1.826152e+08   0.25           9266900        1.973339       3313.7137      13254.972      5.1764462    
  34037800   102833.72      772.04108     -15820435       2.381402       306221.26     -15514213       567.34292      567.34292      567.34292      1716.3285      2283.6715      1716.3285      2283.6715      1716.3285      2283.6715      1.826152e+08   0.25           9266950        1.9880898      3389.6825      13558.796      5.163318     
  34038000   103294.81      778.95584     -15811530       2.381402       307594.3      -15503936       567.34292      567.34292      567.34292      1716.3285      2283.6715      1716.3285      2283.6715      1716.3285      2283.6715      1.826152e+08   0.25           9267000        2.0021661      3552.0577      14208.176      5.1484329    
  34038200   104023.52      788.41607     -15811491       2.381402       309764.28     -15501727       567.34292      567.34292      567.34292      1716.3285      2283.6715      1716.3285      2283.6715      1716.3285      2283.6715      1.826152e+08   0.25           9267050        2.0166186      3459.6323      13838.523      5.1345168    
  34038400   105033.6       800.11439     -15809171       2.381402       312772.13     -15496399       567.34292      567.34292      567.34292      1716.3285      2283.6715      1716.3285      2283.6715      1716.3285      2283.6715      1.826152e+08   0.25           9267100        2.0318305      3286.863       13147.42       5.1225081    
  34038600   106186.98      810.61237     -15809068       2.381402       316206.68     -15492861       567.34292      567.34292      567.34292      1716.3285      2283.6715      1716.3285      2283.6715      1716.3285      2283.6715      1.826152e+08   0.25           9267150        2.0455286      3650.1716      14600.685      5.1066749    
  34038800   107293.41      817.04531     -15806317       2.381402       319501.45     -15486815       567.34292      567.34292      567.34292      1716.3285      2283.6715      1716.3285      2283.6715      1716.3285      2283.6715      1.826152e+08   0.25           9267200        2.0601702      3414.9229      13659.754      5.093204     
  34039000   108165.1       824.73223     -15806513       2.381402       322097.2      -15484416       567.34292      567.34292      567.34292      1716.3285      2283.6715      1716.3285      2283.6715      1716.3285      2283.6715      1.826152e+08   0.25           9267250        2.0744811      3493.8679      13975.478      5.0789071    
  34039200   108737.47      832.11684     -15807804       2.381402       323801.61     -15484002       567.34292      567.34292      567.34292      1716.3285      2283.6715      1716.3285      2283.6715      1716.3285      2283.6715      1.826152e+08   0.25           9267300        2.0892832      3377.8779      13511.41       5.065802     
  34039400   109095.28      840.10979     -15805259       2.381402       324867.13     -15480392       567.34292      567.34292      567.34292      1716.3285      2283.6715      1716.3285      2283.6715      1716.3285      2283.6715      1.826152e+08   0.25           9267350        2.1033763      3547.7914      14191.205      5.0509706    
  34039600   109428.87      849.5999      -15813444       2.381402       325860.48     -15487583       567.34292      567.34292      567.34292      1716.3285      2283.6715      1716.3285      2283.6715      1716.3285      2283.6715      1.826152e+08   0.25           9267400        2.117894       3444.1007      13776.532      5.0371584    
  34039800   109923.28      857.8587      -15815343       2.381402       327332.77     -15488010       567.34292      567.34292      567.34292      1716.3285      2283.6715      1716.3285      2283.6715      1716.3285      2283.6715      1.826152e+08   0.25           9267450        2.1334232      3219.7502      12878.847      5.0257208    
  34040000   110701.8       867.178       -15814551       2.381402       329651.05     -15484900       567.34292      567.34292      567.34292      1716.3285      2283.6715      1716.3285      2283.6715      1716.3285      2283.6715      1.826152e+08   0.25           9267500        2.1472358      3619.8427      14479.337      5.0102228    
  34040200   111749.56      877.64919     -15812915       2.381402       332771.1      -15480144       567.34292      567.34292      567.34292      1716.3285      2283.6715      1716.3285      2283.6715      1716.3285      2283.6715      1.826152e+08   0.25           9267550        2.1620174      3382.6366      13530.615      4.9969857    
  34040400   112913.67      885.63829     -15812748       2.381402       336237.63     -15476510       567.34292      567.34292      567.34292      1716.3285      2283.6715      1716.3285      2283.6715      1716.3285      2283.6715      1.826152e+08   0.25           9267600        2.1761061      3548.9523      14195.94       4.9821422    
  34040600   113986.24      897.04084     -15816676       2.381402       339431.56     -15477244       567.34292      567.34292      567.34292      1716.3285      2283.6715      1716.3285      2283.6715      1716.3285      2283.6715      1.826152e+08   0.25           9267650        2.1907849      3406.2658      13625.02       4.9686475    
  34040800   114804.26      905.50341     -15813725       2.381402       341867.49     -15471858       567.34292      567.34292      567.34292      1716.3285      2283.6715      1716.3285      2283.6715      1716.3285      2283.6715      1.826152e+08   0.25           9267700        2.2053071      3442.9661      13771.768      4.9547865    
  34041000   115344.78      918.98093     -15811090       2.381402       343477.05     -15467613       567.34292      567.34292      567.34292      1716.3285      2283.6715      1716.3285      2283.6715      1716.3285      2283.6715      1.826152e+08   0.25           9267750        2.2204277      3306.7753      13227.177      4.942247     
  34041200   115701.98      929.06876     -15810638       2.381402       344540.75     -15466098       567.34292      567.34292      567.34292      1716.3285      2283.6715      1716.3285      2283.6715      1716.3285      2283.6715      1.826152e+08   0.25           9267800        2.2345971      3528.7065      14114.731      4.9275784    
  34041400   116068.45      938.46016     -15810861       2.381402       345632.01     -15465229       567.34292      567.34292      567.34292      1716.3285      2283.6715      1716.3285      2283.6715      1716.3285      2283.6715      1.826152e+08   0.25           9267850        2.2488037      3519.4803      14077.873      4.912997     
  34041600   116632.73      948.40681     -15815775       2.381402       347312.34     -15468463       567.34292      567.34292      567.34292      1716.3285      2283.6715      1716.3285      2283.6715      1716.3285      2283.6715      1.826152e+08   0.25           9267900        2.2631325      3489.4996      13958.124      4.8986841    
  34041800   117485.82      955.95349     -15812893       2.381402       349852.7      -15463041       567.34292      567.34292      567.34292      1716.3285      2283.6715      1716.3285      2283.6715      1716.3285      2283.6715      1.826152e+08   0.25           9267950        2.2771054      3578.3921      14313.594      4.8836075    
  34042000   118562.1       966.50715     -15809158       2.381402       353057.7      -15456100       567.34292      567.34292      567.34292      1716.3285      2283.6715      1716.3285      2283.6715      1716.3285      2283.6715      1.826152e+08   0.25           9268000        2.2922161      3308.8658      13235.462      4.870964     
  34042200   119688.23      978.88395     -15811997       2.381402       356411.11     -15455586       567.34292      567.34292      567.34292      1716.3285      2283.6715      1716.3285      2283.6715      1716.3285      2283.6715      1.826152e+08   0.25           9268050        2.3068823      3409.2208      13636.87       4.8573529    
  34042400   120683.37      990.37141     -15810837       2.381402       359374.47     -15451463       567.34292      567.34292      567.34292      1716.3285      2283.6715      1716.3285      2283.6715      1716.3285      2283.6715      1.826152e+08   0.25           9268100        2.3215         3420.4677      13681.809      4.8436287    
  34042600   121438.14      1003.2972     -15810363       2.381402       361622.05     -15448741       567.34292      567.34292      567.34292      1716.3285      2283.6715      1716.3285      2283.6715      1716.3285      2283.6715      1.826152e+08   0.25           9268150        2.3359321      3464.5494      13858.229      4.8295083    
  34042800   121965.91      1015.8307     -15808726       2.381402       363193.65     -15445533       567.34292      567.34292      567.34292      1716.3285      2283.6715      1716.3285      2283.6715      1716.3285      2283.6715      1.826152e+08   0.25           9268200        2.350823       3357.7306      13430.945      4.8163248    
  34043000   122403.8       1027.563      -15805923       2.381402       364497.62     -15441426       567.34292      567.34292      567.34292      1716.3285      2283.6715      1716.3285      2283.6715      1716.3285      2283.6715      1.826152e+08   0.25           9268250        2.3650051      3525.5702      14102.189      4.8016819    
  34043200   122916.12      1040.7169     -15801187       2.381402       366023.21     -15435164       567.34292      567.34292      567.34292      1716.3285      2283.6715      1716.3285      2283.6715      1716.3285      2283.6715      1.826152e+08   0.25           9268300        2.3795101      3447.1046      13788.524      4.7876934    
  34043400   123659.23      1051.3542     -15797999       2.381402       368236.07     -15429763       567.34292      567.34292      567.34292      1716.3285      2283.6715      1716.3285      2283.6715      1716.3285      2283.6715      1.826152e+08   0.25           9268350        2.3941196      3422.4524      13689.722      4.7739078    
  34043600   124644.44      1061.297      -15795164       2.381402       371169.86     -15423994       567.34292      567.34292      567.34292      1716.3285      2283.6715      1716.3285      2283.6715      1716.3285      2283.6715      1.826152e+08   0.25           9268400        2.4083364      3516.9141      14067.617      4.7593365    
  34043800   125758.96      1068.7741     -15795753       2.381402       374488.71     -15421264       567.34292      567.34292      567.34292      1716.3285      2283.6715      1716.3285      2283.6715      1716.3285      2283.6715      1.826152e+08   0.25           9268450        2.4230699      3393.6685      13574.793      4.7457801    
  34044000   126818.04      1081.8891     -15786487       2.381402       377642.48     -15408844       567.34292      567.34292      567.34292      1716.3285      2283.6715      1716.3285      2283.6715      1716.3285      2283.6715      1.826152e+08   0.25           9268500        2.4381001      3326.6162      13306.459      4.7327869    
  34044200   127719.11      1095.572      -15783673       2.381402       380325.71     -15403347       567.34292      567.34292      567.34292      1716.3285      2283.6715      1716.3285      2283.6715      1716.3285      2283.6715      1.826152e+08   0.25           9268550        2.4527774      3406.6239      13626.466      4.7190908    
  34044400   128499         1105.7831     -15780178       2.381402       382648.08     -15397530       567.34292      567.34292      567.34292      1716.3285      2283.6715      1716.3285      2283.6715      1716.3285      2283.6715      1.826152e+08   0.25           9268600        2.4667353      3582.2246      14329.011      4.7040107    
  34044600   129360.48      1119.159      -15778604       2.381402       385213.43     -15393391       567.34292      567.34292      567.34292      1716.3285      2283.6715      1716.3285      2283.6715      1716.3285      2283.6715      1.826152e+08   0.25           9268650        2.4814198      3404.9348      13619.684      4.6903178    
  34044800   130714.56      1130.5465     -15775156       2.381402       389245.64     -15385910       567.34292      567.34292      567.34292      1716.3285      2283.6715      1716.3285      2283.6715      1716.3285      2283.6715      1.826152e+08   0.25           9268700        2.4962715      3366.6059      13466.38       4.6769269    
  34045000   132918.53      1141.3213     -15778189       2.381402       395808.69     -15382380       567.34292      567.34292      567.34292      1716.3285      2283.6715      1716.3285      2283.6715      1716.3285      2283.6715      1.826152e+08   0.25           9268750        2.5100236      3635.7621      14542.986      4.6614771    
  34045200   135215.71      1152.7218     -15775556       2.381402       402649.28     -15372907       567.34292      567.34292      567.34292      1716.3285      2283.6715      1716.3285      2283.6715      1716.3285      2283.6715      1.826152e+08   0.25           9268800        2.5250354      3330.722       13322.783      4.6483655    
  34045400   136107.31      1163.9936     -15772949       2.381402       405304.32     -15367644       567.34292      567.34292      567.34292      1716.3285      2283.6715      1716.3285      2283.6715      1716.3285      2283.6715      1.826152e+08   0.25           9268850        2.5399417      3354.3249      13417.437      4.635039     
  34045600   134820.07      1174.2907     -15771112       2.381402       401471.16     -15369641       567.34292      567.34292      567.34292      1716.3285      2283.6715      1716.3285      2283.6715      1716.3285      2283.6715      1.826152e+08   0.25           9268900        2.5540686      3539.3625      14157.522      4.6202854    
  34045800   130971.81      1179.849      -15768625       2.381402       390011.7      -15378613       567.34292      567.34292      567.34292      1716.3285      2283.6715      1716.3285      2283.6715      1716.3285      2283.6715      1.826152e+08   0.25           9268950        2.5681268      3556.6153      14226.484      4.6054157    
  34046000   126455.36      1189.2057     -15766269       2.381402       376562.47     -15389707       567.34292      567.34292      567.34292      1716.3285      2283.6715      1716.3285      2283.6715      1716.3285      2283.6715      1.826152e+08   0.25           9269000        2.5828523      3395.4769      13581.857      4.5917415    
  34046200   124891.23      1195.4875     -15754734       2.381402       371904.75     -15382829       567.34292      567.34292      567.34292      1716.3285      2283.6715      1716.3285      2283.6715      1716.3285      2283.6715      1.826152e+08   0.25           9269050        2.5968724      3566.3038      14265.246      4.5768121    
  34046400   127801.29      1208.8298     -15750653       2.381402       380570.41     -15370083       567.34292      567.34292      567.34292      1716.3285      2283.6715      1716.3285      2283.6715      1716.3285      2283.6715      1.826152e+08   0.25           9269100        2.6113473      3454.2689      13817.091      4.5626875    
  34046600   132360.43      1216.6723     -15740769       2.381402       394146.76     -15346623       567.34292      567.34292      567.34292      1716.3285      2283.6715      1716.3285      2283.6715      1716.3285      2283.6715      1.826152e+08   0.25           9269150        2.6266809      3260.8286      13043.291      4.5500463    
  34046800   134385.02      1227.9173     -15740547       2.381402       400175.64     -15340371       567.34292      567.34292      567.34292      1716.3285      2283.6715      1716.3285      2283.6715      1716.3285      2283.6715      1.826152e+08   0.25           9269200        2.6408693      3523.9968      14095.925      4.5354097    
  34047000   135879.26      1238.2185     -15738826       2.381402       404625.24     -15334201       567.34292      567.34292      567.34292      1716.3285      2283.6715      1716.3285      2283.6715      1716.3285      2283.6715      1.826152e+08   0.25           9269250        2.6549685      3546.3023      14185.294      4.5206256    
  34047200   137579.19      1249.1627     -15736425       2.381402       409687.34     -15326737       567.34292      567.34292      567.34292      1716.3285      2283.6715      1716.3285      2283.6715      1716.3285      2283.6715      1.826152e+08   0.25           9269300        2.6687296      3633.4199      14533.386      4.5052789    
  34047400   139303.11      1261.0197     -15734435       2.381402       414820.87     -15319614       567.34292      567.34292      567.34292      1716.3285      2283.6715      1716.3285      2283.6715      1716.3285      2283.6715      1.826152e+08   0.25           9269350        2.6831955      3456.407       13825.842      4.4911276    
  34047600   140682.23      1272.0754     -15730538       2.381402       418927.65     -15311611       567.34292      567.34292      567.34292      1716.3285      2283.6715      1716.3285      2283.6715      1716.3285      2283.6715      1.826152e+08   0.25           9269400        2.6980621      3363.2454      13452.98       4.4776387    
  34047800   141537.03      1278.4415     -15735560       2.381402       421473.11     -15314087       567.34292      567.34292      567.34292      1716.3285      2283.6715      1716.3285      2283.6715      1716.3285      2283.6715      1.826152e+08   0.25           9269450        2.7117132      3662.6685      14650.513      4.4621353    
  34048000   141933.63      1289.3306     -15733582       2.381402       422654.12     -15310928       567.34292      567.34292      567.34292      1716.3285      2283.6715      1716.3285      2283.6715      1716.3285      2283.6715      1.826152e+08   0.25           9269500        2.7268366      3306.1541      13224.763      4.4490527    
  34048200   142184.29      1297.813      -15731622       2.381402       423400.53     -15308221       567.34292      567.34292      567.34292      1716.3285      2283.6715      1716.3285      2283.6715      1716.3285      2283.6715      1.826152e+08   0.25           9269550        2.7412379      3471.8967      13887.528      4.4347815    
  34048400   142826.54      1304.3578     -15731565       2.381402       425313.05     -15306252       567.34292      567.34292      567.34292      1716.3285      2283.6715      1716.3285      2283.6715      1716.3285      2283.6715      1.826152e+08   0.25           9269600        2.7556511      3469.0548      13876.239      4.4205273    
  34048600   144450.24      1314.3675     -15728069       2.381402       430148.16     -15297921       567.34292      567.34292      567.34292      1716.3285      2283.6715      1716.3285      2283.6715      1716.3285      2283.6715      1.826152e+08   0.25           9269650        2.7695261      3603.6072      14414.432      4.4054157    
  34048800   146756.19      1323.6675     -15728369       2.381402       437014.87     -15291354       567.34292      567.34292      567.34292      1716.3285      2283.6715      1716.3285      2283.6715      1716.3285      2283.6715      1.826152e+08   0.25           9269700        2.7838839      3482.4282      13929.8        4.391078     
  34049000   148403.18      1333.1833     -15727160       2.381402       441919.32     -15285240       567.34292      567.34292      567.34292      1716.3285      2283.6715      1716.3285      2283.6715      1716.3285      2283.6715      1.826152e+08   0.25           9269750        2.7978991      3567.5659      14270.135      4.3762047    
  34049200   148514.51      1344.409      -15720971       2.381402       442250.85     -15278720       567.34292      567.34292      567.34292      1716.3285      2283.6715      1716.3285      2283.6715      1716.3285      2283.6715      1.826152e+08   0.25           9269800        2.812374       3454.2407      13817.054      4.3620528    
  34049400   146939.59      1352.6801     -15720031       2.381402       437561.01     -15282470       567.34292      567.34292      567.34292      1716.3285      2283.6715      1716.3285      2283.6715      1716.3285      2283.6715      1.826152e+08   0.25           9269850        2.8271396      3386.2172      13544.777      4.3483456    
  34049600   144014.48      1360.5318     -15708705       2.381402       428850.54     -15279855       567.34292      567.34292      567.34292      1716.3285      2283.6715      1716.3285      2283.6715      1716.3285      2283.6715      1.826152e+08   0.25           9269900        2.8417049      3432.8677      13731.566      4.3343208    
  34049800   141136.05      1364.7271     -15710091       2.381402       420279.06     -15289812       567.34292      567.34292      567.34292      1716.3285      2283.6715      1716.3285      2283.6715      1716.3285      2283.6715      1.826152e+08   0.25           9269950        2.8561252      3467.3124      13869.172      4.3200724    
  34050000   140583.33      1370.2313     -15712825       2.381402       418633.14     -15294192       567.34292      567.34292      567.34292      1716.3285      2283.6715      1716.3285      2283.6715      1716.3285      2283.6715      1.826152e+08   0.25           9270000        2.8735376      2871.5063      11486.121      4.3103098    
  34050200   144512.8       1383.5019     -15705694       2.381402       430334.45     -15275360       567.34292      567.34292      567.34292      1716.3285      2283.6715      1716.3285      2283.6715      1716.3285      2283.6715      1.826152e+08   0.25           9270050        2.8876367      3546.3352      14185.185      4.2955427    
  34050400   149671.71      1396.5665     -15704798       2.381402       445696.79     -15259102       567.34292      567.34292      567.34292      1716.3285      2283.6715      1716.3285      2283.6715      1716.3285      2283.6715      1.826152e+08   0.25           9270100        2.9024685      3371.1877      13484.656      4.2818628    
  34050600   151704.06      1402.5068     -15706145       2.381402       451748.77     -15254396       567.34292      567.34292      567.34292      1716.3285      2283.6715      1716.3285      2283.6715      1716.3285      2283.6715      1.826152e+08   0.25           9270150        2.9165491      3550.9555      14203.948      4.2670727    
  34050800   152137.16      1411.9999     -15705524       2.381402       453038.49     -15252485       567.34292      567.34292      567.34292      1716.3285      2283.6715      1716.3285      2283.6715      1716.3285      2283.6715      1.826152e+08   0.25           9270200        2.9323995      3154.5152      12618.135      4.2548571    
  34051000   151966.35      1417.5099     -15701505       2.381402       452529.84     -15248975       567.34292      567.34292      567.34292      1716.3285      2283.6715      1716.3285      2283.6715      1716.3285      2283.6715      1.826152e+08   0.25           9270250        2.9472242      3372.755       13490.97       4.2411304    
  34051200   151816.42      1428.8744     -15695197       2.381402       452083.37     -15243114       567.34292      567.34292      567.34292      1716.3285      2283.6715      1716.3285      2283.6715      1716.3285      2283.6715      1.826152e+08   0.25           9270300        2.9620642      3369.2511      13477.041      4.2274151    
  34051400   152329.66      1437.5238     -15694547       2.381402       453611.7      -15240936       567.34292      567.34292      567.34292      1716.3285      2283.6715      1716.3285      2283.6715      1716.3285      2283.6715      1.826152e+08   0.25           9270350        2.9763223      3506.8089      14027.221      4.2128648    
  34051600   154229.44      1452.4356     -15690448       2.381402       459268.95     -15231179       567.34292      567.34292      567.34292      1716.3285      2283.6715      1716.3285      2283.6715      1716.3285      2283.6715      1.826152e+08   0.25           9270400        2.9898032      3708.9253      14835.601      4.1972268    
  34051800   157568.73      1464.9358     -15689338       2.381402       469212.77     -15220126       567.34292      567.34292      567.34292      1716.3285      2283.6715      1716.3285      2283.6715      1716.3285      2283.6715      1.826152e+08   0.25           9270450        3.0045066      3400.5793      13602.311      4.1833112    
  34052000   160480.81      1472.6124     -15687388       2.381402       477884.45     -15209504       567.34292      567.34292      567.34292      1716.3285      2283.6715      1716.3285      2283.6715      1716.3285      2283.6715      1.826152e+08   0.25           9270500        3.0191386      3417.1791      13668.829      4.1692894    
  34052200   161179.03      1482.3246     -15686870       2.381402       479963.62     -15206907       567.34292      567.34292      567.34292      1716.3285      2283.6715      1716.3285      2283.6715      1716.3285      2283.6715      1.826152e+08   0.25           9270550        3.0338671      3394.7682      13578.984      4.1553945    
  34052400   159390.21      1491.6892     -15684029       2.381402       474636.82     -15209392       567.34292      567.34292      567.34292      1716.3285      2283.6715      1716.3285      2283.6715      1716.3285      2283.6715      1.826152e+08   0.25           9270600        3.048646       3383.2065      13532.772      4.1415599    
  34052600   154722.2       1498.971      -15680818       2.381402       460736.28     -15220081       567.34292      567.34292      567.34292      1716.3285      2283.6715      1716.3285      2283.6715      1716.3285      2283.6715      1.826152e+08   0.25           9270650        3.0630009      3483.1026      13932.525      4.1271449    
  34052800   148590.3       1500.1021     -15680260       2.381402       442476.55     -15237783       567.34292      567.34292      567.34292      1716.3285      2283.6715      1716.3285      2283.6715      1716.3285      2283.6715      1.826152e+08   0.25           9270700        3.0779024      3355.3888      13421.569      4.113461     
  34053000   146367.59      1504.0027     -15679707       2.381402       435857.69     -15243850       567.34292      567.34292      567.34292      1716.3285      2283.6715      1716.3285      2283.6715      1716.3285      2283.6715      1.826152e+08   0.25           9270750        3.0917161      3619.5494      14478.177      4.0983243    
  34053200   150142.74      1517.0211     -15679523       2.381402       447099.44     -15232424       567.34292      567.34292      567.34292      1716.3285      2283.6715      1716.3285      2283.6715      1716.3285      2283.6715      1.826152e+08   0.25           9270800        3.1064735      3388.1925      13552.669      4.0844401    
  34053400   155481.4       1533.6923     -15677789       2.381402       462997.07     -15214792       567.34292      567.34292      567.34292      1716.3285      2283.6715      1716.3285      2283.6715      1716.3285      2283.6715      1.826152e+08   0.25           9270850        3.1209728      3448.4019      13793.698      4.0702116    
  34053600   157976.44      1545.0953     -15674149       2.381402       470426.87     -15203722       567.34292      567.34292      567.34292      1716.3285      2283.6715      1716.3285      2283.6715      1716.3285      2283.6715      1.826152e+08   0.25           9270900        3.1369853      3122.5504      12490.092      4.0579382    
  34053800   160423.38      1557.9363     -15669356       2.381402       477713.42     -15191643       567.34292      567.34292      567.34292      1716.3285      2283.6715      1716.3285      2283.6715      1716.3285      2283.6715      1.826152e+08   0.25           9270950        3.1528381      3154.0339      12616.116      4.0454253    
  34054000   163109.17      1571.8848     -15666406       2.381402       485711.26     -15180695       567.34292      567.34292      567.34292      1716.3285      2283.6715      1716.3285      2283.6715      1716.3285      2283.6715      1.826152e+08   0.25           9271000        3.1687809      3136.1773      12544.76       4.0329972    
  34054200   165365.28      1584.6563     -15661535       2.381402       492429.55     -15169106       567.34292      567.34292      567.34292      1716.3285      2283.6715      1716.3285      2283.6715      1716.3285      2283.6715      1.826152e+08   0.25           9271050        3.1852298      3039.7349      12158.9        4.0211757    
  34054400   166674.87      1596.944      -15659679       2.381402       496329.3      -15163350       567.34292      567.34292      567.34292      1716.3285      2283.6715      1716.3285      2283.6715      1716.3285      2283.6715      1.826152e+08   0.25           9271100        3.2006775      3236.6945      12946.804      4.008059     
  34054600   166979.21      1606.4237     -15657362       2.381402       497235.57     -15160126       567.34292      567.34292      567.34292      1716.3285      2283.6715      1716.3285      2283.6715      1716.3285      2283.6715      1.826152e+08   0.25           9271150        3.2161019      3241.6754      12966.79       3.9948916    
  34054800   166575.1       1615.4406     -15655439       2.381402       496032.19     -15159407       567.34292      567.34292      567.34292      1716.3285      2283.6715      1716.3285      2283.6715      1716.3285      2283.6715      1.826152e+08   0.25           9271200        3.2312467      3301.4272      13205.712      3.9813603    
[...]
  34999400   291.77633     -1.751764      -15982686       2.3791167      868.8601      -15981818       567.52452      567.52452      567.52452      1716.2377      2283.7623      1716.2377      2283.7623      1716.2377      2283.7623      1.8279061e+08  0.25           9507350        24.611182      2898.3506      11593.491      0.90144628   
  34999600   306.52257      6.6638242     -15990084       2.3793219      912.77187     -15989172       567.50821      567.50821      567.50821      1716.2459      2283.7541      1716.2459      2283.7541      1716.2459      2283.7541      1.8277485e+08  0.25           9507400        24.627676      3031.3462      12125.338      0.88441941   
  34999800   284.4323      -1.4746064     -15982727       2.3791181      846.99083     -15981880       567.5244       567.5244       567.5244       1716.2378      2283.7622      1716.2378      2283.7622      1716.2378      2283.7622      1.827905e+08   0.25           9507450        24.644987      2888.4035      11553.621      0.86742199   
  35000000   309.30899     -8.1346114     -15982746       2.3789644      921.06936     -15981825       567.53663      567.53663      567.53663      1716.2317      2283.7683      1716.2317      2283.7683      1716.2317      2283.7683      1.8280231e+08  0.25           9507500        24.666656      2307.4025      9229.6074      0.85057444   
  35000200   294.24799      7.7904125     -15990511       2.379349       876.22027     -15989635       567.50605      567.50605      567.50605      1716.247       2283.753       1716.247       2283.753       1716.247       2283.753       1.8277276e+08  0.25           9507550        24.686171      2562.1681      10248.61       0.8336475    
  35000400   303.49948      4.0519069     -15990163       2.3792594      903.76962     -15989259       567.51317      567.51317      567.51317      1716.2434      2283.7566      1716.2434      2283.7566      1716.2434      2283.7566      1.8277965e+08  0.25           9507600        24.704923      2666.4007      10665.638      0.81669175   
  35000600   289.25771     -2.0655064     -15990183       2.3791218      861.36008     -15989322       567.52411      567.52411      567.52411      1716.2379      2283.7621      1716.2379      2283.7621      1716.2379      2283.7621      1.8279022e+08  0.25           9507650        24.723425      2702.4494      10809.789      0.79972545   
  35000800   309.05783     -1.789364      -15990203       2.3791305      920.32144     -15989282       567.52342      567.52342      567.52342      1716.2383      2283.7617      1716.2383      2283.7617      1716.2383      2283.7617      1.8278955e+08  0.25           9507700        24.741372      2785.8779      11143.581      0.7827395    
  35001000   298.40638      3.8642844     -15988328       2.3792568      888.60325     -15987439       567.51338      567.51338      567.51338      1716.2433      2283.7567      1716.2433      2283.7567      1716.2433      2283.7567      1.8277985e+08  0.25           9507750        24.75851       2917.5524      11670.085      0.7657272    
  35001200   301.4327       0.046673507   -15988348       2.3791742      897.61511     -15987450       567.51995      567.51995      567.51995      1716.24        2283.76        1716.24        2283.76        1716.24        2283.76        1.827862e+08   0.25           9507800        24.775916      2872.5783      11490.371      0.74872281   
  35001400   301.61866     -4.2579926     -15988368       2.3790804      898.16887     -15987470       567.5274       567.5274       567.5274       1716.2363      2283.7637      1716.2363      2283.7637      1716.2363      2283.7637      1.827934e+08   0.25           9507850        24.792687      2981.3287      11925.311      0.73169914   
  35001600   299.09465     -0.87746047    -15988388       2.3791614      890.65279     -15987497       567.52097      567.52097      567.52097      1716.2395      2283.7605      1716.2395      2283.7605      1716.2395      2283.7605      1.8278718e+08  0.25           9507900        24.809617      2953.3643      11813.543      0.71468039   
  35001800   302.43909     -0.44267879    -15988408       2.3791732      900.61197     -15987507       567.52003      567.52003      567.52003      1716.24        2283.76        1716.24        2283.76        1716.24        2283.76        1.8278627e+08  0.25           9507950        24.827023      2872.5078      11489.918      0.69767516   
  35002000   299.92066      4.945207      -15990322       2.3793031      893.1125      -15989429       567.5097       567.5097       567.5097       1716.2452      2283.7548      1716.2452      2283.7548      1716.2452      2283.7548      1.8277629e+08  0.25           9508000        24.84369       2999.9953      12000.052      0.6806491    
  35002200   298.83819     -0.80854432    -15990342       2.3791681      889.88911     -15989452       567.52043      567.52043      567.52043      1716.2398      2283.7602      1716.2398      2283.7602      1716.2398      2283.7602      1.8278666e+08  0.25           9508050        24.859812      3101.2539      12405.066      0.66360902   
  35002400   300.51262     -4.8088609     -15990361       2.3790709      894.87526     -15989467       567.52816      567.52816      567.52816      1716.2359      2283.7641      1716.2359      2283.7641      1716.2359      2283.7641      1.8279413e+08  0.25           9508100        24.876178      3055.1292      12220.472      0.64657652   
  35002600   296.92787     -2.9468212     -15990382       2.3791065      884.20049     -15989498       567.52533      567.52533      567.52533      1716.2373      2283.7627      1716.2373      2283.7627      1716.2373      2283.7627      1.8279139e+08  0.25           9508150        24.893557      2877.0464      11508.169      0.62957055   
  35002800   298.24928      3.016707      -15990401       2.379236       888.13543     -15989513       567.51503      567.51503      567.51503      1716.2425      2283.7575      1716.2425      2283.7575      1716.2425      2283.7575      1.8278145e+08  0.25           9508200        24.911015      2864.0549      11456.155      0.61256601   
  35003000   301.81187      7.6961662     -15990421       2.3793367      898.74421     -15989522       567.50703      567.50703      567.50703      1716.2465      2283.7535      1716.2465      2283.7535      1716.2465      2283.7535      1.8277371e+08  0.25           9508250        24.928287      2894.8512      11579.45       0.59555641   
  35003200   293.36438      7.4719809     -15990440       2.3793267      873.58901     -15989566       567.50782      567.50782      567.50782      1716.2461      2283.7539      1716.2461      2283.7539      1716.2461      2283.7539      1.8277448e+08  0.25           9508300        24.945125      2969.5782      11878.382      0.57853637   
  35003400   311.4739       3.7026065     -15990460       2.3792365      927.51608     -15989533       567.51499      567.51499      567.51499      1716.2425      2283.7575      1716.2425      2283.7575      1716.2425      2283.7575      1.8278141e+08  0.25           9508350        24.962291      2912.5874      11650.356      0.56152399   
  35003600   295.67451     -0.12055756    -15990480       2.3791474      880.46821     -15989599       567.52208      567.52208      567.52208      1716.239       2283.761       1716.239       2283.761       1716.239       2283.761       1.8278825e+08  0.25           9508400        24.979421      2918.8838      11675.48       0.5445106    
  35003800   307.55343     -1.8902514     -15990498       2.3791069      915.84158     -15989583       567.5253       567.5253       567.5253       1716.2374      2283.7626      1716.2374      2283.7626      1716.2374      2283.7626      1.8279137e+08  0.25           9508450        24.996318      2959.1913      11836.839      0.52749212   
  35004000   290.52533      0.1113046     -15990517       2.3791556      865.13483     -15989652       567.52142      567.52142      567.52142      1716.2393      2283.7607      1716.2393      2283.7607      1716.2393      2283.7607      1.8278762e+08  0.25           9508500        25.014475      2753.6652      11014.645      0.51049955   
  35004200   312.39745      8.1703709     -15990534       2.3793458      930.26626     -15989604       567.50631      567.50631      567.50631      1716.2468      2283.7532      1716.2468      2283.7532      1716.2468      2283.7532      1.8277301e+08  0.25           9508550        25.031403      2953.7518      11814.955      0.49348114   
  35004400   290.1267       17.625011     -15990549       2.3795715      863.94778     -15989685       567.48836      567.48836      567.48836      1716.2558      2283.7442      1716.2558      2283.7442      1716.2558      2283.7442      1.8275568e+08  0.25           9508600        25.049098      2825.7022      11302.845      0.47647745   
  35004600   310.72785      4.9917329     -15990570       2.3792831      925.29449     -15989645       567.51129      567.51129      567.51129      1716.2444      2283.7556      1716.2444      2283.7556      1716.2444      2283.7556      1.8277783e+08  0.25           9508650        25.065864      2980.9101      11923.548      0.45945594   
  35004800   292.04567     -16.182834     -15990584       2.3787942      869.66212     -15989715       567.55017      567.55017      567.55017      1716.2249      2283.7751      1716.2249      2283.7751      1716.2249      2283.7751      1.828154e+08   0.25           9508700        25.083453      2843.8984      11375.631      0.442449     
  35005000   305.42231      12.876283     -15990603       2.379482       909.4955      -15989694       567.49548      567.49548      567.49548      1716.2523      2283.7477      1716.2523      2283.7477      1716.2523      2283.7477      1.8276255e+08  0.25           9508750        25.100931      2860.734       11442.969      0.42543954   
  35005200   283.73523     -3.7753661     -15990623       2.3790979      844.91506     -15989778       567.52601      567.52601      567.52601      1716.237       2283.763       1716.237       2283.763       1716.237       2283.763       1.8279206e+08  0.25           9508800        25.118565      2835.442       11341.791      0.40843198   
  35005400   303.43662      2.3308739     -15990641       2.3792469      903.58245     -15989737       567.51417      567.51417      567.51417      1716.2429      2283.7571      1716.2429      2283.7571      1716.2429      2283.7571      1.8278061e+08  0.25           9508850        25.135569      2940.3364      11761.24       0.39141379   
  35005600   295.36226      0.50152907    -15990659       2.3792088      879.53838     -15989780       567.5172       567.5172       567.5172       1716.2414      2283.7586      1716.2414      2283.7586      1716.2414      2283.7586      1.8278354e+08  0.25           9508900        25.152965      2874.3687      11497.607      0.3744014    
  35005800   302.99884      1.6616514     -15990678       2.3792405      902.2788      -15989775       567.51468      567.51468      567.51468      1716.2427      2283.7573      1716.2427      2283.7573      1716.2427      2283.7573      1.827811e+08   0.25           9508950        25.169062      3106.171       12424.631      0.35737008   
  35006000   302.89419     -0.038927066   -15990697       2.3792054      901.96718     -15989795       567.51747      567.51747      567.51747      1716.2413      2283.7587      1716.2413      2283.7587      1716.2413      2283.7587      1.827838e+08   0.25           9509000        25.186176      2921.5247      11686.075      0.34035376   
  35006200   299.42651      2.1588041     -15990716       2.3792635      891.64103     -15989824       567.51285      567.51285      567.51285      1716.2436      2283.7564      1716.2436      2283.7564      1716.2436      2283.7564      1.8277933e+08  0.25           9509050        25.203087      2956.6708      11826.639      0.32333471   
  35006400   298.38606      0.33892913    -15990735       2.3792288      888.54274     -15989846       567.51561      567.51561      567.51561      1716.2422      2283.7578      1716.2422      2283.7578      1716.2422      2283.7578      1.82782e+08    0.25           9509100        25.220875      2810.8559      11243.467      0.30632645   
  35006600   298.76678      0.15392113    -15990754       2.3792343      889.67644     -15989864       567.51517      567.51517      567.51517      1716.2424      2283.7576      1716.2424      2283.7576      1716.2424      2283.7576      1.8278158e+08  0.25           9509150        25.237537      3000.8424      12003.343      0.28930423   
  35006800   303.36022      2.4618704     -15990774       2.3792996      903.35492     -15989871       567.50997      567.50997      567.50997      1716.245       2283.755       1716.245       2283.755       1716.245       2283.755       1.8277656e+08  0.25           9509200        25.25484       2889.7097      11558.838      0.2722894    
  35007000   301.47404      4.1821663     -15990793       2.3793508      897.73822     -15989896       567.5059       567.5059       567.5059       1716.247       2283.753       1716.247       2283.753       1716.247       2283.753       1.8277262e+08  0.25           9509250        25.271798      2948.5007      11794.061      0.25527071   
  35007200   297.04799     -1.8408555     -15990445       2.3792155      884.55818     -15989560       567.51666      567.51666      567.51666      1716.2417      2283.7583      1716.2417      2283.7583      1716.2417      2283.7583      1.8278302e+08  0.25           9509300        25.288041      3078.0763      12312.165      0.23824537   
  35007400   301.59754      4.5730908     -15990464       2.3793737      898.10596     -15989566       567.50409      567.50409      567.50409      1716.248       2283.752       1716.248       2283.752       1716.248       2283.752       1.8277087e+08  0.25           9509350        25.304982      2951.3691      11805.522      0.22122717   
  35007600   309.54859      6.6044243     -15990484       2.3794283      921.78285     -15989562       567.49974      567.49974      567.49974      1716.2501      2283.7499      1716.2501      2283.7499      1716.2501      2283.7499      1.8276667e+08  0.25           9509400        25.322373      2875.1662      11500.674      0.20421271   
  35007800   296.62968      5.718166      -15990503       2.3794143      883.31253     -15989620       567.50085      567.50085      567.50085      1716.2496      2283.7504      1716.2496      2283.7504      1716.2496      2283.7504      1.8276775e+08  0.25           9509450        25.339056      2997.0106      11988.063      0.18719251   
  35008000   305.79559      5.1722614     -15990522       2.3794069      910.60704     -15989612       567.50144      567.50144      567.50144      1716.2493      2283.7507      1716.2493      2283.7507      1716.2493      2283.7507      1.8276832e+08  0.25           9509500        25.355769      2991.7264      11966.981      0.17017296   
  35008200   293.91408      6.2792754     -15990541       2.379437       875.22593     -15989666       567.49905      567.49905      567.49905      1716.2505      2283.7495      1716.2505      2283.7495      1716.2505      2283.7495      1.8276601e+08  0.25           9509550        25.37302       2898.3708      11593.45       0.15315708   
  35008400   311.44597      8.6888112     -15990559       2.3794956      927.43292     -15989632       567.4944       567.4944       567.4944       1716.2528      2283.7472      1716.2528      2283.7472      1716.2528      2283.7472      1.8276151e+08  0.25           9509600        25.389973      2949.4182      11797.689      0.13613928   
  35008600   292.62023      5.0728708     -15990947       2.379421       871.37307     -15990075       567.50033      567.50033      567.50033      1716.2498      2283.7502      1716.2498      2283.7502      1716.2498      2283.7502      1.8276724e+08  0.25           9509650        25.406121      3096.374       12385.455      0.11911779   
  35008800   309.88689     -2.2729954     -15990965       2.379255       922.79026     -15990043       567.51352      567.51352      567.51352      1716.2432      2283.7568      1716.2432      2283.7568      1716.2432      2283.7568      1.8277999e+08  0.25           9509700        25.423648      2852.6372      11410.571      0.10210301   
  35009000   295.34404      4.4309376     -15990983       2.3794112      879.48412     -15990104       567.5011       567.5011       567.5011       1716.2494      2283.7506      1716.2494      2283.7506      1716.2494      2283.7506      1.8276799e+08  0.25           9509750        25.440602      2949.2679      11796.957      0.085085633  
  35009200   304.64212      16.604783     -15990998       2.3796915      907.17221     -15990091       567.47882      567.47882      567.47882      1716.2606      2283.7394      1716.2606      2283.7394      1716.2606      2283.7394      1.8274646e+08  0.25           9509800        25.457913      2888.1897      11552.877      0.068069294  
  35009400   288.76618      13.458952     -15991017       2.3796216      859.89638     -15990157       567.48438      567.48438      567.48438      1716.2578      2283.7422      1716.2578      2283.7422      1716.2578      2283.7422      1.8275183e+08  0.25           9509850        25.474799      2961.1068      11844.313      0.051051707  
  35009600   305.51163      4.9088903     -15991037       2.3794278      909.76145     -15990127       567.49978      567.49978      567.49978      1716.2501      2283.7499      1716.2501      2283.7499      1716.2501      2283.7499      1.8276671e+08  0.25           9509900        25.491233      3042.5512      12170.27       0.034033692  
  35009800   294.65306      6.2046095     -15991423       2.3794653      877.42651     -15990546       567.49681      567.49681      567.49681      1716.2516      2283.7484      1716.2516      2283.7484      1716.2516      2283.7484      1.8276384e+08  0.25           9509950        25.508034      2976.0112      11904.053      0.017016702  
  35010000   304.42122      10.937427     -15991440       2.3795764      906.5144      -15990534       567.48797      567.48797      567.48797      1716.256       2283.744       1716.256       2283.744       1716.256       2283.744       1.827553e+08   0.25           9510000        25.525819      2811.2412      11244.94       0            
Loop time of 25.5259 on 4 procs for 300000 steps with 1000 atoms

Performance: 253.860 ns/day, 0.095 hours/ns, 11752.784 timesteps/s
99.3% CPU use with 4 MPI tasks x 1 OpenMP threads

MPI task timing breakdown:
Section |  min time  |  avg time  |  max time  |%varavg| %total
---------------------------------------------------------------
Pair    | 10.586     | 11.041     | 11.716     |  12.6 | 43.26
Neigh   | 0.0094647  | 0.010016   | 0.010922   |   0.5 |  0.04
Comm    | 8.3607     | 8.8843     | 9.2285     |  10.8 | 34.81
Output  | 0.078767   | 0.08875    | 0.11686    |   5.5 |  0.35
Modify  | 4.4438     | 4.5464     | 4.6234     |   3.3 | 17.81
Other   |            | 0.9551     |            |       |  3.74

Nlocal:            250 ave         272 max         239 min
Histogram: 2 0 1 0 0 0 0 0 0 1
Nghost:         936.75 ave         960 max         927 min
Histogram: 2 1 0 0 0 0 0 0 0 1
Neighs:         1713.5 ave        1793 max        1681 min
Histogram: 2 1 0 0 0 0 0 0 0 1

Total # of neighbors = 6854
Ave neighs/atom = 6.854
Neighbor list builds = 48
Dangerous builds = 4

# run_style
run_style verlet

# write restart
write_restart ${write_res}
write_restart ./pgnpmf/8020/equpmf34.res
System init for write_restart ...
Generated 0 of 1 mixed pair_coeff terms from geometric mixing rule

Total wall time: 0:01:16
