LAMMPS (23 Jun 2022 - Update 1)
OMP_NUM_THREADS environment is not set. Defaulting to 1 thread. (src/comm.cpp:98)
  using 1 OpenMP thread(s) per MPI task
# Read restart
read_restart ${read_res}
read_restart ./pgnpmf/8020/equpmf18.res
Reading restart file ...
  restart file = 23 Jun 2022, LAMMPS = 23 Jun 2022
  restoring atom style atomic from restart
  orthogonal box = (1714.101 1714.101 1714.101) to (2285.899 2285.899 2285.899)
  1 by 2 by 2 MPI processor grid
  restoring pair style table from restart
  1000 atoms
  read_restart CPU = 0.004 seconds

# Settings

pair_style table spline 9941

pair_coeff 1 1 ./pgnpmf/N20.txt DE_GNP 75.6
pair_coeff 2 2 ./pgnpmf/N100.txt DE_GNP 115.92
WARNING: 3 of 9941 force values in table DE_GNP are inconsistent with -dE/dr.
WARNING:  Should only be flagged at inflection points (src/pair_table.cpp:463)
pair_coeff 1 2 ./pgnpmf/mixed_potential.txt DE_GNP 95.66
WARNING: 1562 of 9941 force values in table DE_GNP are inconsistent with -dE/dr.
WARNING:  Should only be flagged at inflection points (src/pair_table.cpp:463)

#Neigh_list Calc Frequency

neigh_modify delay 0 every 1 check yes

# Saving Frequency (50 frames)

variable ts_save equal ${steps_equ}
variable ts_save equal 5000

# Dump
#dump 1 all custom ${ts_save} ./pgnpmf/${folder}/equilibration/trajectory/trajectory_${usic}_${trial}.equ.custom type x y z ix iy iz
#dump_modify 1 first no sort id
dump 2 all cfg 50000 ./pgnpmf/${folder}/equilibration/trajectory/dumpgen.tens_*.cfg mass type xs ys zs fx fy fz
dump 2 all cfg 50000 ./pgnpmf/8020/equilibration/trajectory/dumpgen.tens_*.cfg mass type xs ys zs fx fy fz
dump_modify 2 element N20 N100

# thermo_style
thermo_style custom step temp press pe density ke etotal lx ly lz xlo xhi ylo yhi zlo zhi vol dt time cpu tpcpu spcpu cpuremain

# run info
timestep ${ts}
timestep 0.25
thermo 200

# fix

fix 1 all momentum 1000 linear 1 1 1 angular
variable T equal ${temp}
variable T equal 300
fix 2 all nvt temp ${T} 370000 100.0
fix 2 all nvt temp 300 370000 100.0

run 100000
Generated 0 of 1 mixed pair_coeff terms from geometric mixing rule
Unused restart file global fix info:
  fix style: npt, fix ID: 5
Neighbor list info ...
  update every 1 steps, delay 0 steps, check yes
  max neighbors/atom: 2000, page size: 100000
  master list distance cutoff = 117.92
  ghost atom cutoff = 117.92
  binsize = 58.96, bins = 10 10 10
  1 neighbor lists, perpetual/occasional/extra = 1 0 0
  (1) pair table, perpetual
      attributes: half, newton on
      pair build: half/bin/atomonly/newton
      stencil: half/bin/3d
      bin: standard
Per MPI rank memory allocation (min/avg/max) = 3.094 | 3.094 | 3.095 Mbytes
   Step          Temp          Press          PotEng        Density         KinEng         TotEng           Lx             Ly             Lz            Xlo            Xhi            Ylo            Yhi            Zlo            Zhi           Volume           Dt            Time           CPU           T/CPU          S/CPU         CPULeft    
  19010000   304.10522      3.1960868     -15765559       2.3261723      905.5734      -15764653       571.79794      571.79794      571.79794      1714.101       2285.899       1714.101       2285.899       1714.101       2285.899       1.8695098e+08  0.25           5510000        0              0              0              0            
  19010200   344.40031      2.8028615     -15765611       2.3261723      1025.5653     -15764586       571.79794      571.79794      571.79794      1714.101       2285.899       1714.101       2285.899       1714.101       2285.899       1.8695098e+08  0.25           5510050        0.015372554    3252.4192      13009.093      7.6719039    
  19010400   413.34749      2.4065818     -15765668       2.3261723      1230.8782     -15764437       571.79794      571.79794      571.79794      1714.101       2285.899       1714.101       2285.899       1714.101       2285.899       1.8695098e+08  0.25           5510100        0.029293354    3591.7693      14367.068      7.2945275    
  19010600   514.31836      1.9928611     -15765729       2.3261723      1531.5523     -15764198       571.79794      571.79794      571.79794      1714.101       2285.899       1714.101       2285.899       1714.101       2285.899       1.8695098e+08  0.25           5510150        0.042278276    3850.6194      15402.501      7.0044152    
  19010800   650.49709      1.5496322     -15765797       2.3261723      1937.0693     -15763860       571.79794      571.79794      571.79794      1714.101       2285.899       1714.101       2285.899       1714.101       2285.899       1.8695098e+08  0.25           5510200        0.054568767    4068.1966      16272.802      6.7667532    
  19011000   830.36068      1.0800878     -15765872       2.3261723      2472.6723     -15763399       571.79794      571.79794      571.79794      1714.101       2285.899       1714.101       2285.899       1714.101       2285.899       1.8695098e+08  0.25           5510250        0.067015884    4016.9909      16068.01       6.6347459    
  19011200   1066.6036      0.59518467    -15765955       2.3261723      3176.1633     -15762779       571.79794      571.79794      571.79794      1714.101       2285.899       1714.101       2285.899       1714.101       2285.899       1.8695098e+08  0.25           5510300        0.079198254    4104.2802      16417.085      6.5208098    
  19011400   1374.8878      0.1485481     -15766048       2.3261723      4094.181      -15761954       571.79794      571.79794      571.79794      1714.101       2285.899       1714.101       2285.899       1714.101       2285.899       1.8695098e+08  0.25           5510350        0.092041216    3893.1647      15572.615      6.4824748    
  19011600   1774.78       -0.11462153    -15766154       2.3261723      5284.9917     -15760869       571.79794      571.79794      571.79794      1714.101       2285.899       1714.101       2285.899       1714.101       2285.899       1.8695098e+08  0.25           5510400        0.10449886     4013.6445      16054.667      6.4267863    
  19011800   2289.382       0.084993912   -15765905       2.3261723      6817.3887     -15759088       571.79794      571.79794      571.79794      1714.101       2285.899       1714.101       2285.899       1714.101       2285.899       1.8695098e+08  0.25           5510450        0.11768051     3793.1403      15172.412      6.4202342    
  19012000   2944.6129      0.17304649    -15765671       2.3261723      8768.5544     -15756902       571.79794      571.79794      571.79794      1714.101       2285.899       1714.101       2285.899       1714.101       2285.899       1.8695098e+08  0.25           5510500        0.13043026     3921.6627      15686.758      6.3911705    
  19012200   3768.3991     -0.67459347    -15765820       2.3261723      11221.649     -15754598       571.79794      571.79794      571.79794      1714.101       2285.899       1714.101       2285.899       1714.101       2285.899       1.8695098e+08  0.25           5510550        0.14336847     3864.5261      15458.048      6.3734617    
  19012400   4785.6284     -1.9441856     -15765983       2.3261723      14250.784     -15751732       571.79794      571.79794      571.79794      1714.101       2285.899       1714.101       2285.899       1714.101       2285.899       1.8695098e+08  0.25           5510600        0.15568576     4059.345       16237.48       6.3312907    
  19012600   6015.0733     -2.631027      -15765796       2.3261723      17911.861     -15747884       571.79794      571.79794      571.79794      1714.101       2285.899       1714.101       2285.899       1714.101       2285.899       1.8695098e+08  0.25           5510650        0.16812241     4020.3892      16081.593      6.2981836    
  19012800   7458.6025     -3.4890056     -15766000       2.3261723      22210.445     -15743790       571.79794      571.79794      571.79794      1714.101       2285.899       1714.101       2285.899       1714.101       2285.899       1.8695098e+08  0.25           5510700        0.18025093     4122.5077      16489.996      6.2573413    
  19013000   9087.049      -4.1877469     -15765856       2.3261723      27059.68      -15738796       571.79794      571.79794      571.79794      1714.101       2285.899       1714.101       2285.899       1714.101       2285.899       1.8695098e+08  0.25           5510750        0.19322605     3853.523       15414.044      6.2476991    
  19013200   10830.119     -4.9969179     -15765730       2.3261723      32250.245     -15733479       571.79794      571.79794      571.79794      1714.101       2285.899       1714.101       2285.899       1714.101       2285.899       1.8695098e+08  0.25           5510800        0.20650283     3765.9759      15063.925      6.2467617    
  19013400   12564.682     -5.1482886     -15758607       2.3261723      37415.478     -15721192       571.79794      571.79794      571.79794      1714.101       2285.899       1714.101       2285.899       1714.101       2285.899       1.8695098e+08  0.25           5510850        0.21989015     3734.8649      14939.408      6.2475189    
  19013600   14117.378     -4.4646426     -15758864       2.3261723      42039.141     -15716825       571.79794      571.79794      571.79794      1714.101       2285.899       1714.101       2285.899       1714.101       2285.899       1.8695098e+08  0.25           5510900        0.23259372     3935.9089      15743.622      6.2283903    
  19013800   15302.176     -5.390486      -15759122       2.3261723      45567.268     -15713555       571.79794      571.79794      571.79794      1714.101       2285.899       1714.101       2285.899       1714.101       2285.899       1.8695098e+08  0.25           5510950        0.24546586     3884.3616      15537.507      6.2142063    
  19014000   15995.445     -8.2297731     -15759392       2.3261723      47631.704     -15711760       571.79794      571.79794      571.79794      1714.101       2285.899       1714.101       2285.899       1714.101       2285.899       1.8695098e+08  0.25           5511000        0.25779022     4056.9963      16227.956      6.1870077    
  19014200   16235.725     -9.184239      -15760027       2.3261723      48347.217     -15711680       571.79794      571.79794      571.79794      1714.101       2285.899       1714.101       2285.899       1714.101       2285.899       1.8695098e+08  0.25           5511050        0.27021851     4023.0861      16092.4        6.1635957    
  19014400   16268.729     -9.7707463     -15760273       2.3261723      48445.497     -15711827       571.79794      571.79794      571.79794      1714.101       2285.899       1714.101       2285.899       1714.101       2285.899       1.8695098e+08  0.25           5511100        0.2832281      3843.3098      15373.238      6.1538122    
  19014600   16438.267     -10.596125     -15760509       2.3261723      48950.353     -15711559       571.79794      571.79794      571.79794      1714.101       2285.899       1714.101       2285.899       1714.101       2285.899       1.8695098e+08  0.25           5511150        0.29576596     3987.9246      15951.565      6.1339675    
  19014800   17009.264     -11.184509     -15762267       2.3261723      50650.683     -15711617       571.79794      571.79794      571.79794      1714.101       2285.899       1714.101       2285.899       1714.101       2285.899       1.8695098e+08  0.25           5511200        0.30861288     3891.9774      15567.987      6.120858     
  19015000   18055.667     -11.529299     -15763229       2.3261723      53766.693     -15709462       571.79794      571.79794      571.79794      1714.101       2285.899       1714.101       2285.899       1714.101       2285.899       1.8695098e+08  0.25           5511250        0.32151227     3876.1568      15504.61       6.1087682    
  19015200   19420.147     -9.510679      -15757604       2.3261723      57829.883     -15699774       571.79794      571.79794      571.79794      1714.101       2285.899       1714.101       2285.899       1714.101       2285.899       1.8695098e+08  0.25           5511300        0.33470105     3791.084       15164.309      6.1018927    
  19015400   20796.078     -10.366545     -15757821       2.3261723      61927.17      -15695894       571.79794      571.79794      571.79794      1714.101       2285.899       1714.101       2285.899       1714.101       2285.899       1.8695098e+08  0.25           5511350        0.34714127     4019.2354      16077.019      6.0814317    
  19015600   21897.953     -12.071507     -15749923       2.3261723      65208.365     -15684715       571.79794      571.79794      571.79794      1714.101       2285.899       1714.101       2285.899       1714.101       2285.899       1.8695098e+08  0.25           5511400        0.35994077     3906.413       15625.625      6.0676024    
  19015800   22558.525     -11.65236      -15750123       2.3261723      67175.435     -15682947       571.79794      571.79794      571.79794      1714.101       2285.899       1714.101       2285.899       1714.101       2285.899       1.8695098e+08  0.25           5511450        0.37261437     3945.2155      15780.884      6.051799     
  19016000   22812.525     -11.691003     -15749923       2.3261723      67931.805     -15681992       571.79794      571.79794      571.79794      1714.101       2285.899       1714.101       2285.899       1714.101       2285.899       1.8695098e+08  0.25           5511500        0.38502382     4029.1709      16116.634      6.0320688    
  19016200   22902.716     -13.396919     -15750449       2.3261723      68200.377     -15682248       571.79794      571.79794      571.79794      1714.101       2285.899       1714.101       2285.899       1714.101       2285.899       1.8695098e+08  0.25           5511550        0.39778129     3919.2742      15677.106      6.0180734    
  19016400   23140.144     -15.782879     -15750591       2.3261723      68907.398     -15681684       571.79794      571.79794      571.79794      1714.101       2285.899       1714.101       2285.899       1714.101       2285.899       1.8695098e+08  0.25           5511600        0.41014382     4044.4904      16178.003      5.9983787    
  19016600   23762.988     -17.346544     -15750724       2.3261723      70762.12      -15679962       571.79794      571.79794      571.79794      1714.101       2285.899       1714.101       2285.899       1714.101       2285.899       1.8695098e+08  0.25           5511650        0.42270766     3979.6782      15918.709      5.9819788    
  19016800   24825.323     -17.344896     -15750838       2.3261723      73925.572     -15676912       571.79794      571.79794      571.79794      1714.101       2285.899       1714.101       2285.899       1714.101       2285.899       1.8695098e+08  0.25           5511700        0.43535354     3953.8522      15815.431      5.9669282    
  19017000   26170.613     -14.445896     -15748668       2.3261723      77931.617     -15670736       571.79794      571.79794      571.79794      1714.101       2285.899       1714.101       2285.899       1714.101       2285.899       1.8695098e+08  0.25           5511750        0.44778909     4020.7238      16082.877      5.9492211    
  19017200   27510.127     -13.350935     -15752539       2.3261723      81920.462     -15670619       571.79794      571.79794      571.79794      1714.101       2285.899       1714.101       2285.899       1714.101       2285.899       1.8695098e+08  0.25           5511800        0.45989234     4131.1331      16524.536      5.9275238    
  19017400   28562.276     -11.359693     -15752244       2.3261723      85053.582     -15667191       571.79794      571.79794      571.79794      1714.101       2285.899       1714.101       2285.899       1714.101       2285.899       1.8695098e+08  0.25           5511850        0.47226237     4042.0274      16168.099      5.9096831    
  19017600   29170.637     -15.580571     -15756814       2.3261723      86865.175     -15669949       571.79794      571.79794      571.79794      1714.101       2285.899       1714.101       2285.899       1714.101       2285.899       1.8695098e+08  0.25           5511900        0.48451665     4080.2067      16320.926      5.8907222    
  19017800   29396.9       -17.267169     -15757198       2.3261723      87538.95      -15669659       571.79794      571.79794      571.79794      1714.101       2285.899       1714.101       2285.899       1714.101       2285.899       1.8695098e+08  0.25           5511950        0.4967256      4095.3603      16381.394      5.8715709    
  19018000   29485.814     -16.900512     -15757909       2.3261723      87803.719     -15670106       571.79794      571.79794      571.79794      1714.101       2285.899       1714.101       2285.899       1714.101       2285.899       1.8695098e+08  0.25           5512000        0.50935221     3959.8726      15839.407      5.8575715    
  19018200   29757.531     -16.789438     -15757873       2.3261723      88612.847     -15669260       571.79794      571.79794      571.79794      1714.101       2285.899       1714.101       2285.899       1714.101       2285.899       1.8695098e+08  0.25           5512050        0.52236337     3842.8703      15371.515      5.8479408    
  19018400   30431.086     -15.951982     -15758180       2.3261723      90618.576     -15667561       571.79794      571.79794      571.79794      1714.101       2285.899       1714.101       2285.899       1714.101       2285.899       1.8695098e+08  0.25           5512100        0.53524088     3882.7376      15530.95       5.8366937    
  19018600   31538.899     -15.89551      -15758827       2.3261723      93917.456     -15664909       571.79794      571.79794      571.79794      1714.101       2285.899       1714.101       2285.899       1714.101       2285.899       1.8695098e+08  0.25           5512150        0.5476769      4020.5734      16082.281      5.8206777    
  19018800   32905.121     -14.302068     -15759076       2.3261723      97985.832     -15661090       571.79794      571.79794      571.79794      1714.101       2285.899       1714.101       2285.899       1714.101       2285.899       1.8695098e+08  0.25           5512200        0.56060059     3868.8584      15475.422      5.8098796    
  19019000   34230.561     -10.601818     -15767838       2.3261723      101932.77     -15665905       571.79794      571.79794      571.79794      1714.101       2285.899       1714.101       2285.899       1714.101       2285.899       1.8695098e+08  0.25           5512250        0.57338499     3911.0266      15644.102      5.7975769    
  19019200   35236.091     -3.4545821     -15765778       2.3261723      104927.06     -15660851       571.79794      571.79794      571.79794      1714.101       2285.899       1714.101       2285.899       1714.101       2285.899       1.8695098e+08  0.25           5512300        0.58624931     3886.7265      15546.977      5.7860425    
  19019400   35786.898     -4.7162738     -15767465       2.3261723      106567.27     -15660898       571.79794      571.79794      571.79794      1714.101       2285.899       1714.101       2285.899       1714.101       2285.899       1.8695098e+08  0.25           5512350        0.59881829     3978.0349      15912.064      5.7716063    
  19019600   35977.916     -6.2481163     -15767236       2.3261723      107136.09     -15660100       571.79794      571.79794      571.79794      1714.101       2285.899       1714.101       2285.899       1714.101       2285.899       1.8695098e+08  0.25           5512400        0.61178582     3855.7838      15423.183      5.7609997    
  19019800   36077.677     -1.921987      -15765102       2.3261723      107433.16     -15657669       571.79794      571.79794      571.79794      1714.101       2285.899       1714.101       2285.899       1714.101       2285.899       1.8695098e+08  0.25           5512450        0.62442284     3956.6359      15826.549      5.7472544    
  19020000   36383.784     -0.80976253    -15766720       2.3261723      108344.7      -15658375       571.79794      571.79794      571.79794      1714.101       2285.899       1714.101       2285.899       1714.101       2285.899       1.8695098e+08  0.25           5512500        0.63778707     3741.32        14965.248      5.7401005    
  19020200   37112.071      0.16943295    -15766433       2.3261723      110513.41     -15655919       571.79794      571.79794      571.79794      1714.101       2285.899       1714.101       2285.899       1714.101       2285.899       1.8695098e+08  0.25           5512550        0.65008491     4065.7606      16263.074      5.7233114    
  19020400   38267.836      0.40356695    -15765021       2.3261723      113955.08     -15651066       571.79794      571.79794      571.79794      1714.101       2285.899       1714.101       2285.899       1714.101       2285.899       1.8695098e+08  0.25           5512600        0.66222443     4118.7929      16475.142      5.705333     
  19020600   39646.841      0.67190666    -15766572       2.3261723      118061.52     -15648510       571.79794      571.79794      571.79794      1714.101       2285.899       1714.101       2285.899       1714.101       2285.899       1.8695098e+08  0.25           5512650        0.67462501     4032.0682      16128.293      5.6897761    
  19020800   40947.251      0.80689493    -15767733       2.3261723      121933.92     -15645799       571.79794      571.79794      571.79794      1714.101       2285.899       1714.101       2285.899       1714.101       2285.899       1.8695098e+08  0.25           5512700        0.6874123      3910.1201      15640.526      5.6775304    
  19021000   41904.519      5.3001148     -15761508       2.3261723      124784.5      -15636724       571.79794      571.79794      571.79794      1714.101       2285.899       1714.101       2285.899       1714.101       2285.899       1.8695098e+08  0.25           5512750        0.69985456     4018.5761      16074.282      5.6624729    
  19021200   42405.096      6.7892983     -15759207       2.3261723      126275.13     -15632932       571.79794      571.79794      571.79794      1714.101       2285.899       1714.101       2285.899       1714.101       2285.899       1.8695098e+08  0.25           5512800        0.7131447      3762.1698      15048.573      5.6542334    
  19021400   42568.017      8.7460567     -15756526       2.3261723      126760.29     -15629766       571.79794      571.79794      571.79794      1714.101       2285.899       1714.101       2285.899       1714.101       2285.899       1.8695098e+08  0.25           5512850        0.72586142     3931.8377      15727.399      5.6413582    
  19021600   42676.576      10.09076      -15755376       2.3261723      127083.55     -15628293       571.79794      571.79794      571.79794      1714.101       2285.899       1714.101       2285.899       1714.101       2285.899       1.8695098e+08  0.25           5512900        0.73895564     3818.479       15273.959      5.6313649    
  19021800   43029.184      12.674368     -15756483       2.3261723      128133.56     -15628350       571.79794      571.79794      571.79794      1714.101       2285.899       1714.101       2285.899       1714.101       2285.899       1.8695098e+08  0.25           5512950        0.75152264     3978.6819      15914.693      5.6173265    
  19022000   43809.017      18.61811      -15755682       2.3261723      130455.77     -15625226       571.79794      571.79794      571.79794      1714.101       2285.899       1714.101       2285.899       1714.101       2285.899       1.8695098e+08  0.25           5513000        0.76464434     3810.4711      15241.811      5.6074055    
  19022200   45004.571      18.695652     -15756036       2.3261723      134015.93     -15622020       571.79794      571.79794      571.79794      1714.101       2285.899       1714.101       2285.899       1714.101       2285.899       1.8695098e+08  0.25           5513050        0.77724025     3969.5305      15878.213      5.5935945    
  19022400   46401.901      21.943788     -15746336       2.3261723      138176.94     -15608159       571.79794      571.79794      571.79794      1714.101       2285.899       1714.101       2285.899       1714.101       2285.899       1.8695098e+08  0.25           5513100        0.7900742      3895.9388      15583.781      5.5815039    
  19022600   47678.873      25.646334     -15746261       2.3261723      141979.54     -15604281       571.79794      571.79794      571.79794      1714.101       2285.899       1714.101       2285.899       1714.101       2285.899       1.8695098e+08  0.25           5513150        0.80273768     3948.3446      15793.332      5.5682092    
  19022800   48578.382      29.494909     -15745809       2.3261723      144658.13     -15601151       571.79794      571.79794      571.79794      1714.101       2285.899       1714.101       2285.899       1714.101       2285.899       1.8695098e+08  0.25           5513200        0.81618463     3718.3175      14873.263      5.5602703    
  19023000   49022.678      31.202166     -15744993       2.3261723      145981.16     -15599011       571.79794      571.79794      571.79794      1714.101       2285.899       1714.101       2285.899       1714.101       2285.899       1.8695098e+08  0.25           5513250        0.82870306     3994.1082      15976.469      5.545948     
  19023200   49144.469      31.110276     -15741299       2.3261723      146343.84     -15594955       571.79794      571.79794      571.79794      1714.101       2285.899       1714.101       2285.899       1714.101       2285.899       1.8695098e+08  0.25           5513300        0.84129906     3969.5258      15878.112      5.5321901    
  19023400   49248.816      34.100992     -15740459       2.3261723      146654.56     -15593805       571.79794      571.79794      571.79794      1714.101       2285.899       1714.101       2285.899       1714.101       2285.899       1.8695098e+08  0.25           5513350        0.8539502      3952.218       15808.887      5.5188237    
  19023600   49642.147      37.921904     -15738102       2.3261723      147825.84     -15590276       571.79794      571.79794      571.79794      1714.101       2285.899       1714.101       2285.899       1714.101       2285.899       1.8695098e+08  0.25           5513400        0.86635385     4031.0747      16124.273      5.5039061    
  19023800   50491.923      41.246594     -15737280       2.3261723      150356.33     -15586924       571.79794      571.79794      571.79794      1714.101       2285.899       1714.101       2285.899       1714.101       2285.899       1.8695098e+08  0.25           5513450        0.87933242     3852.5161      15410.132      5.4926514    
  19024000   51744.294      44.697764     -15736448       2.3261723      154085.67     -15582362       571.79794      571.79794      571.79794      1714.101       2285.899       1714.101       2285.899       1714.101       2285.899       1.8695098e+08  0.25           5513500        0.89157907     4082.7308      16330.842      5.4768537    
  19024200   53159.173      47.624351     -15735617       2.3261723      158298.94     -15577318       571.79794      571.79794      571.79794      1714.101       2285.899       1714.101       2285.899       1714.101       2285.899       1.8695098e+08  0.25           5513550        0.90584864     3503.9566      14015.855      5.4733777    
  19024400   54407.919      47.032548     -15734775       2.3261723      162017.49     -15572757       571.79794      571.79794      571.79794      1714.101       2285.899       1714.101       2285.899       1714.101       2285.899       1.8695098e+08  0.25           5513600        0.91884165     3848.2266      15392.875      5.4620137    
  19024600   55242.567      49.251139     -15735812       2.3261723      164502.93     -15571309       571.79794      571.79794      571.79794      1714.101       2285.899       1714.101       2285.899       1714.101       2285.899       1.8695098e+08  0.25           5513650        0.93189295     3831.0328      15324.093      5.4509459    
  19024800   55609.982      53.779198     -15734927       2.3261723      165597.03     -15569330       571.79794      571.79794      571.79794      1714.101       2285.899       1714.101       2285.899       1714.101       2285.899       1.8695098e+08  0.25           5513700        0.94432983     4020.3184      16081.315      5.4362868    
  19025000   55694.083      56.63142      -15734408       2.3261723      165847.47     -15568561       571.79794      571.79794      571.79794      1714.101       2285.899       1714.101       2285.899       1714.101       2285.899       1.8695098e+08  0.25           5513750        0.95719623     3886.0731      15544.284      5.424122     
  19025200   55804.453      58.319524     -15738027       2.3261723      166176.13     -15571851       571.79794      571.79794      571.79794      1714.101       2285.899       1714.101       2285.899       1714.101       2285.899       1.8695098e+08  0.25           5513800        0.96985042     3951.2557      15804.969      5.4107549    
  19025400   56252.049      62.00916      -15739396       2.3261723      167509        -15571887       571.79794      571.79794      571.79794      1714.101       2285.899       1714.101       2285.899       1714.101       2285.899       1.8695098e+08  0.25           5513850        0.98360584     3634.9268      14539.696      5.4034556    
  19025600   57168.409      64.212453     -15740738       2.3261723      170237.76     -15570500       571.79794      571.79794      571.79794      1714.101       2285.899       1714.101       2285.899       1714.101       2285.899       1.8695098e+08  0.25           5513900        0.99743554     3615.3972      14461.536      5.3963934    
  19025800   58466.043      66.420225     -15743134       2.3261723      174101.89     -15569032       571.79794      571.79794      571.79794      1714.101       2285.899       1714.101       2285.899       1714.101       2285.899       1.8695098e+08  0.25           5513950        1.0121932      3388.0722      13552.303      5.3941034    
  19026000   59886.745      68.137332     -15739879       2.3261723      178332.5      -15561547       571.79794      571.79794      571.79794      1714.101       2285.899       1714.101       2285.899       1714.101       2285.899       1.8695098e+08  0.25           5514000        1.0270442      3366.7925      13467.263      5.3919916    
  19026200   61104.977      73.436766     -15737342       2.3261723      181960.19     -15555382       571.79794      571.79794      571.79794      1714.101       2285.899       1714.101       2285.899       1714.101       2285.899       1.8695098e+08  0.25           5514050        1.0401971      3801.4341      15205.695      5.3807823    
  19026400   61884.834      77.470646     -15731188       2.3261723      184282.47     -15546905       571.79794      571.79794      571.79794      1714.101       2285.899       1714.101       2285.899       1714.101       2285.899       1.8695098e+08  0.25           5514100        1.0530956      3876.4351      15505.829      5.3682274    
  19026600   62190.896      82.096705     -15729709       2.3261723      185193.87     -15544516       571.79794      571.79794      571.79794      1714.101       2285.899       1714.101       2285.899       1714.101       2285.899       1.8695098e+08  0.25           5514150        1.065601       3998.2619      15992.986      5.3536911    
  19026800   62240.711      85.509873     -15727040       2.3261723      185342.21     -15541698       571.79794      571.79794      571.79794      1714.101       2285.899       1714.101       2285.899       1714.101       2285.899       1.8695098e+08  0.25           5514200        1.0785183      3870.8034      15483.246      5.3412418    
  19027000   62365.264      84.905268     -15730027       2.3261723      185713.11     -15544314       571.79794      571.79794      571.79794      1714.101       2285.899       1714.101       2285.899       1714.101       2285.899       1.8695098e+08  0.25           5514250        1.0909793      4012.5152      16050.018      5.3265541    
  19027200   62855.521      89.676849     -15729913       2.3261723      187173.01     -15542740       571.79794      571.79794      571.79794      1714.101       2285.899       1714.101       2285.899       1714.101       2285.899       1.8695098e+08  0.25           5514300        1.1041546      3794.9598      15179.792      5.3153579    
  19027400   63833.241      99.01891      -15728647       2.3261723      190084.49     -15538563       571.79794      571.79794      571.79794      1714.101       2285.899       1714.101       2285.899       1714.101       2285.899       1.8695098e+08  0.25           5514350        1.118936       3382.616       13530.535      5.3117395    
  19027600   65187.013      101.21915     -15739238       2.3261723      194115.79     -15545122       571.79794      571.79794      571.79794      1714.101       2285.899       1714.101       2285.899       1714.101       2285.899       1.8695098e+08  0.25           5514400        1.1321185      3792.9596      15171.816      5.3003808    
  19027800   66619.748      107.90769     -15733127       2.3261723      198382.23     -15534745       571.79794      571.79794      571.79794      1714.101       2285.899       1714.101       2285.899       1714.101       2285.899       1.8695098e+08  0.25           5514450        1.1448664      3922.2085      15688.79       5.2869754    
  19028000   67794.936      109.60452     -15747565       2.3261723      201881.74     -15545683       571.79794      571.79794      571.79794      1714.101       2285.899       1714.101       2285.899       1714.101       2285.899       1.8695098e+08  0.25           5514500        1.1573316      4011.1755      16044.761      5.2722957    
  19028200   68505.551      113.71219     -15744926       2.3261723      203997.83     -15540928       571.79794      571.79794      571.79794      1714.101       2285.899       1714.101       2285.899       1714.101       2285.899       1.8695098e+08  0.25           5514550        1.16976        4023.0149      16092.05       5.2575005    
  19028400   68759.339      116.13774     -15749058       2.3261723      204753.57     -15544304       571.79794      571.79794      571.79794      1714.101       2285.899       1714.101       2285.899       1714.101       2285.899       1.8695098e+08  0.25           5514600        1.1820707      4061.52        16246.081      5.242234     
  19028600   68795.731      120.59566     -15747457       2.3261723      204861.94     -15542595       571.79794      571.79794      571.79794      1714.101       2285.899       1714.101       2285.899       1714.101       2285.899       1.8695098e+08  0.25           5514650        1.1945499      4006.6857      16026.748      5.2277687    
  19028800   68957.449      125.20779     -15746931       2.3261723      205343.51     -15541588       571.79794      571.79794      571.79794      1714.101       2285.899       1714.101       2285.899       1714.101       2285.899       1.8695098e+08  0.25           5514700        1.2067426      4100.7751      16403.189      5.2121081    
  19029000   69516.669      129.12977     -15745625       2.3261723      207008.77     -15538617       571.79794      571.79794      571.79794      1714.101       2285.899       1714.101       2285.899       1714.101       2285.899       1.8695098e+08  0.25           5514750        1.2193443      3967.7479      15870.94       5.1982641    
  19029200   70566.319      137.42364     -15743547       2.3261723      210134.45     -15533413       571.79794      571.79794      571.79794      1714.101       2285.899       1714.101       2285.899       1714.101       2285.899       1.8695098e+08  0.25           5514800        1.2324476      3815.8356      15263.267      5.1865575    
  19029400   71951.459      145.45428     -15738371       2.3261723      214259.16     -15524112       571.79794      571.79794      571.79794      1714.101       2285.899       1714.101       2285.899       1714.101       2285.899       1.8695098e+08  0.25           5514850        1.2448332      4036.9243      16147.751      5.1718399    
  19029600   73354.423      153.04733     -15736923       2.3261723      218436.95     -15518486       571.79794      571.79794      571.79794      1714.101       2285.899       1714.101       2285.899       1714.101       2285.899       1.8695098e+08  0.25           5514900        1.2571516      4058.9759      16235.885      5.1568941    
  19029800   74466.441      158.15964     -15736546       2.3261723      221748.34     -15514797       571.79794      571.79794      571.79794      1714.101       2285.899       1714.101       2285.899       1714.101       2285.899       1.8695098e+08  0.25           5514950        1.2700306      3882.2763      15529.092      5.1442724    
  19030000   75107.682      163.81292     -15735387       2.3261723      223657.85     -15511729       571.79794      571.79794      571.79794      1714.101       2285.899       1714.101       2285.899       1714.101       2285.899       1.8695098e+08  0.25           5515000        1.2827691      3925.1256      15700.522      5.131083     
  19030200   75331.827      167.98042     -15738353       2.3261723      224325.32     -15514027       571.79794      571.79794      571.79794      1714.101       2285.899       1714.101       2285.899       1714.101       2285.899       1.8695098e+08  0.25           5515050        1.2956937      3868.5809      15474.337      5.1186385    
  19030400   75392.698      179.41998     -15738309       2.3261723      224506.58     -15513802       571.79794      571.79794      571.79794      1714.101       2285.899       1714.101       2285.899       1714.101       2285.899       1.8695098e+08  0.25           5515100        1.3080075      4060.4998      16242.011      5.1038003    
  19030600   75613.112      186.79709     -15738610       2.3261723      225162.94     -15513447       571.79794      571.79794      571.79794      1714.101       2285.899       1714.101       2285.899       1714.101       2285.899       1.8695098e+08  0.25           5515150        1.3213661      3742.8946      14971.572      5.093039     
  19030800   76243.983      190.08866     -15737737       2.3261723      227041.56     -15510695       571.79794      571.79794      571.79794      1714.101       2285.899       1714.101       2285.899       1714.101       2285.899       1.8695098e+08  0.25           5515200        1.3343685      3845.4552      15381.702      5.0808715    
  19031000   77341.739      197.41829     -15733501       2.3261723      230310.49     -15503191       571.79794      571.79794      571.79794      1714.101       2285.899       1714.101       2285.899       1714.101       2285.899       1.8695098e+08  0.25           5515250        1.3468871      3994.039       15976.258      5.0668675    
  19031200   78727.977      203.97804     -15726398       2.3261723      234438.47     -15491959       571.79794      571.79794      571.79794      1714.101       2285.899       1714.101       2285.899       1714.101       2285.899       1.8695098e+08  0.25           5515300        1.3596457      3918.9317      15675.694      5.0537842    
  19031400   80085.131      207.46482     -15725121       2.3261723      238479.84     -15486641       571.79794      571.79794      571.79794      1714.101       2285.899       1714.101       2285.899       1714.101       2285.899       1.8695098e+08  0.25           5515350        1.3723549      3934.1586      15736.669      5.0405248    
  19031600   81128.349      210.83999     -15723113       2.3261723      241586.37     -15481526       571.79794      571.79794      571.79794      1714.101       2285.899       1714.101       2285.899       1714.101       2285.899       1.8695098e+08  0.25           5515400        1.3854653      3813.77        15255.011      5.0287323    
  19031800   81715.384      219.15367     -15714092       2.3261723      243334.46     -15470758       571.79794      571.79794      571.79794      1714.101       2285.899       1714.101       2285.899       1714.101       2285.899       1.8695098e+08  0.25           5515450        1.397954       4003.5991      16014.408      5.0146856    
  19032000   81919.193      227.6135      -15712824       2.3261723      243941.37     -15468883       571.79794      571.79794      571.79794      1714.101       2285.899       1714.101       2285.899       1714.101       2285.899       1.8695098e+08  0.25           5515500        1.4106974      3923.6111      15694.522      5.0015697    
  19032200   82000.222      233.40619     -15709660       2.3261723      244182.66     -15465478       571.79794      571.79794      571.79794      1714.101       2285.899       1714.101       2285.899       1714.101       2285.899       1.8695098e+08  0.25           5515550        1.4239174      3782.1365      15128.48       4.9901315    
  19032400   82285.724      239.4336      -15707643       2.3261723      245032.83     -15462610       571.79794      571.79794      571.79794      1714.101       2285.899       1714.101       2285.899       1714.101       2285.899       1.8695098e+08  0.25           5515600        1.4366712      3920.4146      15681.691      4.9770455    
  19032600   82991.326      247.04096     -15705706       2.3261723      247134        -15458572       571.79794      571.79794      571.79794      1714.101       2285.899       1714.101       2285.899       1714.101       2285.899       1.8695098e+08  0.25           5515650        1.4496698      3846.577       15386.346      4.9648041    
  19032800   84128.494      254.90679     -15704515       2.3261723      250520.29     -15453995       571.79794      571.79794      571.79794      1714.101       2285.899       1714.101       2285.899       1714.101       2285.899       1.8695098e+08  0.25           5515700        1.4624785      3903.5828      15614.247      4.9519072    
  19033000   85497.03       261.31686     -15703324       2.3261723      254595.56     -15448729       571.79794      571.79794      571.79794      1714.101       2285.899       1714.101       2285.899       1714.101       2285.899       1.8695098e+08  0.25           5515750        1.4755491      3825.3744      15301.557      4.9398876    
  19033200   86811.078      267.80563     -15701812       2.3261723      258508.57     -15443304       571.79794      571.79794      571.79794      1714.101       2285.899       1714.101       2285.899       1714.101       2285.899       1.8695098e+08  0.25           5515800        1.4881568      3965.848       15863.435      4.9263178    
  19033400   87781.508      274.09591     -15699926       2.3261723      261398.34     -15438528       571.79794      571.79794      571.79794      1714.101       2285.899       1714.101       2285.899       1714.101       2285.899       1.8695098e+08  0.25           5515850        1.5012149      3829.0477      15316.125      4.9142389    
  19033600   88302.72       280.07969     -15698779       2.3261723      262950.42     -15435828       571.79794      571.79794      571.79794      1714.101       2285.899       1714.101       2285.899       1714.101       2285.899       1.8695098e+08  0.25           5515900        1.5137203      3998.2667      15989.227      4.900364     
  19033800   88485.017      284.13372     -15701444       2.3261723      263493.27     -15437951       571.79794      571.79794      571.79794      1714.101       2285.899       1714.101       2285.899       1714.101       2285.899       1.8695098e+08  0.25           5515950        1.527017       3760.3196      15044.725      4.8890263    
  19034000   88593.198      289.51838     -15707359       2.3261723      263815.42     -15443543       571.79794      571.79794      571.79794      1714.101       2285.899       1714.101       2285.899       1714.101       2285.899       1.8695098e+08  0.25           5516000        1.5399808      3856.8766      15427.45       4.8766116    
  19034200   88940.893      295.9077      -15717469       2.3261723      264850.79     -15452619       571.79794      571.79794      571.79794      1714.101       2285.899       1714.101       2285.899       1714.101       2285.899       1.8695098e+08  0.25           5516050        1.5529276      3861.9758      15447.966      4.8641339    
  19034400   89717.124      300.23724     -15716450       2.3261723      267162.28     -15449288       571.79794      571.79794      571.79794      1714.101       2285.899       1714.101       2285.899       1714.101       2285.899       1.8695098e+08  0.25           5516100        1.5654317      3998.6849      15994.687      4.8502775    
  19034600   90901.258      301.84601     -15727775       2.3261723      270688.42     -15457087       571.79794      571.79794      571.79794      1714.101       2285.899       1714.101       2285.899       1714.101       2285.899       1.8695098e+08  0.25           5516150        1.5782331      3905.8387      15623.399      4.8373537    
  19034800   92273.983      306.73055     -15727945       2.3261723      274776.16     -15453169       571.79794      571.79794      571.79794      1714.101       2285.899       1714.101       2285.899       1714.101       2285.899       1.8695098e+08  0.25           5516200        1.5906377      4030.7797      16123.182      4.8232287    
  19035000   93521.385      317.27111     -15723165       2.3261723      278490.72     -15444674       571.79794      571.79794      571.79794      1714.101       2285.899       1714.101       2285.899       1714.101       2285.899       1.8695098e+08  0.25           5516250        1.6035252      3879.6935      15518.72       4.8105809    
  19035200   94420.561      324.42219     -15728481       2.3261723      281168.31     -15447313       571.79794      571.79794      571.79794      1714.101       2285.899       1714.101       2285.899       1714.101       2285.899       1.8695098e+08  0.25           5516300        1.6165868      3828.0475      15312.159      4.7984451    
  19035400   94891.269      330.35404     -15724184       2.3261723      282570        -15441614       571.79794      571.79794      571.79794      1714.101       2285.899       1714.101       2285.899       1714.101       2285.899       1.8695098e+08  0.25           5516350        1.6296594      3824.7725      15299.043      4.7863277    
  19035600   95045.902      332.99473     -15715119       2.3261723      283030.47     -15432088       571.79794      571.79794      571.79794      1714.101       2285.899       1714.101       2285.899       1714.101       2285.899       1.8695098e+08  0.25           5516400        1.6426577      3846.6625      15386.689      4.7739789    
  19035800   95177.326      334.93578     -15724628       2.3261723      283421.83     -15441206       571.79794      571.79794      571.79794      1714.101       2285.899       1714.101       2285.899       1714.101       2285.899       1.8695098e+08  0.25           5516450        1.6552837      3960.0792      15840.248      4.7605498    
  19036000   95577.872      343.30841     -15721477       2.3261723      284614.58     -15436863       571.79794      571.79794      571.79794      1714.101       2285.899       1714.101       2285.899       1714.101       2285.899       1.8695098e+08  0.25           5516500        1.6681161      3896.3836      15585.641      4.74772      
  19036200   96419.235      353.90603     -15717970       2.3261723      287120.02     -15430850       571.79794      571.79794      571.79794      1714.101       2285.899       1714.101       2285.899       1714.101       2285.899       1.8695098e+08  0.25           5516550        1.6812651      3802.5685      15210.202      4.7357823    
  19036400   97649.997      357.18573     -15716362       2.3261723      290785.02     -15425577       571.79794      571.79794      571.79794      1714.101       2285.899       1714.101       2285.899       1714.101       2285.899       1.8695098e+08  0.25           5516600        1.6936663      4031.8822      16127.543      4.7217411    
  19036600   99025.381      357.72713     -15717744       2.3261723      294880.67     -15422863       571.79794      571.79794      571.79794      1714.101       2285.899       1714.101       2285.899       1714.101       2285.899       1.8695098e+08  0.25           5516650        1.7067643      3817.3569      15269.445      4.7096479    
  19036800   100244.08      364.56076     -15717292       2.3261723      298509.75     -15418782       571.79794      571.79794      571.79794      1714.101       2285.899       1714.101       2285.899       1714.101       2285.899       1.8695098e+08  0.25           5516700        1.7194998      3926.0557      15704.261      4.6965487    
  19037000   101075.49      372.31677     -15715688       2.3261723      300985.54     -15414703       571.79794      571.79794      571.79794      1714.101       2285.899       1714.101       2285.899       1714.101       2285.899       1.8695098e+08  0.25           5516750        1.7327203      3781.9855      15124.991      4.684774     
  19037200   101482.94      378.54762     -15710299       2.3261723      302198.86     -15408100       571.79794      571.79794      571.79794      1714.101       2285.899       1714.101       2285.899       1714.101       2285.899       1.8695098e+08  0.25           5516800        1.7452571      3988.2678      15956.276      4.6711343    
  19037400   101611.1       384.164       -15708259       2.3261723      302580.51     -15405679       571.79794      571.79794      571.79794      1714.101       2285.899       1714.101       2285.899       1714.101       2285.899       1.8695098e+08  0.25           5516850        1.7578619      3966.7551      15867.166      4.6576966    
  19037600   101759         390.36081     -15714026       2.3261723      303020.94     -15411005       571.79794      571.79794      571.79794      1714.101       2285.899       1714.101       2285.899       1714.101       2285.899       1.8695098e+08  0.25           5516900        1.7704057      3986.0259      15944.052      4.644112     
  19037800   102215.43      395.5137      -15713150       2.3261723      304380.1      -15408770       571.79794      571.79794      571.79794      1714.101       2285.899       1714.101       2285.899       1714.101       2285.899       1.8695098e+08  0.25           5516950        1.7832498      3892.821       15571.285      4.6313223    
  19038000   103125.26      400.2396      -15713803       2.3261723      307089.42     -15406714       571.79794      571.79794      571.79794      1714.101       2285.899       1714.101       2285.899       1714.101       2285.899       1.8695098e+08  0.25           5517000        1.7961871      3864.8         15459.101      4.6187715    
  19038200   104411.65      401.19907     -15715173       2.3261723      310920.07     -15404253       571.79794      571.79794      571.79794      1714.101       2285.899       1714.101       2285.899       1714.101       2285.899       1.8695098e+08  0.25           5517050        1.8088         3964.1734      15856.759      4.6053891    
  19038400   105803.7       409.98381     -15717327       2.3261723      315065.36     -15402261       571.79794      571.79794      571.79794      1714.101       2285.899       1714.101       2285.899       1714.101       2285.899       1.8695098e+08  0.25           5517100        1.8219579      3800.0262      15200.108      4.593391     
  19038600   106981.55      419.88361     -15717932       2.3261723      318572.78     -15399359       571.79794      571.79794      571.79794      1714.101       2285.899       1714.101       2285.899       1714.101       2285.899       1.8695098e+08  0.25           5517150        1.8346826      3929.3704      15717.379      4.5802962    
  19038800   107751.95      426.85508     -15715911       2.3261723      320866.91     -15395045       571.79794      571.79794      571.79794      1714.101       2285.899       1714.101       2285.899       1714.101       2285.899       1.8695098e+08  0.25           5517200        1.847391       3934.3969      15737.708      4.5671653    
  19039000   108082.24      429.29298     -15715742       2.3261723      321850.44     -15393891       571.79794      571.79794      571.79794      1714.101       2285.899       1714.101       2285.899       1714.101       2285.899       1.8695098e+08  0.25           5517250        1.8602217      3896.9138      15587.637      4.5543401    
  19039200   108179.07      434.03563     -15714392       2.3261723      322138.79     -15392254       571.79794      571.79794      571.79794      1714.101       2285.899       1714.101       2285.899       1714.101       2285.899       1.8695098e+08  0.25           5517300        1.8729023      3943.0224      15772.046      4.5411509    
  19039400   108351.14      436.60979     -15718345       2.3261723      322651.18     -15395694       571.79794      571.79794      571.79794      1714.101       2285.899       1714.101       2285.899       1714.101       2285.899       1.8695098e+08  0.25           5517350        1.8857297      3897.9136      15591.559      4.5283212    
  19039600   108891.74      442.43971     -15715075       2.3261723      324261.01     -15390814       571.79794      571.79794      571.79794      1714.101       2285.899       1714.101       2285.899       1714.101       2285.899       1.8695098e+08  0.25           5517400        1.8981525      4024.8484      16099.521      4.514529     
  19039800   109925.2       451.24168     -15713692       2.3261723      327338.47     -15386353       571.79794      571.79794      571.79794      1714.101       2285.899       1714.101       2285.899       1714.101       2285.899       1.8695098e+08  0.25           5517450        1.9109963      3892.9483      15571.81       4.5017469    
  19040000   111300.22      460.39959     -15714176       2.3261723      331433.05     -15382743       571.79794      571.79794      571.79794      1714.101       2285.899       1714.101       2285.899       1714.101       2285.899       1.8695098e+08  0.25           5517500        1.9240336      3835.134       15340.526      4.4894159    
  19040200   112691.29      465.07705     -15711986       2.3261723      335575.42     -15376411       571.79794      571.79794      571.79794      1714.101       2285.899       1714.101       2285.899       1714.101       2285.899       1.8695098e+08  0.25           5517550        1.9369023      3885.3921      15541.547      4.4766855    
  19040400   113782.72      470.27732     -15710135       2.3261723      338825.51     -15371310       571.79794      571.79794      571.79794      1714.101       2285.899       1714.101       2285.899       1714.101       2285.899       1.8695098e+08  0.25           5517600        1.9497975      3877.4133      15509.665      4.464014     
  19040600   114433.1       475.97011     -15709358       2.3261723      340762.23     -15368596       571.79794      571.79794      571.79794      1714.101       2285.899       1714.101       2285.899       1714.101       2285.899       1.8695098e+08  0.25           5517650        1.9629213      3809.8739      15239.48       4.4518582    
  19040800   114710.56      484.86184     -15702197       2.3261723      341588.45     -15360609       571.79794      571.79794      571.79794      1714.101       2285.899       1714.101       2285.899       1714.101       2285.899       1.8695098e+08  0.25           5517700        1.9754795      3981.4518      15925.804      4.4384191    
  19041000   114833.28      492.60212     -15701400       2.3261723      341953.9      -15359446       571.79794      571.79794      571.79794      1714.101       2285.899       1714.101       2285.899       1714.101       2285.899       1.8695098e+08  0.25           5517750        1.9881199      3955.5826      15822.342      4.4251742    
  19041200   115176.01      499.76585     -15695272       2.3261723      342974.5      -15352298       571.79794      571.79794      571.79794      1714.101       2285.899       1714.101       2285.899       1714.101       2285.899       1.8695098e+08  0.25           5517800        2.0007694      3952.7213      15810.93       4.4119568    
  19041400   116080.21      505.14699     -15694016       2.3261723      345667.03     -15348349       571.79794      571.79794      571.79794      1714.101       2285.899       1714.101       2285.899       1714.101       2285.899       1.8695098e+08  0.25           5517850        2.0133912      3961.3844      15845.491      4.3986867    
  19041600   117673.98      512.06758     -15694991       2.3261723      350413.03     -15344578       571.79794      571.79794      571.79794      1714.101       2285.899       1714.101       2285.899       1714.101       2285.899       1.8695098e+08  0.25           5517900        2.0265901      3788.2269      15152.988      4.3866731    
  19041800   119580.19      521.54597     -15702538       2.3261723      356089.4      -15346449       571.79794      571.79794      571.79794      1714.101       2285.899       1714.101       2285.899       1714.101       2285.899       1.8695098e+08  0.25           5517950        2.0398777      3762.8892      15051.471      4.3748358    
  19042000   121048.37      529.47814     -15701909       2.3261723      360461.39     -15341448       571.79794      571.79794      571.79794      1714.101       2285.899       1714.101       2285.899       1714.101       2285.899       1.8695098e+08  0.25           5518000        2.0522491      4041.5876      16166.418      4.3610329    
  19042200   121697.12      537.13082     -15699783       2.3261723      362393.25     -15337390       571.79794      571.79794      571.79794      1714.101       2285.899       1714.101       2285.899       1714.101       2285.899       1.8695098e+08  0.25           5518050        2.0650505      3905.8179      15623.272      4.3481534    
  19042400   121576.44      542.47195     -15697997       2.3261723      362033.88     -15335963       571.79794      571.79794      571.79794      1714.101       2285.899       1714.101       2285.899       1714.101       2285.899       1.8695098e+08  0.25           5518100        2.0777149      3948.0712      15792.158      4.3349893    
  19042600   120842.1       546.09682     -15697702       2.3261723      359847.14     -15337855       571.79794      571.79794      571.79794      1714.101       2285.899       1714.101       2285.899       1714.101       2285.899       1.8695098e+08  0.25           5518150        2.0903862      3945.9363      15783.898      4.3218448    
  19042800   119850.21      553.97735     -15698501       2.3261723      356893.46     -15341608       571.79794      571.79794      571.79794      1714.101       2285.899       1714.101       2285.899       1714.101       2285.899       1.8695098e+08  0.25           5518200        2.1031853      3906.5106      15625.98       4.3089686    
  19043000   119581.72      562.52707     -15688951       2.3261723      356093.95     -15332857       571.79794      571.79794      571.79794      1714.101       2285.899       1714.101       2285.899       1714.101       2285.899       1.8695098e+08  0.25           5518250        2.1166188      3722.0426      14888.147      4.2973812    
  19043200   120941.4       573.43071     -15685227       2.3261723      360142.85     -15325085       571.79794      571.79794      571.79794      1714.101       2285.899       1714.101       2285.899       1714.101       2285.899       1.8695098e+08  0.25           5518300        2.1293028      3941.9838      15767.972      4.2842633    
  19043400   123671.48      585.46731     -15682265       2.3261723      368272.54     -15313993       571.79794      571.79794      571.79794      1714.101       2285.899       1714.101       2285.899       1714.101       2285.899       1.8695098e+08  0.25           5518350        2.1422471      3862.6981      15450.821      4.2716697    
  19043600   126076.96      591.63402     -15685842       2.3261723      375435.64     -15310406       571.79794      571.79794      571.79794      1714.101       2285.899       1714.101       2285.899       1714.101       2285.899       1.8695098e+08  0.25           5518400        2.1550564      3903.4118      15613.535      4.2588055    
  19043800   127184.29      599.87426     -15675758       2.3261723      378733.09     -15297025       571.79794      571.79794      571.79794      1714.101       2285.899       1714.101       2285.899       1714.101       2285.899       1.8695098e+08  0.25           5518450        2.1678089      3920.7885      15683.169      4.2458306    
  19044000   127185.25      605.79026     -15672305       2.3261723      378735.95     -15293569       571.79794      571.79794      571.79794      1714.101       2285.899       1714.101       2285.899       1714.101       2285.899       1.8695098e+08  0.25           5518500        2.1804459      3956.6444      15826.659      4.2326336    
  19044200   126633.22      613.32531     -15678557       2.3261723      377092.12     -15301465       571.79794      571.79794      571.79794      1714.101       2285.899       1714.101       2285.899       1714.101       2285.899       1.8695098e+08  0.25           5518550        2.1936352      3790.9374      15163.735      4.2205063    
  19044400   126165.46      620.74565     -15674367       2.3261723      375699.2      -15298667       571.79794      571.79794      571.79794      1714.101       2285.899       1714.101       2285.899       1714.101       2285.899       1.8695098e+08  0.25           5518600        2.2067273      3819.1157      15276.474      4.208181     
  19044600   126882.13      630.26812     -15672447       2.3261723      377833.32     -15294614       571.79794      571.79794      571.79794      1714.101       2285.899       1714.101       2285.899       1714.101       2285.899       1.8695098e+08  0.25           5518650        2.219498       3915.2152      15660.823      4.1952394    
  19044800   130045.17      636.26227     -15671661       2.3261723      387252.3      -15284409       571.79794      571.79794      571.79794      1714.101       2285.899       1714.101       2285.899       1714.101       2285.899       1.8695098e+08  0.25           5518700        2.2325842      3820.8052      15283.253      4.1828909    
  19045000   133419.39      649.21868     -15669682       2.3261723      397300.16     -15272382       571.79794      571.79794      571.79794      1714.101       2285.899       1714.101       2285.899       1714.101       2285.899       1.8695098e+08  0.25           5518750        2.2455192      3865.4798      15461.856      4.1702534    
  19045200   134396.54      655.94661     -15666139       2.3261723      400209.94     -15265929       571.79794      571.79794      571.79794      1714.101       2285.899       1714.101       2285.899       1714.101       2285.899       1.8695098e+08  0.25           5518800        2.2578409      4057.8991      16231.671      4.1564829    
  19045400   133288.53      664.60375     -15659600       2.3261723      396910.48     -15262690       571.79794      571.79794      571.79794      1714.101       2285.899       1714.101       2285.899       1714.101       2285.899       1.8695098e+08  0.25           5518850        2.2707181      3882.8103      15531.161      4.1437432    
  19045600   131008.53      674.48898     -15656877       2.3261723      390121.02     -15266756       571.79794      571.79794      571.79794      1714.101       2285.899       1714.101       2285.899       1714.101       2285.899       1.8695098e+08  0.25           5518900        2.2832466      3990.9055      15963.696      4.1303708    
  19045800   128648.34      679.89924     -15655267       2.3261723      383092.78     -15272174       571.79794      571.79794      571.79794      1714.101       2285.899       1714.101       2285.899       1714.101       2285.899       1.8695098e+08  0.25           5518950        2.2962417      3847.6222      15390.514      4.1178443    
  19046000   127538.77      682.46696     -15654036       2.3261723      379788.68     -15274247       571.79794      571.79794      571.79794      1714.101       2285.899       1714.101       2285.899       1714.101       2285.899       1.8695098e+08  0.25           5519000        2.3087889      3984.9319      15939.625      4.1045169    
  19046200   130154.52      694.26423     -15652063       2.3261723      387577.93     -15264485       571.79794      571.79794      571.79794      1714.101       2285.899       1714.101       2285.899       1714.101       2285.899       1.8695098e+08  0.25           5519050        2.3219638      3795.1041      15180.525      4.0923038    
  19046400   135685.95      706.68395     -15650793       2.3261723      404049.59     -15246743       571.79794      571.79794      571.79794      1714.101       2285.899       1714.101       2285.899       1714.101       2285.899       1.8695098e+08  0.25           5519100        2.3351165      3801.4835      15205.822      4.0800421    
  19046600   138007.03      719.96243     -15650289       2.3261723      410961.36     -15239327       571.79794      571.79794      571.79794      1714.101       2285.899       1714.101       2285.899       1714.101       2285.899       1.8695098e+08  0.25           5519150        2.3481036      3849.9935      15399.981      4.0674831    
  19046800   138162.43      727.98904     -15647842       2.3261723      411424.12     -15236418       571.79794      571.79794      571.79794      1714.101       2285.899       1714.101       2285.899       1714.101       2285.899       1.8695098e+08  0.25           5519200        2.3605481      4017.8457      16071.408      4.0539878    
  19047000   137355.09      735.30742     -15654076       2.3261723      409019.99     -15245056       571.79794      571.79794      571.79794      1714.101       2285.899       1714.101       2285.899       1714.101       2285.899       1.8695098e+08  0.25           5519250        2.3735792      3836.9673      15347.934      4.0415027    
  19047200   136377.66      744.84132     -15659346       2.3261723      406109.38     -15253236       571.79794      571.79794      571.79794      1714.101       2285.899       1714.101       2285.899       1714.101       2285.899       1.8695098e+08  0.25           5519300        2.3860265      4016.9344      16067.756      4.0280261    
  19047400   136105.25      751.35127     -15665332       2.3261723      405298.21     -15260034       571.79794      571.79794      571.79794      1714.101       2285.899       1714.101       2285.899       1714.101       2285.899       1.8695098e+08  0.25           5519350        2.3992034      3794.5178      15178.027      4.0157819    
  19047600   137595.5       761.93707     -15665844       2.3261723      409735.9      -15256108       571.79794      571.79794      571.79794      1714.101       2285.899       1714.101       2285.899       1714.101       2285.899       1.8695098e+08  0.25           5519400        2.4116798      4007.574       16030.362      4.002365     
  19047800   141150.34      772.88089     -15662165       2.3261723      420321.6      -15241843       571.79794      571.79794      571.79794      1714.101       2285.899       1714.101       2285.899       1714.101       2285.899       1.8695098e+08  0.25           5519450        2.4250282      3745.7504      14982.959      3.9903933    
  19048000   144184.1       781.66576     -15659206       2.3261723      429355.62     -15229850       571.79794      571.79794      571.79794      1714.101       2285.899       1714.101       2285.899       1714.101       2285.899       1.8695098e+08  0.25           5519500        2.4379638      3865.3232      15461.234      3.9777333    
  19048200   144783.77      788.42296     -15673542       2.3261723      431141.34     -15242401       571.79794      571.79794      571.79794      1714.101       2285.899       1714.101       2285.899       1714.101       2285.899       1.8695098e+08  0.25           5519550        2.4508181      3889.7565      15559.1        3.9649388    
  19048400   143639.24      796.32736     -15667439       2.3261723      427733.12     -15239706       571.79794      571.79794      571.79794      1714.101       2285.899       1714.101       2285.899       1714.101       2285.899       1.8695098e+08  0.25           5519600        2.4639992      3793.2934      15173.148      3.9526682    
  19048600   141912.81      802.76238     -15658111       2.3261723      422592.11     -15235519       571.79794      571.79794      571.79794      1714.101       2285.899       1714.101       2285.899       1714.101       2285.899       1.8695098e+08  0.25           5519650        2.4768708      3884.4866      15537.756      3.9398965    
  19048800   140669.11      812.8625      -15657288       2.3261723      418888.59     -15238399       571.79794      571.79794      571.79794      1714.101       2285.899       1714.101       2285.899       1714.101       2285.899       1.8695098e+08  0.25           5519700        2.4898589      3849.7175      15399.049      3.927306     
  19049000   141239.62      826.08924     -15648303       2.3261723      420587.46     -15227716       571.79794      571.79794      571.79794      1714.101       2285.899       1714.101       2285.899       1714.101       2285.899       1.8695098e+08  0.25           5519750        2.5026696      3902.9813      15611.964      3.9144346    
  19049200   147021.88      832.36184     -15647755       2.3261723      437806.05     -15209949       571.79794      571.79794      571.79794      1714.101       2285.899       1714.101       2285.899       1714.101       2285.899       1.8695098e+08  0.25           5519800        2.5156768      3844.0266      15376.11       3.9018687    
  19049400   151744.21      847.84866     -15649053       2.3261723      451868.33     -15197185       571.79794      571.79794      571.79794      1714.101       2285.899       1714.101       2285.899       1714.101       2285.899       1.8695098e+08  0.25           5519850        2.5288217      3803.7716      15215.037      3.8895102    
  19049600   151513.96      853.74762     -15646526       2.3261723      451182.71     -15195343       571.79794      571.79794      571.79794      1714.101       2285.899       1714.101       2285.899       1714.101       2285.899       1.8695098e+08  0.25           5519900        2.5418304      3843.5769      15374.296      3.8769359    
  19049800   148924.63      864.84299     -15640596       2.3261723      443472.11     -15197124       571.79794      571.79794      571.79794      1714.101       2285.899       1714.101       2285.899       1714.101       2285.899       1.8695098e+08  0.25           5519950        2.5544868      3950.5605      15802.217      3.8638245    
  19050000   145705.87      873.73867     -15639582       2.3261723      433887.21     -15205695       571.79794      571.79794      571.79794      1714.101       2285.899       1714.101       2285.899       1714.101       2285.899       1.8695098e+08  0.25           5520000        2.5698599      3252.4344      13009.737      3.8547927    
  19050200   143629         885.42235     -15638964       2.3261723      427702.62     -15211262       571.79794      571.79794      571.79794      1714.101       2285.899       1714.101       2285.899       1714.101       2285.899       1.8695098e+08  0.25           5520050        2.5828806      3840.0296      15360.154      3.8421982    
  19050400   144099.85      893.55119     -15636102       2.3261723      429104.74     -15206997       571.79794      571.79794      571.79794      1714.101       2285.899       1714.101       2285.899       1714.101       2285.899       1.8695098e+08  0.25           5520100        2.595737       3889.1293      15556.502      3.8293572    
  19050600   148170.53      907.11266     -15634350       2.3261723      441226.55     -15193124       571.79794      571.79794      571.79794      1714.101       2285.899       1714.101       2285.899       1714.101       2285.899       1.8695098e+08  0.25           5520150        2.6088646      3808.7568      15234.99       3.8169131    
  19050800   152394.06      912.72816     -15630312       2.3261723      453803.49     -15176508       571.79794      571.79794      571.79794      1714.101       2285.899       1714.101       2285.899       1714.101       2285.899       1.8695098e+08  0.25           5520200        2.6218433      3852.4695      15409.913      3.8042459    
  19051000   153363.23      926.40375     -15624398       2.3261723      456689.51     -15167709       571.79794      571.79794      571.79794      1714.101       2285.899       1714.101       2285.899       1714.101       2285.899       1.8695098e+08  0.25           5520250        2.6350415      3788.4011      15153.688      3.7918915    
  19051200   152910.46      933.09078     -15620737       2.3261723      455341.23     -15165396       571.79794      571.79794      571.79794      1714.101       2285.899       1714.101       2285.899       1714.101       2285.899       1.8695098e+08  0.25           5520300        2.6473195      4072.3232      16289.232      3.7782158    
  19051400   152251.7       945.64841     -15618593       2.3261723      453379.55     -15165213       571.79794      571.79794      571.79794      1714.101       2285.899       1714.101       2285.899       1714.101       2285.899       1.8695098e+08  0.25           5520350        2.6597775      4013.5046      16054.028      3.7648083    
  19051600   152167.21      956.57269     -15616473       2.3261723      453127.98     -15163345       571.79794      571.79794      571.79794      1714.101       2285.899       1714.101       2285.899       1714.101       2285.899       1.8695098e+08  0.25           5520400        2.6730795      3758.809       15035.267      3.7525948    
  19051800   153408.08      966.36357     -15616650       2.3261723      456823.08     -15159827       571.79794      571.79794      571.79794      1714.101       2285.899       1714.101       2285.899       1714.101       2285.899       1.8695098e+08  0.25           5520450        2.6854876      4029.6492      16118.577      3.7391261    
  19052000   156523.77      978.42823     -15616166       2.3261723      466101.06     -15150065       571.79794      571.79794      571.79794      1714.101       2285.899       1714.101       2285.899       1714.101       2285.899       1.8695098e+08  0.25           5520500        2.6984834      3847.3939      15389.578      3.7264794    
  19052200   160281.11      994.21468     -15615602       2.3261723      477289.78     -15138312       571.79794      571.79794      571.79794      1714.101       2285.899       1714.101       2285.899       1714.101       2285.899       1.8695098e+08  0.25           5520550        2.7107935      4061.7031      16246.831      3.7128901    
  19052400   161991.24      1005.4318     -15611251       2.3261723      482382.24     -15128869       571.79794      571.79794      571.79794      1714.101       2285.899       1714.101       2285.899       1714.101       2285.899       1.8695098e+08  0.25           5520600        2.7235342      3924.4287      15697.677      3.6998978    
  19052600   161097.12      1014.5127     -15604280       2.3261723      479719.73     -15124561       571.79794      571.79794      571.79794      1714.101       2285.899       1714.101       2285.899       1714.101       2285.899       1.8695098e+08  0.25           5520650        2.7369013      3740.5173      14962.065      3.6877521    
  19052800   158489.57      1019.456      -15602242       2.3261723      471954.89     -15130287       571.79794      571.79794      571.79794      1714.101       2285.899       1714.101       2285.899       1714.101       2285.899       1.8695098e+08  0.25           5520700        2.7492584      4046.2611      16185.105      3.6742449    
  19053000   154841.27      1025.359      -15596838       2.3261723      461090.86     -15135747       571.79794      571.79794      571.79794      1714.101       2285.899       1714.101       2285.899       1714.101       2285.899       1.8695098e+08  0.25           5520750        2.7621098      3890.6231      15562.473      3.6614037    
  19053200   149318.56      1028.4168     -15593439       2.3261723      444645.18     -15148794       571.79794      571.79794      571.79794      1714.101       2285.899       1714.101       2285.899       1714.101       2285.899       1.8695098e+08  0.25           5520800        2.7747089      3968.5431      15874.128      3.6482307    
  19053400   144829.49      1035.957      -15591283       2.3261723      431277.49     -15160005       571.79794      571.79794      571.79794      1714.101       2285.899       1714.101       2285.899       1714.101       2285.899       1.8695098e+08  0.25           5520850        2.7872079      4000.321       16001.351      3.6349323    
  19053600   146993.47      1044.0619     -15596994       2.3261723      437721.45     -15159273       571.79794      571.79794      571.79794      1714.101       2285.899       1714.101       2285.899       1714.101       2285.899       1.8695098e+08  0.25           5520900        2.7999691      3918.1311      15672.436      3.6219807    
  19053800   153887.93      1056.2002     -15595672       2.3261723      458251.99     -15137420       571.79794      571.79794      571.79794      1714.101       2285.899       1714.101       2285.899       1714.101       2285.899       1.8695098e+08  0.25           5520950        2.8126632      3938.8563      15755.499      3.6089444    
  19054000   158253.84      1070.1988     -15591746       2.3261723      471252.91     -15120493       571.79794      571.79794      571.79794      1714.101       2285.899       1714.101       2285.899       1714.101       2285.899       1.8695098e+08  0.25           5521000        2.8253562      3939.1726      15756.721      3.5959099    
  19054200   162029.19      1081.2117     -15591230       2.3261723      482495.25     -15108735       571.79794      571.79794      571.79794      1714.101       2285.899       1714.101       2285.899       1714.101       2285.899       1.8695098e+08  0.25           5521050        2.8379532      3969.1795      15876.641      3.5827576    
  19054400   165447.22      1090.467      -15589553       2.3261723      492673.57     -15096880       571.79794      571.79794      571.79794      1714.101       2285.899       1714.101       2285.899       1714.101       2285.899       1.8695098e+08  0.25           5521100        2.8503039      4048.3689      16193.527      3.5693016    
  19054600   167820.46      1101.1671     -15589766       2.3261723      499740.68     -15090025       571.79794      571.79794      571.79794      1714.101       2285.899       1714.101       2285.899       1714.101       2285.899       1.8695098e+08  0.25           5521150        2.8632083      3874.6255      15498.377      3.5565436    
  19054800   168803.51      1111.3565     -15589228       2.3261723      502668.04     -15086560       571.79794      571.79794      571.79794      1714.101       2285.899       1714.101       2285.899       1714.101       2285.899       1.8695098e+08  0.25           5521200        2.8758118      3967.1652      15868.729      3.5434131    
[...]
  19999400   296.90999      4.7220914     -15862633       2.355355       884.14726     -15861749       569.4266       569.4266       569.4266       1715.2867      2284.7133      1715.2867      2284.7133      1715.2867      2284.7133      1.8463467e+08  0.25           5757350        22.501748      3394.6659      13578.691      0.82418296   
  19999600   298.04933      1.1435197     -15863029       2.3552711      887.54        -15862141       569.43337      569.43337      569.43337      1715.2833      2284.7167      1715.2833      2284.7167      1715.2833      2284.7167      1.8464125e+08  0.25           5757400        22.517028      3272.2335      13088.938      0.80862262   
  19999800   301.23563     -0.65827096    -15863056       2.355225       897.02826     -15862159       569.43708      569.43708      569.43708      1715.2815      2284.7185      1715.2815      2284.7185      1715.2815      2284.7185      1.8464486e+08  0.25           5757450        22.532228      3289.4447      13157.753      0.79305986   
  20000000   294.76096      4.4387819     -15863082       2.3553428      877.7478      -15862205       569.42759      569.42759      569.42759      1715.2862      2284.7138      1715.2862      2284.7138      1715.2862      2284.7138      1.8463563e+08  0.25           5757500        22.549389      2913.5235      11654.108      0.77756522   
  20000200   318.75374     -4.2395343     -15863109       2.355134       949.19419     -15862160       569.44441      569.44441      569.44441      1715.2778      2284.7222      1715.2778      2284.7222      1715.2778      2284.7222      1.8465199e+08  0.25           5757550        22.564545      3299.0444      13196.144      0.76200057   
  20000400   299.15506      6.6236126     -15863135       2.3553884      890.83268     -15862244       569.42391      569.42391      569.42391      1715.288       2284.712       1715.288       2284.712       1715.288       2284.712       1.8463206e+08  0.25           5757600        22.579781      3281.826       13127.289      0.7464391    
  20000600   298.28398     -1.126419      -15863163       2.3552007      888.23874     -15862275       569.43904      569.43904      569.43904      1715.2805      2284.7195      1715.2805      2284.7195      1715.2805      2284.7195      1.8464677e+08  0.25           5757650        22.595161      3250.9928      13003.964      0.73088276   
  20000800   293.3455      -3.4427901     -15863190       2.3551423      873.53279     -15862316       569.44374      569.44374      569.44374      1715.2781      2284.7219      1715.2781      2284.7219      1715.2781      2284.7219      1.8465135e+08  0.25           5757700        22.610023      3364.2024      13456.816      0.71531029   
  20001000   311.6201       8.4405458     -15863217       2.3554218      927.95145     -15862289       569.42122      569.42122      569.42122      1715.2894      2284.7106      1715.2894      2284.7106      1715.2894      2284.7106      1.8462944e+08  0.25           5757750        22.625027      3332.5413      13330.219      0.69974315   
  20001200   294.65576      6.7355113     -15863245       2.3553799      877.43455     -15862368       569.4246       569.4246       569.4246       1715.2877      2284.7123      1715.2877      2284.7123      1715.2877      2284.7123      1.8463272e+08  0.25           5757800        22.640713      3187.5696      12750.271      0.68419742   
  20001400   306.05116      7.9047306     -15861378       2.3554001      911.3681      -15860467       569.42297      569.42297      569.42297      1715.2885      2284.7115      1715.2885      2284.7115      1715.2885      2284.7115      1.8463114e+08  0.25           5757850        22.655491      3383.3006      13533.219      0.66862471   
  20001600   291.32274      3.3232714     -15861406       2.3552929      867.50938     -15860539       569.43161      569.43161      569.43161      1715.2842      2284.7158      1715.2842      2284.7158      1715.2842      2284.7158      1.8463954e+08  0.25           5757900        22.670824      3261.0508      13044.196      0.65306905   
  20001800   309.7936      -11.012836     -15861433       2.3549553      922.51244     -15860510       569.45882      569.45882      569.45882      1715.2706      2284.7294      1715.2706      2284.7294      1715.2706      2284.7294      1.8466601e+08  0.25           5757950        22.685599      3384.0279      13536.08       0.63749804   
  20002000   295.64436      9.0732204     -15861461       2.3554372      880.37843     -15860580       569.41998      569.41998      569.41998      1715.29        2284.71        1715.29        2284.71        1715.29        2284.71        1.8462823e+08  0.25           5758000        22.700903      3267.0478      13068.191      0.62194261   
  20002200   305.66919      9.8144092     -15861488       2.3554597      910.23064     -15860578       569.41816      569.41816      569.41816      1715.2909      2284.7091      1715.2909      2284.7091      1715.2909      2284.7091      1.8462646e+08  0.25           5758050        22.716175      3273.9712      13095.845      0.60638666   
  20002400   297.69195     -12.505337     -15861514       2.3549331      886.47581     -15860628       569.46061      569.46061      569.46061      1715.2697      2284.7303      1715.2697      2284.7303      1715.2697      2284.7303      1.8466775e+08  0.25           5758100        22.731452      3273.013       13092.115      0.59083121   
  20002600   301.8369      -2.6797908     -15861543       2.3551694      898.81875     -15860645       569.44156      569.44156      569.44156      1715.2792      2284.7208      1715.2792      2284.7208      1715.2792      2284.7208      1.8464922e+08  0.25           5758150        22.746683      3282.7878      13131.169      0.575275     
  20002800   293.42604      13.948914     -15861567       2.3555685      873.77264     -15860693       569.4094       569.4094       569.4094       1715.2953      2284.7047      1715.2953      2284.7047      1715.2953      2284.7047      1.8461794e+08  0.25           5758200        22.761505      3373.2665      13493.037      0.55970919   
  20003000   305.21354      5.015084      -15861596       2.3553563      908.87382     -15860687       569.4265       569.4265       569.4265       1715.2867      2284.7133      1715.2867      2284.7133      1715.2867      2284.7133      1.8463457e+08  0.25           5758250        22.776886      3250.8142      13003.294      0.54415773   
  20003200   294.94397      5.3709147     -15861622       2.355366       878.29277     -15860743       569.42572      569.42572      569.42572      1715.2871      2284.7129      1715.2871      2284.7129      1715.2871      2284.7129      1.8463381e+08  0.25           5758300        22.792137      3278.3994      13113.514      0.5286035    
  20003400   304.44016      3.3099569     -15863542       2.3553247      906.5708      -15862636       569.42904      569.42904      569.42904      1715.2855      2284.7145      1715.2855      2284.7145      1715.2855      2284.7145      1.8463704e+08  0.25           5758350        22.807243      3309.9685      13239.938      0.51304641   
  20003600   296.2047      -4.3748353     -15863568       2.3551415      882.04702     -15862686       569.44381      569.44381      569.44381      1715.2781      2284.7219      1715.2781      2284.7219      1715.2781      2284.7219      1.8465141e+08  0.25           5758400        22.822672      3240.744       12962.941      0.49749697   
  20003800   287.98549     -3.1471665     -15863593       2.3551727      857.57162     -15862735       569.4413       569.4413       569.4413       1715.2794      2284.7206      1715.2794      2284.7206      1715.2794      2284.7206      1.8464897e+08  0.25           5758450        22.838555      3147.9854      12591.944      0.48195729   
  20004000   312.44483     -2.7537871     -15863619       2.3551838      930.40734     -15862688       569.4404       569.4404       569.4404       1715.2798      2284.7202      1715.2798      2284.7202      1715.2798      2284.7202      1.8464809e+08  0.25           5758500        22.854292      3177.0914      12708.376      0.46641417   
  20004200   296.38237     -2.7916521     -15863644       2.3551849      882.5761      -15862762       569.44031      569.44031      569.44031      1715.2798      2284.7202      1715.2798      2284.7202      1715.2798      2284.7202      1.8464801e+08  0.25           5758550        22.869517      3284.0878      13136.342      0.45086068   
  20004400   303.58465     -2.4599606     -15863670       2.3551938      904.02324     -15862766       569.4396       569.4396       569.4396       1715.2802      2284.7198      1715.2802      2284.7198      1715.2802      2284.7198      1.8464731e+08  0.25           5758600        22.885293      3169.323       12677.242      0.43531812   
  20004600   288.83861     -1.3697311     -15863697       2.3552206      860.11205     -15862836       569.43743      569.43743      569.43743      1715.2813      2284.7187      1715.2813      2284.7187      1715.2813      2284.7187      1.8464521e+08  0.25           5758650        22.90061       3264.5514      13058.25       0.41976681   
  20004800   309.04804      0.38221266    -15863723       2.355263       920.2923      -15862803       569.43402      569.43402      569.43402      1715.283       2284.717       1715.283       2284.717       1715.283       2284.717       1.8464189e+08  0.25           5758700        22.916011      3246.4347      12985.756      0.40421733   
  20005000   298.36074      2.4906102     -15863750       2.3553155      888.46733     -15862862       569.42978      569.42978      569.42978      1715.2851      2284.7149      1715.2851      2284.7149      1715.2851      2284.7149      1.8463777e+08  0.25           5758750        22.931556      3216.5515      12866.223      0.38867047   
  20005200   300.23729      4.3129496     -15863776       2.3553626      894.05539     -15862882       569.42599      569.42599      569.42599      1715.287       2284.713       1715.287       2284.713       1715.287       2284.713       1.8463407e+08  0.25           5758800        22.946948      3248.3209      12993.22       0.37312114   
  20005400   296.63711      5.0584747     -15863802       2.3553863      883.33465     -15862919       569.42408      569.42408      569.42408      1715.288       2284.712       1715.288       2284.712       1715.288       2284.712       1.8463222e+08  0.25           5758850        22.96205       3310.8748      13243.559      0.3575675    
  20005600   301.59031      4.116894      -15863829       2.3553712      898.08444     -15862931       569.4253       569.4253       569.4253       1715.2874      2284.7126      1715.2874      2284.7126      1715.2874      2284.7126      1.846334e+08   0.25           5758900        22.977087      3325.2333      13300.919      0.3420135    
  20005800   300.60307      1.6792491     -15863857       2.3553218      895.14461     -15862962       569.42928      569.42928      569.42928      1715.2854      2284.7146      1715.2854      2284.7146      1715.2854      2284.7146      1.8463728e+08  0.25           5758950        22.99241       3263.0075      13052.045      0.32646426   
  20006000   300.37198     -1.0962675     -15863885       2.355264       894.45647     -15862990       569.43394      569.43394      569.43394      1715.283       2284.717       1715.283       2284.717       1715.283       2284.717       1.8464181e+08  0.25           5759000        23.007794      3250.0992      13000.382      0.31091616   
  20006200   296.64271     -3.0407851     -15863913       2.3552248      883.35134     -15863029       569.43709      569.43709      569.43709      1715.2815      2284.7185      1715.2815      2284.7185      1715.2815      2284.7185      1.8464488e+08  0.25           5759050        23.023331      3218.1636      12872.686      0.29537024   
  20006400   302.93802     -3.8314901     -15863941       2.3552105      902.09768     -15863039       569.43824      569.43824      569.43824      1715.2809      2284.7191      1715.2809      2284.7191      1715.2809      2284.7191      1.84646e+08    0.25           5759100        23.038525      3290.6661      13162.651      0.27982017   
  20006600   293.57352     -2.7146967     -15863970       2.3552395      874.21182     -15863095       569.43591      569.43591      569.43591      1715.282       2284.718       1715.282       2284.718       1715.282       2284.718       1.8464373e+08  0.25           5759150        23.053865      3259.4405      13037.743      0.26427225   
  20006800   305.88359      2.2835657     -15863998       2.3553588      910.86911     -15863087       569.4263       569.4263       569.4263       1715.2869      2284.7131      1715.2869      2284.7131      1715.2869      2284.7131      1.8463438e+08  0.25           5759200        23.068667      3378.0764      13512.368      0.2487188    
  20007000   291.31941      9.988306      -15864025       2.3555419      867.49947     -15863158       569.41154      569.41154      569.41154      1715.2942      2284.7058      1715.2942      2284.7058      1715.2942      2284.7058      1.8462002e+08  0.25           5759250        23.083807      3302.4196      13209.645      0.23316979   
  20007200   306.14819      9.3815046     -15864053       2.3555259      911.65704     -15863141       569.41283      569.41283      569.41283      1715.2936      2284.7064      1715.2936      2284.7064      1715.2936      2284.7064      1.8462128e+08  0.25           5759300        23.098693      3358.8013      13435.25       0.21761893   
  20007400   288.0217      -5.1197352     -15864081       2.355181       857.67943     -15863223       569.44063      569.44063      569.44063      1715.2797      2284.7203      1715.2797      2284.7203      1715.2797      2284.7203      1.8464832e+08  0.25           5759350        23.113336      3414.7268      13658.858      0.20206684   
  20007600   306.8795      -10.287488     -15864106       2.3550614      913.83473     -15863193       569.45027      569.45027      569.45027      1715.2749      2284.7251      1715.2749      2284.7251      1715.2749      2284.7251      1.8465769e+08  0.25           5759400        23.12836       3327.8683      13311.485      0.18651905   
  20007800   291.43359      5.9938868     -15864135       2.3554569      867.83947     -15863267       569.41839      569.41839      569.41839      1715.2908      2284.7092      1715.2908      2284.7092      1715.2908      2284.7092      1.8462668e+08  0.25           5759450        23.143444      3314.8135      13259.243      0.1709724    
  20008000   303.6967       12.419456     -15864160       2.3556202      904.35692     -15863256       569.40523      569.40523      569.40523      1715.2974      2284.7026      1715.2974      2284.7026      1715.2974      2284.7026      1.8461389e+08  0.25           5759500        23.158199      3388.8001      13555.243      0.15542417   
  20008200   291.29107      2.2921934     -15864188       2.3553913      867.41507     -15863321       569.42368      569.42368      569.42368      1715.2882      2284.7118      1715.2882      2284.7118      1715.2882      2284.7118      1.8463183e+08  0.25           5759550        23.173934      3177.5067      12709.994      0.13988292   
  20008400   319.42458     -2.2343757     -15864583       2.3553023      951.19186     -15863632       569.43085      569.43085      569.43085      1715.2846      2284.7154      1715.2846      2284.7154      1715.2846      2284.7154      1.846388e+08   0.25           5759600        23.189108      3295.1168      13180.456      0.12433839   
  20008600   304.77212     -9.3548397     -15864610       2.3551484      907.55932     -15863702       569.44325      569.44325      569.44325      1715.2784      2284.7216      1715.2784      2284.7216      1715.2784      2284.7216      1.8465087e+08  0.25           5759650        23.204453      3258.3579      13033.442      0.10879517   
  20008800   296.65771      4.6279134     -15864638       2.355497       883.39601     -15863755       569.41516      569.41516      569.41516      1715.2924      2284.7076      1715.2924      2284.7076      1715.2924      2284.7076      1.8462354e+08  0.25           5759700        23.219219      3386.3782      13545.536      0.093249881  
  20009000   302.48431      9.6684723     -15864665       2.3556323      900.74662     -15863764       569.40425      569.40425      569.40425      1715.2979      2284.7021      1715.2979      2284.7021      1715.2979      2284.7021      1.8461293e+08  0.25           5759750        23.234303      3314.7335      13258.914      0.077706704  
  20009200   292.97254     -4.5485831     -15864692       2.3553089      872.42219     -15863820       569.43032      569.43032      569.43032      1715.2848      2284.7152      1715.2848      2284.7152      1715.2848      2284.7152      1.8463829e+08  0.25           5759800        23.249675      3252.605       13010.384      0.062164912  
  20009400   319.45429     -5.3442068     -15864720       2.355305       951.28032     -15863768       569.43064      569.43064      569.43064      1715.2847      2284.7153      1715.2847      2284.7153      1715.2847      2284.7153      1.846386e+08   0.25           5759850        23.264779      3310.3088      13241.276      0.046622808  
  20009600   297.98568      8.6345672     -15864747       2.3556532      887.35048     -15863859       569.40258      569.40258      569.40258      1715.2987      2284.7013      1715.2987      2284.7013      1715.2987      2284.7013      1.846113e+08   0.25           5759900        23.279523      3391.2873      13565.167      0.031080808  
  20009800   300.86646      1.9794263     -15864775       2.3555095      895.92894     -15863879       569.41416      569.41416      569.41416      1715.2929      2284.7071      1715.2929      2284.7071      1715.2929      2284.7071      1.8462257e+08  0.25           5759950        23.295123      3205.0731      12820.306      0.015540444  
  20010000   291.46912     -6.400031      -15864802       2.3553244      867.94526     -15863934       569.42907      569.42907      569.42907      1715.2855      2284.7145      1715.2855      2284.7145      1715.2855      2284.7145      1.8463707e+08  0.25           5760000        23.309956      3370.9654      13483.767      0            
Loop time of 23.31 on 4 procs for 300000 steps with 1000 atoms

Performance: 277.993 ns/day, 0.086 hours/ns, 12870.028 timesteps/s
99.5% CPU use with 4 MPI tasks x 1 OpenMP threads

MPI task timing breakdown:
Section |  min time  |  avg time  |  max time  |%varavg| %total
---------------------------------------------------------------
Pair    | 9.9775     | 10.241     | 10.723     |   9.0 | 43.94
Neigh   | 0.007699   | 0.0080933  | 0.0088791  |   0.5 |  0.03
Comm    | 7.7216     | 8.0935     | 8.2514     |   7.6 | 34.72
Output  | 0.048685   | 0.053306   | 0.066671   |   3.3 |  0.23
Modify  | 3.9959     | 4.0761     | 4.1256     |   2.4 | 17.49
Other   |            | 0.8376     |            |       |  3.59

Nlocal:            250 ave         263 max         244 min
Histogram: 2 0 1 0 0 0 0 0 0 1
Nghost:          938.5 ave         945 max         930 min
Histogram: 1 0 0 0 1 0 0 0 1 1
Neighs:        1721.25 ave        1752 max        1688 min
Histogram: 1 0 0 0 1 0 1 0 0 1

Total # of neighbors = 6885
Ave neighs/atom = 6.885
Neighbor list builds = 42
Dangerous builds = 0

# run_style
run_style verlet

# write restart
write_restart ${write_res}
write_restart ./pgnpmf/8020/equpmf19.res
System init for write_restart ...
Generated 0 of 1 mixed pair_coeff terms from geometric mixing rule

Total wall time: 0:01:08
