LAMMPS (23 Jun 2022 - Update 1)
OMP_NUM_THREADS environment is not set. Defaulting to 1 thread. (src/comm.cpp:98)
  using 1 OpenMP thread(s) per MPI task
# Read restart
read_restart ${read_res}
read_restart ./pgnpmf/8020/equpmf15.res
Reading restart file ...
  restart file = 23 Jun 2022, LAMMPS = 23 Jun 2022
  restoring atom style atomic from restart
  orthogonal box = (1692.639 1692.639 1692.639) to (2307.361 2307.361 2307.361)
  2 by 1 by 2 MPI processor grid
  restoring pair style table from restart
  1000 atoms
  read_restart CPU = 0.005 seconds

# Settings

pair_style table spline 9941

pair_coeff 1 1 ./pgnpmf/N20.txt DE_GNP 75.6
pair_coeff 2 2 ./pgnpmf/N100.txt DE_GNP 115.92
WARNING: 3 of 9941 force values in table DE_GNP are inconsistent with -dE/dr.
WARNING:  Should only be flagged at inflection points (src/pair_table.cpp:463)
pair_coeff 1 2 ./pgnpmf/mixed_potential.txt DE_GNP 95.66
WARNING: 1562 of 9941 force values in table DE_GNP are inconsistent with -dE/dr.
WARNING:  Should only be flagged at inflection points (src/pair_table.cpp:463)

#Neigh_list Calc Frequency

neigh_modify delay 0 every 1 check yes

# Saving Frequency (50 frames)

variable ts_save equal ${steps_equ}
variable ts_save equal 5000

# Dump
#dump 1 all custom ${ts_save} ./pgnpmf/${folder}/equilibration/trajectory/trajectory_${usic}_${trial}.equ.custom type x y z ix iy iz
#dump_modify 1 first no sort id
dump 2 all cfg 50000 ./pgnpmf/${folder}/equilibration/trajectory/dumpgen.tens_*.cfg mass type xs ys zs fx fy fz
dump 2 all cfg 50000 ./pgnpmf/8020/equilibration/trajectory/dumpgen.tens_*.cfg mass type xs ys zs fx fy fz
dump_modify 2 element N20 N100

# thermo_style
thermo_style custom step temp press pe density ke etotal lx ly lz xlo xhi ylo yhi zlo zhi vol dt time cpu tpcpu spcpu cpuremain

# run info
timestep ${ts}
timestep 0.25
thermo 200

# fix

fix 1 all momentum 1000 linear 1 1 1 angular
variable T equal ${temp}
variable T equal 300
fix 2 all nvt temp ${T} 370000 100.0
fix 2 all nvt temp 300 370000 100.0

run 100000
Generated 0 of 1 mixed pair_coeff terms from geometric mixing rule
Unused restart file global fix info:
  fix style: npt, fix ID: 5
Neighbor list info ...
  update every 1 steps, delay 0 steps, check yes
  max neighbors/atom: 2000, page size: 100000
  master list distance cutoff = 117.92
  ghost atom cutoff = 117.92
  binsize = 58.96, bins = 11 11 11
  1 neighbor lists, perpetual/occasional/extra = 1 0 0
  (1) pair table, perpetual
      attributes: half, newton on
      pair build: half/bin/atomonly/newton
      stencil: half/bin/3d
      bin: standard
Per MPI rank memory allocation (min/avg/max) = 3.087 | 3.087 | 3.087 Mbytes
   Step          Temp          Press          PotEng        Density         KinEng         TotEng           Lx             Ly             Lz            Xlo            Xhi            Ylo            Yhi            Zlo            Zhi           Volume           Dt            Time           CPU           T/CPU          S/CPU         CPULeft    
  16010000   314.43854     -1.4736521     -13374252       1.8721183      936.34427     -13373315       614.72204      614.72204      614.72204      1692.639       2307.361       1692.639       2307.361       1692.639       2307.361       2.3229312e+08  0.25           4760000        0              0              0              0            
  16010200   402.62647     -3.1985149     -13375180       1.8721183      1198.9529     -13373982       614.72204      614.72204      614.72204      1692.639       2307.361       1692.639       2307.361       1692.639       2307.361       2.3229312e+08  0.25           4760050        0.013991634    3573.3717      14292.71       6.9829676    
  16010400   534.40456     -4.7795947     -13375400       1.8721183      1591.3655     -13373809       614.72204      614.72204      614.72204      1692.639       2307.361       1692.639       2307.361       1692.639       2307.361       2.3229312e+08  0.25           4760100        0.025089265    4505.5383      18022.241      6.247732     
  16010600   721.76382     -6.6144754     -13375654       1.8721183      2149.2894     -13373505       614.72204      614.72204      614.72204      1692.639       2307.361       1692.639       2307.361       1692.639       2307.361       2.3229312e+08  0.25           4760150        0.036172877    4511.1733      18044.67       5.9929671    
  16010800   974.6126      -8.5809875     -13375580       1.8721183      2902.2299     -13372678       614.72204      614.72204      614.72204      1692.639       2307.361       1692.639       2307.361       1692.639       2307.361       2.3229312e+08  0.25           4760200        0.046951464    4638.8119      18555.244      5.8222351    
  16011000   1309.2604     -11.071697     -13375921       1.8721183      3898.7538     -13372022       614.72204      614.72204      614.72204      1692.639       2307.361       1692.639       2307.361       1692.639       2307.361       2.3229312e+08  0.25           4760250        0.058200472    4444.8336      17779.292      5.7620578    
  16011200   1746.0532     -13.669836     -13374417       1.8721183      5199.4482     -13369217       614.72204      614.72204      614.72204      1692.639       2307.361       1692.639       2307.361       1692.639       2307.361       2.3229312e+08  0.25           4760300        0.068758833    4735.6059      18942.483      5.6613057    
  16011400   2307.3532     -16.810311     -13374863       1.8721183      6870.9037     -13367992       614.72204      614.72204      614.72204      1692.639       2307.361       1692.639       2307.361       1692.639       2307.361       2.3229312e+08  0.25           4760350        0.079903352    4486.4826      17945.927      5.6276249    
  16011600   3016.6087     -20.195003     -13375371       1.8721183      8982.9455     -13366388       614.72204      614.72204      614.72204      1692.639       2307.361       1692.639       2307.361       1692.639       2307.361       2.3229312e+08  0.25           4760400        0.090660185    4648.2277      18592.97       5.5757235    
  16011800   3895.6097     -23.932373     -13375945       1.8721183      11600.461     -13364345       614.72204      614.72204      614.72204      1692.639       2307.361       1692.639       2307.361       1692.639       2307.361       2.3229312e+08  0.25           4760450        0.10162977     4558.036       18232.016      5.5445857    
  16012000   4958.6982     -28.184062     -13376593       1.8721183      14766.157     -13361827       614.72204      614.72204      614.72204      1692.639       2307.361       1692.639       2307.361       1692.639       2307.361       2.3229312e+08  0.25           4760500        0.11266077     4532.7012      18130.948      5.5204725    
  16012200   6206.1292     -33.103688     -13377688       1.8721183      18480.793     -13359208       614.72204      614.72204      614.72204      1692.639       2307.361       1692.639       2307.361       1692.639       2307.361       2.3229312e+08  0.25           4760550        0.12373048     4516.8179      18067.213      5.5004711    
  16012400   7612.1626     -38.337111     -13380390       1.8721183      22667.72      -13357722       614.72204      614.72204      614.72204      1692.639       2307.361       1692.639       2307.361       1692.639       2307.361       2.3229312e+08  0.25           4760600        0.13465084     4578.6644      18314.762      5.4758724    
  16012600   9115.4085     -43.612822     -13381273       1.8721183      27144.13      -13354129       614.72204      614.72204      614.72204      1692.639       2307.361       1692.639       2307.361       1692.639       2307.361       2.3229312e+08  0.25           4760650        0.14537114     4664.0651      18656.182      5.4458919    
  16012800   10612.506     -49.737987     -13382598       1.8721183      31602.23      -13350995       614.72204      614.72204      614.72204      1692.639       2307.361       1692.639       2307.361       1692.639       2307.361       2.3229312e+08  0.25           4760700        0.15650851     4489.3685      17957.429      5.4331472    
  16013000   11958.631     -56.042805     -13385514       1.8721183      35610.761     -13349903       614.72204      614.72204      614.72204      1692.639       2307.361       1692.639       2307.361       1692.639       2307.361       2.3229312e+08  0.25           4760750        0.16735329     4610.5301      18442.226      5.4111472    
  16013200   12991.854     -62.595971     -13388479       1.8721183      38687.524     -13349791       614.72204      614.72204      614.72204      1692.639       2307.361       1692.639       2307.361       1692.639       2307.361       2.3229312e+08  0.25           4760800        0.1795916      4085.5137      16341.924      5.432705     
  16013400   13603.287     -69.2849       -13389942       1.8721183      40508.266     -13349434       614.72204      614.72204      614.72204      1692.639       2307.361       1692.639       2307.361       1692.639       2307.361       2.3229312e+08  0.25           4760850        0.1901622      4730.1121      18920.651      5.4028935    
  16013600   13847.298     -75.414728     -13391035       1.8721183      41234.887     -13349801       614.72204      614.72204      614.72204      1692.639       2307.361       1692.639       2307.361       1692.639       2307.361       2.3229312e+08  0.25           4760900        0.20102563     4602.5763      18410.153      5.3830722    
  16013800   13968.865     -82.447812     -13392488       1.8721183      41596.896     -13350891       614.72204      614.72204      614.72204      1692.639       2307.361       1692.639       2307.361       1692.639       2307.361       2.3229312e+08  0.25           4760950        0.21203949     4539.7823      18159.287      5.3679892    
  16014000   14264.6       -90.760351     -13395468       1.8721183      42477.543     -13352990       614.72204      614.72204      614.72204      1692.639       2307.361       1692.639       2307.361       1692.639       2307.361       2.3229312e+08  0.25           4761000        0.22306528     4534.7887      18139.066      5.3536119    
  16014200   14942.798     -98.864051     -13396925       1.8721183      44497.101     -13352428       614.72204      614.72204      614.72204      1692.639       2307.361       1692.639       2307.361       1692.639       2307.361       2.3229312e+08  0.25           4761050        0.23428891     4454.905       17819.721      5.3440572    
  16014400   16044.858     -106.38062     -13396510       1.8721183      47778.848     -13348731       614.72204      614.72204      614.72204      1692.639       2307.361       1692.639       2307.361       1692.639       2307.361       2.3229312e+08  0.25           4761100        0.24545732     4476.9082      17907.545      5.3331579    
  16014600   17399.962     -112.9681      -13398027       1.8721183      51814.115     -13346213       614.72204      614.72204      614.72204      1692.639       2307.361       1692.639       2307.361       1692.639       2307.361       2.3229312e+08  0.25           4761150        0.25808859     3958.3725      15833.204      5.3525829    
  16014800   18711.043     -119.05229     -13401099       1.8721183      55718.291     -13345381       614.72204      614.72204      614.72204      1692.639       2307.361       1692.639       2307.361       1692.639       2307.361       2.3229312e+08  0.25           4761200        0.2698665      4245.2527      16981.123      5.352397     
  16015000   19709.921     -125.87964     -13401931       1.8721183      58692.78      -13343238       614.72204      614.72204      614.72204      1692.639       2307.361       1692.639       2307.361       1692.639       2307.361       2.3229312e+08  0.25           4761250        0.28222893     4044.5466      16178.325      5.3623863    
  16015200   20263.425     -133.80408     -13404306       1.8721183      60341.019     -13343965       614.72204      614.72204      614.72204      1692.639       2307.361       1692.639       2307.361       1692.639       2307.361       2.3229312e+08  0.25           4761300        0.29462212     4034.4507      16137.701      5.3712266    
  16015400   20448.895     -141.84224     -13407413       1.8721183      60893.318     -13346520       614.72204      614.72204      614.72204      1692.639       2307.361       1692.639       2307.361       1692.639       2307.361       2.3229312e+08  0.25           4761350        0.3056943      4515.8694      18063.727      5.3553423    
  16015600   20536.556     -149.90828     -13410504       1.8721183      61154.357     -13349350       614.72204      614.72204      614.72204      1692.639       2307.361       1692.639       2307.361       1692.639       2307.361       2.3229312e+08  0.25           4761400        0.31685891     4478.4267      17913.66       5.3413667    
  16015800   20837.049     -156.56547     -13409795       1.8721183      62049.174     -13347746       614.72204      614.72204      614.72204      1692.639       2307.361       1692.639       2307.361       1692.639       2307.361       2.3229312e+08  0.25           4761450        0.32859935     4258.7816      17035.129      5.3369367    
  16016000   21559.398     -163.49261     -13413242       1.8721183      64200.204     -13349042       614.72204      614.72204      614.72204      1692.639       2307.361       1692.639       2307.361       1692.639       2307.361       2.3229312e+08  0.25           4761500        0.33950338     4585.4791      18341.974      5.3189132    
  16016200   22728.121     -170.69538     -13414437       1.8721183      67680.464     -13346757       614.72204      614.72204      614.72204      1692.639       2307.361       1692.639       2307.361       1692.639       2307.361       2.3229312e+08  0.25           4761550        0.35204571     3986.4903      15945.951      5.3261375    
  16016400   24144.541     -178.2177      -13416799       1.8721183      71898.32      -13344900       614.72204      614.72204      614.72204      1692.639       2307.361       1692.639       2307.361       1692.639       2307.361       2.3229312e+08  0.25           4761600        0.36279278     4652.4451      18609.813      5.3058689    
  16016600   25488.84      -186.64657     -13417657       1.8721183      75901.412     -13341756       614.72204      614.72204      614.72204      1692.639       2307.361       1692.639       2307.361       1692.639       2307.361       2.3229312e+08  0.25           4761650        0.37383949     4526.2144      18104.75       5.2904218    
  16016800   26463.359     -194.33653     -13419260       1.8721183      78803.365     -13340457       614.72204      614.72204      614.72204      1692.639       2307.361       1692.639       2307.361       1692.639       2307.361       2.3229312e+08  0.25           4761700        0.38476308     4577.2456      18308.957      5.2735432    
  16017000   26935.781     -203.80151     -13420483       1.8721183      80210.157     -13340273       614.72204      614.72204      614.72204      1692.639       2307.361       1692.639       2307.361       1692.639       2307.361       2.3229312e+08  0.25           4761750        0.39593183     4476.7595      17907.065      5.2602628    
  16017200   27030.816     -212.86327     -13423591       1.8721183      80493.154     -13343098       614.72204      614.72204      614.72204      1692.639       2307.361       1692.639       2307.361       1692.639       2307.361       2.3229312e+08  0.25           4761800        0.40648275     4738.9506      18955.745      5.2391355    
  16017400   27060.111     -220.21921     -13424776       1.8721183      80580.389     -13344195       614.72204      614.72204      614.72204      1692.639       2307.361       1692.639       2307.361       1692.639       2307.361       2.3229312e+08  0.25           4761850        0.4182014      4266.7165      17066.891      5.2331914    
  16017600   27361.397     -226.64265     -13426678       1.8721183      81477.568     -13345201       614.72204      614.72204      614.72204      1692.639       2307.361       1692.639       2307.361       1692.639       2307.361       2.3229312e+08  0.25           4761900        0.42876603     4732.7748      18931.151      5.212914     
  16017800   28146.01      -231.53746     -13430101       1.8721183      83814.011     -13346287       614.72204      614.72204      614.72204      1692.639       2307.361       1692.639       2307.361       1692.639       2307.361       2.3229312e+08  0.25           4761950        0.43978475     4537.7111      18150.813      5.1985039    
  16018000   29403.708     -238.28239     -13432770       1.8721183      87559.222     -13345211       614.72204      614.72204      614.72204      1692.639       2307.361       1692.639       2307.361       1692.639       2307.361       2.3229312e+08  0.25           4762000        0.45053742     4650.0191      18600.234      5.1811997    
  16018200   30900.596     -246.25981     -13434285       1.8721183      92016.697     -13342269       614.72204      614.72204      614.72204      1692.639       2307.361       1692.639       2307.361       1692.639       2307.361       2.3229312e+08  0.25           4762050        0.46127347     4657.1911      18628.537      5.1640346    
  16018400   32273.062     -252.40534     -13434697       1.8721183      96103.668     -13338594       614.72204      614.72204      614.72204      1692.639       2307.361       1692.639       2307.361       1692.639       2307.361       2.3229312e+08  0.25           4762100        0.47233603     4519.7654      18079.17       5.1507319    
  16018600   33207.211     -260.62537     -13435834       1.8721183      98885.402     -13336948       614.72204      614.72204      614.72204      1692.639       2307.361       1692.639       2307.361       1692.639       2307.361       2.3229312e+08  0.25           4762150        0.48286412     4749.1959      18996.877      5.131853     
  16018800   33594.737     -269.64741     -13436587       1.8721183      100039.39     -13336548       614.72204      614.72204      614.72204      1692.639       2307.361       1692.639       2307.361       1692.639       2307.361       2.3229312e+08  0.25           4762200        0.49415938     4426.6313      17706.353      5.1213081    
  16019000   33600.077     -279.0002      -13439951       1.8721183      100055.29     -13339896       614.72204      614.72204      614.72204      1692.639       2307.361       1692.639       2307.361       1692.639       2307.361       2.3229312e+08  0.25           4762250        0.50471127     4738.4836      18953.95       5.1032111    
  16019200   33578.723     -285.48929     -13442912       1.8721183      99991.703     -13342920       614.72204      614.72204      614.72204      1692.639       2307.361       1692.639       2307.361       1692.639       2307.361       2.3229312e+08  0.25           4762300        0.51619424     4354.2909      17417.218      5.0946305    
  16019400   33891.18      -292.46824     -13445844       1.8721183      100922.15     -13344922       614.72204      614.72204      614.72204      1692.639       2307.361       1692.639       2307.361       1692.639       2307.361       2.3229312e+08  0.25           4762350        0.52686405     4686.1076      18744.429      5.0780903    
  16019600   34745.349     -299.39678     -13446498       1.8721183      103465.72     -13343032       614.72204      614.72204      614.72204      1692.639       2307.361       1692.639       2307.361       1692.639       2307.361       2.3229312e+08  0.25           4762400        0.53794261     4513.217       18052.813      5.0656443    
  16019800   36102.149     -305.12619     -13447509       1.8721183      107506.03     -13340003       614.72204      614.72204      614.72204      1692.639       2307.361       1692.639       2307.361       1692.639       2307.361       2.3229312e+08  0.25           4762450        0.54875643     4623.7237      18494.926      5.0508163    
  16020000   37670.412     -309.05667     -13446240       1.8721183      112176.06     -13334064       614.72204      614.72204      614.72204      1692.639       2307.361       1692.639       2307.361       1692.639       2307.361       2.3229312e+08  0.25           4762500        0.55951841     4645.9973      18584.044      5.0356815    
  16020200   39051.594     -317.13587     -13447214       1.8721183      116288.98     -13330926       614.72204      614.72204      614.72204      1692.639       2307.361       1692.639       2307.361       1692.639       2307.361       2.3229312e+08  0.25           4762550        0.57015426     4701.0649      18804.265      5.0196092    
  16020400   39929.053     -325.7902      -13448163       1.8721183      118901.9      -13329261       614.72204      614.72204      614.72204      1692.639       2307.361       1692.639       2307.361       1692.639       2307.361       2.3229312e+08  0.25           4762600        0.58096918     4623.2431      18492.942      5.0052888    
  16020600   40224.109     -333.13718     -13449085       1.8721183      119780.53     -13329305       614.72204      614.72204      614.72204      1692.639       2307.361       1692.639       2307.361       1692.639       2307.361       2.3229312e+08  0.25           4762650        0.59167114     4672.0178      18688.001      4.9901486    
  16020800   40151.191     -339.81399     -13452620       1.8721183      119563.39     -13333056       614.72204      614.72204      614.72204      1692.639       2307.361       1692.639       2307.361       1692.639       2307.361       2.3229312e+08  0.25           4762700        0.6027517      4512.3914      18049.502      4.9782997    
  16021000   40102.787     -346.49592     -13453498       1.8721183      119419.25     -13334078       614.72204      614.72204      614.72204      1692.639       2307.361       1692.639       2307.361       1692.639       2307.361       2.3229312e+08  0.25           4762750        0.61358726     4614.463       18458.033      4.9644938    
  16021200   40447.603     -353.80649     -13455443       1.8721183      120446.05     -13334996       614.72204      614.72204      614.72204      1692.639       2307.361       1692.639       2307.361       1692.639       2307.361       2.3229312e+08  0.25           4762800        0.62485777     4436.3494      17745.289      4.9542453    
  16021400   41380.76      -359.34317     -13463634       1.8721183      123224.84     -13340409       614.72204      614.72204      614.72204      1692.639       2307.361       1692.639       2307.361       1692.639       2307.361       2.3229312e+08  0.25           4762850        0.63551184     4693.0558      18772.208      4.9391682    
  16021600   42817.783     -364.31623     -13462510       1.8721183      127504.05     -13335005       614.72204      614.72204      614.72204      1692.639       2307.361       1692.639       2307.361       1692.639       2307.361       2.3229312e+08  0.25           4762900        0.64662753     4498.1423      17992.585      4.9277627    
  16021800   44437.873     -370.13402     -13462908       1.8721183      132328.4      -13330580       614.72204      614.72204      614.72204      1692.639       2307.361       1692.639       2307.361       1692.639       2307.361       2.3229312e+08  0.25           4762950        0.65728895     4689.8204      18759.357      4.9129701    
  16022000   45816.124     -375.44776     -13463664       1.8721183      136432.59     -13327232       614.72204      614.72204      614.72204      1692.639       2307.361       1692.639       2307.361       1692.639       2307.361       2.3229312e+08  0.25           4763000        0.66800409     4666.2545      18665.069      4.8987106    
  16022200   46634.962     -380.9192      -13463228       1.8721183      138870.95     -13324357       614.72204      614.72204      614.72204      1692.639       2307.361       1692.639       2307.361       1692.639       2307.361       2.3229312e+08  0.25           4763050        0.67916497     4479.9672      17919.732      4.887775     
  16022400   46840.694     -388.30076     -13465428       1.8721183      139483.59     -13325944       614.72204      614.72204      614.72204      1692.639       2307.361       1692.639       2307.361       1692.639       2307.361       2.3229312e+08  0.25           4763100        0.68955039     4814.4307      19257.808      4.8713532    
  16022600   46697.188     -396.63463     -13464186       1.8721183      139056.25     -13325130       614.72204      614.72204      614.72204      1692.639       2307.361       1692.639       2307.361       1692.639       2307.361       2.3229312e+08  0.25           4763150        0.7005889      4529.5948      18118.307      4.8596537    
  16022800   46626.211     -402.77096     -13464803       1.8721183      138844.89     -13325959       614.72204      614.72204      614.72204      1692.639       2307.361       1692.639       2307.361       1692.639       2307.361       2.3229312e+08  0.25           4763200        0.71143135     4611.5149      18446.112      4.8466389    
  16023000   47013.788     -409.00761     -13467657       1.8721183      139999.03     -13327658       614.72204      614.72204      614.72204      1692.639       2307.361       1692.639       2307.361       1692.639       2307.361       2.3229312e+08  0.25           4763250        0.72276683     4410.9444      17643.784      4.8369903    
  16023200   48036.09      -413.58877     -13468956       1.8721183      143043.27     -13325913       614.72204      614.72204      614.72204      1692.639       2307.361       1692.639       2307.361       1692.639       2307.361       2.3229312e+08  0.25           4763300        0.73336591     4717.3852      18869.546      4.8224484    
  16023400   49564.773     -417.33109     -13462842       1.8721183      147595.43     -13315247       614.72204      614.72204      614.72204      1692.639       2307.361       1692.639       2307.361       1692.639       2307.361       2.3229312e+08  0.25           4763350        0.74432031     4564.3622      18257.401      4.8103212    
  16023600   51221.712     -421.69991     -13455230       1.8721183      152529.51     -13302700       614.72204      614.72204      614.72204      1692.639       2307.361       1692.639       2307.361       1692.639       2307.361       2.3229312e+08  0.25           4763400        0.75499065     4685.8973      18743.684      4.7964226    
  16023800   52567.537     -429.09471     -13455343       1.8721183      156537.15     -13298806       614.72204      614.72204      614.72204      1692.639       2307.361       1692.639       2307.361       1692.639       2307.361       2.3229312e+08  0.25           4763450        0.76614801     4481.3103      17925.069      4.7856623    
  16024000   53308.75      -438.52098     -13456906       1.8721183      158744.36     -13298162       614.72204      614.72204      614.72204      1692.639       2307.361       1692.639       2307.361       1692.639       2307.361       2.3229312e+08  0.25           4763500        0.77705163     4585.6675      18342.796      4.7733288    
  16024200   53436.519     -443.42002     -13457758       1.8721183      159124.83     -13298633       614.72204      614.72204      614.72204      1692.639       2307.361       1692.639       2307.361       1692.639       2307.361       2.3229312e+08  0.25           4763550        0.78784186     4633.8108      18535.25       4.7603518    
  16024400   53243.067     -447.06932     -13457795       1.8721183      158548.76     -13299246       614.72204      614.72204      614.72204      1692.639       2307.361       1692.639       2307.361       1692.639       2307.361       2.3229312e+08  0.25           4763600        0.79870651     4602.0823      18408.434      4.7478771    
  16024600   53175.496     -451.59766     -13460065       1.8721183      158347.55     -13301718       614.72204      614.72204      614.72204      1692.639       2307.361       1692.639       2307.361       1692.639       2307.361       2.3229312e+08  0.25           4763650        0.80951298     4626.8612      18507.292      4.7351077    
  16024800   53616.578     -457.23336     -13462246       1.8721183      159661.01     -13302585       614.72204      614.72204      614.72204      1692.639       2307.361       1692.639       2307.361       1692.639       2307.361       2.3229312e+08  0.25           4763700        0.82079436     4432.1047      17728.494      4.7251237    
  16025000   54722.236     -461.40564     -13464461       1.8721183      162953.48     -13301507       614.72204      614.72204      614.72204      1692.639       2307.361       1692.639       2307.361       1692.639       2307.361       2.3229312e+08  0.25           4763750        0.83149284     4673.558       18694.323      4.7118025    
  16025200   56324.378     -463.30587     -13466659       1.8721183      167724.38     -13298934       614.72204      614.72204      614.72204      1692.639       2307.361       1692.639       2307.361       1692.639       2307.361       2.3229312e+08  0.25           4763800        0.84204525     4738.2406      18952.914      4.6977358    
  16025400   58002.509     -466.89921     -13466948       1.8721183      172721.57     -13294227       614.72204      614.72204      614.72204      1692.639       2307.361       1692.639       2307.361       1692.639       2307.361       2.3229312e+08  0.25           4763850        0.85296441     4579.0947      18316.218      4.6857762    
  16025600   59301.039     -471.88139     -13464933       1.8721183      176588.37     -13288345       614.72204      614.72204      614.72204      1692.639       2307.361       1692.639       2307.361       1692.639       2307.361       2.3229312e+08  0.25           4763900        0.86412354     4480.6392      17922.475      4.675141     
  16025800   59959.052     -478.57833     -13464791       1.8721183      178547.82     -13286243       614.72204      614.72204      614.72204      1692.639       2307.361       1692.639       2307.361       1692.639       2307.361       2.3229312e+08  0.25           4763950        0.87485097     4660.9608      18644.151      4.6621897    
  16026000   60012.417     -485.82137     -13467643       1.8721183      178706.73     -13288937       614.72204      614.72204      614.72204      1692.639       2307.361       1692.639       2307.361       1692.639       2307.361       2.3229312e+08  0.25           4764000        0.88588593     4531.0421      18124.063      4.6509107    
  16026200   59781.718     -488.27871     -13467464       1.8721183      178019.75     -13289444       614.72204      614.72204      614.72204      1692.639       2307.361       1692.639       2307.361       1692.639       2307.361       2.3229312e+08  0.25           4764050        0.89713273     4445.7122      17782.887      4.6407329    
  16026400   59736.108     -490.412       -13469900       1.8721183      177883.93     -13292016       614.72204      614.72204      614.72204      1692.639       2307.361       1692.639       2307.361       1692.639       2307.361       2.3229312e+08  0.25           4764100        0.9095211      4036.0334      16144.051      4.6363491    
  16026600   60250.291     -494.79415     -13468574       1.8721183      179415.08     -13289159       614.72204      614.72204      614.72204      1692.639       2307.361       1692.639       2307.361       1692.639       2307.361       2.3229312e+08  0.25           4764150        0.92099689     4357.0099      17428.12       4.6271865    
  16026800   61441.437     -500.44829     -13469796       1.8721183      182962.11     -13286834       614.72204      614.72204      614.72204      1692.639       2307.361       1692.639       2307.361       1692.639       2307.361       2.3229312e+08  0.25           4764200        0.9324485      4366.1838      17464.694      4.6178497    
  16027000   63097.731     -506.14224     -13472165       1.8721183      187894.27     -13284271       614.72204      614.72204      614.72204      1692.639       2307.361       1692.639       2307.361       1692.639       2307.361       2.3229312e+08  0.25           4764250        0.94334055     4590.4923      18361.932      4.6057309    
  16027200   64770.199     -511.47876     -13474156       1.8721183      192874.59     -13281281       614.72204      614.72204      614.72204      1692.639       2307.361       1692.639       2307.361       1692.639       2307.361       2.3229312e+08  0.25           4764300        0.95453242     4467.5494      17870.209      4.5950838    
  16027400   66018.599     -514.31753     -13472352       1.8721183      196592.11     -13275760       614.72204      614.72204      614.72204      1692.639       2307.361       1692.639       2307.361       1692.639       2307.361       2.3229312e+08  0.25           4764350        0.96533693     4627.7044      18510.912      4.5825849    
  16027600   66596.481     -517.98443     -13463512       1.8721183      198312.95     -13265199       614.72204      614.72204      614.72204      1692.639       2307.361       1692.639       2307.361       1692.639       2307.361       2.3229312e+08  0.25           4764400        0.97694201     4308.4272      17233.701      4.5738739    
  16027800   66575.486     -522.93754     -13463555       1.8721183      198250.43     -13265305       614.72204      614.72204      614.72204      1692.639       2307.361       1692.639       2307.361       1692.639       2307.361       2.3229312e+08  0.25           4764450        0.98785525     4581.6219      18326.471      4.5619017    
  16028000   66317.906     -524.87923     -13472120       1.8721183      197483.4      -13274637       614.72204      614.72204      614.72204      1692.639       2307.361       1692.639       2307.361       1692.639       2307.361       2.3229312e+08  0.25           4764500        0.99940353     4329.6273      17318.446      4.5528473    
  16028200   66299.035     -527.01745     -13474385       1.8721183      197427.21     -13276958       614.72204      614.72204      614.72204      1692.639       2307.361       1692.639       2307.361       1692.639       2307.361       2.3229312e+08  0.25           4764550        1.0099067      4760.5224      19042.149      4.5390393    
  16028400   66889.521     -532.3614      -13475893       1.8721183      199185.57     -13276707       614.72204      614.72204      614.72204      1692.639       2307.361       1692.639       2307.361       1692.639       2307.361       2.3229312e+08  0.25           4764600        1.021825       4195.2042      16780.753      4.5315803    
  16028600   68179.54      -534.46776     -13475504       1.8721183      203027.03     -13272477       614.72204      614.72204      614.72204      1692.639       2307.361       1692.639       2307.361       1692.639       2307.361       2.3229312e+08  0.25           4764650        1.0324623      4700.4661      18802.034      4.5184177    
  16028800   69890.83      -535.23188     -13476569       1.8721183      208122.96     -13268446       614.72204      614.72204      614.72204      1692.639       2307.361       1692.639       2307.361       1692.639       2307.361       2.3229312e+08  0.25           4764700        1.043642       4472.3703      17889.393      4.5076535    
  16029000   71542.694     -537.7064      -13476514       1.8721183      213041.93     -13263472       614.72204      614.72204      614.72204      1692.639       2307.361       1692.639       2307.361       1692.639       2307.361       2.3229312e+08  0.25           4764750        1.0542854      4697.7757      18791.122      4.4945928    
  16029200   72709.453     -539.60444     -13476073       1.8721183      216516.34     -13259556       614.72204      614.72204      614.72204      1692.639       2307.361       1692.639       2307.361       1692.639       2307.361       2.3229312e+08  0.25           4764800        1.0652768      4549.0309      18196.17       4.4830473    
  16029400   73190.716     -544.91644     -13476701       1.8721183      217949.45     -13258752       614.72204      614.72204      614.72204      1692.639       2307.361       1692.639       2307.361       1692.639       2307.361       2.3229312e+08  0.25           4764850        1.0761353      4604.6655      18418.65       4.4709613    
  16029600   73107.978     -551.50984     -13478845       1.8721183      217703.08     -13261142       614.72204      614.72204      614.72204      1692.639       2307.361       1692.639       2307.361       1692.639       2307.361       2.3229312e+08  0.25           4764900        1.0868612      4661.6122      18646.412      4.4583563    
  16029800   72858.396     -556.02398     -13478752       1.8721183      216959.86     -13261792       614.72204      614.72204      614.72204      1692.639       2307.361       1692.639       2307.361       1692.639       2307.361       2.3229312e+08  0.25           4764950        1.0981373      4434.1611      17736.651      4.4480178    
  16030000   72900.151     -557.83574     -13480891       1.8721183      217084.2      -13263807       614.72204      614.72204      614.72204      1692.639       2307.361       1692.639       2307.361       1692.639       2307.361       2.3229312e+08  0.25           4765000        1.1089096      4641.5153      18565.941      4.4356461    
  16030200   73579.594     -561.09163     -13479564       1.8721183      219107.47     -13260456       614.72204      614.72204      614.72204      1692.639       2307.361       1692.639       2307.361       1692.639       2307.361       2.3229312e+08  0.25           4765050        1.1205409      4298.732       17194.949      4.4266989    
  16030400   74956.446     -562.8094      -13478300       1.8721183      223207.5      -13255092       614.72204      614.72204      614.72204      1692.639       2307.361       1692.639       2307.361       1692.639       2307.361       2.3229312e+08  0.25           4765100        1.1313056      4644.8402      18579.476      4.414317     
  16030600   76692.709     -563.07517     -13476224       1.8721183      228377.79     -13247846       614.72204      614.72204      614.72204      1692.639       2307.361       1692.639       2307.361       1692.639       2307.361       2.3229312e+08  0.25           4765150        1.1425401      4450.5542      17802.134      4.4037783    
  16030800   78289.178     -564.04665     -13476758       1.8721183      233131.8      -13243626       614.72204      614.72204      614.72204      1692.639       2307.361       1692.639       2307.361       1692.639       2307.361       2.3229312e+08  0.25           4765200        1.1532815      4654.9088      18619.705      4.3913478    
  16031000   79358.071     -565.37646     -13473912       1.8721183      236314.78     -13237598       614.72204      614.72204      614.72204      1692.639       2307.361       1692.639       2307.361       1692.639       2307.361       2.3229312e+08  0.25           4765250        1.1639984      4665.5418      18662.131      4.3788577    
  16031200   79756.417     -569.49297     -13477465       1.8721183      237500.99     -13239964       614.72204      614.72204      614.72204      1692.639       2307.361       1692.639       2307.361       1692.639       2307.361       2.3229312e+08  0.25           4765300        1.1751335      4490.3127      17961.235      4.3679557    
  16031400   79639.428     -573.18344     -13476855       1.8721183      237152.62     -13239702       614.72204      614.72204      614.72204      1692.639       2307.361       1692.639       2307.361       1692.639       2307.361       2.3229312e+08  0.25           4765350        1.1857222      4722.0208      18888.215      4.3550416    
  16031600   79398.173     -574.83466     -13476216       1.8721183      236434.2      -13239782       614.72204      614.72204      614.72204      1692.639       2307.361       1692.639       2307.361       1692.639       2307.361       2.3229312e+08  0.25           4765400        1.1970151      4427.5301      17709.99       4.3447283    
  16031800   79506.801     -577.62181     -13475913       1.8721183      236757.68     -13239155       614.72204      614.72204      614.72204      1692.639       2307.361       1692.639       2307.361       1692.639       2307.361       2.3229312e+08  0.25           4765450        1.2077639      4651.6799      18606.726      4.3324441    
  16032000   80304.261     -581.72854     -13475962       1.8721183      239132.38     -13236830       614.72204      614.72204      614.72204      1692.639       2307.361       1692.639       2307.361       1692.639       2307.361       2.3229312e+08  0.25           4765500        1.2193951      4298.7689      17195.12       4.3233168    
  16032200   81784.86      -581.53409     -13475264       1.8721183      243541.35     -13231723       614.72204      614.72204      614.72204      1692.639       2307.361       1692.639       2307.361       1692.639       2307.361       2.3229312e+08  0.25           4765550        1.2301302      4657.6497      18630.625      4.311003     
  16032400   83534.859     -579.94094     -13472647       1.8721183      248752.55     -13223894       614.72204      614.72204      614.72204      1692.639       2307.361       1692.639       2307.361       1692.639       2307.361       2.3229312e+08  0.25           4765600        1.2411315      4544.9224      18179.618      4.2996404    
  16032600   85036.857     -580.38203     -13472288       1.8721183      253225.24     -13219063       614.72204      614.72204      614.72204      1692.639       2307.361       1692.639       2307.361       1692.639       2307.361       2.3229312e+08  0.25           4765650        1.2519913      4604.1304      18416.627      4.2877992    
  16032800   85962.136     -582.04366     -13466782       1.8721183      255980.56     -13210802       614.72204      614.72204      614.72204      1692.639       2307.361       1692.639       2307.361       1692.639       2307.361       2.3229312e+08  0.25           4765700        1.2629902      4545.8967      18183.433      4.276447     
  16033000   86253.511     -583.46524     -13464824       1.8721183      256848.23     -13207976       614.72204      614.72204      614.72204      1692.639       2307.361       1692.639       2307.361       1692.639       2307.361       2.3229312e+08  0.25           4765750        1.2738614      4599.3425      18397.419      4.2646723    
  16033200   86109.536     -584.81867     -13464729       1.8721183      256419.49     -13208309       614.72204      614.72204      614.72204      1692.639       2307.361       1692.639       2307.361       1692.639       2307.361       2.3229312e+08  0.25           4765800        1.2847613      4587.1808      18348.651      4.2530092    
  16033400   85934.098     -585.83126     -13466138       1.8721183      255897.07     -13210241       614.72204      614.72204      614.72204      1692.639       2307.361       1692.639       2307.361       1692.639       2307.361       2.3229312e+08  0.25           4765850        1.2959638      4463.2902      17853.229      4.242349     
  16033600   86202.547     -586.5549      -13464104       1.8721183      256696.46     -13207407       614.72204      614.72204      614.72204      1692.639       2307.361       1692.639       2307.361       1692.639       2307.361       2.3229312e+08  0.25           4765900        1.3064858      4751.956       19007.835      4.2294767    
  16033800   87267.49      -586.22112     -13461317       1.8721183      259867.68     -13201449       614.72204      614.72204      614.72204      1692.639       2307.361       1692.639       2307.361       1692.639       2307.361       2.3229312e+08  0.25           4765950        1.3175154      4533.2284      18132.905      4.2182695    
  16034000   89036.39      -585.46224     -13458514       1.8721183      265135.17     -13193378       614.72204      614.72204      614.72204      1692.639       2307.361       1692.639       2307.361       1692.639       2307.361       2.3229312e+08  0.25           4766000        1.3288281      4419.8086      17679.233      4.2079616    
  16034200   90807.092     -583.33177     -13456822       1.8721183      270408.01     -13186414       614.72204      614.72204      614.72204      1692.639       2307.361       1692.639       2307.361       1692.639       2307.361       2.3229312e+08  0.25           4766050        1.3395756      4652.2434      18608.707      4.1958676    
  16034400   91950.657     -584.63087     -13458473       1.8721183      273813.35     -13184659       614.72204      614.72204      614.72204      1692.639       2307.361       1692.639       2307.361       1692.639       2307.361       2.3229312e+08  0.25           4766100        1.3515062      4190.916       16763.958      4.1874592    
  16034600   92375.26      -583.52886     -13461628       1.8721183      275077.75     -13186550       614.72204      614.72204      614.72204      1692.639       2307.361       1692.639       2307.361       1692.639       2307.361       2.3229312e+08  0.25           4766150        1.3640044      4000.5543      16001.942      4.1807357    
  16034800   92306.535     -584.38538     -13460975       1.8721183      274873.1      -13186102       614.72204      614.72204      614.72204      1692.639       2307.361       1692.639       2307.361       1692.639       2307.361       2.3229312e+08  0.25           4766200        1.3771287      3809.7354      15238.927      4.1758162    
  16035000   92096.678     -587.18826     -13461098       1.8721183      274248.18     -13186850       614.72204      614.72204      614.72204      1692.639       2307.361       1692.639       2307.361       1692.639       2307.361       2.3229312e+08  0.25           4766250        1.3899709      3893.3812      15573.555      4.1699195    
  16035200   92338.585     -587.30431     -13458858       1.8721183      274968.54     -13183890       614.72204      614.72204      614.72204      1692.639       2307.361       1692.639       2307.361       1692.639       2307.361       2.3229312e+08  0.25           4766300        1.4020293      4146.5411      16586.411      4.1615844    
  16035400   93844.094     -589.86279     -13469296       1.8721183      279451.69     -13189844       614.72204      614.72204      614.72204      1692.639       2307.361       1692.639       2307.361       1692.639       2307.361       2.3229312e+08  0.25           4766350        1.4131695      4488.2421      17952.719      4.1504962    
  16035600   96203.618     -586.64507     -13467805       1.8721183      286477.95     -13181327       614.72204      614.72204      614.72204      1692.639       2307.361       1692.639       2307.361       1692.639       2307.361       2.3229312e+08  0.25           4766400        1.4252508      4138.6343      16554.75       4.1421406    
  16035800   97918.106     -584.6682      -13459644       1.8721183      291583.4      -13168061       614.72204      614.72204      614.72204      1692.639       2307.361       1692.639       2307.361       1692.639       2307.361       2.3229312e+08  0.25           4766450        1.4360959      4610.3732      18441.5        4.1301726    
  16036000   98422.589     -584.69697     -13460719       1.8721183      293085.66     -13167634       614.72204      614.72204      614.72204      1692.639       2307.361       1692.639       2307.361       1692.639       2307.361       2.3229312e+08  0.25           4766500        1.4475067      4381.7945      17527.138      4.1198322    
  16036200   97935.432     -582.65171     -13461408       1.8721183      291634.99     -13169773       614.72204      614.72204      614.72204      1692.639       2307.361       1692.639       2307.361       1692.639       2307.361       2.3229312e+08  0.25           4766550        1.4585132      4542.7954      18171.186      4.1083361    
  16036400   96870.194     -579.16521     -13462084       1.8721183      288462.9      -13173621       614.72204      614.72204      614.72204      1692.639       2307.361       1692.639       2307.361       1692.639       2307.361       2.3229312e+08  0.25           4766600        1.469749       4450.0495      17800.152      4.0974873    
  16036600   95817.203     -578.092       -13468974       1.8721183      285327.27     -13183647       614.72204      614.72204      614.72204      1692.639       2307.361       1692.639       2307.361       1692.639       2307.361       2.3229312e+08  0.25           4766650        1.4809698      4456.0401      17824.074      4.0865911    
  16036800   95833.673     -579.18722     -13468834       1.8721183      285376.31     -13183458       614.72204      614.72204      614.72204      1692.639       2307.361       1692.639       2307.361       1692.639       2307.361       2.3229312e+08  0.25           4766700        1.4922411      4436.0164      17744.266      4.0758278    
  16037000   98328.379     -577.99603     -13467936       1.8721183      292805.12     -13175130       614.72204      614.72204      614.72204      1692.639       2307.361       1692.639       2307.361       1692.639       2307.361       2.3229312e+08  0.25           4766750        1.5031143      4598.458       18393.783      4.0639806    
  16037200   101765.31     -575.27181     -13466258       1.8721183      303039.7      -13163218       614.72204      614.72204      614.72204      1692.639       2307.361       1692.639       2307.361       1692.639       2307.361       2.3229312e+08  0.25           4766800        1.5147935      4281.1283      17124.588      4.0543047    
  16037400   103409.25     -570.90771     -13467554       1.8721183      307935.09     -13159619       614.72204      614.72204      614.72204      1692.639       2307.361       1692.639       2307.361       1692.639       2307.361       2.3229312e+08  0.25           4766850        1.5260392      4446.1336      17784.419      4.0434519    
  16037600   103659.29     -567.64628     -13462768       1.8721183      308679.67     -13154088       614.72204      614.72204      614.72204      1692.639       2307.361       1692.639       2307.361       1692.639       2307.361       2.3229312e+08  0.25           4766900        1.5373632      4415.4165      17661.736      4.0327979    
  16037800   103226.75     -565.53357     -13466533       1.8721183      307391.65     -13159141       614.72204      614.72204      614.72204      1692.639       2307.361       1692.639       2307.361       1692.639       2307.361       2.3229312e+08  0.25           4766950        1.5482584      4589.1461      18356.593      4.0210212    
  16038000   102678.67     -564.29095     -13469323       1.8721183      305759.53     -13163563       614.72204      614.72204      614.72204      1692.639       2307.361       1692.639       2307.361       1692.639       2307.361       2.3229312e+08  0.25           4767000        1.5598589      4310.1472      17240.436      4.011071     
  16038200   102699.44     -565.25529     -13475700       1.8721183      305821.4      -13169878       614.72204      614.72204      614.72204      1692.639       2307.361       1692.639       2307.361       1692.639       2307.361       2.3229312e+08  0.25           4767050        1.5708074      4566.8457      18267.466      3.9994366    
  16038400   104313.66     -560.00449     -13475046       1.8721183      310628.27     -13164418       614.72204      614.72204      614.72204      1692.639       2307.361       1692.639       2307.361       1692.639       2307.361       2.3229312e+08  0.25           4767100        1.5822844      4356.5551      17426.231      3.9891442    
  16038600   107755.5      -554.67193     -13466257       1.8721183      320877.48     -13145380       614.72204      614.72204      614.72204      1692.639       2307.361       1692.639       2307.361       1692.639       2307.361       2.3229312e+08  0.25           4767150        1.5932366      4565.3178      18261.273      3.9775252    
  16038800   110098.4      -551.61121     -13462591       1.8721183      327854.24     -13134737       614.72204      614.72204      614.72204      1692.639       2307.361       1692.639       2307.361       1692.639       2307.361       2.3229312e+08  0.25           4767200        1.6045685      4412.3223      17649.325      3.9668543    
  16039000   110230.57     -552.55699     -13466445       1.8721183      328247.82     -13138198       614.72204      614.72204      614.72204      1692.639       2307.361       1692.639       2307.361       1692.639       2307.361       2.3229312e+08  0.25           4767250        1.6157368      4476.9643      17907.886      3.9557735    
  16039200   109044.51     -550.32449     -13463867       1.8721183      324715.93     -13139151       614.72204      614.72204      614.72204      1692.639       2307.361       1692.639       2307.361       1692.639       2307.361       2.3229312e+08  0.25           4767300        1.6274014      4286.4538      17145.825      3.9458953    
  16039400   107546.5      -548.33487     -13463191       1.8721183      320255.11     -13142936       614.72204      614.72204      614.72204      1692.639       2307.361       1692.639       2307.361       1692.639       2307.361       2.3229312e+08  0.25           4767350        1.6384207      4537.4781      18149.774      3.9344434    
  16039600   106659.45     -542.23191     -13454423       1.8721183      317613.63     -13136810       614.72204      614.72204      614.72204      1692.639       2307.361       1692.639       2307.361       1692.639       2307.361       2.3229312e+08  0.25           4767400        1.649647       4453.8165      17815.288      3.9234893    
  16039800   107495.08     -538.96089     -13453425       1.8721183      320102        -13133323       614.72204      614.72204      614.72204      1692.639       2307.361       1692.639       2307.361       1692.639       2307.361       2.3229312e+08  0.25           4767450        1.6605444      4588.2681      18353.16       3.9117565    
  16040000   112325.76     -533.31587     -13452060       1.8721183      334486.92     -13117573       614.72204      614.72204      614.72204      1692.639       2307.361       1692.639       2307.361       1692.639       2307.361       2.3229312e+08  0.25           4767500        1.672041       4349.0809      17396.283      3.9014337    
  16040200   115908.48     -527.01195     -13450687       1.8721183      345155.65     -13105532       614.72204      614.72204      614.72204      1692.639       2307.361       1692.639       2307.361       1692.639       2307.361       2.3229312e+08  0.25           4767550        1.6829717      4574.303       18297.294      3.8897866    
  16040400   115974.37     -525.54032     -13451919       1.8721183      345351.88     -13106567       614.72204      614.72204      614.72204      1692.639       2307.361       1692.639       2307.361       1692.639       2307.361       2.3229312e+08  0.25           4767600        1.6942826      4420.5311      17682.153      3.8790195    
  16040600   114450.37     -525.94286     -13448994       1.8721183      340813.65     -13108180       614.72204      614.72204      614.72204      1692.639       2307.361       1692.639       2307.361       1692.639       2307.361       2.3229312e+08  0.25           4767650        1.7053181      4530.8192      18123.111      3.8676211    
  16040800   112492.48     -524.93449     -13451049       1.8721183      334983.38     -13116065       614.72204      614.72204      614.72204      1692.639       2307.361       1692.639       2307.361       1692.639       2307.361       2.3229312e+08  0.25           4767700        1.7169926      4282.8489      17131.457      3.8576627    
  16041000   111265.92     -521.68308     -13451621       1.8721183      331330.92     -13120290       614.72204      614.72204      614.72204      1692.639       2307.361       1692.639       2307.361       1692.639       2307.361       2.3229312e+08  0.25           4767750        1.7279555      4560.8682      18243.559      3.8460982    
  16041200   111783.55     -519.13052     -13458437       1.8721183      332872.33     -13125564       614.72204      614.72204      614.72204      1692.639       2307.361       1692.639       2307.361       1692.639       2307.361       2.3229312e+08  0.25           4767800        1.7392926      4410.2935      17641.095      3.8353671    
  16041400   115005.48     -510.17403     -13454892       1.8721183      342466.67     -13112425       614.72204      614.72204      614.72204      1692.639       2307.361       1692.639       2307.361       1692.639       2307.361       2.3229312e+08  0.25           4767850        1.7503194      4534.3927      18137.61       3.8239499    
  16041600   118860.84     -505.11605     -13453969       1.8721183      353947.28     -13100022       614.72204      614.72204      614.72204      1692.639       2307.361       1692.639       2307.361       1692.639       2307.361       2.3229312e+08  0.25           4767900        1.7615002      4471.9375      17887.71       3.8128714    
  16041800   120094.71     -504.16396     -13455347       1.8721183      357621.53     -13097725       614.72204      614.72204      614.72204      1692.639       2307.361       1692.639       2307.361       1692.639       2307.361       2.3229312e+08  0.25           4767950        1.7726541      4482.7257      17930.813      3.801734     
  16042000   119739.59     -501.3605      -13458579       1.8721183      356564.05     -13102015       614.72204      614.72204      614.72204      1692.639       2307.361       1692.639       2307.361       1692.639       2307.361       2.3229312e+08  0.25           4768000        1.7839689      4418.9899      17675.972      3.7909381    
  16042200   118928.54     -496.8863      -13457312       1.8721183      354148.88     -13103163       614.72204      614.72204      614.72204      1692.639       2307.361       1692.639       2307.361       1692.639       2307.361       2.3229312e+08  0.25           4768050        1.7949474      4554.3629      18217.521      3.7794273    
  16042400   118356.35     -492.54224     -13456801       1.8721183      352444.99     -13104356       614.72204      614.72204      614.72204      1692.639       2307.361       1692.639       2307.361       1692.639       2307.361       2.3229312e+08  0.25           4768100        1.8062347      4429.7534      17718.954      3.7685679    
  16042600   118673.62     -489.68187     -13453316       1.8721183      353389.78     -13099926       614.72204      614.72204      614.72204      1692.639       2307.361       1692.639       2307.361       1692.639       2307.361       2.3229312e+08  0.25           4768150        1.8175         4438.3854      17753.655      3.7576572    
  16042800   120790.62     -486.1105      -13452467       1.8721183      359693.85     -13092773       614.72204      614.72204      614.72204      1692.639       2307.361       1692.639       2307.361       1692.639       2307.361       2.3229312e+08  0.25           4768200        1.8290758      4319.3667      17277.383      3.7473787    
  16043000   125036.28     -482.78098     -13450460       1.8721183      372336.68     -13078123       614.72204      614.72204      614.72204      1692.639       2307.361       1692.639       2307.361       1692.639       2307.361       2.3229312e+08  0.25           4768250        1.8400442      4558.5671      18234.355      3.735851     
  16043200   127867.77     -476.52457     -13444470       1.8721183      380768.39     -13063702       614.72204      614.72204      614.72204      1692.639       2307.361       1692.639       2307.361       1692.639       2307.361       2.3229312e+08  0.25           4768300        1.8516971      4290.7848      17163.02       3.7257077    
  16043400   127673.81     -476.82197     -13445076       1.8721183      380190.8      -13064885       614.72204      614.72204      614.72204      1692.639       2307.361       1692.639       2307.361       1692.639       2307.361       2.3229312e+08  0.25           4768350        1.8625717      4597.866       18391.554      3.7139939    
  16043600   125938.44     -471.83932     -13444562       1.8721183      375023.18     -13069539       614.72204      614.72204      614.72204      1692.639       2307.361       1692.639       2307.361       1692.639       2307.361       2.3229312e+08  0.25           4768400        1.8737664      4466.4041      17865.619      3.7029229    
  16043800   124279.29     -466.93989     -13444419       1.8721183      370082.51     -13074336       614.72204      614.72204      614.72204      1692.639       2307.361       1692.639       2307.361       1692.639       2307.361       2.3229312e+08  0.25           4768450        1.8846717      4584.9485      18339.713      3.6912837    
  16044000   123584.77     -465.60311     -13445458       1.8721183      368014.34     -13077443       614.72204      614.72204      614.72204      1692.639       2307.361       1692.639       2307.361       1692.639       2307.361       2.3229312e+08  0.25           4768500        1.8959742      4423.7938      17695.258      3.680424     
  16044200   123976.58     -464.26978     -13452178       1.8721183      369181.09     -13082997       614.72204      614.72204      614.72204      1692.639       2307.361       1692.639       2307.361       1692.639       2307.361       2.3229312e+08  0.25           4768550        1.9070832      4500.8313      18003.301      3.6691869    
  16044400   125215.95     -459.24353     -13449041       1.8721183      372871.73     -13076170       614.72204      614.72204      614.72204      1692.639       2307.361       1692.639       2307.361       1692.639       2307.361       2.3229312e+08  0.25           4768600        1.918885       4236.6325      16946.438      3.6592729    
  16044600   126783.83     -454.78862     -13449887       1.8721183      377540.59     -13072347       614.72204      614.72204      614.72204      1692.639       2307.361       1692.639       2307.361       1692.639       2307.361       2.3229312e+08  0.25           4768650        1.9298782      4548.2952      18193.242      3.647808     
  16044800   128086.54     -450.56309     -13451319       1.8721183      381419.86     -13069899       614.72204      614.72204      614.72204      1692.639       2307.361       1692.639       2307.361       1692.639       2307.361       2.3229312e+08  0.25           4768700        1.9411461      4437.3727      17749.508      3.6368634    
  16045000   128949.38     -446.02876     -13451632       1.8721183      383989.23     -13067643       614.72204      614.72204      614.72204      1692.639       2307.361       1692.639       2307.361       1692.639       2307.361       2.3229312e+08  0.25           4768750        1.9521366      4549.3852      18197.547      3.6254       
  16045200   129582.57     -437.03993     -13449590       1.8721183      385874.76     -13063715       614.72204      614.72204      614.72204      1692.639       2307.361       1692.639       2307.361       1692.639       2307.361       2.3229312e+08  0.25           4768800        1.9633254      4468.7529      17875.056      3.6143069    
  16045400   130250.41     -437.68921     -13448342       1.8721183      387863.49     -13060478       614.72204      614.72204      614.72204      1692.639       2307.361       1692.639       2307.361       1692.639       2307.361       2.3229312e+08  0.25           4768850        1.9744418      4497.8655      17991.388      3.6030808    
  16045600   131103.59     -438.58576     -13448178       1.8721183      390404.11     -13057774       614.72204      614.72204      614.72204      1692.639       2307.361       1692.639       2307.361       1692.639       2307.361       2.3229312e+08  0.25           4768900        1.9856867      4446.4736      17785.928      3.5920883    
  16045800   132204.66     -433.66054     -13448407       1.8721183      393682.92     -13054724       614.72204      614.72204      614.72204      1692.639       2307.361       1692.639       2307.361       1692.639       2307.361       2.3229312e+08  0.25           4768950        1.9966012      4581.0375      18324.142      3.5805004    
  16046000   133572.09     -425.44583     -13449717       1.8721183      397754.88     -13051962       614.72204      614.72204      614.72204      1692.639       2307.361       1692.639       2307.361       1692.639       2307.361       2.3229312e+08  0.25           4769000        2.0077532      4483.4862      17933.98       3.5693424    
  16046200   135385.8      -425.88582     -13451017       1.8721183      403155.8      -13047861       614.72204      614.72204      614.72204      1692.639       2307.361       1692.639       2307.361       1692.639       2307.361       2.3229312e+08  0.25           4769050        2.0190384      4430.5899      17722.322      3.5584191    
  16046400   138726.14     -423.4313      -13447790       1.8721183      413102.76     -13034687       614.72204      614.72204      614.72204      1692.639       2307.361       1692.639       2307.361       1692.639       2307.361       2.3229312e+08  0.25           4769100        2.0304612      4377.2281      17508.965      3.547732     
  16046600   144213.68     -415.00686     -13457939       1.8721183      429443.73     -13028496       614.72204      614.72204      614.72204      1692.639       2307.361       1692.639       2307.361       1692.639       2307.361       2.3229312e+08  0.25           4769150        2.0415339      4515.5725      18062.225      3.536431     
  16046800   146263.47     -408.759       -13467303       1.8721183      435547.63     -13031756       614.72204      614.72204      614.72204      1692.639       2307.361       1692.639       2307.361       1692.639       2307.361       2.3229312e+08  0.25           4769200        2.0529718      4371.4872      17486.036      3.5257589    
  16047000   143207.14     -406.9599      -13466258       1.8721183      426446.42     -13039811       614.72204      614.72204      614.72204      1692.639       2307.361       1692.639       2307.361       1692.639       2307.361       2.3229312e+08  0.25           4769250        2.0638601      4592.0653      18368.135      3.5141434    
  16047200   138261.36     -406.26646     -13472165       1.8721183      411718.73     -13060446       614.72204      614.72204      614.72204      1692.639       2307.361       1692.639       2307.361       1692.639       2307.361       2.3229312e+08  0.25           4769300        2.0746785      4621.7431      18486.996      3.5024174    
  16047400   135943.94     -405.42621     -13471063       1.8721183      404817.83     -13066245       614.72204      614.72204      614.72204      1692.639       2307.361       1692.639       2307.361       1692.639       2307.361       2.3229312e+08  0.25           4769350        2.0854732      4631.9001      18527.698      3.4906614    
  16047600   135704.96     -406.38908     -13470330       1.8721183      404106.19     -13066224       614.72204      614.72204      614.72204      1692.639       2307.361       1692.639       2307.361       1692.639       2307.361       2.3229312e+08  0.25           4769400        2.0969575      4353.7817      17415.037      3.4800602    
  16047800   136973.18     -400.07585     -13471079       1.8721183      407882.73     -13063196       614.72204      614.72204      614.72204      1692.639       2307.361       1692.639       2307.361       1692.639       2307.361       2.3229312e+08  0.25           4769450        2.1078251      4600.8301      18403.398      3.4684347    
  16048000   139496.94     -393.77908     -13472255       1.8721183      415398.08     -13056857       614.72204      614.72204      614.72204      1692.639       2307.361       1692.639       2307.361       1692.639       2307.361       2.3229312e+08  0.25           4769500        2.1197083      4207.612       16830.403      3.4584744    
  16048200   142251.56     -389.3621      -13470420       1.8721183      423600.86     -13046819       614.72204      614.72204      614.72204      1692.639       2307.361       1692.639       2307.361       1692.639       2307.361       2.3229312e+08  0.25           4769550        2.1308082      4504.5642      18018.364      3.4472264    
  16048400   144081.15     -385.76551     -13470079       1.8721183      429049.05     -13041030       614.72204      614.72204      614.72204      1692.639       2307.361       1692.639       2307.361       1692.639       2307.361       2.3229312e+08  0.25           4769600        2.1422263      4378.9935      17515.874      3.436491     
  16048600   144697.14     -379.95625     -13461618       1.8721183      430883.38     -13030735       614.72204      614.72204      614.72204      1692.639       2307.361       1692.639       2307.361       1692.639       2307.361       2.3229312e+08  0.25           4769650        2.15333        4503.0112      18012.179      3.4252478    
  16048800   144428.84     -375.37761     -13462041       1.8721183      430084.43     -13031956       614.72204      614.72204      614.72204      1692.639       2307.361       1692.639       2307.361       1692.639       2307.361       2.3229312e+08  0.25           4769700        2.16494        4306.6352      17226.428      3.4148051    
  16049000   143779.66     -372.74794     -13454903       1.8721183      428151.27     -13026752       614.72204      614.72204      614.72204      1692.639       2307.361       1692.639       2307.361       1692.639       2307.361       2.3229312e+08  0.25           4769750        2.17592        4553.705       18214.896      3.4033649    
  16049200   143273.97     -371.22718     -13454223       1.8721183      426645.43     -13027578       614.72204      614.72204      614.72204      1692.639       2307.361       1692.639       2307.361       1692.639       2307.361       2.3229312e+08  0.25           4769800        2.1874285      4344.636       17378.462      3.3927492    
  16049400   144016.4      -366.76474     -13458642       1.8721183      428856.25     -13029786       614.72204      614.72204      614.72204      1692.639       2307.361       1692.639       2307.361       1692.639       2307.361       2.3229312e+08  0.25           4769850        2.19851        4512.025       18048.088      3.3814675    
  16049600   146820.41     -359.77108     -13457601       1.8721183      437206.1      -13020395       614.72204      614.72204      614.72204      1692.639       2307.361       1692.639       2307.361       1692.639       2307.361       2.3229312e+08  0.25           4769900        2.2098261      4418.4615      17673.741      3.3705459    
  16049800   150058.3      -355.51644     -13457685       1.8721183      446847.99     -13010837       614.72204      614.72204      614.72204      1692.639       2307.361       1692.639       2307.361       1692.639       2307.361       2.3229312e+08  0.25           4769950        2.2215121      4278.6452      17114.748      3.3601793    
  16050000   151940.68     -351.05758     -13457017       1.8721183      452453.39     -13004564       614.72204      614.72204      614.72204      1692.639       2307.361       1692.639       2307.361       1692.639       2307.361       2.3229312e+08  0.25           4770000        2.2360391      3441.8328      13767.315      3.3540616    
  16050200   151985.16     -349.67274     -13462980       1.8721183      452585.87     -13010394       614.72204      614.72204      614.72204      1692.639       2307.361       1692.639       2307.361       1692.639       2307.361       2.3229312e+08  0.25           4770050        2.2469931      4564.6014      18258.411      3.3425447    
  16050400   150398.48     -346.15139     -13467968       1.8721183      447860.98     -13020107       614.72204      614.72204      614.72204      1692.639       2307.361       1692.639       2307.361       1692.639       2307.361       2.3229312e+08  0.25           4770100        2.2583565      4400.0915      17600.32       3.3316376    
  16050600   147910.44     -346.16432     -13471437       1.8721183      440452.02     -13030985       614.72204      614.72204      614.72204      1692.639       2307.361       1692.639       2307.361       1692.639       2307.361       2.3229312e+08  0.25           4770150        2.2692305      4598.1202      18392.492      3.3200099    
  16050800   145860.21     -344.22526     -13470392       1.8721183      434346.81     -13036045       614.72204      614.72204      614.72204      1692.639       2307.361       1692.639       2307.361       1692.639       2307.361       2.3229312e+08  0.25           4770200        2.2806         4397.6805      17590.744      3.3091087    
  16051000   145942.03     -340.92914     -13473535       1.8721183      434590.44     -13038945       614.72204      614.72204      614.72204      1692.639       2307.361       1692.639       2307.361       1692.639       2307.361       2.3229312e+08  0.25           4770250        2.291593       4548.3742      18193.444      3.297661     
  16051200   150135.52     -335.24779     -13479881       1.8721183      447077.95     -13032803       614.72204      614.72204      614.72204      1692.639       2307.361       1692.639       2307.361       1692.639       2307.361       2.3229312e+08  0.25           4770300        2.3029801      4390.9483      17563.821      3.2867801    
  16051400   155716.03     -327.92559     -13480286       1.8721183      463695.74     -13016590       614.72204      614.72204      614.72204      1692.639       2307.361       1692.639       2307.361       1692.639       2307.361       2.3229312e+08  0.25           4770350        2.3139621      4552.9404      18211.79       3.2753209    
  16051600   157720.25     -320.02532     -13479187       1.8721183      469663.96     -13009523       614.72204      614.72204      614.72204      1692.639       2307.361       1692.639       2307.361       1692.639       2307.361       2.3229312e+08  0.25           4770400        2.325886       4193.2522      16773.027      3.2651886    
  16051800   157314.09     -317.52305     -13479607       1.8721183      468454.49     -13011152       614.72204      614.72204      614.72204      1692.639       2307.361       1692.639       2307.361       1692.639       2307.361       2.3229312e+08  0.25           4770450        2.3367936      4583.98        18335.888      3.2536241    
  16052000   155742.4      -315.12484     -13477726       1.8721183      463774.27     -13013952       614.72204      614.72204      614.72204      1692.639       2307.361       1692.639       2307.361       1692.639       2307.361       2.3229312e+08  0.25           4770500        2.3482312      4371.5109      17486.05       3.2427981    
  16052200   153991.62     -311.89475     -13476551       1.8721183      458560.74     -13017990       614.72204      614.72204      614.72204      1692.639       2307.361       1692.639       2307.361       1692.639       2307.361       2.3229312e+08  0.25           4770550        2.3597547      4338.9701      17355.889      3.2320835    
  16052400   153095.12     -310.28713     -13484597       1.8721183      455891.11     -13028706       614.72204      614.72204      614.72204      1692.639       2307.361       1692.639       2307.361       1692.639       2307.361       2.3229312e+08  0.25           4770600        2.3705389      4636.4005      18545.715      3.2203571    
  16052600   154453        -306.85147     -13486378       1.8721183      459934.66     -13026443       614.72204      614.72204      614.72204      1692.639       2307.361       1692.639       2307.361       1692.639       2307.361       2.3229312e+08  0.25           4770650        2.3818243      4430.5133      17721.901      3.209315     
  16052800   159791.76     -299.37494     -13487051       1.8721183      475832.58     -13011218       614.72204      614.72204      614.72204      1692.639       2307.361       1692.639       2307.361       1692.639       2307.361       2.3229312e+08  0.25           4770700        2.3925617      4656.6529      18626.67       3.197538     
  16053000   164614.94     -290.73266     -13486490       1.8721183      490195.18     -12996295       614.72204      614.72204      614.72204      1692.639       2307.361       1692.639       2307.361       1692.639       2307.361       2.3229312e+08  0.25           4770750        2.4042929      4262.0921      17048.365      3.1870884    
  16053200   165271.51     -286.0406      -13483227       1.8721183      492150.33     -12991076       614.72204      614.72204      614.72204      1692.639       2307.361       1692.639       2307.361       1692.639       2307.361       2.3229312e+08  0.25           4770800        2.4154007      4501.3446      18005.322      3.1758071    
  16053400   163318.71     -280.59927     -13474429       1.8721183      486335.23     -12988093       614.72204      614.72204      614.72204      1692.639       2307.361       1692.639       2307.361       1692.639       2307.361       2.3229312e+08  0.25           4770850        2.4267737      4396.3928      17585.672      3.1648731    
  16053600   160446.93     -277.96086     -13474879       1.8721183      477783.55     -12997096       614.72204      614.72204      614.72204      1692.639       2307.361       1692.639       2307.361       1692.639       2307.361       2.3229312e+08  0.25           4770900        2.4378659      4507.6582      18030.62       3.153572     
  16053800   158275.36     -277.34136     -13473411       1.8721183      471316.99     -13002094       614.72204      614.72204      614.72204      1692.639       2307.361       1692.639       2307.361       1692.639       2307.361       2.3229312e+08  0.25           4770950        2.4486733      4626.4708      18505.878      3.1419073    
  16054000   157970.94     -274.34807     -13471901       1.8721183      470410.47     -13001491       614.72204      614.72204      614.72204      1692.639       2307.361       1692.639       2307.361       1692.639       2307.361       2.3229312e+08  0.25           4771000        2.4599394      4438.1029      17752.314      3.1308343    
  16054200   161014.11     -266.63304     -13474534       1.8721183      479472.51     -12995061       614.72204      614.72204      614.72204      1692.639       2307.361       1692.639       2307.361       1692.639       2307.361       2.3229312e+08  0.25           4771050        2.4706297      4677.1315      18708.608      3.1190325    
  16054400   168308.45     -257.29141     -13473712       1.8721183      501193.81     -12972518       614.72204      614.72204      614.72204      1692.639       2307.361       1692.639       2307.361       1692.639       2307.361       2.3229312e+08  0.25           4771100        2.4822999      4284.3815      17137.442      3.1084682    
  16054600   171411.24     -252.99024     -13467936       1.8721183      510433.4      -12957503       614.72204      614.72204      614.72204      1692.639       2307.361       1692.639       2307.361       1692.639       2307.361       2.3229312e+08  0.25           4771150        2.4930024      4671.8358      18687.409      3.0966914    
  16054800   170172.36     -242.40858     -13451113       1.8721183      506744.22     -12944368       614.72204      614.72204      614.72204      1692.639       2307.361       1692.639       2307.361       1692.639       2307.361       2.3229312e+08  0.25           4771200        2.5043626      4401.3283      17605.328      3.0857347    
[...]
  16999400   310.85168     -1.1432926     -14280452       2.0671193      925.66321     -14279527       594.75033      594.75033      594.75033      1702.6248      2297.3752      1702.6248      2297.3752      1702.6248      2297.3752      2.1037982e+08  0.25           5007350        20.400387      3547.02        14188.19       0.74721536   
  16999600   310.86079     -1.5476569     -14280586       2.0671444      925.69034     -14279660       594.74793      594.74793      594.74793      1702.626       2297.374       1702.626       2297.374       1702.626       2297.374       2.1037728e+08  0.25           5007400        20.414898      3445.8353      13783.287      0.73313175   
  16999800   310.86634      5.1322354     -14280719       2.0674025      925.70688     -14279794       594.72318      594.72318      594.72318      1702.6384      2297.3616      1702.6384      2297.3616      1702.6384      2297.3616      2.1035101e+08  0.25           5007450        20.429544      3413.8977      13655.601      0.71905233   
  17000000   310.7044       5.9263285     -14280853       2.067466       925.22464     -14279928       594.71709      594.71709      594.71709      1702.6415      2297.3585      1702.6415      2297.3585      1702.6415      2297.3585      2.1034455e+08  0.25           5007500        20.445921      3052.9384      12211.706      0.70503184   
  17000200   310.76319      2.7933222     -14280987       2.0674006      925.39971     -14280062       594.72336      594.72336      594.72336      1702.6383      2297.3617      1702.6383      2297.3617      1702.6383      2297.3617      2.103512e+08   0.25           5007550        20.459887      3580.1511      14320.651      0.69092665   
  17000400   310.79134      0.52647394    -14281121       2.0673637      925.48353     -14280195       594.7269       594.7269       594.7269       1702.6365      2297.3635      1702.6365      2297.3635      1702.6365      2297.3635      2.1035496e+08  0.25           5007600        20.474272      3475.882       13903.494      0.6768355    
  17000600   310.77402      0.65915042    -14281254       2.0674044      925.43197     -14280328       594.723        594.723        594.723        1702.6385      2297.3615      1702.6385      2297.3615      1702.6385      2297.3615      2.1035081e+08  0.25           5007650        20.48857       3496.8556      13987.42       0.66274117   
  17000800   310.7402       3.502314      -14281387       2.0675325      925.33125     -14280461       594.71072      594.71072      594.71072      1702.6446      2297.3554      1702.6446      2297.3554      1702.6446      2297.3554      2.1033778e+08  0.25           5007700        20.502499      3589.736       14358.938      0.64863484   
  17001000   310.56326      8.1694877     -14281518       2.0677192      924.80435     -14280593       594.69281      594.69281      594.69281      1702.6536      2297.3464      1702.6536      2297.3464      1702.6536      2297.3464      2.1031879e+08  0.25           5007750        20.516882      3476.3729      13905.523      0.6345428    
  17001200   310.62787      7.6760235     -14283545       2.0677473      924.99675     -14282620       594.69012      594.69012      594.69012      1702.6549      2297.3451      1702.6549      2297.3451      1702.6549      2297.3451      2.1031593e+08  0.25           5007800        20.531715      3370.8261      13483.273      0.62046398   
  17001400   310.63959     -0.85907441    -14281783       2.0674988      925.03166     -14280858       594.71394      594.71394      594.71394      1702.643       2297.357       1702.643       2297.357       1702.643       2297.357       2.1034121e+08  0.25           5007850        20.545446      3641.5142      14566.085      0.60635158   
  17001600   310.61024     -7.3246541     -14281914       2.0673268      924.94426     -14280989       594.73044      594.73044      594.73044      1702.6348      2297.3652      1702.6348      2297.3652      1702.6348      2297.3652      2.1035871e+08  0.25           5007900        20.560041      3425.8183      13703.303      0.5922646    
  17001800   310.58725     -5.9004969     -14283940       2.0674168      924.87579     -14283015       594.7218       594.7218       594.7218       1702.6391      2297.3609      1702.6391      2297.3609      1702.6391      2297.3609      2.1034955e+08  0.25           5007950        20.574613      3431.1603      13724.615      0.5781763    
  17002000   310.42261     -0.35635826    -14284072       2.0676311      924.38553     -14283148       594.70126      594.70126      594.70126      1702.6494      2297.3506      1702.6494      2297.3506      1702.6494      2297.3506      2.1032775e+08  0.25           5008000        20.589037      3466.4487      13865.703      0.56408327   
  17002200   310.50543      0.47435775    -14284203       2.0676939      924.63215     -14283278       594.69524      594.69524      594.69524      1702.6524      2297.3476      1702.6524      2297.3476      1702.6524      2297.3476      2.1032136e+08  0.25           5008050        20.603208      3528.3273      14113.432      0.54998302   
  17002400   310.55885     -1.4174612     -14282438       2.0676605      924.79122     -14281514       594.69844      594.69844      594.69844      1702.6508      2297.3492      1702.6508      2297.3492      1702.6508      2297.3492      2.1032476e+08  0.25           5008100        20.617575      3480.3052      13921.195      0.53588777   
  17002600   310.58374      2.8248387     -14282568       2.0678349      924.86535     -14281644       594.68172      594.68172      594.68172      1702.6591      2297.3409      1702.6591      2297.3409      1702.6591      2297.3409      2.1030702e+08  0.25           5008150        20.631908      3488.388       13953.533      0.5217913    
  17002800   310.56436      2.7054007     -14282699       2.0678691      924.80765     -14281774       594.67845      594.67845      594.67845      1702.6608      2297.3392      1702.6608      2297.3392      1702.6608      2297.3392      2.1030355e+08  0.25           5008200        20.646247      3486.8858      13947.582      0.50769465   
  17003000   310.38        -1.1810809     -14282461       2.0677753      924.25865     -14281536       594.68743      594.68743      594.68743      1702.6563      2297.3437      1702.6563      2297.3437      1702.6563      2297.3437      2.1031308e+08  0.25           5008250        20.660278      3563.6385      14254.536      0.49359031   
  17003200   310.4845       0.54674918    -14282590       2.0678716      924.56981     -14281666       594.6782       594.6782       594.6782       1702.6609      2297.3391      1702.6609      2297.3391      1702.6609      2297.3391      2.1030328e+08  0.25           5008300        20.674447      3528.8223      14115.256      0.47948927   
  17003400   310.56328      2.8921627     -14282720       2.0679899      924.80441     -14281795       594.66687      594.66687      594.66687      1702.6666      2297.3334      1702.6666      2297.3334      1702.6666      2297.3334      2.1029126e+08  0.25           5008350        20.689136      3403.8141      13615.349      0.46539984   
  17003600   310.58189      3.89548       -14282850       2.0680658      924.85982     -14281925       594.65959      594.65959      594.65959      1702.6702      2297.3298      1702.6702      2297.3298      1702.6702      2297.3298      2.1028354e+08  0.25           5008400        20.703596      3457.9096      13831.47       0.45130459   
  17003800   310.56306      1.1978677     -14282980       2.0680213      924.80375     -14282055       594.66386      594.66386      594.66386      1702.6681      2297.3319      1702.6681      2297.3319      1702.6681      2297.3319      2.1028807e+08  0.25           5008450        20.719722      3100.4593      12401.866      0.43724402   
  17004000   310.37841     -1.6298572     -14283110       2.067973       924.25392     -14282186       594.66848      594.66848      594.66848      1702.6658      2297.3342      1702.6658      2297.3342      1702.6658      2297.3342      2.1029297e+08  0.25           5008500        20.736211      3032.4735      12129.908      0.42318802   
  17004200   310.52863      3.3396171     -14283608       2.068189       924.70123     -14282683       594.64778      594.64778      594.64778      1702.6761      2297.3239      1702.6761      2297.3239      1702.6761      2297.3239      2.1027102e+08  0.25           5008550        20.751776      3212.3304      12849.262      0.40911051   
  17004400   310.60106     -0.30236518    -14283738       2.0681144      924.91692     -14282814       594.65493      594.65493      594.65493      1702.6725      2297.3275      1702.6725      2297.3275      1702.6725      2297.3275      2.102786e+08   0.25           5008600        20.766626      3367.0122      13468.157      0.39501738   
  17004600   310.61044      0.20835677    -14283869       2.0681772      924.94484     -14282944       594.64891      594.64891      594.64891      1702.6755      2297.3245      1702.6755      2297.3245      1702.6755      2297.3245      2.1027221e+08  0.25           5008650        20.780544      3592.4273      14369.692      0.38090614   
  17004800   310.59809      3.2285287     -14283998       2.068323       924.90808     -14283073       594.63494      594.63494      594.63494      1702.6825      2297.3175      1702.6825      2297.3175      1702.6825      2297.3175      2.1025739e+08  0.25           5008700        20.796849      3066.4938      12265.842      0.36683727   
  17005000   310.37434     -1.2014742     -14284129       2.0682214      924.24177     -14283205       594.64468      594.64468      594.64468      1702.6777      2297.3223      1702.6777      2297.3223      1702.6777      2297.3223      2.1026772e+08  0.25           5008750        20.812172      3263.1014      13052.47       0.35274872   
  17005200   310.48779     -0.09396332    -14283890       2.068296       924.57963     -14282966       594.63752      594.63752      594.63752      1702.6812      2297.3188      1702.6812      2297.3188      1702.6812      2297.3188      2.1026013e+08  0.25           5008800        20.827073      3355.4968      13422.118      0.33865163   
  17005400   310.55407     -1.3420907     -14284020       2.0682981      924.77699     -14283096       594.63733      594.63733      594.63733      1702.6813      2297.3187      1702.6813      2297.3187      1702.6813      2297.3187      2.1025993e+08  0.25           5008850        20.841781      3399.4629      13597.837      0.32455045   
  17005600   310.55419     -0.20343899    -14284150       2.0683781      924.77735     -14283226       594.62966      594.62966      594.62966      1702.6852      2297.3148      1702.6852      2297.3148      1702.6852      2297.3148      2.1025179e+08  0.25           5008900        20.855619      3613.3353      14453.359      0.31043549   
  17005800   310.52521      2.24651       -14284280       2.0685006      924.69105     -14283355       594.61792      594.61792      594.61792      1702.691       2297.309       1702.691       2297.309       1702.691       2297.309       2.1023934e+08  0.25           5008950        20.870325      3399.8759      13599.396      0.29633325   
  17006000   310.28119      3.2594534     -14284410       2.0685748      923.9644      -14283486       594.61081      594.61081      594.61081      1702.6946      2297.3054      1702.6946      2297.3054      1702.6946      2297.3054      2.102318e+08   0.25           5009000        20.88427       3585.6642      14342.671      0.28221989   
  17006200   310.36644     -3.8449716     -14284539       2.0683787      924.21825     -14283614       594.6296       594.6296       594.6296       1702.6852      2297.3148      1702.6852      2297.3148      1702.6852      2297.3148      2.1025172e+08  0.25           5009050        20.898651      3476.6946      13906.931      0.26811236   
  17006400   310.47544      6.9364148     -14284667       2.0687768      924.54283     -14283742       594.59146      594.59146      594.59146      1702.7043      2297.2957      1702.7043      2297.2957      1702.7043      2297.2957      2.1021127e+08  0.25           5009100        20.912551      3597.2639      14388.993      0.25399861   
  17006600   310.43524     -5.4453841     -14284796       2.0684033      924.42315     -14283872       594.62724      594.62724      594.62724      1702.6864      2297.3136      1702.6864      2297.3136      1702.6864      2297.3136      2.1024923e+08  0.25           5009150        20.927227      3406.9263      13627.717      0.23989406   
  17006800   310.44852      8.1896351     -14284924       2.068898       924.46267     -14283999       594.57985      594.57985      594.57985      1702.7101      2297.2899      1702.7101      2297.2899      1702.7101      2297.2899      2.1019896e+08  0.25           5009200        20.941338      3543.2019      14172.747      0.22578264   
  17007000   310.15489     -6.6094785     -14285053       2.0684411      923.58831     -14284129       594.62362      594.62362      594.62362      1702.6882      2297.3118      1702.6882      2297.3118      1702.6882      2297.3118      2.1024539e+08  0.25           5009250        20.955304      3580.187       14320.779      0.21166976   
  17007200   310.31986      5.0774578     -14285181       2.0688727      924.07955     -14284257       594.58227      594.58227      594.58227      1702.7089      2297.2911      1702.7089      2297.2911      1702.7089      2297.2911      2.1020152e+08  0.25           5009300        20.969135      3614.905       14459.637      0.1975558    
  17007400   310.41815      6.4917525     -14285309       2.0689606      924.37225     -14284385       594.57385      594.57385      594.57385      1702.7131      2297.2869      1702.7131      2297.2869      1702.7131      2297.2869      2.101926e+08   0.25           5009350        20.983533      3472.8727      13891.504      0.18344718   
  17007600   310.39316     -5.9376438     -14285437       2.0685796      924.29782     -14284513       594.61035      594.61035      594.61035      1702.6948      2297.3052      1702.6948      2297.3052      1702.6948      2297.3052      2.1023131e+08  0.25           5009400        20.997555      3565.6576      14262.622      0.16933514   
  17007800   310.37364     -6.2857035     -14285565       2.0686072      924.23969     -14284641       594.6077       594.6077       594.6077       1702.6961      2297.3039      1702.6961      2297.3039      1702.6961      2297.3039      2.102285e+08   0.25           5009450        21.012213      3411.2066      13644.821      0.15522791   
  17008000   310.1669       0.24373866    -14285694       2.0688695      923.62407     -14284770       594.58258      594.58258      594.58258      1702.7087      2297.2913      1702.7087      2297.2913      1702.7087      2297.2913      2.1020185e+08  0.25           5009500        21.026534      3491.2927      13965.126      0.14111769   
  17008200   310.32508      4.8390509     -14285821       2.0690674      924.0951      -14284897       594.56362      594.56362      594.56362      1702.7182      2297.2818      1702.7182      2297.2818      1702.7182      2297.2818      2.1018175e+08  0.25           5009550        21.040975      3462.4778      13849.962      0.12700791   
  17008400   310.43604      6.445757      -14285948       2.0691636      924.42551     -14285024       594.5544       594.5544       594.5544       1702.7228      2297.2772      1702.7228      2297.2772      1702.7228      2297.2772      2.1017197e+08  0.25           5009600        21.054838      3606.5676      14426.244      0.11289459   
  17008600   310.46131      5.9362898     -14286444       2.0691937      924.50076     -14285520       594.55153      594.55153      594.55153      1702.7242      2297.2758      1702.7242      2297.2758      1702.7242      2297.2758      2.1016892e+08  0.25           5009650        21.0693        3457.3518      13829.466      0.098784405  
  17008800   310.42047     -3.8911943     -14286205       2.06889        924.37916     -14285280       594.58061      594.58061      594.58061      1702.7097      2297.2903      1702.7097      2297.2903      1702.7097      2297.2903      2.1019977e+08  0.25           5009700        21.083646      3485.2649      13940.955      0.084673288  
  17009000   310.23382      3.6613135     -14286701       2.069196       923.82334     -14285777       594.5513       594.5513       594.5513       1702.7244      2297.2756      1702.7244      2297.2756      1702.7244      2297.2756      2.1016868e+08  0.25           5009750        21.098282      3416.4604      13665.873      0.070562821  
  17009200   310.36539     -0.51397221    -14286461       2.0690854      924.21512     -14285537       594.56189      594.56189      594.56189      1702.7191      2297.2809      1702.7191      2297.2809      1702.7191      2297.2809      2.1017991e+08  0.25           5009800        21.11243       3534.0092      14136.082      0.056450352  
  17009400   310.4931       4.8812862     -14286221       2.0693029      924.59542     -14285296       594.54106      594.54106      594.54106      1702.7295      2297.2705      1702.7295      2297.2705      1702.7295      2297.2705      2.1015782e+08  0.25           5009850        21.127483      3321.5121      13286.035      0.042339649  
  17009600   310.50842      4.4339869     -14286718       2.0693319      924.64104     -14285793       594.53829      594.53829      594.53829      1702.7309      2297.2691      1702.7309      2297.2691      1702.7309      2297.2691      2.1015488e+08  0.25           5009900        21.141587      3545.2067      14180.849      0.02822642   
  17009800   310.46758      0.32899051    -14286478       2.0692212      924.51944     -14285554       594.54889      594.54889      594.54889      1702.7256      2297.2744      1702.7256      2297.2744      1702.7256      2297.2744      2.1016613e+08  0.25           5009950        21.156423      3370.075       13480.12       0.014113693  
  17010000   310.23519      3.6410513     -14286607       2.0693699      923.82741     -14285683       594.53465      594.53465      594.53465      1702.7327      2297.2673      1702.7327      2297.2673      1702.7327      2297.2673      2.1015102e+08  0.25           5010000        21.170388      3580.4395      14321.951      0            
Loop time of 21.1704 on 4 procs for 300000 steps with 1000 atoms

Performance: 306.088 ns/day, 0.078 hours/ns, 14170.727 timesteps/s
99.5% CPU use with 4 MPI tasks x 1 OpenMP threads

MPI task timing breakdown:
Section |  min time  |  avg time  |  max time  |%varavg| %total
---------------------------------------------------------------
Pair    | 8.8126     | 8.9701     | 9.4243     |   8.8 | 42.37
Neigh   | 0.0082361  | 0.0083625  | 0.0085381  |   0.1 |  0.04
Comm    | 6.9862     | 7.3456     | 7.5817     |   8.1 | 34.70
Output  | 0.047097   | 0.051416   | 0.063495   |   3.1 |  0.24
Modify  | 3.9706     | 4.0101     | 4.0641     |   2.0 | 18.94
Other   |            | 0.7848     |            |       |  3.71

Nlocal:            250 ave         252 max         245 min
Histogram: 1 0 0 0 0 0 0 0 1 2
Nghost:         867.25 ave         874 max         860 min
Histogram: 1 0 0 0 0 2 0 0 0 1
Neighs:        1523.25 ave        1586 max        1499 min
Histogram: 3 0 0 0 0 0 0 0 0 1

Total # of neighbors = 6093
Ave neighs/atom = 6.093
Neighbor list builds = 50
Dangerous builds = 14

# run_style
run_style verlet

# write restart
write_restart ${write_res}
write_restart ./pgnpmf/8020/equpmf16.res
System init for write_restart ...
Generated 0 of 1 mixed pair_coeff terms from geometric mixing rule

Total wall time: 0:01:01
