LAMMPS (23 Jun 2022 - Update 1)
OMP_NUM_THREADS environment is not set. Defaulting to 1 thread. (src/comm.cpp:98)
  using 1 OpenMP thread(s) per MPI task
# Read restart
read_restart ${read_res}
read_restart ./pgnpmf/8020/equpmf44.res
Reading restart file ...
  restart file = 23 Jun 2022, LAMMPS = 23 Jun 2022
  restoring atom style atomic from restart
  orthogonal box = (1716.2033 1716.2033 1716.2033) to (2283.7967 2283.7967 2283.7967)
  2 by 1 by 2 MPI processor grid
  restoring pair style table from restart
  1000 atoms
  read_restart CPU = 0.006 seconds

# Settings

pair_style table spline 9941

pair_coeff 1 1 ./pgnpmf/N20.txt DE_GNP 75.6
pair_coeff 2 2 ./pgnpmf/N100.txt DE_GNP 115.92
WARNING: 3 of 9941 force values in table DE_GNP are inconsistent with -dE/dr.
WARNING:  Should only be flagged at inflection points (src/pair_table.cpp:463)
pair_coeff 1 2 ./pgnpmf/mixed_potential.txt DE_GNP 95.66
WARNING: 1562 of 9941 force values in table DE_GNP are inconsistent with -dE/dr.
WARNING:  Should only be flagged at inflection points (src/pair_table.cpp:463)

#Neigh_list Calc Frequency

neigh_modify delay 0 every 1 check yes

# Saving Frequency (50 frames)

variable ts_save equal ${steps_equ}
variable ts_save equal 5000

# Dump
#dump 1 all custom ${ts_save} ./pgnpmf/${folder}/equilibration/trajectory/trajectory_${usic}_${trial}.equ.custom type x y z ix iy iz
#dump_modify 1 first no sort id
dump 2 all cfg 50000 ./pgnpmf/${folder}/equilibration/trajectory/dumpgen.tens_*.cfg mass type xs ys zs fx fy fz
dump 2 all cfg 50000 ./pgnpmf/8020/equilibration/trajectory/dumpgen.tens_*.cfg mass type xs ys zs fx fy fz
dump_modify 2 element N20 N100

# thermo_style
thermo_style custom step temp press pe density ke etotal lx ly lz xlo xhi ylo yhi zlo zhi vol dt time cpu tpcpu spcpu cpuremain

# run info
timestep ${ts}
timestep 0.25
thermo 200

# fix

fix 1 all momentum 1000 linear 1 1 1 angular
variable T equal ${temp}
variable T equal 300
fix 2 all nvt temp ${T} 370000 100.0
fix 2 all nvt temp 300 370000 100.0

run 100000
Generated 0 of 1 mixed pair_coeff terms from geometric mixing rule
Unused restart file global fix info:
  fix style: npt, fix ID: 5
Neighbor list info ...
  update every 1 steps, delay 0 steps, check yes
  max neighbors/atom: 2000, page size: 100000
  master list distance cutoff = 117.92
  ghost atom cutoff = 117.92
  binsize = 58.96, bins = 10 10 10
  1 neighbor lists, perpetual/occasional/extra = 1 0 0
  (1) pair table, perpetual
      attributes: half, newton on
      pair build: half/bin/atomonly/newton
      stencil: half/bin/3d
      bin: standard
Per MPI rank memory allocation (min/avg/max) = 3.093 | 3.093 | 3.094 Mbytes
   Step          Temp          Press          PotEng        Density         KinEng         TotEng           Lx             Ly             Lz            Xlo            Xhi            Ylo            Yhi            Zlo            Zhi           Volume           Dt            Time           CPU           T/CPU          S/CPU         CPULeft    
  45010000   299.51192     -12.502242     -15943868       2.3782518      891.89537     -15942976       567.59331      567.59331      567.59331      1716.2033      2283.7967      1716.2033      2283.7967      1716.2033      2283.7967      1.8285709e+08  0.25           12010000       0              0              0              0            
  45010200   330.59584     -12.830086     -15943893       2.3782518      984.45796     -15942909       567.59331      567.59331      567.59331      1716.2033      2283.7967      1716.2033      2283.7967      1716.2033      2283.7967      1.8285709e+08  0.25           12010050       0.015840629    3156.2546      12624.372      7.9057778    
  45010400   388.07695     -13.211276     -15943921       2.3782518      1155.6269     -15942766       567.59331      567.59331      567.59331      1716.2033      2283.7967      1716.2033      2283.7967      1716.2033      2283.7967      1.8285709e+08  0.25           12010100       0.029930987    3548.549       14194.204      7.4534253    
  45010600   473.88637     -13.675622     -15943952       2.3782518      1411.1527     -15942540       567.59331      567.59331      567.59331      1716.2033      2283.7967      1716.2033      2283.7967      1716.2033      2283.7967      1.8285709e+08  0.25           12010150       0.043914999    3575.5379      14302.001      7.2756743    
  45010800   590.17906     -13.913411     -15942091       2.3782518      1757.4525     -15940333       567.59331      567.59331      567.59331      1716.2033      2283.7967      1716.2033      2283.7967      1716.2033      2283.7967      1.8285709e+08  0.25           12010200       0.058186409    3503.5027      14014.062      7.2154133    
  45011000   743.87044     -14.457678     -15942128       2.3782518      2215.1191     -15939913       567.59331      567.59331      567.59331      1716.2033      2283.7967      1716.2033      2283.7967      1716.2033      2283.7967      1.8285709e+08  0.25           12010250       0.072346711    3531.0141      14124.139      7.1625472    
  45011200   945.84386     -14.884069     -15942168       2.3782518      2816.5615     -15939351       567.59331      567.59331      567.59331      1716.2033      2283.7967      1716.2033      2283.7967      1716.2033      2283.7967      1.8285709e+08  0.25           12010300       0.086977616    3417.3447      13669.136      7.1613991    
  45011400   1209.295      -15.022393     -15942211       2.3782518      3601.074      -15938610       567.59331      567.59331      567.59331      1716.2033      2283.7967      1716.2033      2283.7967      1716.2033      2283.7967      1.8285709e+08  0.25           12010350       0.10047566     3704.2882      14817.351      7.0765316    
  45011600   1551.5337     -15.037105     -15942259       2.3782518      4620.2024     -15937639       567.59331      567.59331      567.59331      1716.2033      2283.7967      1716.2033      2283.7967      1716.2033      2283.7967      1.8285709e+08  0.25           12010400       0.1154308      3343.4052      13373.725      7.0991207    
  45011800   1993.7297     -14.953461     -15942311       2.3782518      5936.9865     -15936374       567.59331      567.59331      567.59331      1716.2033      2283.7967      1716.2033      2283.7967      1716.2033      2283.7967      1.8285709e+08  0.25           12010450       0.12953902     3543.996       14175.862      7.0672071    
  45012000   2560.2516     -14.100074     -15943895       2.3782518      7623.992      -15936271       567.59331      567.59331      567.59331      1716.2033      2283.7967      1716.2033      2283.7967      1716.2033      2283.7967      1.8285709e+08  0.25           12010500       0.14317097     3667.8748      14671.582      7.0154846    
  45012200   3279.8447     -13.207853     -15943957       2.3782518      9766.8175     -15934190       567.59331      567.59331      567.59331      1716.2033      2283.7967      1716.2033      2283.7967      1716.2033      2283.7967      1.8285709e+08  0.25           12010550       0.15683814     3658.411       14633.48       6.9722732    
  45012400   4180.4092     -13.241602     -15944021       2.3782518      12448.545     -15931573       567.59331      567.59331      567.59331      1716.2033      2283.7967      1716.2033      2283.7967      1716.2033      2283.7967      1.8285709e+08  0.25           12010600       0.17100111     3530.3198      14121.366      6.9541397    
  45012600   5287.3649     -13.30844      -15942194       2.3782518      15744.87      -15926449       567.59331      567.59331      567.59331      1716.2033      2283.7967      1716.2033      2283.7967      1716.2033      2283.7967      1.8285709e+08  0.25           12010650       0.18476563     3632.5438      14529.95       6.9216937    
  45012800   6616.4857     -12.468249     -15941896       2.3782518      19702.765     -15922194       567.59331      567.59331      567.59331      1716.2033      2283.7967      1716.2033      2283.7967      1716.2033      2283.7967      1.8285709e+08  0.25           12010700       0.19883439     3553.9689      14216.181      6.9024679    
  45013000   8161.8859     -10.108497     -15934592       2.3782518      24304.702     -15910287       567.59331      567.59331      567.59331      1716.2033      2283.7967      1716.2033      2283.7967      1716.2033      2283.7967      1.8285709e+08  0.25           12010750       0.21249506     3660.1386      14640.533      6.8707504    
  45013200   9888.7708     -8.5088345     -15934675       2.3782518      29447.071     -15905228       567.59331      567.59331      567.59331      1716.2033      2283.7967      1716.2033      2283.7967      1716.2033      2283.7967      1.8285709e+08  0.25           12010800       0.22763947     3301.5273      13206.207      6.8861572    
  45013400   11706.362     -7.3773307     -15934016       2.3782518      34859.546     -15899156       567.59331      567.59331      567.59331      1716.2033      2283.7967      1716.2033      2283.7967      1716.2033      2283.7967      1.8285709e+08  0.25           12010850       0.24098024     3747.9352      14991.78       6.8467342    
  45013600   13476.146     -6.47107       -15933726       2.3782518      40129.66      -15893596       567.59331      567.59331      567.59331      1716.2033      2283.7967      1716.2033      2283.7967      1716.2033      2283.7967      1.8285709e+08  0.25           12010900       0.25534844     3479.9375      13919.73       6.8377143    
  45013800   15007.363     -3.8156566     -15933423       2.3782518      44689.365     -15888734       567.59331      567.59331      567.59331      1716.2033      2283.7967      1716.2033      2283.7967      1716.2033      2283.7967      1.8285709e+08  0.25           12010950       0.26934217     3573.0124      14292.012      6.8186596    
  45014000   16109.742     -1.7504735     -15931951       2.3782518      47972.062     -15883979       567.59331      567.59331      567.59331      1716.2033      2283.7967      1716.2033      2283.7967      1716.2033      2283.7967      1.8285709e+08  0.25           12011000       0.28270597     3741.4485      14965.759      6.7849911    
  45014200   16684.74      -2.2773301     -15931994       2.3782518      49684.307     -15882310       567.59331      567.59331      567.59331      1716.2033      2283.7967      1716.2033      2283.7967      1716.2033      2283.7967      1.8285709e+08  0.25           12011050       0.29655179     3611.1898      14444.858      6.7642478    
  45014400   16832.475     -4.3493121     -15932036       2.3782518      50124.235     -15881912       567.59331      567.59331      567.59331      1716.2033      2283.7967      1716.2033      2283.7967      1716.2033      2283.7967      1.8285709e+08  0.25           12011100       0.31094275     3474.407       13897.429      6.7559857    
  45014600   16842.912     -6.3413977     -15939065       2.3782518      50155.316     -15888909       567.59331      567.59331      567.59331      1716.2033      2283.7967      1716.2033      2283.7967      1716.2033      2283.7967      1.8285709e+08  0.25           12011150       0.32435294     3728.5207      14914.243      6.7268382    
  45014800   17064.897     -6.2611294     -15939067       2.3782518      50816.35      -15888251       567.59331      567.59331      567.59331      1716.2033      2283.7967      1716.2033      2283.7967      1716.2033      2283.7967      1.8285709e+08  0.25           12011200       0.33769807     3746.6497      14986.528      6.6977197    
  45015000   17735.609     -2.5542623     -15939055       2.3782518      52813.614     -15886241       567.59331      567.59331      567.59331      1716.2033      2283.7967      1716.2033      2283.7967      1716.2033      2283.7967      1.8285709e+08  0.25           12011250       0.3517352      3562.0048      14248.032      6.6830064    
  45015200   18879.57       0.20110988    -15939031       2.3782518      56220.135     -15882811       567.59331      567.59331      567.59331      1716.2033      2283.7967      1716.2033      2283.7967      1716.2033      2283.7967      1.8285709e+08  0.25           12011300       0.36522389     3706.7965      14827.02       6.6583562    
  45015400   20290.274      2.6954457     -15938646       2.3782518      60420.972     -15878225       567.59331      567.59331      567.59331      1716.2033      2283.7967      1716.2033      2283.7967      1716.2033      2283.7967      1.8285709e+08  0.25           12011350       0.37952092     3497.2301      13989.009      6.6486814    
  45015600   21637.399      6.4485701     -15938598       2.3782518      64432.478     -15874166       567.59331      567.59331      567.59331      1716.2033      2283.7967      1716.2033      2283.7967      1716.2033      2283.7967      1.8285709e+08  0.25           12011400       0.39337905     3608.0021      14431.961      6.6312841    
  45015800   22651.554      6.8296765     -15938155       2.3782518      67452.461     -15870703       567.59331      567.59331      567.59331      1716.2033      2283.7967      1716.2033      2283.7967      1716.2033      2283.7967      1.8285709e+08  0.25           12011450       0.40733861     3581.7519      14326.866      6.6157803    
  45016000   23216.216      7.0649989     -15937329       2.3782518      69133.928     -15868195       567.59331      567.59331      567.59331      1716.2033      2283.7967      1716.2033      2283.7967      1716.2033      2283.7967      1.8285709e+08  0.25           12011500       0.42104516     3647.9112      14591.849      6.5964066    
  45016200   23420.821      8.7976821     -15937227       2.3782518      69743.206     -15867484       567.59331      567.59331      567.59331      1716.2033      2283.7967      1716.2033      2283.7967      1716.2033      2283.7967      1.8285709e+08  0.25           12011550       0.43502977     3575.3507      14301.377      6.5816113    
  45016400   23524.563      9.3106847     -15937106       2.3782518      70052.131     -15867054       567.59331      567.59331      567.59331      1716.2033      2283.7967      1716.2033      2283.7967      1716.2033      2283.7967      1.8285709e+08  0.25           12011600       0.44885472     3616.6282      14466.473      6.5645365    
  45016600   23829.291      8.5858178     -15936962       2.3782518      70959.56      -15866002       567.59331      567.59331      567.59331      1716.2033      2283.7967      1716.2033      2283.7967      1716.2033      2283.7967      1.8285709e+08  0.25           12011650       0.4625334      3655.351       14621.425      6.5455793    
  45016800   24537.584      10.610734     -15937156       2.3782518      73068.736     -15864088       567.59331      567.59331      567.59331      1716.2033      2283.7967      1716.2033      2283.7967      1716.2033      2283.7967      1.8285709e+08  0.25           12011700       0.47677451     3510.9633      14043.753      6.534646     
  45017000   25668.772      14.295316     -15936976       2.3782518      76437.219     -15860539       567.59331      567.59331      567.59331      1716.2033      2283.7967      1716.2033      2283.7967      1716.2033      2283.7967      1.8285709e+08  0.25           12011750       0.49009574     3753.4263      15013.82       6.5113002    
  45017200   27030.039      16.267601     -15936781       2.3782518      80490.839     -15856290       567.59331      567.59331      567.59331      1716.2033      2283.7967      1716.2033      2283.7967      1716.2033      2283.7967      1.8285709e+08  0.25           12011800       0.50483787     3391.6372      13566.6        6.5068266    
  45017400   28317.304      18.699171     -15943560       2.3782518      84324.095     -15859236       567.59331      567.59331      567.59331      1716.2033      2283.7967      1716.2033      2283.7967      1716.2033      2283.7967      1.8285709e+08  0.25           12011850       0.5190298      3523.0858      14092.157      6.4949181    
  45017600   29277.967      20.484215     -15942939       2.3782518      87184.786     -15855754       567.59331      567.59331      567.59331      1716.2033      2283.7967      1716.2033      2283.7967      1716.2033      2283.7967      1.8285709e+08  0.25           12011900       0.53248276     3716.6326      14866.739      6.4738978    
  45017800   29806.839      24.615263     -15943029       2.3782518      88759.677     -15854270       567.59331      567.59331      567.59331      1716.2033      2283.7967      1716.2033      2283.7967      1716.2033      2283.7967      1.8285709e+08  0.25           12011950       0.54598262     3703.7742      14814.771      6.4538252    
  45018000   30008.471      27.192443     -15944634       2.3782518      89360.101     -15855274       567.59331      567.59331      567.59331      1716.2033      2283.7967      1716.2033      2283.7967      1716.2033      2283.7967      1.8285709e+08  0.25           12012000       0.56021633     3512.7669      14051.34       6.442515     
  45018200   30138.849      29.781022     -15944309       2.3782518      89748.344     -15854561       567.59331      567.59331      567.59331      1716.2033      2283.7967      1716.2033      2283.7967      1716.2033      2283.7967      1.8285709e+08  0.25           12012050       0.57435075     3537.4856      14149.942      6.429952     
  45018400   30491.038      32.980754     -15943225       2.3782518      90797.103     -15852428       567.59331      567.59331      567.59331      1716.2033      2283.7967      1716.2033      2283.7967      1716.2033      2283.7967      1.8285709e+08  0.25           12012100       0.58801996     3657.827       14630.964      6.4122487    
  45018600   31248.127      34.688209     -15944746       2.3782518      93051.585     -15851695       567.59331      567.59331      567.59331      1716.2033      2283.7967      1716.2033      2283.7967      1716.2033      2283.7967      1.8285709e+08  0.25           12012150       0.60110751     3820.4887      15282.33       6.3885376    
  45018800   32401.027      38.838113     -15943974       2.3782518      96484.726     -15847489       567.59331      567.59331      567.59331      1716.2033      2283.7967      1716.2033      2283.7967      1716.2033      2283.7967      1.8285709e+08  0.25           12012200       0.61521311     3544.6467      14178.52       6.3758711    
  45019000   33744.166      42.316344     -15946523       2.3782518      100484.36     -15846039       567.59331      567.59331      567.59331      1716.2033      2283.7967      1716.2033      2283.7967      1716.2033      2283.7967      1.8285709e+08  0.25           12012250       0.62918195     3579.4283      14317.681      6.361753     
  45019200   34992.921      45.53698      -15946036       2.3782518      104202.94     -15841833       567.59331      567.59331      567.59331      1716.2033      2283.7967      1716.2033      2283.7967      1716.2033      2283.7967      1.8285709e+08  0.25           12012300       0.64362        3463.0747      13852.405      6.3522699    
  45019400   35905.67       51.520289     -15943621       2.3782518      106920.95     -15836700       567.59331      567.59331      567.59331      1716.2033      2283.7967      1716.2033      2283.7967      1716.2033      2283.7967      1.8285709e+08  0.25           12012350       0.65707267     3716.7412      14866.96       6.3330829    
  45019600   36393.683      57.072788     -15941155       2.3782518      108374.17     -15832781       567.59331      567.59331      567.59331      1716.2033      2283.7967      1716.2033      2283.7967      1716.2033      2283.7967      1.8285709e+08  0.25           12012400       0.67127207     3521.2701      14085.111      6.3211649    
  45019800   36580.266      59.735791     -15938643       2.3782518      108929.79     -15829714       567.59331      567.59331      567.59331      1716.2033      2283.7967      1716.2033      2283.7967      1716.2033      2283.7967      1.8285709e+08  0.25           12012450       0.68506483     3625.0574      14493.471      6.3054739    
  45020000   36729.913      63.039461     -15937240       2.3782518      109375.41     -15827864       567.59331      567.59331      567.59331      1716.2033      2283.7967      1716.2033      2283.7967      1716.2033      2283.7967      1.8285709e+08  0.25           12012500       0.69880651     3638.5521      14560.981      6.2892795    
  45020200   37126.877      67.716889     -15928413       2.3782518      110557.5      -15817856       567.59331      567.59331      567.59331      1716.2033      2283.7967      1716.2033      2283.7967      1716.2033      2283.7967      1.8285709e+08  0.25           12012550       0.71257897     3630.4875      14521.954      6.2735089    
  45020400   37938.599      68.1526       -15927306       2.3782518      112974.67     -15814332       567.59331      567.59331      567.59331      1716.2033      2283.7967      1716.2033      2283.7967      1716.2033      2283.7967      1.8285709e+08  0.25           12012600       0.72671561     3536.9139      14147.631      6.2609529    
  45020600   39119.847      71.510674     -15926928       2.3782518      116492.23     -15810435       567.59331      567.59331      567.59331      1716.2033      2283.7967      1716.2033      2283.7967      1716.2033      2283.7967      1.8285709e+08  0.25           12012650       0.7407167      3571.1564      14284.645      6.2471944    
  45020800   40457.214      76.363056     -15925334       2.3782518      120474.67     -15804859       567.59331      567.59331      567.59331      1716.2033      2283.7967      1716.2033      2283.7967      1716.2033      2283.7967      1.8285709e+08  0.25           12012700       0.75403005     3755.6003      15022.403      6.2277478    
  45021000   41663.914      84.445448     -15922897       2.3782518      124068.02     -15798829       567.59331      567.59331      567.59331      1716.2033      2283.7967      1716.2033      2283.7967      1716.2033      2283.7967      1.8285709e+08  0.25           12012750       0.76810397     3552.6558      14210.522      6.2146792    
  45021200   42519.8        92.381706     -15920035       2.3782518      126616.7      -15793418       567.59331      567.59331      567.59331      1716.2033      2283.7967      1716.2033      2283.7967      1716.2033      2283.7967      1.8285709e+08  0.25           12012800       0.78206207     3582.1736      14328.759      6.2006527    
  45021400   42971.148      99.695887     -15920175       2.3782518      127960.74     -15792214       567.59331      567.59331      567.59331      1716.2033      2283.7967      1716.2033      2283.7967      1716.2033      2283.7967      1.8285709e+08  0.25           12012850       0.79589243     3615.2336      14460.963      6.1856371    
  45021600   43159.524      106.17374     -15919901       2.3782518      128521.69     -15791379       567.59331      567.59331      567.59331      1716.2033      2283.7967      1716.2033      2283.7967      1716.2033      2283.7967      1.8285709e+08  0.25           12012900       0.8103089      3468.2489      13873.105      6.1751288    
  45021800   43350.174      110.21083     -15919159       2.3782518      129089.42     -15790070       567.59331      567.59331      567.59331      1716.2033      2283.7967      1716.2033      2283.7967      1716.2033      2283.7967      1.8285709e+08  0.25           12012950       0.82386546     3688.2584      14752.983      6.1580606    
  45022000   43803.706      118.20278     -15918371       2.3782518      130439.96     -15787931       567.59331      567.59331      567.59331      1716.2033      2283.7967      1716.2033      2283.7967      1716.2033      2283.7967      1.8285709e+08  0.25           12013000       0.83774469     3602.503       14409.812      6.1434782    
  45022200   44655.853      124.29314     -15914901       2.3782518      132977.5      -15781924       567.59331      567.59331      567.59331      1716.2033      2283.7967      1716.2033      2283.7967      1716.2033      2283.7967      1.8285709e+08  0.25           12013050       0.85149859     3635.3204      14541.389      6.1280143    
  45022400   45848.983      127.23448     -15915168       2.3782518      136530.44     -15778638       567.59331      567.59331      567.59331      1716.2033      2283.7967      1716.2033      2283.7967      1716.2033      2283.7967      1.8285709e+08  0.25           12013100       0.865094       3677.6729      14710.684      6.1114877    
  45022600   47164.676      138.10352     -15911603       2.3782518      140448.35     -15771155       567.59331      567.59331      567.59331      1716.2033      2283.7967      1716.2033      2283.7967      1716.2033      2283.7967      1.8285709e+08  0.25           12013150       0.87889553     3622.8434      14491.466      6.0964802    
  45022800   48326.733      146.16652     -15909888       2.3782518      143908.76     -15765980       567.59331      567.59331      567.59331      1716.2033      2283.7967      1716.2033      2283.7967      1716.2033      2283.7967      1.8285709e+08  0.25           12013200       0.89227272     3737.7077      14950.823      6.0786225    
  45023000   49137.588      149.98543     -15908506       2.3782518      146323.35     -15762182       567.59331      567.59331      567.59331      1716.2033      2283.7967      1716.2033      2283.7967      1716.2033      2283.7967      1.8285709e+08  0.25           12013250       0.90782655     3214.5906      12858.324      6.0754706    
  45023200   49568.025      153.51184     -15906717       2.3782518      147605.11     -15759112       567.59331      567.59331      567.59331      1716.2033      2283.7967      1716.2033      2283.7967      1716.2033      2283.7967      1.8285709e+08  0.25           12013300       0.92172994     3596.291       14385.164      6.0610869    
  45023400   49775          158.41522     -15914557       2.3782518      148221.45     -15766335       567.59331      567.59331      567.59331      1716.2033      2283.7967      1716.2033      2283.7967      1716.2033      2283.7967      1.8285709e+08  0.25           12013350       0.93633714     3422.9798      13691.919      6.0512676    
  45023600   50011.399      166.32836     -15910837       2.3782518      148925.41     -15761912       567.59331      567.59331      567.59331      1716.2033      2283.7967      1716.2033      2283.7967      1716.2033      2283.7967      1.8285709e+08  0.25           12013400       0.95055983     3515.4876      14061.975      6.0388649    
  45023800   50526.584      174.03629     -15909387       2.3782518      150459.54     -15758928       567.59331      567.59331      567.59331      1716.2033      2283.7967      1716.2033      2283.7967      1716.2033      2283.7967      1.8285709e+08  0.25           12013450       0.96450467     3585.5703      14342.264      6.0246735    
  45024000   51422.799      181.92026     -15906409       2.3782518      153128.31     -15753280       567.59331      567.59331      567.59331      1716.2033      2283.7967      1716.2033      2283.7967      1716.2033      2283.7967      1.8285709e+08  0.25           12013500       0.97851988     3567.5372      14270.094      6.0109227    
  45024200   52622.359      189.49273     -15905312       2.3782518      156700.4      -15748611       567.59331      567.59331      567.59331      1716.2033      2283.7967      1716.2033      2283.7967      1716.2033      2283.7967      1.8285709e+08  0.25           12013550       0.99184028     3753.6684      15014.764      5.9929632    
  45024400   53906.449      198.78152     -15905746       2.3782518      160524.2      -15745222       567.59331      567.59331      567.59331      1716.2033      2283.7967      1716.2033      2283.7967      1716.2033      2283.7967      1.8285709e+08  0.25           12013600       1.0058073      3579.8566      14319.342      5.9789789    
  45024600   55009.982      206.24276     -15902379       2.3782518      163810.33     -15738568       567.59331      567.59331      567.59331      1716.2033      2283.7967      1716.2033      2283.7967      1716.2033      2283.7967      1.8285709e+08  0.25           12013650       1.0197023      3598.4289      14393.843      5.9645721    
  45024800   55763.532      213.48352     -15901638       2.3782518      166054.28     -15735583       567.59331      567.59331      567.59331      1716.2033      2283.7967      1716.2033      2283.7967      1716.2033      2283.7967      1.8285709e+08  0.25           12013700       1.0333494      3663.8046      14655.209      5.9487524    
  45025000   56169.522      219.1913      -15907560       2.3782518      167263.24     -15740297       567.59331      567.59331      567.59331      1716.2033      2283.7967      1716.2033      2283.7967      1716.2033      2283.7967      1.8285709e+08  0.25           12013750       1.0474442      3547.3801      14189.435      5.9355305    
  45025200   56392.496      223.75025     -15906500       2.3782518      167927.22     -15738573       567.59331      567.59331      567.59331      1716.2033      2283.7967      1716.2033      2283.7967      1716.2033      2283.7967      1.8285709e+08  0.25           12013800       1.0609613      3699.0218      14796.002      5.9190606    
  45025400   56674.714      228.25517     -15904713       2.3782518      168767.62     -15735946       567.59331      567.59331      567.59331      1716.2033      2283.7967      1716.2033      2283.7967      1716.2033      2283.7967      1.8285709e+08  0.25           12013850       1.0752008      3511.3925      14045.695      5.9066337    
  45025600   57238.172      235.84238     -15905945       2.3782518      170445.5      -15735499       567.59331      567.59331      567.59331      1716.2033      2283.7967      1716.2033      2283.7967      1716.2033      2283.7967      1.8285709e+08  0.25           12013900       1.0885832      3736.1638      14944.56       5.8895274    
  45025800   58169.381      241.96586     -15904568       2.3782518      173218.48     -15731350       567.59331      567.59331      567.59331      1716.2033      2283.7967      1716.2033      2283.7967      1716.2033      2283.7967      1.8285709e+08  0.25           12013950       1.1025476      3580.59        14322.452      5.8756127    
  45026000   59374.913      248.62405     -15903956       2.3782518      176808.35     -15727148       567.59331      567.59331      567.59331      1716.2033      2283.7967      1716.2033      2283.7967      1716.2033      2283.7967      1.8285709e+08  0.25           12014000       1.117012       3456.6957      13826.699      5.8643263    
  45026200   60624.489      256.69098     -15902233       2.3782518      180529.38     -15721703       567.59331      567.59331      567.59331      1716.2033      2283.7967      1716.2033      2283.7967      1716.2033      2283.7967      1.8285709e+08  0.25           12014050       1.1308275      3619.1876      14476.801      5.8496006    
  45026400   61673.97       265.40751     -15900510       2.3782518      183654.55     -15716855       567.59331      567.59331      567.59331      1716.2033      2283.7967      1716.2033      2283.7967      1716.2033      2283.7967      1.8285709e+08  0.25           12014100       1.144923       3547.2321      14188.773      5.8363265    
  45026600   62370.639      273.84764     -15899880       2.3782518      185729.11     -15714151       567.59331      567.59331      567.59331      1716.2033      2283.7967      1716.2033      2283.7967      1716.2033      2283.7967      1.8285709e+08  0.25           12014150       1.1583165      3733.1645      14932.836      5.8195041    
  45026800   62742.917      279.40328     -15898895       2.3782518      186837.69     -15712057       567.59331      567.59331      567.59331      1716.2033      2283.7967      1716.2033      2283.7967      1716.2033      2283.7967      1.8285709e+08  0.25           12014200       1.1725285      3518.1495      14072.534      5.8068186    
  45027000   62959.772      285.47344     -15894906       2.3782518      187483.45     -15707423       567.59331      567.59331      567.59331      1716.2033      2283.7967      1716.2033      2283.7967      1716.2033      2283.7967      1.8285709e+08  0.25           12014250       1.1859109      3736.2445      14945.053      5.790046     
  45027200   63275.677      291.17203     -15895439       2.3782518      188424.16     -15707014       567.59331      567.59331      567.59331      1716.2033      2283.7967      1716.2033      2283.7967      1716.2033      2283.7967      1.8285709e+08  0.25           12014300       1.1999143      3570.5561      14282.181      5.7763427    
  45027400   63891.25       297.43925     -15894804       2.3782518      190257.23     -15704547       567.59331      567.59331      567.59331      1716.2033      2283.7967      1716.2033      2283.7967      1716.2033      2283.7967      1.8285709e+08  0.25           12014350       1.2139745      3556.1458      14224.636      5.7629005    
  45027600   64865.101      300.21872     -15895314       2.3782518      193157.19     -15702157       567.59331      567.59331      567.59331      1716.2033      2283.7967      1716.2033      2283.7967      1716.2033      2283.7967      1.8285709e+08  0.25           12014400       1.2286166      3414.8135      13659.142      5.7521699    
  45027800   66083.177      303.97544     -15895434       2.3782518      196784.42     -15698650       567.59331      567.59331      567.59331      1716.2033      2283.7967      1716.2033      2283.7967      1716.2033      2283.7967      1.8285709e+08  0.25           12014450       1.2422717      3661.6297      14646.464      5.736794     
  45028000   67303.356      309.77954     -15894349       2.3782518      200417.9      -15693931       567.59331      567.59331      567.59331      1716.2033      2283.7967      1716.2033      2283.7967      1716.2033      2283.7967      1.8285709e+08  0.25           12014500       1.2561953      3591.0346      14364.312      5.7226769    
  45028200   68303.05       316.01108     -15893225       2.3782518      203394.82     -15689830       567.59331      567.59331      567.59331      1716.2033      2283.7967      1716.2033      2283.7967      1716.2033      2283.7967      1.8285709e+08  0.25           12014550       1.2696928      3704.3719      14817.542      5.7066506    
  45028400   68957.753      323.61141     -15901340       2.3782518      205344.41     -15695996       567.59331      567.59331      567.59331      1716.2033      2283.7967      1716.2033      2283.7967      1716.2033      2283.7967      1.8285709e+08  0.25           12014600       1.2828582      3797.7697      15191.218      5.6892066    
  45028600   69303.544      330.70265     -15900138       2.3782518      206374.12     -15693764       567.59331      567.59331      567.59331      1716.2033      2283.7967      1716.2033      2283.7967      1716.2033      2283.7967      1.8285709e+08  0.25           12014650       1.2961751      3754.7006      15018.673      5.6725173    
  45028800   69527.344      336.53017     -15907786       2.3782518      207040.56     -15700745       567.59331      567.59331      567.59331      1716.2033      2283.7967      1716.2033      2283.7967      1716.2033      2283.7967      1.8285709e+08  0.25           12014700       1.3107427      3432.2492      13728.879      5.661303     
  45029000   69878.353      342.18213     -15906128       2.3782518      208085.8      -15698043       567.59331      567.59331      567.59331      1716.2033      2283.7967      1716.2033      2283.7967      1716.2033      2283.7967      1.8285709e+08  0.25           12014750       1.3240813      3748.4811      14994.086      5.6447776    
  45029200   70538.582      351.68626     -15895497       2.3782518      210051.85     -15685445       567.59331      567.59331      567.59331      1716.2033      2283.7967      1716.2033      2283.7967      1716.2033      2283.7967      1.8285709e+08  0.25           12014800       1.3373829      3759.0008      15035.906      5.628162     
  45029400   71552.139      359.05482     -15895626       2.3782518      213070.05     -15682556       567.59331      567.59331      567.59331      1716.2033      2283.7967      1716.2033      2283.7967      1716.2033      2283.7967      1.8285709e+08  0.25           12014850       1.3513509      3579.6454      14318.595      5.6143837    
  45029600   72782.285      364.59168     -15893811       2.3782518      216733.22     -15677078       567.59331      567.59331      567.59331      1716.2033      2283.7967      1716.2033      2283.7967      1716.2033      2283.7967      1.8285709e+08  0.25           12014900       1.3648377      3707.2926      14829.1        5.5986293    
  45029800   73984.234      369.66549     -15892657       2.3782518      220312.42     -15672344       567.59331      567.59331      567.59331      1716.2033      2283.7967      1716.2033      2283.7967      1716.2033      2283.7967      1.8285709e+08  0.25           12014950       1.3779411      3815.7849      15263.106      5.5813668    
  45030000   74938.476      375.56917     -15893342       2.3782518      223153.99     -15670188       567.59331      567.59331      567.59331      1716.2033      2283.7967      1716.2033      2283.7967      1716.2033      2283.7967      1.8285709e+08  0.25           12015000       1.3912425      3759.0048      15036.052      5.5649794    
  45030200   75556.295      384.07144     -15892459       2.3782518      224993.75     -15667465       567.59331      567.59331      567.59331      1716.2033      2283.7967      1716.2033      2283.7967      1716.2033      2283.7967      1.8285709e+08  0.25           12015050       1.4055893      3485.0916      13940.236      5.5527839    
  45030400   75892.59       391.57904     -15886263       2.3782518      225995.17     -15660267       567.59331      567.59331      567.59331      1716.2033      2283.7967      1716.2033      2283.7967      1716.2033      2283.7967      1.8285709e+08  0.25           12015100       1.4208885      3268.1396      13072.578      5.5442618    
  45030600   76144.376      399.08418     -15883448       2.3782518      226744.95     -15656704       567.59331      567.59331      567.59331      1716.2033      2283.7967      1716.2033      2283.7967      1716.2033      2283.7967      1.8285709e+08  0.25           12015150       1.4362304      3259.0551      13036.171      5.5357719    
  45030800   76548.886      408.50822     -15878344       2.3782518      227949.51     -15650395       567.59331      567.59331      567.59331      1716.2033      2283.7967      1716.2033      2283.7967      1716.2033      2283.7967      1.8285709e+08  0.25           12015200       1.4520479      3161.0752      12644.371      5.5289608    
  45031000   77257.286      418.39377     -15875830       2.3782518      230059        -15645771       567.59331      567.59331      567.59331      1716.2033      2283.7967      1716.2033      2283.7967      1716.2033      2283.7967      1.8285709e+08  0.25           12015250       1.4660209      3578.3196      14313.303      5.5150397    
  45031200   78290.627      424.42314     -15873642       2.3782518      233136.12     -15640506       567.59331      567.59331      567.59331      1716.2033      2283.7967      1716.2033      2283.7967      1716.2033      2283.7967      1.8285709e+08  0.25           12015300       1.4798674      3610.9455      14443.766      5.5006496    
  45031400   79513.181      431.08309     -15872560       2.3782518      236776.68     -15635783       567.59331      567.59331      567.59331      1716.2033      2283.7967      1716.2033      2283.7967      1716.2033      2283.7967      1.8285709e+08  0.25           12015350       1.4956178      3174.5673      12698.21       5.4932597    
  45031600   80679.474      438.71413     -15869594       2.3782518      240249.7      -15629345       567.59331      567.59331      567.59331      1716.2033      2283.7967      1716.2033      2283.7967      1716.2033      2283.7967      1.8285709e+08  0.25           12015400       1.5110085      3248.7377      12995.069      5.4844094    
  45031800   81592.823      447.67021     -15866606       2.3782518      242969.49     -15623637       567.59331      567.59331      567.59331      1716.2033      2283.7967      1716.2033      2283.7967      1716.2033      2283.7967      1.8285709e+08  0.25           12015450       1.5246284      3671.1046      14684.436      5.4690878    
  45032000   82175.379      457.18636     -15872103       2.3782518      244704.25     -15627399       567.59331      567.59331      567.59331      1716.2033      2283.7967      1716.2033      2283.7967      1716.2033      2283.7967      1.8285709e+08  0.25           12015500       1.5379473      3754.0683      15016.337      5.4527293    
  45032200   82510.852      463.84362     -15877956       2.3782518      245703.23     -15632253       567.59331      567.59331      567.59331      1716.2033      2283.7967      1716.2033      2283.7967      1716.2033      2283.7967      1.8285709e+08  0.25           12015550       1.55216        3518.0034      14071.889      5.4395593    
  45032400   82797.294      470.95618     -15868694       2.3782518      246556.2      -15622138       567.59331      567.59331      567.59331      1716.2033      2283.7967      1716.2033      2283.7967      1716.2033      2283.7967      1.8285709e+08  0.25           12015600       1.5659444      3627.2801      14509.241      5.4248858    
  45032600   83251.507      475.67499     -15864924       2.3782518      247908.77     -15617015       567.59331      567.59331      567.59331      1716.2033      2283.7967      1716.2033      2283.7967      1716.2033      2283.7967      1.8285709e+08  0.25           12015650       1.5793444      3731.3085      14925.193      5.4089133    
  45032800   84014.102      482.9333      -15857216       2.3782518      250179.65     -15607036       567.59331      567.59331      567.59331      1716.2033      2283.7967      1716.2033      2283.7967      1716.2033      2283.7967      1.8285709e+08  0.25           12015700       1.5935273      3525.3927      14101.636      5.3956345    
  45033000   85061.992      492.42287     -15856894       2.3782518      253300.09     -15603594       567.59331      567.59331      567.59331      1716.2033      2283.7967      1716.2033      2283.7967      1716.2033      2283.7967      1.8285709e+08  0.25           12015750       1.6084983      3339.7709      13359.115      5.38498      
  45033200   86257.794      502.70738     -15855487       2.3782518      256860.98     -15598626       567.59331      567.59331      567.59331      1716.2033      2283.7967      1716.2033      2283.7967      1716.2033      2283.7967      1.8285709e+08  0.25           12015800       1.6219332      3721.6631      14886.731      5.3691651    
  45033400   87372.95       512.20369     -15851399       2.3782518      260181.72     -15591217       567.59331      567.59331      567.59331      1716.2033      2283.7967      1716.2033      2283.7967      1716.2033      2283.7967      1.8285709e+08  0.25           12015850       1.6361585      3514.8676      14059.398      5.3559786    
  45033600   88239.836      521.04263     -15847348       2.3782518      262763.16     -15584585       567.59331      567.59331      567.59331      1716.2033      2283.7967      1716.2033      2283.7967      1716.2033      2283.7967      1.8285709e+08  0.25           12015900       1.6501012      3586.1153      14344.295      5.3418604    
  45033800   88794.858      525.88187     -15847470       2.3782518      264415.92     -15583054       567.59331      567.59331      567.59331      1716.2033      2283.7967      1716.2033      2283.7967      1716.2033      2283.7967      1.8285709e+08  0.25           12015950       1.6644254      3490.6036      13962.593      5.3289649    
  45034000   89126.961      532.27169     -15843461       2.3782518      265404.87     -15578056       567.59331      567.59331      567.59331      1716.2033      2283.7967      1716.2033      2283.7967      1716.2033      2283.7967      1.8285709e+08  0.25           12016000       1.6781712      3637.4491      14549.453      5.3142164    
  45034200   89441.705      542.93801     -15841005       2.3782518      266342.12     -15574663       567.59331      567.59331      567.59331      1716.2033      2283.7967      1716.2033      2283.7967      1716.2033      2283.7967      1.8285709e+08  0.25           12016050       1.6919737      3622.5432      14490.367      5.29966      
  45034400   89941.759      554.07674     -15849331       2.3782518      267831.2      -15581500       567.59331      567.59331      567.59331      1716.2033      2283.7967      1716.2033      2283.7967      1716.2033      2283.7967      1.8285709e+08  0.25           12016100       1.7060642      3548.4682      14193.886      5.2860193    
  45034600   90739.851      561.24454     -15844307       2.3782518      270207.78     -15574099       567.59331      567.59331      567.59331      1716.2033      2283.7967      1716.2033      2283.7967      1716.2033      2283.7967      1.8285709e+08  0.25           12016150       1.720218       3532.6394      14130.67       5.2725443    
  45034800   91795.871      570.18065     -15849283       2.3782518      273352.43     -15575930       567.59331      567.59331      567.59331      1716.2033      2283.7967      1716.2033      2283.7967      1716.2033      2283.7967      1.8285709e+08  0.25           12016200       1.7343045      3549.5         14197.975      5.258865     
  45035000   92954.925      580.86163     -15845730       2.3782518      276803.89     -15568926       567.59331      567.59331      567.59331      1716.2033      2283.7967      1716.2033      2283.7967      1716.2033      2283.7967      1.8285709e+08  0.25           12016250       1.7477367      3722.4009      14889.504      5.2432169    
  45035200   94017.441      590.7308      -15844053       2.3782518      279967.88     -15564085       567.59331      567.59331      567.59331      1716.2033      2283.7967      1716.2033      2283.7967      1716.2033      2283.7967      1.8285709e+08  0.25           12016300       1.7618413      3544.9352      14179.812      5.2295987    
  45035400   94825.071      596.38279     -15842721       2.3782518      282372.87     -15560348       567.59331      567.59331      567.59331      1716.2033      2283.7967      1716.2033      2283.7967      1716.2033      2283.7967      1.8285709e+08  0.25           12016350       1.7753267      3707.7083      14830.787      5.2141547    
  45035600   95346.164      604.97142     -15839100       2.3782518      283924.6      -15555176       567.59331      567.59331      567.59331      1716.2033      2283.7967      1716.2033      2283.7967      1716.2033      2283.7967      1.8285709e+08  0.25           12016400       1.7897317      3471.023       13884.063      5.2014141    
  45035800   95689.306      614.69906     -15838884       2.3782518      284946.41     -15553938       567.59331      567.59331      567.59331      1716.2033      2283.7967      1716.2033      2283.7967      1716.2033      2283.7967      1.8285709e+08  0.25           12016450       1.8034245      3651.532       14606.07       5.1865996    
  45036000   96033.356      621.95797     -15836367       2.3782518      285970.94     -15550396       567.59331      567.59331      567.59331      1716.2033      2283.7967      1716.2033      2283.7967      1716.2033      2283.7967      1.8285709e+08  0.25           12016500       1.8178322      3470.4212      13881.858      5.1738355    
  45036200   96574.902      629.99897     -15838326       2.3782518      287583.57     -15550743       567.59331      567.59331      567.59331      1716.2033      2283.7967      1716.2033      2283.7967      1716.2033      2283.7967      1.8285709e+08  0.25           12016550       1.8311964      3741.3038      14965.126      5.1581089    
  45036400   97406.111      640.17176     -15838346       2.3782518      290058.77     -15548287       567.59331      567.59331      567.59331      1716.2033      2283.7967      1716.2033      2283.7967      1716.2033      2283.7967      1.8285709e+08  0.25           12016600       1.8454417      3509.9318      14039.856      5.1448733    
  45036600   98484.121      652.03786     -15836438       2.3782518      293268.89     -15543169       567.59331      567.59331      567.59331      1716.2033      2283.7967      1716.2033      2283.7967      1716.2033      2283.7967      1.8285709e+08  0.25           12016650       1.8592215      3628.4741      14513.603      5.13034      
  45036800   99630.519      660.58081     -15835198       2.3782518      296682.67     -15538516       567.59331      567.59331      567.59331      1716.2033      2283.7967      1716.2033      2283.7967      1716.2033      2283.7967      1.8285709e+08  0.25           12016700       1.872798       3682.8552      14731.498      5.1152603    
  45037000   100642.91      672.72432     -15832780       2.3782518      299697.39     -15533083       567.59331      567.59331      567.59331      1716.2033      2283.7967      1716.2033      2283.7967      1716.2033      2283.7967      1.8285709e+08  0.25           12016750       1.8869395      3535.7228      14142.876      5.1017313    
  45037200   101406.53      687.04371     -15831457       2.3782518      301971.32     -15529485       567.59331      567.59331      567.59331      1716.2033      2283.7967      1716.2033      2283.7967      1716.2033      2283.7967      1.8285709e+08  0.25           12016800       1.9009973      3556.7046      14226.757      5.0879699    
  45037400   101913.75      696.56025     -15827026       2.3782518      303481.74     -15523544       567.59331      567.59331      567.59331      1716.2033      2283.7967      1716.2033      2283.7967      1716.2033      2283.7967      1.8285709e+08  0.25           12016850       1.9152361      3511.5607      14046.35       5.0746822    
  45037600   102280.1       705.42877     -15822545       2.3782518      304572.68     -15517973       567.59331      567.59331      567.59331      1716.2033      2283.7967      1716.2033      2283.7967      1716.2033      2283.7967      1.8285709e+08  0.25           12016900       1.928436       3787.8874      15151.608      5.0586565    
  45037800   102682.96      716.65046     -15815737       2.3782518      305772.32     -15509965       567.59331      567.59331      567.59331      1716.2033      2283.7967      1716.2033      2283.7967      1716.2033      2283.7967      1.8285709e+08  0.25           12016950       1.9426612      3514.9125      14059.653      5.0453341    
  45038000   103281.2       727.00518     -15812665       2.3782518      307553.79     -15505111       567.59331      567.59331      567.59331      1716.2033      2283.7967      1716.2033      2283.7967      1716.2033      2283.7967      1.8285709e+08  0.25           12017000       1.956527       3605.94        14423.721      5.0310753    
  45038200   104156.27      741.95432     -15810666       2.3782518      310159.57     -15500506       567.59331      567.59331      567.59331      1716.2033      2283.7967      1716.2033      2283.7967      1716.2033      2283.7967      1.8285709e+08  0.25           12017050       1.9701431      3672.1412      14688.638      5.0161852    
  45038400   105230.29      754.62653     -15805264       2.3782518      313357.85     -15491906       567.59331      567.59331      567.59331      1716.2033      2283.7967      1716.2033      2283.7967      1716.2033      2283.7967      1.8285709e+08  0.25           12017100       1.9838521      3647.2489      14588.894      5.0015484    
  45038600   106322.44      764.791       -15802048       2.3782518      316610.08     -15485438       567.59331      567.59331      567.59331      1716.2033      2283.7967      1716.2033      2283.7967      1716.2033      2283.7967      1.8285709e+08  0.25           12017150       1.9975436      3651.9064      14607.729      4.9868797    
  45038800   107270.87      779.3841      -15799144       2.3782518      319434.34     -15479709       567.59331      567.59331      567.59331      1716.2033      2283.7967      1716.2033      2283.7967      1716.2033      2283.7967      1.8285709e+08  0.25           12017200       2.011878       3488.0585      13952.168      4.9738154    
  45039000   107988.28      790.01232     -15790903       2.3782518      321570.67     -15469333       567.59331      567.59331      567.59331      1716.2033      2283.7967      1716.2033      2283.7967      1716.2033      2283.7967      1.8285709e+08  0.25           12017250       2.0253284      3717.4074      14869.625      4.9585683    
  45039200   108507.33      799.82268     -15785528       2.3782518      323116.29     -15462412       567.59331      567.59331      567.59331      1716.2033      2283.7967      1716.2033      2283.7967      1716.2033      2283.7967      1.8285709e+08  0.25           12017300       2.039584       3507.3926      14029.73       4.9452977    
  45039400   108931.21      806.73706     -15782549       2.3782518      324378.55     -15458171       567.59331      567.59331      567.59331      1716.2033      2283.7967      1716.2033      2283.7967      1716.2033      2283.7967      1.8285709e+08  0.25           12017350       2.0529481      3741.3506      14965.357      4.9298741    
  45039600   109417.78      819.20821     -15784073       2.3782518      325827.47     -15458246       567.59331      567.59331      567.59331      1716.2033      2283.7967      1716.2033      2283.7967      1716.2033      2283.7967      1.8285709e+08  0.25           12017400       2.0671241      3527.1216      14108.422      4.916408     
  45039800   110099.28      838.00398     -15781082       2.3782518      327856.86     -15453225       567.59331      567.59331      567.59331      1716.2033      2283.7967      1716.2033      2283.7967      1716.2033      2283.7967      1.8285709e+08  0.25           12017450       2.0811528      3564.1224      14256.466      4.9025865    
  45040000   110977.21      851.15089     -15778425       2.3782518      330471.19     -15447953       567.59331      567.59331      567.59331      1716.2033      2283.7967      1716.2033      2283.7967      1716.2033      2283.7967      1.8285709e+08  0.25           12017500       2.0951615      3569.2011      14276.824      4.8887152    
  45040200   111996.73      860.79747     -15771233       2.3782518      333507.14     -15437726       567.59331      567.59331      567.59331      1716.2033      2283.7967      1716.2033      2283.7967      1716.2033      2283.7967      1.8285709e+08  0.25           12017550       2.1098984      3392.8125      13571.171      4.8765257    
  45040400   113014.83      873.00257     -15771630       2.3782518      336538.85     -15435091       567.59331      567.59331      567.59331      1716.2033      2283.7967      1716.2033      2283.7967      1716.2033      2283.7967      1.8285709e+08  0.25           12017600       2.1239019      3570.5619      14282.204      4.8626228    
  45040600   113896.14      888.64124     -15765594       2.3782518      339163.25     -15426431       567.59331      567.59331      567.59331      1716.2033      2283.7967      1716.2033      2283.7967      1716.2033      2283.7967      1.8285709e+08  0.25           12017650       2.1380552      3532.7537      14131.121      4.8490581    
  45040800   114579.96      899.5874      -15762522       2.3782518      341199.57     -15421323       567.59331      567.59331      567.59331      1716.2033      2283.7967      1716.2033      2283.7967      1716.2033      2283.7967      1.8285709e+08  0.25           12017700       2.1515736      3698.6749      14794.726      4.8340595    
  45041000   115106.47      911.86585     -15759805       2.3782518      342767.41     -15417038       567.59331      567.59331      567.59331      1716.2033      2283.7967      1716.2033      2283.7967      1716.2033      2283.7967      1.8285709e+08  0.25           12017750       2.1657101      3536.9284      14147.702      4.8204562    
  45041200   115614.8       924.98453     -15752946       2.3782518      344281.12     -15408665       567.59331      567.59331      567.59331      1716.2033      2283.7967      1716.2033      2283.7967      1716.2033      2283.7967      1.8285709e+08  0.25           12017800       2.1791496      3720.3873      14881.567      4.8053088    
  45041400   116220.57      939.87149     -15748373       2.3782518      346085.01     -15402288       567.59331      567.59331      567.59331      1716.2033      2283.7967      1716.2033      2283.7967      1716.2033      2283.7967      1.8285709e+08  0.25           12017850       2.1931749      3564.9356      14259.607      4.7914637    
  45041600   116987.52      947.92908     -15747963       2.3782518      348368.87     -15399595       567.59331      567.59331      567.59331      1716.2033      2283.7967      1716.2033      2283.7967      1716.2033      2283.7967      1.8285709e+08  0.25           12017900       2.2075781      3471.5036      13886.074      4.7784335    
  45041800   117904.88      961.00691     -15748538       2.3782518      351100.61     -15397437       567.59331      567.59331      567.59331      1716.2033      2283.7967      1716.2033      2283.7967      1716.2033      2283.7967      1.8285709e+08  0.25           12017950       2.2218116      3512.8323      14051.426      4.7650217    
  45042000   118866.87      974.71937     -15747437       2.3782518      353965.25     -15393472       567.59331      567.59331      567.59331      1716.2033      2283.7967      1716.2033      2283.7967      1716.2033      2283.7967      1.8285709e+08  0.25           12018000       2.2353756      3686.2215      14744.69       4.7501778    
  45042200   119776.15      986.43736     -15751073       2.3782518      356672.93     -15394400       567.59331      567.59331      567.59331      1716.2033      2283.7967      1716.2033      2283.7967      1716.2033      2283.7967      1.8285709e+08  0.25           12018050       2.2497048      3489.3764      13957.531      4.736961     
  45042400   120580.95      996.65909     -15751912       2.3782518      359069.49     -15392843       567.59331      567.59331      567.59331      1716.2033      2283.7967      1716.2033      2283.7967      1716.2033      2283.7967      1.8285709e+08  0.25           12018100       2.2639536      3509.0768      14036.415      4.7235619    
  45042600   121275.57      1011.2451     -15749720       2.3782518      361137.93     -15388582       567.59331      567.59331      567.59331      1716.2033      2283.7967      1716.2033      2283.7967      1716.2033      2283.7967      1.8285709e+08  0.25           12018150       2.278524       3431.6009      13726.383      4.7108181    
  45042800   121932.33      1022.3126     -15748708       2.3782518      363093.66     -15385614       567.59331      567.59331      567.59331      1716.2033      2283.7967      1716.2033      2283.7967      1716.2033      2283.7967      1.8285709e+08  0.25           12018200       2.2919847      3714.4139      14857.537      4.695779     
  45043000   122658.21      1037.9654     -15746650       2.3782518      365255.19     -15381394       567.59331      567.59331      567.59331      1716.2033      2283.7967      1716.2033      2283.7967      1716.2033      2283.7967      1.8285709e+08  0.25           12018250       2.3053624      3737.6569      14950.715      4.6805889    
  45043200   123568.35      1050.6616     -15743841       2.3782518      367965.45     -15375876       567.59331      567.59331      567.59331      1716.2033      2283.7967      1716.2033      2283.7967      1716.2033      2283.7967      1.8285709e+08  0.25           12018300       2.3198976      3439.9642      13759.954      4.6677497    
  45043400   124699.99      1065.8446     -15742960       2.3782518      371335.27     -15371625       567.59331      567.59331      567.59331      1716.2033      2283.7967      1716.2033      2283.7967      1716.2033      2283.7967      1.8285709e+08  0.25           12018350       2.3337497      3609.5357      14438.09       4.6535293    
  45043600   126028.67      1076.2459     -15741753       2.3782518      375291.86     -15366461       567.59331      567.59331      567.59331      1716.2033      2283.7967      1716.2033      2283.7967      1716.2033      2283.7967      1.8285709e+08  0.25           12018400       2.3479065      3531.8876      14127.597      4.6399145    
  45043800   127481.69      1085.3453     -15741315       2.3782518      379618.7      -15361696       567.59331      567.59331      567.59331      1716.2033      2283.7967      1716.2033      2283.7967      1716.2033      2283.7967      1.8285709e+08  0.25           12018450       2.3615194      3672.9424      14691.484      4.6252294    
  45044000   129016.5       1098.4488     -15736033       2.3782518      384189.11     -15351844       567.59331      567.59331      567.59331      1716.2033      2283.7967      1716.2033      2283.7967      1716.2033      2283.7967      1.8285709e+08  0.25           12018500       2.3748611      3747.6849      14990.834      4.6100289    
  45044200   130638.3       1109.8406     -15731524       2.3782518      389018.54     -15342506       567.59331      567.59331      567.59331      1716.2033      2283.7967      1716.2033      2283.7967      1716.2033      2283.7967      1.8285709e+08  0.25           12018550       2.3890617      3520.9614      14083.889      4.5965033    
  45044400   132041.11      1122.1756     -15730500       2.3782518      393195.89     -15337304       567.59331      567.59331      567.59331      1716.2033      2283.7967      1716.2033      2283.7967      1716.2033      2283.7967      1.8285709e+08  0.25           12018600       2.4029194      3608.0914      14432.369      4.582316     
  45044600   132400.15      1131.9548     -15725369       2.3782518      394265.03     -15331104       567.59331      567.59331      567.59331      1716.2033      2283.7967      1716.2033      2283.7967      1716.2033      2283.7967      1.8285709e+08  0.25           12018650       2.4177529      3370.6193      13482.619      4.5699776    
  45044800   130913.11      1145.9754     -15726128       2.3782518      389836.87     -15336292       567.59331      567.59331      567.59331      1716.2033      2283.7967      1716.2033      2283.7967      1716.2033      2283.7967      1.8285709e+08  0.25           12018700       2.4313702      3671.9983      14687.881      4.5553295    
  45045000   127721.96      1156.6685     -15717318       2.3782518      380334.2      -15336984       567.59331      567.59331      567.59331      1716.2033      2283.7967      1716.2033      2283.7967      1716.2033      2283.7967      1.8285709e+08  0.25           12018750       2.445532       3530.6214      14122.521      4.541706     
  45045200   124767.24      1166.5069     -15715820       2.3782518      371535.53     -15344284       567.59331      567.59331      567.59331      1716.2033      2283.7967      1716.2033      2283.7967      1716.2033      2283.7967      1.8285709e+08  0.25           12018800       2.4592202      3652.7596      14611.06       4.5272047    
  45045400   124221.94      1175.2445     -15713250       2.3782518      369911.74     -15343338       567.59331      567.59331      567.59331      1716.2033      2283.7967      1716.2033      2283.7967      1716.2033      2283.7967      1.8285709e+08  0.25           12018850       2.4736244      3471.2312      13884.998      4.5140187    
  45045600   127455.14      1181.9979     -15721139       2.3782518      379539.64     -15341600       567.59331      567.59331      567.59331      1716.2033      2283.7967      1716.2033      2283.7967      1716.2033      2283.7967      1.8285709e+08  0.25           12018900       2.4881982      3430.8093      13723.126      4.5011264    
  45045800   131682.14      1198.1658     -15712761       2.3782518      392126.92     -15320634       567.59331      567.59331      567.59331      1716.2033      2283.7967      1716.2033      2283.7967      1716.2033      2283.7967      1.8285709e+08  0.25           12018950       2.5024185      3516.0933      14064.139      4.4875816    
  45046000   133418.7       1208.367      -15713688       2.3782518      397298.12     -15316390       567.59331      567.59331      567.59331      1716.2033      2283.7967      1716.2033      2283.7967      1716.2033      2283.7967      1.8285709e+08  0.25           12019000       2.5172889      3362.3511      13449.579      4.4751846    
  45046200   134091.18      1216.3836     -15712777       2.3782518      399300.63     -15313477       567.59331      567.59331      567.59331      1716.2033      2283.7967      1716.2033      2283.7967      1716.2033      2283.7967      1.8285709e+08  0.25           12019050       2.5313804      3548.2589      14193.057      4.4613872    
  45046400   134585.76      1227.4102     -15708470       2.3782518      400773.42     -15307697       567.59331      567.59331      567.59331      1716.2033      2283.7967      1716.2033      2283.7967      1716.2033      2283.7967      1.8285709e+08  0.25           12019100       2.5456482      3504.4139      14017.697      4.4478945    
  45046600   135295.06      1234.0148     -15710578       2.3782518      402885.58     -15307692       567.59331      567.59331      567.59331      1716.2033      2283.7967      1716.2033      2283.7967      1716.2033      2283.7967      1.8285709e+08  0.25           12019150       2.5594709      3617.2231      14468.762      4.433623     
  45046800   136479.14      1247.5577     -15710792       2.3782518      406411.57     -15304380       567.59331      567.59331      567.59331      1716.2033      2283.7967      1716.2033      2283.7967      1716.2033      2283.7967      1.8285709e+08  0.25           12019200       2.573159       3652.8439      14611.685      4.4191239    
  45047000   138218.21      1263.0872     -15709888       2.3782518      411590.22     -15298298       567.59331      567.59331      567.59331      1716.2033      2283.7967      1716.2033      2283.7967      1716.2033      2283.7967      1.8285709e+08  0.25           12019250       2.5874666      3494.625       13978.386      4.40569      
  45047200   140325.63      1274.3886     -15717432       2.3782518      417865.76     -15299566       567.59331      567.59331      567.59331      1716.2033      2283.7967      1716.2033      2283.7967      1716.2033      2283.7967      1.8285709e+08  0.25           12019300       2.6015019      3562.4494      14249.732      4.3917864    
  45047400   142277.73      1286.1287     -15715296       2.3782518      423678.79     -15291617       567.59331      567.59331      567.59331      1716.2033      2283.7967      1716.2033      2283.7967      1716.2033      2283.7967      1.8285709e+08  0.25           12019350       2.6151629      3660.0335      14640.145      4.3772548    
  45047600   143600.42      1298.5068     -15707406       2.3782518      427617.54     -15279788       567.59331      567.59331      567.59331      1716.2033      2283.7967      1716.2033      2283.7967      1716.2033      2283.7967      1.8285709e+08  0.25           12019400       2.628964       3622.9046      14491.681      4.3629652    
  45047800   144000.64      1310.5394     -15701354       2.3782518      428809.32     -15272545       567.59331      567.59331      567.59331      1716.2033      2283.7967      1716.2033      2283.7967      1716.2033      2283.7967      1.8285709e+08  0.25           12019450       2.6425579      3678.109       14712.451      4.3483395    
  45048000   142846.51      1320.0093     -15700934       2.3782518      425372.52     -15275561       567.59331      567.59331      567.59331      1716.2033      2283.7967      1716.2033      2283.7967      1716.2033      2283.7967      1.8285709e+08  0.25           12019500       2.656898       3486.7204      13946.844      4.3349424    
  45048200   139990.14      1330.1056     -15698571       2.3782518      416866.73     -15281705       567.59331      567.59331      567.59331      1716.2033      2283.7967      1716.2033      2283.7967      1716.2033      2283.7967      1.8285709e+08  0.25           12019550       2.6712643      3480.3801      13921.595      4.3215775    
  45048400   137128.37      1336.8292     -15698112       2.3782518      408344.86     -15289767       567.59331      567.59331      567.59331      1716.2033      2283.7967      1716.2033      2283.7967      1716.2033      2283.7967      1.8285709e+08  0.25           12019600       2.6848089      3691.492       14765.743      4.3068848    
  45048600   136400.06      1349.7084     -15695030       2.3782518      406176.09     -15288854       567.59331      567.59331      567.59331      1716.2033      2283.7967      1716.2033      2283.7967      1716.2033      2283.7967      1.8285709e+08  0.25           12019650       2.6989037      3547.4312      14189.828      4.2930781    
  45048800   139136.13      1361.7353     -15693016       2.3782518      414323.65     -15278693       567.59331      567.59331      567.59331      1716.2033      2283.7967      1716.2033      2283.7967      1716.2033      2283.7967      1.8285709e+08  0.25           12019700       2.7133302      3465.8513      13863.428      4.2797922    
  45049000   143520.26      1374.4007     -15691745       2.3782518      427378.83     -15264366       567.59331      567.59331      567.59331      1716.2033      2283.7967      1716.2033      2283.7967      1716.2033      2283.7967      1.8285709e+08  0.25           12019750       2.726834       3702.6286      14810.489      4.2650514    
  45049200   145838.26      1390.8652     -15685098       2.3782518      434281.42     -15250817       567.59331      567.59331      567.59331      1716.2033      2283.7967      1716.2033      2283.7967      1716.2033      2283.7967      1.8285709e+08  0.25           12019800       2.7407948      3581.4692      14325.795      4.2510323    
  45049400   146538.95      1404.2085     -15674009       2.3782518      436367.96     -15237641       567.59331      567.59331      567.59331      1716.2033      2283.7967      1716.2033      2283.7967      1716.2033      2283.7967      1.8285709e+08  0.25           12019850       2.7549694      3527.415       14109.493      4.2373426    
  45049600   146647.17      1409.0877     -15673671       2.3782518      436690.24     -15236981       567.59331      567.59331      567.59331      1716.2033      2283.7967      1716.2033      2283.7967      1716.2033      2283.7967      1.8285709e+08  0.25           12019900       2.7683682      3731.7229      14927.181      4.2224638    
  45049800   146804.26      1422.9662     -15669601       2.3782518      437158.01     -15232443       567.59331      567.59331      567.59331      1716.2033      2283.7967      1716.2033      2283.7967      1716.2033      2283.7967      1.8285709e+08  0.25           12019950       2.7824997      3538.2093      14152.865      4.2087087    
  45050000   147561.16      1430.8389     -15665457       2.3782518      439411.94     -15226046       567.59331      567.59331      567.59331      1716.2033      2283.7967      1716.2033      2283.7967      1716.2033      2283.7967      1.8285709e+08  0.25           12020000       2.7993343      2970.0536      11880.266      4.1990044    
  45050200   149544.85      1446.7032     -15662449       2.3782518      445319.02     -15217130       567.59331      567.59331      567.59331      1716.2033      2283.7967      1716.2033      2283.7967      1716.2033      2283.7967      1.8285709e+08  0.25           12020050       2.8138539      3443.6037      13774.207      4.1857861    
  45050400   152818.59      1463.6027     -15665647       2.3782518      455067.66     -15210579       567.59331      567.59331      567.59331      1716.2033      2283.7967      1716.2033      2283.7967      1716.2033      2283.7967      1.8285709e+08  0.25           12020100       2.8275614      3647.6826      14590.86       4.1713558    
  45050600   155641.32      1478.306      -15665198       2.3782518      463473.26     -15201725       567.59331      567.59331      567.59331      1716.2033      2283.7967      1716.2033      2283.7967      1716.2033      2283.7967      1.8285709e+08  0.25           12020150       2.8409203      3742.7898      14971.193      4.1564234    
  45050800   156236.27      1485.9878     -15666222       2.3782518      465244.94     -15200977       567.59331      567.59331      567.59331      1716.2033      2283.7967      1716.2033      2283.7967      1716.2033      2283.7967      1.8285709e+08  0.25           12020200       2.8555626      3414.7671      13659.026      4.1433684    
  45051000   154203.69      1496.0877     -15663144       2.3782518      459192.25     -15203952       567.59331      567.59331      567.59331      1716.2033      2283.7967      1716.2033      2283.7967      1716.2033      2283.7967      1.8285709e+08  0.25           12020250       2.8698054      3510.5186      14041.927      4.1297234    
  45051200   148403.58      1504.3736     -15657829       2.3782518      441920.53     -15215908       567.59331      567.59331      567.59331      1716.2033      2283.7967      1716.2033      2283.7967      1716.2033      2283.7967      1.8285709e+08  0.25           12020300       2.8835618      3634.7234      14539.107      4.1153775    
  45051400   142352.7       1510.0364     -15660395       2.3782518      423902.04     -15236493       567.59331      567.59331      567.59331      1716.2033      2283.7967      1716.2033      2283.7967      1716.2033      2283.7967      1.8285709e+08  0.25           12020350       2.8979081      3485.1735      13940.537      4.1018732    
  45051600   141743.15      1517.0399     -15665711       2.3782518      422086.89     -15243624       567.59331      567.59331      567.59331      1716.2033      2283.7967      1716.2033      2283.7967      1716.2033      2283.7967      1.8285709e+08  0.25           12020400       2.9125679      3410.6966      13642.762      4.0888007    
  45051800   145924.97      1531.1154     -15668477       2.3782518      434539.65     -15233937       567.59331      567.59331      567.59331      1716.2033      2283.7967      1716.2033      2283.7967      1716.2033      2283.7967      1.8285709e+08  0.25           12020450       2.926992       3466.4388      13865.866      4.0753842    
  45052000   149986.65      1545.7927     -15664294       2.3782518      446634.63     -15217660       567.59331      567.59331      567.59331      1716.2033      2283.7967      1716.2033      2283.7967      1716.2033      2283.7967      1.8285709e+08  0.25           12020500       2.9413802      3475.0872      13900.333      4.0619088    
  45052200   152833.06      1564.0133     -15659823       2.3782518      455110.74     -15204713       567.59331      567.59331      567.59331      1716.2033      2283.7967      1716.2033      2283.7967      1716.2033      2283.7967      1.8285709e+08  0.25           12020550       2.9553812      3571.1811      14284.78       4.0478946    
  45052400   155775.66      1572.6366     -15657684       2.3782518      463873.32     -15193810       567.59331      567.59331      567.59331      1716.2033      2283.7967      1716.2033      2283.7967      1716.2033      2283.7967      1.8285709e+08  0.25           12020600       2.9689588      3682.5419      14730.213      4.0333051    
  45052600   158537.32      1580.2518     -15655605       2.3782518      472097.08     -15183508       567.59331      567.59331      567.59331      1716.2033      2283.7967      1716.2033      2283.7967      1716.2033      2283.7967      1.8285709e+08  0.25           12020650       2.9836077      3413.2109      13652.745      4.0201691    
  45052800   160518.69      1591.1649     -15645833       2.3782518      477997.25     -15167835       567.59331      567.59331      567.59331      1716.2033      2283.7967      1716.2033      2283.7967      1716.2033      2283.7967      1.8285709e+08  0.25           12020700       2.9977709      3530.2517      14120.932      4.0063699    
  45053000   161468.15      1603.0629     -15646874       2.3782518      480824.59     -15166049       567.59331      567.59331      567.59331      1716.2033      2283.7967      1716.2033      2283.7967      1716.2033      2283.7967      1.8285709e+08  0.25           12020750       3.0124879      3397.453       13589.89       3.9933008    
  45053200   161470.75      1610.5184     -15646063       2.3782518      480832.34     -15165231       567.59331      567.59331      567.59331      1716.2033      2283.7967      1716.2033      2283.7967      1716.2033      2283.7967      1.8285709e+08  0.25           12020800       3.0264832      3572.6175      14290.454      3.9792679    
  45053400   160846.8       1614.8575     -15644934       2.3782518      478974.3      -15165960       567.59331      567.59331      567.59331      1716.2033      2283.7967      1716.2033      2283.7967      1716.2033      2283.7967      1.8285709e+08  0.25           12020850       3.0403862      3596.3086      14385.252      3.9651151    
  45053600   160145.72      1626.7888     -15640873       2.3782518      476886.59     -15163986       567.59331      567.59331      567.59331      1716.2033      2283.7967      1716.2033      2283.7967      1716.2033      2283.7967      1.8285709e+08  0.25           12020900       3.0544827      3547.0243      14188.085      3.9512144    
  45053800   160257.1       1637.985      -15635807       2.3782518      477218.27     -15158589       567.59331      567.59331      567.59331      1716.2033      2283.7967      1716.2033      2283.7967      1716.2033      2283.7967      1.8285709e+08  0.25           12020950       3.0682747      3625.2101      14500.866      3.9369218    
  45054000   162276.06      1648.7388     -15634862       2.3782518      483230.39     -15151631       567.59331      567.59331      567.59331      1716.2033      2283.7967      1716.2033      2283.7967      1716.2033      2283.7967      1.8285709e+08  0.25           12021000       3.0824979      3515.4337      14061.805      3.9231818    
  45054200   166030.63      1660.8913     -15640570       2.3782518      494410.85     -15146159       567.59331      567.59331      567.59331      1716.2033      2283.7967      1716.2033      2283.7967      1716.2033      2283.7967      1.8285709e+08  0.25           12021050       3.0968478      3484.4004      13937.518      3.9095978    
  45054400   169071.39      1674.0731     -15637029       2.3782518      503465.73     -15133563       567.59331      567.59331      567.59331      1716.2033      2283.7967      1716.2033      2283.7967      1716.2033      2283.7967      1.8285709e+08  0.25           12021100       3.1107655      3592.5182      14369.779      3.8954661    
  45054600   169786.92      1683.2064     -15638400       2.3782518      505596.46     -15132803       567.59331      567.59331      567.59331      1716.2033      2283.7967      1716.2033      2283.7967      1716.2033      2283.7967      1.8285709e+08  0.25           12021150       3.1254114      3413.9527      13655.971      3.8822401    
  45054800   168146.71      1687.7064     -15637105       2.3782518      500712.2      -15136393       567.59331      567.59331      567.59331      1716.2033      2283.7967      1716.2033      2283.7967      1716.2033      2283.7967      1.8285709e+08  0.25           12021200       3.1390997      3652.639       14610.694      3.8678222    
[...]
  45999400   306.57025      12.946658     -15966973       2.3823617      912.91384     -15966060       567.26673      567.26673      567.26673      1716.3666      2283.6334      1716.3666      2283.6334      1716.3666      2283.6334      1.8254164e+08  0.25           12257350       24.697071      3095.5497      12382.272      0.90459217   
  45999600   297.70155      3.3054874     -15966995       2.3821376      886.50439     -15966109       567.28452      567.28452      567.28452      1716.3577      2283.6423      1716.3577      2283.6423      1716.3577      2283.6423      1.8255881e+08  0.25           12257400       24.713944      2963.2743      11853          0.88751742   
  45999800   303.46912     -7.9778628     -15967016       2.3818757      903.67922     -15966113       567.3053       567.3053       567.3053       1716.3473      2283.6527      1716.3473      2283.6527      1716.3473      2283.6527      1.8257888e+08  0.25           12257450       24.729825      3148.2968      12593.272      0.87040802   
  46000000   298.83309      9.6351823     -15967037       2.382296       889.87391     -15966148       567.27194      567.27194      567.27194      1716.364       2283.636       1716.364       2283.636       1716.364       2283.636       1.8254667e+08  0.25           12257500       24.748692      2650.1209      10600.492      0.85340327   
  46000200   299.22971     -4.9790445     -15967060       2.3819543      891.05498     -15966169       567.29907      567.29907      567.29907      1716.3505      2283.6495      1716.3505      2283.6495      1716.3505      2283.6495      1.8257286e+08  0.25           12257550       24.7655        2974.8679      11899.343      0.83632642   
  46000400   297.59331      2.4987935     -15967081       2.3821309      886.18206     -15966195       567.28505      567.28505      567.28505      1716.3575      2283.6425      1716.3575      2283.6425      1716.3575      2283.6425      1.8255932e+08  0.25           12257600       24.78296       2863.6115      11454.426      0.81927151   
  46000600   303.4326       4.7224009     -15967102       2.3821826      903.57046     -15966198       567.28095      567.28095      567.28095      1716.3595      2283.6405      1716.3595      2283.6405      1716.3595      2283.6405      1.8255536e+08  0.25           12257650       24.79922       3075.1085      12300.563      0.80217719   
  46000800   298.51156     -4.1017931     -15967123       2.3819748      888.91645     -15966234       567.29744      567.29744      567.29744      1716.3513      2283.6487      1716.3513      2283.6487      1716.3513      2283.6487      1.8257128e+08  0.25           12257700       24.816215      2942.1186      11768.497      0.78510728   
  46001000   301.55673     -0.18892547    -15967144       2.3820635      897.98444     -15966246       567.2904       567.2904       567.2904       1716.3548      2283.6452      1716.3548      2283.6452      1716.3548      2283.6452      1.8256448e+08  0.25           12257750       24.833274      2930.9215      11723.589      0.76803949   
  46001200   290.52796      5.0878288     -15967164       2.3821831      865.14265     -15966299       567.28091      567.28091      567.28091      1716.3595      2283.6405      1716.3595      2283.6405      1716.3595      2283.6405      1.8255532e+08  0.25           12257800       24.849976      2993.5911      11974.367      0.75096091   
  46001400   316.25882      5.1028461     -15967185       2.3821791      941.76476     -15966243       567.28122      567.28122      567.28122      1716.3594      2283.6406      1716.3594      2283.6406      1716.3594      2283.6406      1.8255563e+08  0.25           12257850       24.867506      2852.3734      11409.594      0.73390724   
  46001600   297.37661      3.4103608     -15967206       2.3821363      885.53676     -15966321       567.28462      567.28462      567.28462      1716.3577      2283.6423      1716.3577      2283.6423      1716.3577      2283.6423      1.8255891e+08  0.25           12257900       24.883962      3038.4145      12153.586      0.71682201   
  46001800   302.52995      2.8099857     -15967227       2.3821188      900.88254     -15966326       567.28601      567.28601      567.28601      1716.357       2283.643       1716.357       2283.643       1716.357       2283.643       1.8256025e+08  0.25           12257950       24.900449      3032.6124      12130.478      0.69973853   
  46002000   288.04419      3.4715024     -15967247       2.3821315      857.7464      -15966389       567.285        567.285        567.285        1716.3575      2283.6425      1716.3575      2283.6425      1716.3575      2283.6425      1.8255927e+08  0.25           12258000       24.916745      3068.2434      12272.814      0.68265062   
  46002200   315.20436      4.7382834     -15967267       2.3821581      938.62475     -15966328       567.28289      567.28289      567.28289      1716.3586      2283.6414      1716.3586      2283.6414      1716.3586      2283.6414      1.8255724e+08  0.25           12258050       24.933212      3036.3776      12145.706      0.66556835   
  46002400   301.8165       5.8034025     -15967287       2.3821808      898.75801     -15966388       567.28109      567.28109      567.28109      1716.3595      2283.6405      1716.3595      2283.6405      1716.3595      2283.6405      1.825555e+08   0.25           12258100       24.950177      2947.2653      11789.007      0.64849988   
  46002600   296.26869      5.5714461     -15967306       2.3821734      882.23757     -15966424       567.28167      567.28167      567.28167      1716.3592      2283.6408      1716.3592      2283.6408      1716.3592      2283.6408      1.8255606e+08  0.25           12258150       24.967276      2924.158       11696.652      0.63143493   
  46002800   306.42284      2.8384415     -15966957       2.3821039      912.47488     -15966045       567.28719      567.28719      567.28719      1716.3564      2283.6436      1716.3564      2283.6436      1716.3564      2283.6436      1.8256139e+08  0.25           12258200       24.983843      3018.0929      12072.311      0.61435685   
  46003000   291.91776      7.1448775     -15966977       2.3822026      869.28125     -15966107       567.27935      567.27935      567.27935      1716.3603      2283.6397      1716.3603      2283.6397      1716.3603      2283.6397      1.8255382e+08  0.25           12258250       25.00008       3079.3193      12317.295      0.5972716    
  46003200   314.26919      11.102776     -15966995       2.3822938      935.83998     -15966059       567.27212      567.27212      567.27212      1716.3639      2283.6361      1716.3639      2283.6361      1716.3639      2283.6361      1.8254684e+08  0.25           12258300       25.017048      2946.7094      11786.855      0.58020445   
  46003400   295.6915       13.189406     -15967014       2.3823439      880.51879     -15966134       567.26814      567.26814      567.26814      1716.3659      2283.6341      1716.3659      2283.6341      1716.3659      2283.6341      1.82543e+08    0.25           12258350       25.033879      2970.73        11882.861      0.56313435   
  46003600   304.47147      9.4913213     -15967035       2.3822622      906.66403     -15966129       567.27462      567.27462      567.27462      1716.3627      2283.6373      1716.3627      2283.6373      1716.3627      2283.6373      1.8254926e+08  0.25           12258400       25.050989      2922.3338      11689.412      0.54607065   
  46003800   291.90746      11.267463     -15967423       2.3823135      869.25056     -15966554       567.27056      567.27056      567.27056      1716.3647      2283.6353      1716.3647      2283.6353      1716.3647      2283.6353      1.8254533e+08  0.25           12258450       25.067586      3012.5404      12050.207      0.52899607   
  46004000   309.80123      15.833354     -15967440       2.3824245      922.53516     -15966518       567.26174      567.26174      567.26174      1716.3691      2283.6309      1716.3691      2283.6309      1716.3691      2283.6309      1.8253682e+08  0.25           12258500       25.083735      3096.1593      12384.595      0.51191301   
  46004200   296.48829      15.774597     -15967459       2.3824311      882.89151     -15966576       567.26122      567.26122      567.26122      1716.3694      2283.6306      1716.3694      2283.6306      1716.3694      2283.6306      1.8253632e+08  0.25           12258550       25.100777      2933.9612      11735.843      0.49484881   
  46004400   303.12364      14.707018     -15967478       2.3824145      902.65044     -15966575       567.26254      567.26254      567.26254      1716.3687      2283.6313      1716.3687      2283.6313      1716.3687      2283.6313      1.8253759e+08  0.25           12258600       25.117724      2950.2702      11801.022      0.47778285   
  46004600   296.34881      21.334628     -15967861       2.38258        882.47615     -15966979       567.2494       567.2494       567.2494       1716.3753      2283.6247      1716.3753      2283.6247      1716.3753      2283.6247      1.8252491e+08  0.25           12258650       25.134753      2936.1213      11744.502      0.46071854   
  46004800   301.75072      9.4526045     -15967885       2.3823103      898.56212     -15966986       567.27081      567.27081      567.27081      1716.3646      2283.6354      1716.3646      2283.6354      1716.3646      2283.6354      1.8254558e+08  0.25           12258700       25.151034      3071.1174      12284.572      0.44364108   
  46005000   286.94743      3.5043379     -15967904       2.3821752      854.48044     -15967050       567.28153      567.28153      567.28153      1716.3592      2283.6408      1716.3592      2283.6408      1716.3592      2283.6408      1.8255592e+08  0.25           12258750       25.168431      2874.1452      11496.587      0.42658361   
  46005200   306.39039     -4.8123703     -15967554       2.3819783      912.37826     -15966641       567.29716      567.29716      567.29716      1716.3514      2283.6486      1716.3514      2283.6486      1716.3514      2283.6486      1.8257101e+08  0.25           12258800       25.184962      3024.4834      12097.805      0.40951163   
  46005400   296.51889     -5.5079811     -15967572       2.3819632      882.98263     -15966689       567.29836      567.29836      567.29836      1716.3508      2283.6492      1716.3508      2283.6492      1716.3508      2283.6492      1.8257217e+08  0.25           12258850       25.20142       3038.1184      12152.541      0.39243921   
  46005600   301.74553     -3.2281985     -15967590       2.3820172      898.54667     -15966691       567.29408      567.29408      567.29408      1716.353       2283.647       1716.353       2283.647       1716.353       2283.647       1.8256804e+08  0.25           12258900       25.218099      2997.7705      11991.107      0.37537093   
  46005800   296.71491     -1.421965      -15967608       2.3820602      883.56635     -15966724       567.29066      567.29066      567.29066      1716.3547      2283.6453      1716.3547      2283.6453      1716.3547      2283.6453      1.8256474e+08  0.25           12258950       25.2341        3124.8024      12499.116      0.35829355   
  46006000   290.55626      0.091865242   -15967625       2.3820955      865.22693     -15966760       567.28786      567.28786      567.28786      1716.3561      2283.6439      1716.3561      2283.6439      1716.3561      2283.6439      1.8256204e+08  0.25           12259000       25.250785      2996.8044      11987.292      0.34122685   
  46006200   304.2361       1.6541079     -15967642       2.3821302      905.96317     -15966736       567.2851       567.2851       567.2851       1716.3574      2283.6426      1716.3574      2283.6426      1716.3574      2283.6426      1.8255937e+08  0.25           12259050       25.266954      3092.2035      12368.779      0.32415407   
  46006400   291.90149     -0.49069278    -15967659       2.3820795      869.23279     -15966790       567.28913      567.28913      567.28913      1716.3554      2283.6446      1716.3554      2283.6446      1716.3554      2283.6446      1.8256326e+08  0.25           12259100       25.284028      2928.5494      11714.181      0.30709348   
  46006600   319.39122      2.0439929     -15968044       2.3821432      951.09252     -15967093       567.28407      567.28407      567.28407      1716.358       2283.642       1716.358       2283.642       1716.358       2283.642       1.8255838e+08  0.25           12259150       25.29961       3208.827       12835.386      0.29001578   
  46006800   298.90041      5.5328911     -15960683       2.3822107      890.07438     -15959793       567.27871      567.27871      567.27871      1716.3606      2283.6394      1716.3606      2283.6394      1716.3606      2283.6394      1.825532e+08   0.25           12259200       25.315437      3159.0117      12635.981      0.27294275   
  46007000   300.07252     -3.2657391     -15960700       2.3820107      893.56472     -15959806       567.29459      567.29459      567.29459      1716.3527      2283.6473      1716.3527      2283.6473      1716.3527      2283.6473      1.8256853e+08  0.25           12259250       25.332644      2905.7822      11623.09       0.25588532   
  46007200   292.4781       1.9136353     -15960717       2.3821405      870.94985     -15959846       567.28429      567.28429      567.28429      1716.3579      2283.6421      1716.3579      2283.6421      1716.3579      2283.6421      1.8255859e+08  0.25           12259300       25.348464      3160.6574      12642.717      0.23881462   
  46007400   312.25851      1.8304146     -15960734       2.3821486      929.85253     -15959804       567.28364      567.28364      567.28364      1716.3582      2283.6418      1716.3582      2283.6418      1716.3582      2283.6418      1.8255796e+08  0.25           12259350       25.364381      3141.1595      12564.644      0.22174646   
  46007600   293.84619      0.38835037    -15960751       2.3821269      875.02379     -15959876       567.28536      567.28536      567.28536      1716.3573      2283.6427      1716.3573      2283.6427      1716.3573      2283.6427      1.8255963e+08  0.25           12259400       25.38171       2885.3607      11541.455      0.20469123   
  46007800   305.94849     -0.94476001    -15960769       2.3821087      911.06236     -15959858       567.28681      567.28681      567.28681      1716.3566      2283.6434      1716.3566      2283.6434      1716.3566      2283.6434      1.8256102e+08  0.25           12259450       25.397715      3123.9952      12495.939      0.18762586   
  46008000   287.40873      7.1928952     -15960786       2.3823168      855.85412     -15959931       567.27029      567.27029      567.27029      1716.3649      2283.6351      1716.3649      2283.6351      1716.3649      2283.6351      1.8254508e+08  0.25           12259500       25.414814      2924.1945      11696.777      0.17056924   
  46008200   307.61842     -5.1466759     -15960805       2.382037       916.03513     -15959889       567.2925       567.2925       567.2925       1716.3538      2283.6462      1716.3538      2283.6462      1716.3538      2283.6462      1.8256651e+08  0.25           12259550       25.431635      2972.551       11890.078      0.15351089   
  46008400   302.13353     -4.2990741     -15960823       2.3820684      899.70206     -15959924       567.29001      567.29001      567.29001      1716.355       2283.645       1716.355       2283.645       1716.355       2283.645       1.8256411e+08  0.25           12259600       25.448499      2964.8483      11859.45       0.13645309   
  46008600   297.93751     -6.3055101     -15960842       2.3820281      887.20704     -15959954       567.29321      567.29321      567.29321      1716.3534      2283.6466      1716.3534      2283.6466      1716.3534      2283.6466      1.825672e+08   0.25           12259650       25.464758      3075.1327      12300.561      0.11939272   
  46008800   288.39648     -10.708487     -15960859       2.3819273      858.79548     -15960000       567.30121      567.30121      567.30121      1716.3494      2283.6506      1716.3494      2283.6506      1716.3494      2283.6506      1.8257493e+08  0.25           12259700       25.481995      2900.8189      11603.319      0.10233734   
  46009000   313.12664     -11.032863     -15960877       2.3819213      932.43766     -15959945       567.30169      567.30169      567.30169      1716.3492      2283.6508      1716.3492      2283.6508      1716.3492      2283.6508      1.8257539e+08  0.25           12259750       25.498842      2967.953       11871.806      0.085280415  
  46009200   297.26618     -4.9729003     -15961266       2.3820742      885.20793     -15960380       567.28955      567.28955      567.28955      1716.3552      2283.6448      1716.3552      2283.6448      1716.3552      2283.6448      1.8256367e+08  0.25           12259800       25.515791      2950.0387      11800.161      0.068224046  
  46009400   302.78362      14.618127     -15961650       2.382555       901.63791     -15960748       567.25138      567.25138      567.25138      1716.3743      2283.6257      1716.3743      2283.6257      1716.3743      2283.6257      1.8252682e+08  0.25           12259850       25.532737      2950.4783      11801.902      0.051167815  
  46009600   287.82807      11.409905     -15961670       2.3824849      857.10286     -15960813       567.25695      567.25695      567.25695      1716.3715      2283.6285      1716.3715      2283.6285      1716.3715      2283.6285      1.825322e+08   0.25           12259900       25.549505      2981.8464      11927.351      0.034111492  
  46009800   314.17635     -3.5146519     -15961692       2.3821328      935.56352     -15960756       567.2849       567.2849       567.2849       1716.3576      2283.6424      1716.3576      2283.6424      1716.3576      2283.6424      1.8255918e+08  0.25           12259950       25.566025      3026.7218      12106.976      0.017055388  
  46010000   298.16923     -6.336515      -15961712       2.3820742      887.89705     -15960824       567.28955      567.28955      567.28955      1716.3552      2283.6448      1716.3552      2283.6448      1716.3552      2283.6448      1.8256367e+08  0.25           12260000       25.582944      2955.2529      11821.009      0            
Loop time of 25.583 on 4 procs for 300000 steps with 1000 atoms

Performance: 253.293 ns/day, 0.095 hours/ns, 11726.541 timesteps/s
99.3% CPU use with 4 MPI tasks x 1 OpenMP threads

MPI task timing breakdown:
Section |  min time  |  avg time  |  max time  |%varavg| %total
---------------------------------------------------------------
Pair    | 10.61      | 11.298     | 11.764     |  14.5 | 44.16
Neigh   | 0.0090378  | 0.010093   | 0.010789   |   0.6 |  0.04
Comm    | 8.2735     | 8.6305     | 9.1737     |  12.6 | 33.74
Output  | 0.074377   | 0.083633   | 0.11026    |   5.3 |  0.33
Modify  | 4.5599     | 4.6003     | 4.6619     |   1.8 | 17.98
Other   |            | 0.9603     |            |       |  3.75

Nlocal:            250 ave         263 max         226 min
Histogram: 1 0 0 0 0 0 0 1 1 1
Nghost:          933.5 ave         948 max         918 min
Histogram: 1 0 0 1 0 0 0 1 0 1
Neighs:        1712.25 ave        1745 max        1628 min
Histogram: 1 0 0 0 0 0 0 0 0 3

Total # of neighbors = 6849
Ave neighs/atom = 6.849
Neighbor list builds = 45
Dangerous builds = 0

# run_style
run_style verlet

# write restart
write_restart ${write_res}
write_restart ./pgnpmf/8020/equpmf45.res
System init for write_restart ...
Generated 0 of 1 mixed pair_coeff terms from geometric mixing rule

Total wall time: 0:01:15
