LAMMPS (23 Jun 2022 - Update 1)
OMP_NUM_THREADS environment is not set. Defaulting to 1 thread. (src/comm.cpp:98)
  using 1 OpenMP thread(s) per MPI task
###

# Read restart info
read_restart ${read_res}
read_restart ./trial5/1090/equpmf71.res
Reading restart file ...
  restart file = 23 Jun 2022, LAMMPS = 23 Jun 2022
  restoring atom style atomic from restart
  orthogonal box = (1629.3237 1629.3237 1629.3237) to (2370.6763 2370.6763 2370.6763)
  1 by 2 by 2 MPI processor grid
  restoring pair style table from restart
  1000 atoms
  read_restart CPU = 0.225 seconds

# Settings
pair_style table/pgn spline 10941
pair_coeff 1 1 N20e.txt DE_GNP 308 72.9   # 1.35 * r
pair_coeff 2 2 N100e.txt DE_GNP 473.9 111.78
WARNING: 20 of 10941 force values in table DE_GNP are inconsistent with -dE/dr.
WARNING:  Should only be flagged at inflection points (src/pair_table_pgn.cpp:478)
pair_coeff 1 2 mixed_potentiale.txt DE_GNP 391.2 92.95
WARNING: 1564 of 10941 force values in table DE_GNP are inconsistent with -dE/dr.
WARNING:  Should only be flagged at inflection points (src/pair_table_pgn.cpp:478)

# Neighbor list
neighbor 2.0 bin
neigh_modify delay 0 every 1 check no once yes

# Temperature
variable T equal ${Temp}
variable T equal 300

# Deformation
reset_timestep 0
variable tmp equal "lx"
variable L0 equal ${tmp}
variable L0 equal 741.352681074485
variable strain equal "(lx - v_L0)/v_L0"
variable stp equal "step"
variable tmpe equal "temp"
variable p1 equal "v_strain"
variable p2 equal "-pxx*1.01325/10000"
variable p3 equal "-pyy*1.01325/10000"
variable p4 equal "-pzz*1.01325/10000"
variable p5 equal "lx"
variable p6 equal "ly"
variable p7 equal "lz"
variable p8 equal "press"
variable p9 equal "epair"
variable p10 equal "etotal"

# Thermo
thermo_style custom step temp v_p1 v_p2 v_p3 v_p4 press lx ly lz vol density epair pe ke etotal pxx pyy pzz pxy pxz pyz spcpu
thermo ${ts_save}
thermo 1000

# Dump
# dump 1 all custom 2000 ./${N20}${N100}/tensile/trajectory/trajectory_${usic}_${trial}_*.tensile.custom id type x y z ix iy iz
# dump_modify 1 sort id
dump 2 all cfg 20000 ./trial${trial}/${N20}${N100}/tensile/trajectory/dumpten.tens_${usic}_${trial}_*.cfg mass type xs ys zs fx fy fz
dump 2 all cfg 20000 ./trial5/${N20}${N100}/tensile/trajectory/dumpten.tens_${usic}_${trial}_*.cfg mass type xs ys zs fx fy fz
dump 2 all cfg 20000 ./trial5/10${N100}/tensile/trajectory/dumpten.tens_${usic}_${trial}_*.cfg mass type xs ys zs fx fy fz
dump 2 all cfg 20000 ./trial5/1090/tensile/trajectory/dumpten.tens_${usic}_${trial}_*.cfg mass type xs ys zs fx fy fz
dump 2 all cfg 20000 ./trial5/1090/tensile/trajectory/dumpten.tens_1_${trial}_*.cfg mass type xs ys zs fx fy fz
dump 2 all cfg 20000 ./trial5/1090/tensile/trajectory/dumpten.tens_1_5_*.cfg mass type xs ys zs fx fy fz
dump_modify 2 element N20 N100

fix 1 all nvt temp ${T} ${T} 100
fix 1 all nvt temp 300 ${T} 100
fix 1 all nvt temp 300 300 100
fix 2 all deform 1 x erate ${strain_rate} y erate ${strain_rate} z erate ${strain_rate} units box
fix 2 all deform 1 x erate 5e-6 y erate ${strain_rate} z erate ${strain_rate} units box
fix 2 all deform 1 x erate 5e-6 y erate 5e-6 z erate ${strain_rate} units box
fix 2 all deform 1 x erate 5e-6 y erate 5e-6 z erate 5e-6 units box
fix             def1 all print ${ts_save} "${p1} ${p2} ${p3} ${p4}" file ./tensile/tensile${N20}${N100}_${usic}_${trial}.txt screen no
fix             def1 all print 1000 "${p1} ${p2} ${p3} ${p4}" file ./tensile/tensile${N20}${N100}_${usic}_${trial}.txt screen no
fix             def1 all print 1000 "${p1} ${p2} ${p3} ${p4}" file ./tensile/tensile10${N100}_${usic}_${trial}.txt screen no
fix             def1 all print 1000 "${p1} ${p2} ${p3} ${p4}" file ./tensile/tensile1090_${usic}_${trial}.txt screen no
fix             def1 all print 1000 "${p1} ${p2} ${p3} ${p4}" file ./tensile/tensile1090_1_${trial}.txt screen no
fix             def1 all print 1000 "${p1} ${p2} ${p3} ${p4}" file ./tensile/tensile1090_1_5.txt screen no

timestep       		${ts}
timestep       		0.1
run				${steps_tensile}
run				6000000
Generated 0 of 1 mixed pair_coeff terms from geometric mixing rule
Unused restart file global fix info:
  fix style: npt, fix ID: 5
Neighbor list info ...
  update every 1 steps, delay 0 steps, check no
  max neighbors/atom: 2000, page size: 100000
  master list distance cutoff = 113.78
  ghost atom cutoff = 113.78
  binsize = 56.89, bins = 14 14 14
  1 neighbor lists, perpetual/occasional/extra = 1 0 0
  (1) pair table/pgn, perpetual
      attributes: half, newton on
      pair build: half/bin/atomonly/newton
      stencil: half/bin/3d
      bin: standard
Per MPI rank memory allocation (min/avg/max) = 3.841 | 3.841 | 3.841 Mbytes
   Step          Temp           v_p1           v_p2           v_p3           v_p4          Press            Lx             Ly             Lz           Volume        Density         E_pair         PotEng         KinEng         TotEng          Pxx            Pyy            Pzz            Pxy            Pxz            Pyz           S/CPU     
         0   295.25765     -3.0670109e-16  0.0011662751   0.0045600576  -0.0016760589  -13.324365      741.35268      741.35268      741.35268      4.0745025e+08  1.6384531     -54526312      -54526312       879.22688     -54525433      -11.510241     -45.004269      16.541415     -19.003552      26.166296     -1.6176751      0            
      1000   314.40833      0.0005         0.010494192    0.013962392    0.0076575658  -105.64734      741.72336      741.72336      741.72336      4.0806173e+08  1.6359979     -54525830      -54525830       936.2543      -54524894      -103.56962     -137.79809     -75.574298     -19.173369      26.56472      -2.2235275      6339.0029    
      2000   335.1863       0.001          0.019358101    0.022737638    0.016526488   -192.85213      742.09403      742.09403      742.09403      4.0867382e+08  1.6335476     -54524647      -54524647       998.12757     -54523649      -191.0496      -224.40304     -163.10376     -19.424475      26.971503     -2.8159051      12322.307    
      3000   368.18684      0.0015         0.027754526    0.031003412    0.024976393   -275.46453      742.46471      742.46471      742.46471      4.0928653e+08  1.6311021     -54522791      -54522791       1096.3975     -54521694      -273.91587     -305.97989     -246.49784     -19.317882      26.765941     -2.8507215      12341.199    
      4000   392.9562       0.002          0.036023024    0.03925684     0.033323757   -357.27814      742.83539      742.83539      742.83539      4.0989984e+08  1.6286616     -54520250      -54520250       1170.1565     -54519080      -355.51961     -387.43489     -328.87991     -18.968239      26.265395     -2.3645818      12392.186    
      5000   407.89582      0.0025         0.044324211    0.047602416    0.041814176   -439.97304      743.20606      743.20606      743.20606      4.1051377e+08  1.6262259     -54516998      -54516998       1214.6441     -54515784      -437.44596     -469.79932     -412.67384     -18.534258      26.172726     -1.9656461      12377.006    
      6000   413.84985      0.003          0.052606369    0.055894191    0.050263867   -522.29436      743.57674      743.57674      743.57674      4.1112831e+08  1.6237951     -54513030      -54513030       1232.3742     -54511798      -519.18449     -551.63278     -496.0658      -18.032604      26.239973     -2.1016049      12326.121    
      7000   413.12062      0.0035         0.060801348    0.064082059    0.058427185   -603.04496      743.94742      743.94742      743.94742      4.1174347e+08  1.6213691     -54508352      -54508352       1230.2027     -54507122      -600.06265     -632.44075     -576.63148     -17.782641      25.975472     -2.7097909      12292.71     
      8000   408.41527      0.004          0.068838718    0.072056454    0.066365391   -681.83424      744.31809      744.31809      744.31809      4.1235924e+08  1.6189479     -54502964      -54502964       1216.1909     -54501747      -679.38532     -711.14191     -654.97548     -17.596818      25.398901     -3.0839094      12217.349    
      9000   402.16518      0.0045         0.076652656    0.079762533    0.074252256   -758.83689      744.68877      744.68877      744.68877      4.1297562e+08  1.6165316     -54496868      -54496868       1197.5792     -54495671      -756.50289     -787.195       -732.81279     -17.082019      25.084126     -3.4563381      12415.741    
     10000   395.67851      0.005          0.084244707    0.087328868    0.082115863   -834.57336      745.05944      745.05944      745.05944      4.1359261e+08  1.61412       -54490070      -54490070       1178.263      -54488892      -831.43061     -861.86891     -810.42056     -17.282474      25.099529     -4.2269712      12187.787    
     11000   389.49165      0.0055         0.091721572    0.094853932    0.089771785   -909.1119       745.43012      745.43012      745.43012      4.1421022e+08  1.6117133     -54482579      -54482579       1159.8396     -54481419      -905.22153     -936.13553     -885.97863     -18.246385      25.006777     -4.8046255      12344.474    
     12000   384.09354      0.006          0.099077358    0.10229209     0.097130516   -981.98853      745.8008       745.8008       745.8008       4.1482845e+08  1.6093113     -54474409      -54474409       1143.765      -54473265      -977.8175      -1009.5444     -958.60367     -18.625938      24.712301     -4.8547283      12364.178    
     13000   379.64219      0.0065         0.10624898     0.10954112     0.10435254    -1053.1874      746.17147      746.17147      746.17147      4.1544729e+08  1.6069142     -54465578      -54465578       1130.5096     -54464448      -1048.5959     -1081.0868     -1029.8795     -17.997069      24.562593     -4.7100164      12176.231    
     14000   375.73882      0.007          0.11326245     0.11655327     0.11150119    -1122.8453      746.54215      746.54215      746.54215      4.1606674e+08  1.6045217     -54456102      -54456102       1118.886      -54454983      -1117.8135     -1150.2914     -1100.4312     -17.308311      24.424451     -4.2905967      12367.583    
     15000   372.42098      0.0075         0.12018773     0.12336635     0.11847956    -1190.9981      746.91283      746.91283      746.91283      4.1668681e+08  1.602134      -54445990      -54445990       1109.0061     -54444881      -1186.1606     -1217.5312     -1169.3023     -17.288341      24.215688     -4.0020662      12347.615    
     16000   370.22242      0.008          0.12701413     0.13008776     0.12533214    -1258.1102      747.2835       747.2835       747.2835       4.1730749e+08  1.5997511     -54435252      -54435252       1102.4592     -54434149      -1253.532      -1283.8664     -1236.9321     -17.34488       24.258849     -4.6458556      12326.332    
     17000   368.96625      0.0085         0.13372268     0.13676433     0.13212917    -1324.5043      747.65418      747.65418      747.65418      4.179288e+08   1.5973729     -54423893      -54423893       1098.7185     -54422794      -1319.7403     -1349.759      -1304.0136     -17.094682      24.032021     -5.5072064      12271.655    
     18000   368.1437       0.009          0.14026436     0.14322822     0.13875957    -1389.1016      748.02486      748.02486      748.02486      4.1855071e+08  1.5949994     -54411929      -54411929       1096.2691     -54410833      -1384.3016     -1413.5527     -1369.4505     -17.031684      23.491858     -6.2327662      12227.153    
     19000   367.62938      0.0095         0.14661655     0.14953858     0.14517983    -1451.8791      748.39553      748.39553      748.39553      4.1917325e+08  1.5926306     -54399383      -54399383       1094.7375     -54398288      -1446.9929     -1475.831      -1432.8135     -17.808254      22.933118     -6.4926183      12293.813    
     20000   367.50753      0.01           0.15285401     0.15585263     0.15145806    -1513.8242      748.76621      748.76621      748.76621      4.197964e+08   1.5902664     -54386267      -54386267       1094.3747     -54385173      -1508.5518     -1538.1459     -1494.7748     -18.611693      22.636085     -5.8548965      11845.361    
     21000   367.68146      0.0105         0.15903514     0.16204566     0.15757119    -1574.6426      749.13688      749.13688      749.13688      4.2042017e+08  1.587907      -54372582      -54372582       1094.8926     -54371487      -1569.5548     -1599.2663     -1555.1067     -18.045427      22.664124     -5.2932293      12306.544    
     22000   368.41478      0.011          0.16500237     0.16793326     0.16344425    -1632.9628      749.50756      749.50756      749.50756      4.2104455e+08  1.5855522     -54358336      -54358336       1097.0763     -54357239      -1628.4468     -1657.3724     -1613.0694     -17.230978      22.221904     -5.3555275      12347.45     
     23000   369.85292      0.0115         0.17080999     0.1737036      0.16921811    -1690.0459      749.87824      749.87824      749.87824      4.2166956e+08  1.5832021     -54343550      -54343550       1101.3588     -54342448      -1685.7636     -1714.3213     -1670.0529     -17.239608      22.041481     -5.8460768      12344.393    
     24000   371.28308      0.012          0.17648499     0.17942271     0.1749768     -1746.4742      750.24891      750.24891      750.24891      4.2229518e+08  1.5808566     -54328241      -54328241       1105.6176     -54327136      -1741.7714     -1770.7644     -1726.8868     -17.592976      22.227458     -6.854172       12294.142    
     25000   372.47296      0.0125         0.18197022     0.18499313     0.18062824    -1801.4363      750.61959      750.61959      750.61959      4.2292142e+08  1.5785157     -54312417      -54312417       1109.1609     -54311308      -1795.9065     -1825.7403     -1782.6621     -17.805565      22.215783     -7.3709948      12218.273    
     26000   373.60191      0.013          0.18732721     0.19033366     0.18612728    -1854.7188      750.99027      750.99027      750.99027      4.2354828e+08  1.5761795     -54296090      -54296090       1112.5227     -54294978      -1848.7758     -1878.4471     -1836.9334     -17.792728      22.041788     -7.1228728      12327.46     
     27000   374.89298      0.0135         0.19258533     0.19548764     0.19142066    -1906.3858      751.36094      751.36094      751.36094      4.2417576e+08  1.5738479     -54279276      -54279276       1116.3673     -54278160      -1900.6694     -1929.313      -1889.175      -17.948556      21.348437     -6.9269802      12295.764    
     28000   376.52838      0.014          0.1977954      0.20063651     0.19655474    -1957.3539      751.73162      751.73162      751.73162      4.2480386e+08  1.5715209     -54261976      -54261976       1121.2372     -54260854      -1952.0889     -1980.1284     -1939.8445     -18.360921      19.961376     -7.1855723      12266.98     
     29000   378.40657      0.0145         0.20300103     0.20577715     0.20164921    -2008.15        752.10229      752.10229      752.10229      4.2543258e+08  1.5691984     -54244192      -54244192       1126.8302     -54243065      -2003.4644     -2030.8625     -1990.123      -18.340983      18.942818     -8.0325188      12375.774    
     30000   380.40734      0.015          0.20811226     0.21080274     0.20671617    -2058.1665      752.47297      752.47297      752.47297      4.2606191e+08  1.5668805     -54225935      -54225935       1132.7881     -54224802      -2053.9083     -2080.4613     -2040.13       -17.917431      18.754877     -8.4324981      12405.599    
     31000   382.3332       0.0155         0.21297909     0.21569456     0.21165694    -2106.5238      752.84365      752.84365      752.84365      4.2669187e+08  1.5645672     -54207222      -54207222       1138.523      -54206084      -2101.9402     -2128.7398     -2088.8916     -17.786536      19.079424     -8.473433       12372.018    
     32000   384.13723      0.016          0.21757865     0.22039258     0.21637755    -2152.6401      753.21432      753.21432      753.21432      4.2732245e+08  1.5622585     -54188064      -54188064       1143.8951     -54186921      -2147.3344     -2175.1056     -2135.4804     -18.110201      19.53415      -8.8126806      12247.815    
     33000   385.98842      0.0165         0.22206672     0.22489872     0.2209268     -2197.1946      753.585        753.585        753.585        4.2795365e+08  1.5599543     -54168473      -54168473       1149.4076     -54167324      -2191.6281     -2219.5778     -2180.378      -17.948231      19.47532      -8.8017666      12283.451    
     34000   387.79163      0.017          0.22649908     0.22926453     0.22536634    -2240.7433      753.95568      753.95568      753.95568      4.2858547e+08  1.5576546     -54148464      -54148464       1154.7772     -54147309      -2235.3721     -2262.665      -2224.1928     -17.517426      19.322354     -8.4091131      12231.602    
     35000   389.50265      0.0175         0.23081077     0.2334835      0.22974201    -2283.2018      754.32635      754.32635      754.32635      4.2921792e+08  1.5553594     -54128052      -54128052       1159.8724     -54126892      -2277.9251     -2304.303      -2267.3774     -17.919933      19.281737     -8.4583988      12212.09     
     36000   391.15833      0.018          0.23497314     0.23759029     0.23403231    -2324.5193      754.69703      754.69703      754.69703      4.2985098e+08  1.5530687     -54107241      -54107241       1164.8027     -54106076      -2319.0046     -2344.8339     -2309.7193     -18.616996      18.527544     -9.2955109      12095.415    
     37000   392.79143      0.0185         0.23905906     0.24169346     0.23818309    -2365.1143      755.06771      755.06771      755.06771      4.3048467e+08  1.5507826     -54086030      -54086030       1169.6658     -54084860      -2359.3295     -2385.329      -2350.6843     -18.688216      17.48838      -10.21537       12242.391    
     38000   394.4531       0.019          0.24310742     0.24570971     0.24220114    -2404.8631      755.43838      755.43838      755.43838      4.3111898e+08  1.5485009     -54064431      -54064431       1174.614      -54063257      -2399.2837     -2424.9663     -2390.3394     -18.239768      16.962679     -10.069313      11863.978    
     39000   396.02723      0.0195         0.24704181     0.24957298     0.24611367    -2443.3867      755.80906      755.80906      755.80906      4.3175391e+08  1.5462237     -54042464      -54042464       1179.3015     -54041285      -2438.1131     -2463.0939     -2428.9531     -18.027823      16.693306     -9.4472732      12136.32     
     40000   397.53922      0.02           0.25083537     0.25331451     0.24992166    -2480.7025      756.17973      756.17973      756.17973      4.3238946e+08  1.5439509     -54020132      -54020132       1183.8039     -54018949      -2475.5526     -2500.0199     -2466.535      -18.429048      16.034835     -9.0421949      11898.783    
     41000   399.14485      0.0205         0.25452302     0.25697419     0.25361067    -2517.0092      756.55041      756.55041      756.55041      4.3302564e+08  1.5416827     -53997439      -53997439       1188.5852     -53996251      -2511.9469     -2536.1381     -2502.9427     -19.088236      15.223328     -8.7862171      12321.842    
     42000   400.85571      0.021          0.25808077     0.26052296     0.25715778    -2552.0569      756.92109      756.92109      756.92109      4.3366244e+08  1.5394188     -53974396      -53974396       1193.6799     -53973202      -2547.0592     -2571.1617     -2537.95       -19.420125      15.664139     -8.8311538      12403.846    
     43000   402.39739      0.0215         0.26152238     0.26391302     0.26061346    -2585.8997      757.29176      757.29176      757.29176      4.3429987e+08  1.5371594     -53951016      -53951016       1198.2707     -53949818      -2581.0252     -2604.619      -2572.0548     -19.342402      17.138342     -9.3380522      12232.853    
     44000   403.57472      0.022          0.26489277     0.26717075     0.26406747    -2619.0674      757.66244      757.66244      757.66244      4.3493792e+08  1.5349044     -53927311      -53927311       1201.7766     -53926109      -2614.2884     -2636.7703     -2606.1433     -19.17814       17.365603     -9.8794023      12189.752    
     45000   404.43998      0.0225         0.26807726     0.27044078     0.26736828    -2651.1598      758.03312      758.03312      758.03312      4.355766e+08   1.5326538     -53903288      -53903288       1204.3532     -53902084      -2645.7169     -2669.043      -2638.7197     -18.559926      16.065076     -9.909879       12275.882    
     46000   405.40171      0.023          0.27113135     0.27367503     0.27047077    -2682.0533      758.40379      758.40379      758.40379      4.362159e+08   1.5304076     -53878952      -53878952       1207.2171     -53877745      -2675.8584     -2700.9626     -2669.3389     -17.520849      14.775576     -9.7739052      12360.784    
     47000   406.50581      0.0235         0.27418665     0.27671503     0.27353803    -2712.1958      758.77447      758.77447      758.77447      4.3685582e+08  1.5281658     -53854312      -53854312       1210.5049     -53853101      -2706.0118     -2730.965      -2699.6105     -17.169652      14.573697     -9.8790896      12342.342    
     48000   407.49218      0.024          0.27722956     0.27957114     0.27667111    -2741.9091      759.14515      759.14515      759.14515      4.3749637e+08  1.5259284     -53829371      -53829371       1213.4421     -53828157      -2736.043      -2759.1526     -2730.5315     -17.733578      15.34153      -10.110908      12242.731    
     49000   408.43195      0.0245         0.28011597     0.28234231     0.27966133    -2770.3581      759.51582      759.51582      759.51582      4.3813755e+08  1.5236953     -53804140      -53804140       1216.2406     -53802924      -2764.5297     -2786.502      -2760.0427     -18.18372       15.992261     -10.287649      12126.784    
     50000   409.73891      0.025          0.2827738      0.28504818     0.28232944    -2796.7807      759.8865       759.8865       759.8865       4.3877935e+08  1.5214666     -53778636      -53778636       1220.1325     -53777416      -2790.7604     -2813.2068     -2786.3749     -18.484558      15.469749     -10.400085      11796.905    
     51000   411.22443      0.0255         0.28525333     0.28765418     0.28487442    -2821.8831      760.25717      760.25717      760.25717      4.3942178e+08  1.5192422     -53752871      -53752871       1224.5561     -53751646      -2815.2315     -2838.926      -2811.4919     -19.01013       14.480148     -10.637791      12200.439    
     52000   412.33931      0.026          0.28770659     0.290189       0.28749515    -2846.9142      760.62785      760.62785      760.62785      4.4006484e+08  1.5170222     -53726847      -53726847       1227.876      -53725619      -2839.4433     -2863.9427     -2837.3565     -19.525378      14.129904     -10.644044      12170.805    
     53000   412.9519       0.0265         0.2901786      0.2926079      0.29012776    -2871.6646      760.99853      760.99853      760.99853      4.4070852e+08  1.5148065     -53700571      -53700571       1229.7002     -53699341      -2863.8402     -2887.8154     -2863.3383     -19.360083      14.398301     -10.2794        11854.973    
     54000   413.54493      0.027          0.29256435     0.29492647     0.29256689    -2895.1648      761.3692       761.3692       761.3692       4.4135283e+08  1.5125951     -53674057      -53674057       1231.4662     -53672826      -2887.3856     -2910.698      -2887.4108     -18.507228      14.407161     -10.089636      12204.407    
     55000   414.40529      0.0275         0.29484269     0.29719387     0.29474627    -2917.2887      761.73988      761.73988      761.73988      4.4199777e+08  1.510388      -53647313      -53647313       1234.0282     -53646079      -2909.8711     -2933.0755     -2908.9195     -17.35411       13.740786     -10.022345      12093.23     
     56000   415.19137      0.028          0.29700125     0.29932167     0.29678869    -2938.1087      762.11056      762.11056      762.11056      4.4264334e+08  1.5081852     -53620335      -53620335       1236.369      -53619099      -2931.1744     -2954.0752     -2929.0766     -16.91349       13.379634     -9.9724544      12250.828    
     57000   415.74546      0.0285         0.29891696     0.30129415     0.29881687    -2957.5721      762.48123      762.48123      762.48123      4.4328953e+08  1.5059867     -53593133      -53593133       1238.019      -53591895      -2950.081      -2973.5421     -2949.0932     -17.288089      13.670805     -9.9832999      12034.578    
     58000   416.52437      0.029          0.300661       0.30312326     0.30083824    -2975.9767      762.85191      762.85191      762.85191      4.4393635e+08  1.5037924     -53565728      -53565728       1240.3384     -53564488      -2967.2934     -2991.594      -2969.0426     -17.491378      13.684955     -9.5885504      12034.333    
     59000   417.45415      0.0295         0.3024846      0.30490329     0.30284429    -2994.4311      763.22259      763.22259      763.22259      4.4458381e+08  1.5016024     -53538140      -53538140       1243.1072     -53536897      -2985.2909     -3009.1615     -2988.8407     -17.260968      12.986172     -8.9753456      12169.212    
     60000   418.02449      0.03           0.30439934     0.30670672     0.30469219    -3012.742       763.59326      763.59326      763.59326      4.4523189e+08  1.4994167     -53510365      -53510365       1244.8056     -53509120      -3004.188      -3026.96       -3007.0781     -16.927438      11.913051     -8.8638497      11209.173    
     61000   418.40615      0.0305         0.30620593     0.30841223     0.30633872    -3029.7126      763.96394      763.96394      763.96394      4.458806e+08   1.4972352     -53482395      -53482395       1245.9421     -53481149      -3022.0176     -3043.792      -3023.3281     -16.437608      11.330827     -8.8361733      12092.499    
     62000   418.88247      0.031          0.30784068     0.30997084     0.30790862    -3045.3825      764.33461      764.33461      764.33461      4.4652994e+08  1.4950579     -53454241      -53454241       1247.3605     -53452993      -3038.1513     -3059.1744     -3038.8218     -16.50399       11.602797     -8.4811084      12046.653    
     63000   419.4225       0.0315         0.30930356     0.31144592     0.30944668    -3060.1074      764.70529      764.70529      764.70529      4.4717991e+08  1.4928849     -53425917      -53425917       1248.9686     -53424668      -3052.5888     -3073.7322     -3054.0013     -16.155035      12.063216     -8.0766338      12290.813    
     64000   419.80922      0.032          0.31060952     0.31287835     0.31093853    -3074.0238      765.07597      765.07597      765.07597      4.4783051e+08  1.490716      -53397433      -53397433       1250.1202     -53396183      -3065.4776     -3087.8692     -3068.7247     -15.155075      11.759765     -8.3528373      12222.691    
     65000   420.1477       0.0325         0.3116897      0.31405859     0.31223793    -3085.7347      765.44664      765.44664      765.44664      4.4848174e+08  1.4885514     -53368806      -53368806       1251.1281     -53367555      -3076.1382     -3099.5173     -3081.5487     -14.474119      11.01389      -8.2635989      12262.39     
     66000   420.8979       0.033          0.31272313     0.31508704     0.31335325    -3096.1869      765.81732      765.81732      765.81732      4.4913361e+08  1.4863909     -53340051      -53340051       1253.3621     -53338798      -3086.3373     -3109.6673     -3092.5562     -14.335222      10.754163     -7.2078151      12136.056    
     67000   421.69897      0.0335         0.31384437     0.31616568     0.31451143    -3107.2341      766.188        766.188        766.188        4.497861e+08   1.4842347     -53311171      -53311171       1255.7475     -53309916      -3097.4031     -3120.3127     -3103.9865     -14.397104      10.997991     -6.401631       12088.836    
     68000   422.07438      0.034          0.31502384     0.31728525     0.31573199    -3118.8127      766.55867      766.55867      766.55867      4.5043923e+08  1.4820826     -53282155      -53282155       1256.8654     -53280899      -3109.0436     -3131.362      -3116.0325     -13.945815      11.263299     -6.3427442      12211.077    
     69000   422.07386      0.0345         0.31618657     0.31835177     0.31681231    -3129.7003      766.92935      766.92935      766.92935      4.5109298e+08  1.4799346     -53253010      -53253010       1256.8639     -53251753      -3120.5188     -3141.8877     -3126.6944     -12.77491       10.815268     -6.5135795      12212.209    
     70000   422.11492      0.035          0.31711411     0.3191427      0.31767512    -3138.192       767.30002      767.30002      767.30002      4.5174737e+08  1.4777908     -53223752      -53223752       1256.9861     -53222495      -3129.6729     -3149.6936     -3135.2096     -11.673327      10.046001     -6.5713353      12192.621    
     71000   422.5437       0.0355         0.31782676     0.31973035     0.31847152    -3145.0897      767.6707       767.6707       767.6707       4.524024e+08   1.4756512     -53194389      -53194389       1258.263      -53193131      -3136.7062     -3155.4932     -3143.0696     -11.004341      9.8312507     -6.0681203      12219.808    
     72000   422.80814      0.036          0.31852842     0.32037206     0.31923701    -3152.0273      768.04138      768.04138      768.04138      4.5305805e+08  1.4735156     -53164926      -53164926       1259.0504     -53163667      -3143.6311     -3161.8264     -3150.6243     -10.874033      9.7960584     -5.8826788      12133.53     
     73000   422.63823      0.0365         0.31914565     0.32100586     0.31985141    -3158.164       768.41205      768.41205      768.41205      4.5371434e+08  1.4713842     -53135371      -53135371       1258.5445     -53134112      -3149.7226     -3168.0815     -3156.688      -10.441373      9.122632      -6.4315243      12225.049    
     74000   422.41204      0.037          0.31962214     0.32152899     0.32042449    -3163.3378      768.78273      768.78273      768.78273      4.5437126e+08  1.4692569     -53105743      -53105743       1257.8709     -53104486      -3154.4253     -3173.2444     -3162.3439     -9.8664959      8.1082083     -6.6926096      12007.542    
     75000   422.44139      0.0375         0.32009606     0.32191236     0.32090164    -3167.7278      769.15341      769.15341      769.15341      4.5502882e+08  1.4671337     -53076053      -53076053       1257.9583     -53074795      -3159.1025     -3177.028      -3167.053      -9.9587551      7.7673086     -5.9554226      12090.177    
     76000   422.74846      0.038          0.32055462     0.3221841      0.3212675     -3171.3339      769.52408      769.52408      769.52408      4.5568701e+08  1.4650146     -53046293      -53046293       1258.8727     -53045034      -3163.6281     -3179.7098     -3170.6637     -9.9213605      8.1273638     -4.8102302      12174.26     
     77000   422.99061      0.0385         0.32090001     0.32234164     0.32167611    -3174.3326      769.89476      769.89476      769.89476      4.5634583e+08  1.4628996     -53016464      -53016464       1259.5938     -53015205      -3167.0369     -3181.2647     -3174.6963     -9.2128001      7.9088849     -4.7947788      12163.722    
     78000   422.94756      0.039          0.32110444     0.32247677     0.32210554    -3176.8624      770.26544      770.26544      770.26544      4.5700529e+08  1.4607886     -52986580      -52986580       1259.4656     -52985320      -3169.0544     -3182.5983     -3178.9345     -8.3284987      6.9632843     -5.5396458      12197.095    
     79000   422.72357      0.0395         0.32119447     0.3226237      0.32236266    -3178.4878      770.63611      770.63611      770.63611      4.5766539e+08  1.4586817     -52956650      -52956650       1258.7986     -52955391      -3169.9429     -3184.0484     -3181.4721     -6.9953887      6.188321      -5.6906333      12296.811    
     80000   422.57893      0.04           0.32124817     0.32262835     0.32237516    -3178.7209      771.00679      771.00679      771.00679      4.5832612e+08  1.4565788     -52926690      -52926690       1258.3679     -52925432      -3170.4729     -3184.0943     -3181.5955     -5.8406512      5.598317      -4.8788454      11840.364    
     81000   422.56539      0.0405         0.32128548     0.32248048     0.32232154    -3178.1807      771.37746      771.37746      771.37746      4.5898748e+08  1.45448       -52896709      -52896709       1258.3276     -52895451      -3170.8411     -3182.6349     -3181.0662     -5.8948673      5.2667365     -4.0376598      12114.672    
     82000   422.43872      0.041          0.32127195     0.32228372     0.32230936    -3177.4489      771.74814      771.74814      771.74814      4.5964948e+08  1.4523852     -52866704      -52866704       1257.9504     -52865446      -3170.7077     -3180.693      -3180.946      -6.76654        4.8036532     -3.7003325      12126.074    
     83000   422.19429      0.0415         0.32114014     0.32218071     0.32219822    -3176.3108      772.11882      772.11882      772.11882      4.6031212e+08  1.4502945     -52836677      -52836677       1257.2225     -52835420      -3169.4068     -3179.6764     -3179.8492     -6.7649474      3.9151871     -3.5358421      12260.311    
     84000   421.80456      0.042          0.32083143     0.32204647     0.32194756    -3174.029       772.48949      772.48949      772.48949      4.6097539e+08  1.4482077     -52806631      -52806631       1256.062      -52805375      -3166.36       -3178.3515     -3177.3753     -5.5495469      3.0481637     -3.4753759      12295.405    
     85000   421.46558      0.0425         0.32032208     0.32163308     0.32156905    -3169.7482      772.86017      772.86017      772.86017      4.616393e+08   1.446125      -52776585      -52776585       1255.0525     -52775330      -3161.3331     -3174.2717     -3173.6398     -4.269966       2.6227509     -3.7824987      12331.459    
     86000   421.30805      0.043          0.31980252     0.32101111     0.32120315    -3164.7891      773.23085      773.23085      773.23085      4.6230385e+08  1.4440462     -52746555      -52746555       1254.5834     -52745301      -3156.2055     -3168.1333     -3170.0286     -4.0909903      1.9316444     -5.0524524      12067.03     
     87000   421.05044      0.0435         0.31942755     0.32044685     0.3209977     -3161.0234      773.60152      773.60152      773.60152      4.6296904e+08  1.4419714     -52716543      -52716543       1253.8163     -52715289      -3152.5048     -3162.5645     -3168.001      -4.5148748      0.83451835    -6.1887829      12303.287    
     88000   420.5981       0.044          0.31913984     0.31998502     0.32072351    -3157.6557      773.9722       773.9722       773.9722       4.6363486e+08  1.4399006     -52686546      -52686546       1252.4693     -52685293      -3149.6654     -3158.0067     -3165.2949     -4.2490985      0.21162071    -5.8798103      12233.267    
     89000   419.96017      0.0445         0.31869832     0.31948665     0.32016292    -3152.7194      774.34288      774.34288      774.34288      4.6430132e+08  1.4378338     -52656562      -52656562       1250.5697     -52655312      -3145.3078     -3153.0881     -3159.7624     -3.4345167      0.32370546    -4.6657389      12357.9      
     90000   419.22825      0.045          0.31800954     0.31883876     0.31936981    -3145.713       774.71355      774.71355      774.71355      4.6496842e+08  1.4357709     -52626600      -52626600       1248.3901     -52625351      -3138.5101     -3146.6939     -3151.9349     -2.7078894      0.34403293    -3.7116553      12515.37     
     91000   418.46981      0.0455         0.31719892     0.31802941     0.31853368    -3137.6331      775.08423      775.08423      775.08423      4.6563616e+08  1.4337119     -52596674      -52596674       1246.1316     -52595427      -3130.5099     -3138.7063     -3143.683      -2.2673461     -0.65455566    -4.22798        12272.355    
     92000   417.60355      0.046          0.31642674     0.31719004     0.31778701    -3129.8751      775.4549       775.4549       775.4549       4.6630454e+08  1.4316569     -52566789      -52566789       1243.552      -52565545      -3122.8891     -3130.4223     -3136.3139     -2.1713253     -2.3937731     -5.5791091      12241.905    
     93000   416.76084      0.0465         0.31564049     0.31632443     0.31698531    -3121.8035      775.82558      775.82558      775.82558      4.6697355e+08  1.4296058     -52536956      -52536956       1241.0426     -52535715      -3115.1294     -3121.8794     -3128.4018     -2.6251662     -3.4875609     -6.5688183      12244.963    
     94000   416.02257      0.047          0.31475781     0.31536912     0.31607915    -3112.776       776.19626      776.19626      776.19626      4.6764321e+08  1.4275587     -52507184      -52507184       1238.8442     -52505945      -3106.418      -3112.4512     -3119.4587     -3.3934645     -3.397176      -6.8793932      12232.486    
     95000   415.19701      0.0475         0.31372025     0.31427478     0.31512708    -3102.6305      776.56693      776.56693      776.56693      4.6831351e+08  1.4255154     -52477476      -52477476       1236.3858     -52476239      -3096.1781     -3101.6509     -3110.0625     -3.2064191     -2.8594236     -6.6165307      12265.523    
     96000   414.51513      0.048          0.31258562     0.31310552     0.31408649    -3091.628       776.93761      776.93761      776.93761      4.6898444e+08  1.4234761     -52447833      -52447833       1234.3553     -52446599      -3084.9802     -3090.1113     -3099.7926     -1.8636234     -2.8003656     -6.2131377      12224.255    
     97000   414.28618      0.0485         0.31140801     0.31200192     0.31301147    -3080.5869      777.30829      777.30829      777.30829      4.6965602e+08  1.4214406     -52418271      -52418271       1233.6735     -52417037      -3073.3581     -3079.2196     -3089.183      -0.31351709    -3.6688837     -5.8816877      12347.606    
     98000   413.7056       0.049          0.31027431     0.31094363     0.31196471    -3069.9322      777.67896      777.67896      777.67896      4.7032824e+08  1.419409      -52388792      -52388792       1231.9446     -52387560      -3062.1693     -3068.7751     -3078.8523      0.014067113   -5.1681311     -6.0485693      12333.321    
     99000   412.26993      0.0495         0.30916346     0.3096569      0.31076507    -3058.0983      778.04964      778.04964      778.04964      4.7100109e+08  1.4173813     -52359392      -52359392       1227.6695     -52358164      -3051.2061     -3056.076      -3067.0128     -1.1122364     -6.2448457     -7.0446561      12094.132    
    100000   410.74125      0.05           0.30799375     0.30815771     0.30939136    -3044.7991      778.42032      778.42032      778.42032      4.7167459e+08  1.4153574     -52330075      -52330075       1223.1173     -52328852      -3039.662      -3041.2802     -3053.4553     -2.6312495     -6.1840761     -8.1928042      11748.279    
    101000   409.58081      0.0505         0.30665397     0.30670625     0.30810238    -3031.3763      778.79099      778.79099      778.79099      4.7234874e+08  1.4133374     -52300852      -52300852       1219.6617     -52299632      -3026.4394     -3026.9553     -3040.7341     -2.6903839     -5.7007486     -9.2151993      12243.474    
    102000   408.62576      0.051          0.30513343     0.30532906     0.30677959    -3017.4918      779.16167      779.16167      779.16167      4.7302352e+08  1.4113212     -52271733      -52271733       1216.8177     -52270517      -3011.4328     -3013.3635     -3027.6791     -1.1028286     -6.4882171     -9.8308766      12118.815    
    103000   407.80175      0.0515         0.30358064     0.3039413      0.30524678    -3002.7756      779.53234      779.53234      779.53234      4.7369895e+08  1.4093089     -52242731      -52242731       1214.364      -52241516      -2996.108      -2999.6674     -3012.5515      0.18086693    -8.4302265     -9.6186766      12301.112    
    104000   406.66038      0.052          0.30210453     0.30242338     0.30362536    -2987.592       779.90302      779.90302      779.90302      4.7437502e+08  1.4073003     -52213849      -52213849       1210.9652     -52212638      -2981.5399     -2984.6867     -2996.5493      0.37666174    -9.8129631     -9.5468561      12138.74     
    105000   405.04548      0.0525         0.30062345     0.30066405     0.3020459     -2971.7359      780.2737       780.2737       780.2737       4.7505173e+08  1.4052956     -52185085      -52185085       1206.1563     -52183878      -2966.9228     -2967.3235     -2980.9613      0.3349594     -9.8687579     -10.015083      12296.91     
    106000   403.62872      0.053          0.29904715     0.29879441     0.30044062    -2955.1186      780.64437      780.64437      780.64437      4.7572908e+08  1.4032948     -52156445      -52156445       1201.9374     -52155243      -2951.3659     -2948.8715     -2965.1184      0.50487633    -9.7740993     -10.647392      12255.142    
    107000   402.87173      0.0535         0.2973512      0.29710378     0.29876815    -2938.4756      781.01505      781.01505      781.01505      4.7640708e+08  1.4012977     -52127939      -52127939       1199.6832     -52126739      -2934.6282     -2932.1863     -2948.6124      0.9427698     -10.396426     -10.846555      12369.256    
    108000   402.16115      0.054          0.29562586     0.29560195     0.29715645    -2922.557       781.38573      781.38573      781.38573      4.7708572e+08  1.3993043     -52099567      -52099567       1197.5672     -52098369      -2917.6004     -2917.3644     -2932.7061      1.3225093     -11.502454     -11.009793      12435.894    
    109000   401.03103      0.0545         0.29389266     0.29394483     0.29546921    -2905.8531      781.7564       781.7564       781.7564       4.7776501e+08  1.3973148     -52071327      -52071327       1194.2019     -52070133      -2900.4951     -2901.0099     -2916.0544      1.9521028     -12.553663     -11.526211      12400.404    
    110000   399.8382       0.055          0.29214007     0.29195833     0.29356113    -2887.2754      782.12708      782.12708      782.12708      4.7844494e+08  1.395329      -52043233      -52043233       1190.6499     -52042042      -2883.1984     -2881.4047     -2897.2231      2.7618265     -13.158938     -11.68708       12351.872    
    111000   399.03328      0.0555         0.29030084     0.28987958     0.291564      -2867.8161      782.49775      782.49775      782.49775      4.7912552e+08  1.393347      -52015299      -52015299       1188.253      -52014111      -2865.0465     -2860.889      -2877.5129      3.2834703     -13.284184     -11.173008      8626.7881    
    112000   398.10434      0.056          0.28846375     0.28802919     0.28973402    -2849.6651      782.86843      782.86843      782.86843      4.7980674e+08  1.3913688     -51987523      -51987523       1185.4867     -51986337      -2846.9158     -2842.6271     -2859.4524      4.0838137     -13.641066     -10.989689      12258.069    
    113000   396.52607      0.0565         0.28666294     0.28625107     0.28797229    -2832.0957      783.23911      783.23911      783.23911      4.804886e+08   1.3893943     -51959889      -51959889       1180.7869     -51958708      -2829.1433     -2825.0784     -2842.0655      4.6324596     -14.277999     -11.400306      12183.663    
    114000   394.79569      0.057          0.28482272     0.28432522     0.28601276    -2813.26        783.60978      783.60978      783.60978      4.8117112e+08  1.3874235     -51932401      -51932401       1175.6341     -51931226      -2810.9817     -2806.0718     -2822.7265      4.52708       -14.830002     -11.438843      12299.898    
    115000   393.42327      0.0575         0.28284333     0.28234245     0.28399219    -2793.5783      783.98046      783.98046      783.98046      4.8185427e+08  1.3854565     -51905074      -51905074       1171.5473     -51903903      -2791.4467     -2786.5033     -2802.785       4.6742505     -15.32356      -10.609184      12327.663    
    116000   392.17399      0.058          0.28076865     0.28041425     0.2821206     -2774.2528      784.35114      784.35114      784.35114      4.8253808e+08  1.3834931     -51877915      -51877915       1167.8272     -51876747      -2770.9711     -2767.4734     -2784.3138      5.8080317     -15.727994     -9.9002068      12259.244    
    117000   390.95641      0.0585         0.27869608     0.27839473     0.28019248    -2754.4479      784.72181      784.72181      784.72181      4.8322253e+08  1.3815335     -51850920      -51850920       1164.2014     -51849756      -2750.5165     -2747.5423     -2765.2848      7.1560764     -15.662129     -10.293061      12276.725    
    118000   389.60601      0.059          0.27670473     0.27627795     0.27809021    -2734.0172      785.09249      785.09249      785.09249      4.8390763e+08  1.3795776     -51824095      -51824095       1160.1802     -51822935      -2730.8634     -2726.6513     -2744.537       8.2551685     -15.338946     -11.269563      12259.219    
    119000   388.06927      0.0595         0.27477539     0.27411809     0.27591044    -2713.3939      785.46317      785.46317      785.46317      4.8459337e+08  1.3776254     -51797443      -51797443       1155.604      -51796288      -2711.8223     -2705.3352     -2723.0244      9.8027836     -15.21616      -11.489693      12245.537    
    120000   386.6202       0.06           0.27281608     0.27196869     0.27379818    -2692.9285      785.83384      785.83384      785.83384      4.8527977e+08  1.3756768     -51770968      -51770968       1151.2889     -51769816      -2692.4853     -2684.1223     -2702.1779      11.189413     -15.411769     -10.642931      12065.249    
    121000   385.57533      0.0605         0.27071838     0.26984998     0.27169462    -2672.1374      786.20452      786.20452      786.20452      4.8596681e+08  1.3737319     -51744671      -51744671       1148.1775     -51743523      -2671.7826     -2663.2122     -2681.4174      11.310815     -15.7707       -9.4078285      12279.373    
    122000   384.74723      0.061          0.26863411     0.26780892     0.26956365    -2651.5558      786.57519      786.57519      786.57519      4.866545e+08   1.3717907     -51718548      -51718548       1145.7115     -51717402      -2651.2125     -2643.0685     -2660.3864      10.65113      -16.270893     -8.9431563      12251.8      
    123000   383.55526      0.0615         0.26662884     0.26585999     0.26750907    -2631.7885      786.94587      786.94587      786.94587      4.8734283e+08  1.3698532     -51692598      -51692598       1142.1621     -51691456      -2631.4221     -2623.8341     -2640.1092      10.406477     -15.947493     -9.1871307      12116.205    
    124000   381.68872      0.062          0.26450721     0.26389612     0.26552794    -2611.8308      787.31655      787.31655      787.31655      4.8803182e+08  1.3679193     -51666828      -51666828       1136.6038     -51665691      -2610.4832     -2604.4522     -2620.557       11.487173     -14.264901     -9.3035772      12312.394    
    125000   379.62368      0.0625         0.26219341     0.26172454     0.26335049    -2589.9118      787.68722      787.68722      787.68722      4.8872145e+08  1.365989      -51641241      -51641241       1130.4545     -51640111      -2587.6478     -2583.0204     -2599.0673      13.101673     -12.255293     -9.3361952      12263.673    
    126000   378.12433      0.063          0.25994591     0.25941956     0.26098228    -2567.1445      788.0579       788.0579       788.0579       4.8941174e+08  1.3640623     -51615840      -51615840       1125.9897     -51614714      -2565.4667     -2560.272      -2575.6948      13.474638     -11.439048     -9.4042821      12215.608    
    127000   377.13336      0.0635         0.25794695     0.25716817     0.25872748    -2545.7442      788.42858      788.42858      788.42858      4.9010267e+08  1.3621393     -51590625      -51590625       1123.0388     -51589501      -2545.7384     -2538.0525     -2553.4417      12.981526     -11.983399     -8.813287       12198.495    
    128000   376.05108      0.064          0.25614739     0.25512336     0.25680486    -2526.7723      788.79925      788.79925      788.79925      4.9079426e+08  1.3602199     -51565578      -51565578       1119.8159     -51564458      -2527.9782     -2517.8718     -2534.4669      12.948151     -12.929817     -7.6958211      12249.901    
    129000   374.81731      0.0645         0.25429354     0.25336224     0.25501058    -2508.9772      789.16993      789.16993      789.16993      4.9148649e+08  1.3583041     -51540693      -51540693       1116.142      -51539577      -2509.6821     -2500.4909     -2516.7588      13.243079     -12.894985     -7.1909181      12231.734    
    130000   373.57838      0.065          0.25223519     0.25157162     0.25306593    -2489.9177      789.54061      789.54061      789.54061      4.9217938e+08  1.3563919     -51515980      -51515980       1112.4526     -51514868      -2489.3678     -2482.8188     -2497.5665      13.480196     -11.808703     -7.1207102      12344.815    
    131000   372.36376      0.0655         0.25007976     0.24947276     0.25084915    -2468.6296      789.91128      789.91128      789.91128      4.9287291e+08  1.3544833     -51491450      -51491450       1108.8357     -51490342      -2468.0953     -2462.1047     -2475.6887      13.784232     -9.9984665     -6.6312154      12289.709    
    132000   370.8751       0.066          0.24799054     0.24724183     0.24854435    -2446.8352      790.28196      790.28196      790.28196      4.935671e+08   1.3525783     -51467102      -51467102       1104.4027     -51465998      -2447.4763     -2440.0871     -2452.9421      14.137951     -8.3715285     -5.6376909      12226.214    
    133000   368.84372      0.0665         0.24603297     0.24513213     0.24642593    -2426.4858      790.65263      790.65263      790.65263      4.9426194e+08  1.3506768     -51442920      -51442920       1098.3536     -51441822      -2428.1567     -2419.266      -2432.0348      14.367311     -8.3933738     -4.9193781      12251.728    
    134000   366.71874      0.067          0.24410548     0.24316265     0.24451914    -2407.393       791.02331      791.02331      791.02331      4.9495743e+08  1.3487789     -51418900      -51418900       1092.0258     -51417808      -2409.1338     -2399.8288     -2413.2163      14.300138     -9.4740501     -4.81432        12270.656    
    135000   365.28841      0.0675         0.24206622     0.2412521      0.24266607    -2388.303       791.39399      791.39399      791.39399      4.9565357e+08  1.3468845     -51395058      -51395058       1087.7665     -51393970      -2389.0079     -2380.9731     -2394.9279      13.716718     -10.384484     -4.8233662      12045.657    
    136000   364.67402      0.068          0.23992933     0.2392721      0.24074686    -2368.4458      791.76466      791.76466      791.76466      4.9635037e+08  1.3449937     -51371405      -51371405       1085.937      -51370319      -2367.9184     -2361.432      -2375.9868      12.4985       -10.110528     -4.6561277      12387.382    
    137000   364.1658       0.0685         0.23794916     0.23732478     0.23879535    -2349.1054      792.13534      792.13534      792.13534      4.9704781e+08  1.3431064     -51347930      -51347930       1084.4236     -51346845      -2348.3757     -2342.2135     -2356.7269      11.673058     -8.4163181     -4.4366518      12362.235    
    138000   363.01503      0.069          0.23626444     0.23549582     0.23690994    -2331.3437      792.50602      792.50602      792.50602      4.9774591e+08  1.3412227     -51324608      -51324608       1080.9968     -51323527      -2331.7487     -2324.163      -2338.1194      12.244537     -6.9134303     -3.9372109      12485.605    
    139000   361.41482      0.0695         0.23463218     0.23376936     0.23507546    -2314.2594      792.87669      792.87669      792.87669      4.9844467e+08  1.3393425     -51301425      -51301425       1076.2316     -51300349      -2315.6396     -2307.1242     -2320.0144      13.185261     -6.6118401     -3.2872111      12493.783    
    140000   359.88115      0.07           0.23281658     0.23203511     0.23323862    -2296.5386      793.24737      793.24737      793.24737      4.9914408e+08  1.3374658     -51278388      -51278388       1071.6646     -51277317      -2297.721      -2290.0085     -2301.8862      12.986992     -6.7727864     -2.4666843      12064.714    
    141000   358.40873      0.0705         0.23085847     0.2302217      0.23141101    -2278.1188      793.61805      793.61805      793.61805      4.9984414e+08  1.3355926     -51255510      -51255510       1067.28       -51254443      -2278.396      -2272.1115     -2283.8491      11.838029     -6.7924577     -1.8371208      12242.278    
    142000   356.8635       0.071          0.22898881     0.22835014     0.2296472     -2260.0087      793.98872      793.98872      793.98872      5.0054485e+08  1.3337229     -51232794      -51232794       1062.6786     -51231731      -2259.9438     -2253.6406     -2266.4416      10.786563     -6.5444129     -1.905111       12265.846    
    143000   355.37185      0.0715         0.22728379     0.22658428     0.22795605    -2243.027       794.3594       794.3594       794.3594       5.0124622e+08  1.3318567     -51210233      -51210233       1058.2367     -51209175      -2243.1166     -2236.213      -2249.7513      10.87388      -6.3426859     -2.5364881      12292.338    
    144000   354.11312      0.072          0.22565217     0.22497539     0.22625398    -2226.7671      794.73007      794.73007      794.73007      5.0194825e+08  1.3299939     -51187815      -51187815       1054.4884     -51186760      -2227.0138     -2220.3345     -2232.9532      12.106956     -6.0198881     -2.8998653      12241.498    
    145000   353.07734      0.0725         0.22403458     0.22339872     0.22451968    -2210.5534      795.10075      795.10075      795.10075      5.0265093e+08  1.3281347     -51165537      -51165537       1051.404      -51164486      -2211.0494     -2204.7739     -2215.837       13.242865     -5.4692264     -2.2567045      12276.585    
    146000   351.93795      0.073          0.22245771     0.22177902     0.22278877    -2194.3433      795.47143      795.47143      795.47143      5.0335427e+08  1.3262789     -51143395      -51143395       1048.0111     -51142347      -2195.4869     -2188.7888     -2198.7542      12.568025     -5.2471346     -1.1349603      12303.928    
    147000   350.6136       0.0735         0.22094187     0.22018708     0.22116695    -2178.7841      795.8421       795.8421       795.8421       5.0405826e+08  1.3244265     -51121382      -51121382       1044.0674     -51120338      -2180.5267     -2173.0775     -2182.7481      10.743188     -5.1125946     -0.46143872     12220.4      
    148000   349.31029      0.074          0.2194871      0.21863771     0.21965266    -2163.9197      796.21278      796.21278      796.21278      5.0476291e+08  1.3225776     -51099499      -51099499       1040.1864     -51098459      -2166.1693     -2157.7865     -2167.8032      9.3641456     -4.1861359     -0.39244976     12190.774    
    149000   348.35595      0.0745         0.21807828     0.21711158     0.21810026    -2149.1574      796.58346      796.58346      796.58346      5.0546821e+08  1.3207322     -51077755      -51077755       1037.3445     -51076718      -2152.2653     -2142.7247     -2152.4822      9.3051903     -3.2625526     -0.27825659     12281.624    
    150000   347.6058       0.075          0.21668428     0.21558229     0.21655343    -2134.4518      796.95413      796.95413      796.95413      5.0617417e+08  1.3188901     -51056150      -51056150       1035.1107     -51055115      -2138.5076     -2127.6317     -2137.2162      10.115195     -3.3651054     -0.69049357     12206.952    
    151000   346.53871      0.0755         0.21526671     0.2141448      0.21510258    -2120.2865      797.32481      797.32481      797.32481      5.0688079e+08  1.3170515     -51034663      -51034663       1031.9331     -51033631      -2124.5173     -2113.4449     -2122.8974      10.552426     -3.956758      -1.2296056      12383.966    
    152000   345.117        0.076          0.21384927     0.2128756      0.21373744    -2106.9572      797.69548      797.69548      797.69548      5.0758806e+08  1.3152164     -51013276      -51013276       1027.6995     -51012248      -2110.5282     -2100.9189     -2109.4245      10.674837     -4.5158778     -1.1865125      12482.896    
    153000   343.77326      0.0765         0.21246672     0.21167912     0.21247669    -2094.3253      798.06616      798.06616      798.06616      5.08296e+08    1.3133846     -50991993      -50991993       1023.6981     -50990969      -2096.8835     -2089.1105     -2096.9819      10.701809     -4.5458187     -0.66494734     12523.257    
    154000   342.45336      0.077          0.21114637     0.21049468     0.2112326     -2081.9924      798.43684      798.43684      798.43684      5.0900459e+08  1.3115562     -50970826      -50970826       1019.7676     -50969806      -2083.8526     -2077.421      -2084.7036      10.318598     -3.7524648     -0.34227412     12527.851    
    155000   341.05708      0.0775         0.20989852     0.2092362      0.20988638    -2069.3185      798.80751      798.80751      798.80751      5.0971384e+08  1.3097312     -50949773      -50949773       1015.6097     -50948757      -2071.5373     -2065.0007     -2071.4175      9.5552713     -2.9448633     -0.63835434     12331.888    
    156000   340.0036       0.078          0.2086216      0.20790986     0.20851169    -2056.2321      799.17819      799.17819      799.17819      5.1042375e+08  1.3079096     -50928823      -50928823       1012.4726     -50927811      -2058.9351     -2051.9108     -2057.8504      9.1445743     -2.7083555     -0.97517703     12382.613    
    157000   339.32062      0.0785         0.20735891     0.20663179     0.20722527    -2043.6417      799.54887      799.54887      799.54887      5.1113431e+08  1.3060914     -50907971      -50907971       1010.4389     -50906961      -2046.4734     -2039.2972     -2045.1544      8.9557813     -2.6609881     -1.1228792      12201.799    
    158000   338.46884      0.079          0.20619784     0.20548995     0.20607739    -2032.2894      799.91954      799.91954      799.91954      5.1184554e+08  1.3042765     -50887212      -50887212       1007.9024     -50886204      -2035.0144     -2028.0282     -2033.8257      8.637412      -2.635955      -1.4282609      12238.259    
    159000   337.39212      0.0795         0.20509355     0.20438222     0.2049675     -2021.3612      800.29022      800.29022      800.29022      5.1255742e+08  1.302465      -50866549      -50866549       1004.6961     -50865544      -2024.1159     -2017.0956     -2022.872       8.2270396     -2.7318135     -1.9084784      12025.502    
    160000   336.5062       0.08           0.2039809      0.20334164     0.20395627    -2010.9509      800.6609       800.6609       800.6609       5.1326997e+08  1.3006569     -50845981      -50845981       1002.058      -50844979      -2013.1349     -2006.8259     -2012.8918      7.8823943     -2.9818616     -2.2683676      12061.354    
    161000   335.54833      0.0805         0.20290357     0.20243203     0.20303871    -2001.3959      801.03157      801.03157      801.03157      5.1398317e+08  1.2988521     -50825498      -50825498       999.20562     -50824499      -2002.5025     -1997.8488     -2003.8363      7.9848935     -3.4563334     -2.4052058      12259.714    
    162000   334.52656      0.081          0.20186842     0.20150747     0.20201964    -1991.5965      801.40225      801.40225      801.40225      5.1469704e+08  1.2970506     -50805087      -50805087       996.16296     -50804090      -1992.2864     -1988.7241     -1993.7788      8.4230011     -3.5925562     -2.1904794      12413.979    
    163000   333.8825       0.0815         0.20086763     0.20047608     0.20083875    -1981.0263      801.77292      801.77292      801.77292      5.1541156e+08  1.2952525     -50784749      -50784749       994.24506     -50783755      -1982.4094     -1978.5451     -1982.1243      8.4707978     -3.4521876     -1.8763761      12319        
    164000   333.44407      0.082          0.19990187     0.19941177     0.19969494    -1970.585       802.1436       802.1436       802.1436       5.1612675e+08  1.2934577     -50764495      -50764495       992.93951     -50763502      -1972.8781     -1968.0412     -1970.8358      8.0235294     -3.7152252     -1.8783216      12445.527    
    165000   332.65417      0.0825         0.19900916     0.19837177     0.19873601    -1961.0723      802.51428      802.51428      802.51428      5.168426e+08   1.2916662     -50744324      -50744324       990.58732     -50743334      -1964.0677     -1957.7772     -1961.3719      7.4843463     -4.0699669     -2.3104539      12252.856    
    166000   331.42367      0.083          0.19805575     0.1973724      0.19786999    -1951.7991      802.88495      802.88495      802.88495      5.1755911e+08  1.289878      -50724238      -50724238       986.92309     -50723251      -1954.6583     -1947.9141     -1952.825       7.2659905     -3.5229822     -2.9228433      12311.462    
    167000   330.32593      0.0835         0.19698468     0.19649446     0.19695911    -1942.3908      803.25563      803.25563      803.25563      5.1827628e+08  1.2880931     -50704232      -50704232       983.65421     -50703249      -1944.0876     -1939.2496     -1943.8353      7.2182067     -2.2107896     -3.475492       12287.325    
    168000   329.71353      0.084          0.19601606     0.19575413     0.19601681    -1933.6689      803.62631      803.62631      803.62631      5.1899412e+08  1.2863115     -50684299      -50684299       981.83058     -50683317      -1934.5281     -1931.9431     -1934.5355      7.045309      -1.4135704     -3.6280904      12317.958    
    169000   329.39839      0.0845         0.19523675     0.19498269     0.19517124    -1925.7856      803.99698      803.99698      803.99698      5.1971261e+08  1.2845332     -50664420      -50664420       980.89217     -50663439      -1926.8369     -1924.3295     -1926.1904      6.8307865     -1.9820884     -3.3312181      12111.891    
    170000   328.95468      0.085          0.19456462     0.19418442     0.19444087    -1918.5457      804.36766      804.36766      804.36766      5.2043177e+08  1.2827582     -50644591      -50644591       979.57087     -50643612      -1920.2035     -1916.4513     -1918.9822      6.5626794     -3.2889554     -2.316694       12168.934    
    171000   328.27708      0.0855         0.19388933     0.19343945     0.19372636    -1911.5228      804.73834      804.73834      804.73834      5.2115159e+08  1.2809864     -50624823      -50624823       977.55308     -50623845      -1913.5389     -1909.0989     -1911.9305      6.3020776     -4.0625458     -1.6142454      12150.25     
    172000   327.54191      0.086          0.19309886     0.19268808     0.19295001    -1903.8965      805.10901      805.10901      805.10901      5.2187208e+08  1.2792179     -50605118      -50605118       975.36387     -50604143      -1905.7375     -1901.6835     -1904.2685      6.1890623     -3.5423726     -2.6011879      12138.759    
    173000   326.94233      0.0865         0.19219277     0.19184487     0.19215496    -1895.5263      805.47969      805.47969      805.47969      5.2259323e+08  1.2774527     -50585476      -50585476       973.57844     -50584502      -1896.7952     -1893.3617     -1896.422       6.0972059     -2.2827946     -4.4145801      12323.766    
    174000   326.653        0.087          0.19131087     0.19103357     0.19143037    -1887.5724      805.85036      805.85036      805.85036      5.2331504e+08  1.2756907     -50565891      -50565891       972.71685     -50564918      -1888.0915     -1885.3548     -1889.2708      6.2891664     -1.9202365     -5.0987767      12306.886    
    175000   326.39817      0.0875         0.19056151     0.19036475     0.19079959    -1880.8318      806.22104      806.22104      806.22104      5.2403752e+08  1.2739319     -50546359      -50546359       971.95802     -50545387      -1880.6959     -1878.754      -1883.0455      6.8127085     -2.8245725     -4.591218       12274.733    
    176000   326.00792      0.088          0.18989915     0.18971788     0.19012958    -1874.3206      806.59172      806.59172      806.59172      5.2476066e+08  1.2721764     -50526879      -50526879       970.79592     -50525908      -1874.1589     -1872.3699     -1876.4331      7.1892856     -3.6146132     -3.7365377      12214.163    
    177000   325.66528      0.0885         0.18924493     0.18905219     0.18937804    -1867.5061      806.96239      806.96239      806.96239      5.2548447e+08  1.2704241     -50507451      -50507451       969.77559     -50506481      -1867.7022     -1865.8001     -1869.0159      6.8678187     -3.5821739     -3.4141321      12284.657    
    178000   325.14498      0.089          0.18860515     0.18842856     0.18864614    -1860.942       807.33307      807.33307      807.33307      5.2620895e+08  1.268675      -50488076      -50488076       968.22624     -50487108      -1861.3881     -1859.6453     -1861.7927      5.9160902     -3.2843886     -3.2928196      12360.383    
    179000   324.45072      0.0895         0.18799869     0.1878068      0.18792258    -1854.5211      807.70375      807.70375      807.70375      5.2693408e+08  1.2669291     -50468747      -50468747       966.15885     -50467781      -1855.4028     -1853.509      -1854.6516      4.8221135     -2.9930017     -2.9678598      12341.798    
    180000   323.99993      0.09           0.18737761     0.1871364      0.18726115    -1848.0966      808.07442      808.07442      808.07442      5.2765989e+08  1.2651864     -50449462      -50449462       964.81646     -50448497      -1849.2733     -1846.8927     -1848.1238      4.5211934     -2.6615733     -2.8300868      11927.515    
    181000   323.86037      0.0905         0.1867208      0.18645199     0.18668626    -1841.7931      808.4451       808.4451       808.4451       5.2838636e+08  1.2634469     -50430219      -50430219       964.40088     -50429255      -1842.791      -1840.1381     -1842.4502      5.559191      -2.4308884     -2.9251734      12163.587    
    182000   323.83832      0.091          0.18602432     0.18578776     0.18609121    -1835.3591      808.81578      808.81578      808.81578      5.291135e+08   1.2617106     -50411025      -50411025       964.33523     -50410061      -1835.9173     -1833.5826     -1836.5775      6.7853633     -2.5731534     -3.5057605      12245.757    
    183000   323.61333      0.0915         0.18536239     0.18518888     0.18546017    -1829.1354      809.18645      809.18645      809.18645      5.298413e+08   1.2599775     -50391884      -50391884       963.66522     -50390921      -1829.3845     -1827.6721     -1830.3496      7.2228708     -3.278912      -4.1830165      12270.617    
    184000   323.09963      0.092          0.18474769     0.18460467     0.18484649    -1823.1725      809.55713      809.55713      809.55713      5.3056977e+08  1.2582476     -50372795      -50372795       962.13551     -50371833      -1823.3179     -1821.9065     -1824.293       6.6982096     -3.694479      -4.2503001      12147.273    
    185000   322.64745      0.0925         0.18413115     0.18400973     0.18423241    -1817.1668      809.9278       809.9278       809.9278       5.3129891e+08  1.2565208     -50353749      -50353749       960.789       -50352789      -1817.2331     -1816.0349     -1818.2325      5.5274546     -3.764572      -4.0937109      12381.101    
    186000   322.56153      0.093          0.18348264     0.18340776     0.18361059    -1811.0074      810.29848      810.29848      810.29848      5.3202872e+08  1.2547972     -50334742      -50334742       960.53316     -50333781      -1810.8329     -1810.0938     -1812.0956      4.6567432     -3.6848302     -4.1170828      12298.278    
    187000   322.68624      0.0935         0.18285671     0.18280923     0.18300744    -1804.9951      810.66916      810.66916      810.66916      5.3275919e+08  1.2530767     -50315774      -50315774       960.90454     -50314813      -1804.6555     -1804.1868     -1806.143       4.8665998     -3.250628      -3.9533494      12226.831    
    188000   322.71086      0.094          0.18236582     0.18224875     0.18244588    -1799.689       811.03983      811.03983      811.03983      5.3349033e+08  1.2513594     -50296847      -50296847       960.97782     -50295886      -1799.8107     -1798.6553     -1800.6008      5.7052193     -2.6401602     -3.3805177      12253.811    
    189000   322.47978      0.0945         0.18199862     0.18176763     0.18193186    -1795.2072      811.41051      811.41051      811.41051      5.3422214e+08  1.2496452     -50277957      -50277957       960.2897      -50276996      -1796.1867     -1793.907      -1795.5278      5.9009755     -2.5164496     -2.8616381      12260.984    
    190000   322.27581      0.095          0.18153292     0.18134472     0.18143782    -1790.6586      811.78119      811.78119      811.78119      5.3495462e+08  1.2479341     -50259103      -50259103       959.68232     -50258144      -1791.5906     -1789.7332     -1790.652       4.9793858     -2.6894101     -3.0887439      12344.412    
    191000   322.32904      0.0955         0.18092622     0.18084303     0.18094805    -1785.4011      812.15186      812.15186      812.15186      5.3568777e+08  1.2462262     -50240286      -50240286       959.84085     -50239326      -1785.6029     -1784.7819     -1785.8184      4.1036318     -2.7009978     -3.7822702      12387.596    
    192000   322.20048      0.096          0.18026496     0.18021004     0.18039234    -1779.3152      812.52254      812.52254      812.52254      5.3642159e+08  1.2445214     -50221511      -50221511       959.45802     -50220552      -1779.0769     -1778.5348     -1780.334       4.1466329     -2.5354656     -4.4069422      12278.598    
    193000   321.75107      0.0965         0.1796303      0.17955169     0.17975374    -1772.9607      812.89321      812.89321      812.89321      5.3715608e+08  1.2428196     -50202778      -50202778       958.11975     -50201820      -1772.8132     -1772.0374     -1774.0315      4.7060225     -2.6268239     -4.5932901      12277.205    
    194000   321.27821      0.097          0.17910796     0.17899731     0.17916709    -1767.4887      813.26389      813.26389      813.26389      5.3789124e+08  1.241121      -50184089      -50184089       956.71166     -50183132      -1767.6582     -1766.5661     -1768.2417      5.6062642     -3.0508856     -3.9655407      12293.897    
    195000   321.14004      0.0975         0.17866229     0.17851234     0.17871856    -1762.9515      813.63457      813.63457      813.63457      5.3862707e+08  1.2394255     -50165433      -50165433       956.3002      -50164477      -1763.2597     -1761.7798     -1763.8151      6.2674746     -3.5149123     -3.0428955      12320.409    
    196000   321.30894      0.098          0.17819611     0.17804803     0.17831964    -1758.5781      814.00524      814.00524      814.00524      5.3936357e+08  1.2377331     -50146806      -50146806       956.80317     -50145849      -1758.6589     -1757.1975     -1759.8781      5.7340884     -3.8596245     -2.9674998      12122.606    
    197000   321.50723      0.0985         0.17763274     0.17755793     0.17787264    -1753.642       814.37592      814.37592      814.37592      5.4010074e+08  1.2360437     -50128215      -50128215       957.39363     -50127258      -1753.0989     -1752.3605     -1755.4665      4.8888217     -3.8584043     -3.6224942      12424.809    
    198000   321.40934      0.099          0.17702757     0.17702689     0.17729782    -1748.0131      814.7466       814.7466       814.7466       5.4083858e+08  1.2343574     -50109666      -50109666       957.10212     -50108709      -1747.1263     -1747.1196     -1749.7934      4.6788225     -3.4186191     -4.0392414      12445.295    
    199000   321.14685      0.0995         0.176509       0.17649903     0.17667096    -1742.5084      815.11727      815.11727      815.11727      5.415771e+08   1.2326742     -50091157      -50091157       956.32047     -50090200      -1742.0084     -1741.91       -1743.6068      4.9802082     -3.468765      -3.9410737      12530.688    
    200000   321.03425      0.1            0.17604923     0.17603426     0.17611668    -1737.6434      815.48795      815.48795      815.48795      5.4231628e+08  1.2309941     -50072683      -50072683       955.98518     -50071727      -1737.4708     -1737.3231     -1738.1364      4.9189762     -4.0321829     -3.5609183      12067.764    
    201000   321.0649       0.1005         0.17562491     0.17559556     0.17567962    -1733.3665      815.85863      815.85863      815.85863      5.4305614e+08  1.229317      -50054241      -50054241       956.07645     -50053285      -1733.2831     -1732.9934     -1733.8231      4.5057336     -4.0975039     -3.3415331      12267.302    
    202000   321.23164      0.101          0.17517201     0.17511297     0.17527965    -1728.9732      816.2293       816.2293       816.2293       5.4379667e+08  1.2276429     -50035828      -50035828       956.57298     -50034872      -1728.8134     -1728.2306     -1729.8756      4.5409782     -3.4612002     -3.7147003      12273.88     
    203000   321.43941      0.1015         0.17468594     0.17463176     0.17484216    -1724.3519      816.59998      816.59998      816.59998      5.4453787e+08  1.2259719     -50017446      -50017446       957.19166     -50016489      -1724.0162     -1723.4815     -1725.5579      4.9821872     -3.1104466     -3.880957       12241.657    
    204000   321.3642       0.102          0.1741876      0.17412127     0.17434523    -1719.3983      816.97065      816.97065      816.97065      5.4527975e+08  1.2243039     -49999099      -49999099       956.96772     -49998142      -1719.0979     -1718.4433     -1720.6536      5.2060929     -3.3020524     -3.3609197      12193.102    
    205000   321.10016      0.1025         0.17369939     0.17356911     0.17379476    -1714.1648      817.34133      817.34133      817.34133      5.460223e+08   1.2226389     -49980789      -49980789       956.18145     -49979833      -1714.2797     -1712.9939     -1715.2209      4.8467522     -3.4195705     -2.8818255      12307.393    
    206000   320.96015      0.103          0.17324661     0.17311511     0.17321996    -1709.2908      817.71201      817.71201      817.71201      5.4676553e+08  1.220977      -49962520      -49962520       955.76453     -49961564      -1709.8111     -1708.5133     -1709.5481      4.230912      -3.3113568     -2.8779         12343.993    
    207000   320.98961      0.1035         0.17282624     0.17277045     0.17275207    -1705.2348      818.08268      818.08268      818.08268      5.4750943e+08  1.219318      -49944283      -49944283       955.85225     -49943327      -1705.6624     -1705.1117     -1704.9304      3.6659597     -3.3463528     -3.270105       12340.531    
    208000   320.74498      0.104          0.17234008     0.17242165     0.17237781    -1701.2568      818.45336      818.45336      818.45336      5.48254e+08    1.2176621     -49926068      -49926068       955.12379     -49925113      -1700.8644     -1701.6693     -1701.2367      4.003031      -3.2786968     -3.7814093      12337.117    
    209000   320.4322       0.1045         0.1717871      0.17192515     0.17198002    -1696.4957      818.82404      818.82404      818.82404      5.4899925e+08  1.2160092     -49907878      -49907878       954.19239     -49906923      -1695.4069     -1696.7693     -1697.3109      5.077242      -3.4081079     -3.8244362      12181.169    
    210000   320.48718      0.105          0.17125803     0.17133171     0.17151089    -1691.2596      819.19471      819.19471      819.19471      5.4974517e+08  1.2143592     -49889723      -49889723       954.35608     -49888769      -1690.1854     -1690.9125     -1692.6809      5.9303956     -3.7045964     -3.2904438      12442.529    
    211000   320.65127      0.1055         0.17083635     0.17071939     0.17103292    -1686.2856      819.56539      819.56539      819.56539      5.5049177e+08  1.2127123     -49871611      -49871611       954.84474     -49870656      -1686.0237     -1684.8694     -1687.9637      5.7374075     -3.8135333     -2.8640259      12345.952    
    212000   320.63012      0.106          0.17050988     0.17019806     0.17060561    -1682.0908      819.93607      819.93607      819.93607      5.5123904e+08  1.2110683     -49853533      -49853533       954.78175     -49852578      -1682.8017     -1679.7243     -1683.7464      5.1601921     -3.5994383     -3.0243212      12371.684    
    213000   320.56669      0.1065         0.17014824     0.16980808     0.1701836     -1678.2299      820.30674      820.30674      820.30674      5.5198699e+08  1.2094273     -49835483      -49835483       954.59287     -49834528      -1679.2326     -1675.8755     -1679.5816      4.783621      -3.2573124     -3.1368153      12308.67     
    214000   320.72524      0.107          0.16971733     0.16951565     0.16973621    -1674.3785      820.67742      820.67742      820.67742      5.5273562e+08  1.2077892     -49817459      -49817459       955.06501     -49816504      -1674.9799     -1672.9894     -1675.1662      4.4155463     -3.0983276     -2.7669937      12370.427    
    215000   320.78968      0.1075         0.16925182     0.16913058     0.16925003    -1669.9809      821.04809      821.04809      821.04809      5.5348492e+08  1.2061541     -49799459      -49799459       955.2569      -49798504      -1670.3856     -1669.1891     -1670.368       4.1347864     -3.3304131     -2.3213068      12201.768    
    216000   320.60107      0.108          0.16872433     0.16863773     0.16875427    -1664.9933      821.41877      821.41877      821.41877      5.542349e+08   1.204522      -49781488      -49781488       954.69524     -49780533      -1665.1797     -1664.325      -1665.4751      4.3298299     -3.7271774     -2.3266192      12247.932    
    217000   320.51766      0.1085         0.16815364     0.16820867     0.16828446    -1660.1588      821.78945      821.78945      821.78945      5.5498556e+08  1.2028928     -49763555      -49763555       954.44686     -49762601      -1659.5474     -1660.0905     -1660.8385      4.7861516     -3.6453063     -3.0789779      12193.491    
    218000   320.58138      0.109          0.16770213     0.16787541     0.1678823     -1656.2541      822.16012      822.16012      822.16012      5.5573689e+08  1.2012665     -49745658      -49745658       954.63661     -49744703      -1655.0914     -1656.8015     -1656.8695      4.8918166     -2.9743725     -4.0043477      12206.279    
[...]
   3017000   318.32397      1.5085         0.016117269    0.016113147    0.016077923   -158.92208      1859.6832      1859.6832      1859.6832      6.4315686e+09  0.10379865    -16705799      -16705799       947.91444     -16704851      -159.06508     -159.0244      -158.67677      0.49904239    -0.040429537    0.14987689     11819.484    
   3018000   318.2714       1.509          0.016111285    0.016102356    0.016072772   -158.84995      1860.0539      1860.0539      1860.0539      6.4354152e+09  0.1037366     -16697002      -16697002       947.75789     -16696054      -159.00602     -158.9179      -158.62593      0.49994454    -0.030886205    0.14759668     11978.373    
   3019000   318.27577      1.5095         0.016105219    0.016089171    0.016062844   -158.75396      1860.4246      1860.4246      1860.4246      6.4392634e+09  0.10367461    -16688205      -16688205       947.77089     -16687257      -158.94615     -158.78777     -158.52795      0.4894392     -0.015032619    0.14424394     12023.633    
   3020000   318.34713      1.51           0.016096102    0.01607563     0.01604842    -158.63197      1860.7952      1860.7952      1860.7952      6.4431131e+09  0.10361267    -16679411      -16679411       947.98338     -16678463      -158.85617     -158.65413     -158.38559      0.47564896     0.0062502173   0.13841586     11802.639    
   3021000   318.4472       1.5105         0.016085056    0.01606562     0.016035162   -158.51908      1861.1659      1861.1659      1861.1659      6.4469643e+09  0.10355077    -16670621      -16670621       948.28137     -16669673      -158.74716     -158.55534     -158.25474      0.46484812     0.034756178    0.13074145     11990.993    
   3022000   318.52944      1.511          0.016074797    0.016058368    0.016026166   -158.43188      1861.5366      1861.5366      1861.5366      6.4508171e+09  0.10348893    -16661833      -16661833       948.52627     -16660885      -158.64591     -158.48377     -158.16596      0.45541349     0.0515745      0.12142263     11869.696    
   3023000   318.5931       1.5115         0.016066648    0.016051218    0.016018258   -158.35554      1861.9073      1861.9073      1861.9073      6.4546714e+09  0.10342713    -16653046      -16653046       948.71584     -16652098      -158.56549     -158.4132      -158.08792      0.45059719     0.041219213    0.11974456     11970.886    
   3024000   318.64298      1.512          0.016058554    0.016043317    0.016006558   -158.26443      1862.2779      1862.2779      1862.2779      6.4585272e+09  0.10336538    -16644260      -16644260       948.86438     -16643312      -158.48561     -158.33523     -157.97245      0.45217453     0.017090889    0.13050804     11846.216    
   3025000   318.66732      1.5125         0.016046984    0.016034299    0.015991214   -158.14622      1862.6486      1862.6486      1862.6486      6.4623846e+09  0.10330368    -16635477      -16635477       948.93688     -16634528      -158.37142     -158.24623     -157.82101      0.44879753    -0.00061129051  0.14425816     11864.067    
   3026000   318.64755      1.513          0.016031499    0.016024225    0.015976795   -158.0147       1863.0193      1863.0193      1863.0193      6.4662435e+09  0.10324203    -16626697      -16626697       948.87799     -16625748      -158.2186      -158.1468      -157.6787       0.43262006    -0.0092958413   0.15236335     11873.867    
   3027000   318.58972      1.5135         0.016016751    0.016013604    0.015966634   -157.89782      1863.39        1863.39        1863.39        6.4701039e+09  0.10318043    -16617921      -16617921       948.70578     -16616972      -158.07304     -158.04199     -157.57843      0.41423938    -0.021921317    0.16318617     11845.569    
   3028000   318.51625      1.514          0.01600512     0.016001935    0.015959685   -157.79831      1863.7606      1863.7606      1863.7606      6.4739659e+09  0.10311888    -16609147      -16609147       948.487       -16608198      -157.95825     -157.92682     -157.50984      0.4259475     -0.041190048    0.17755838     11835.678    
   3029000   318.46221      1.5145         0.0159956      0.015988899    0.015952936   -157.7019       1864.1313      1864.1313      1864.1313      6.4778294e+09  0.10305738    -16600375      -16600375       948.32607     -16599426      -157.86429     -157.79817     -157.44323      0.47352207    -0.049457969    0.17546657     11972.899    
   3030000   318.44922      1.515          0.01598543     0.015975284    0.015943205   -157.59164      1864.502       1864.502       1864.502       6.4816945e+09  0.10299593    -16591605      -16591605       948.28739     -16590656      -157.76393     -157.66379     -157.3472       0.51541907    -0.035812931    0.15253229     11983.454    
   3031000   318.47741      1.5155         0.015973619    0.015961688    0.01593072    -157.46699      1864.8727      1864.8727      1864.8727      6.4855611e+09  0.10293452    -16582838      -16582838       948.37133     -16581890      -157.64736     -157.52962     -157.22398      0.52884493    -0.0089967121   0.12487745     12032.386    
   3032000   318.51074      1.516          0.015962648    0.01594834     0.015919278   -157.34934      1865.2433      1865.2433      1865.2433      6.4894292e+09  0.10287317    -16574075      -16574075       948.47059     -16573126      -157.53909     -157.39787     -157.11106      0.51812493     0.01530148     0.12010402     11807.985    
   3033000   318.51829      1.5165         0.015953445    0.015935433    0.01590932    -157.24385      1865.614       1865.614       1865.614       6.4932989e+09  0.10281186    -16565315      -16565315       948.49308     -16564366      -157.44826     -157.2705      -157.01278      0.49510473     0.02030688     0.14082918     11875.95     
   3034000   318.50957      1.517          0.015945277    0.015924277    0.015900965   -157.15279      1865.9847      1865.9847      1865.9847      6.4971701e+09  0.1027506     -16556556      -16556556       948.46713     -16555608      -157.36765     -157.1604      -156.93033      0.48385627     0.0027410291   0.16427006     11840.043    
   3035000   318.50686      1.5175         0.01593845     0.015914975    0.015892474   -157.0718       1866.3554      1866.3554      1866.3554      6.5010428e+09  0.10268939    -16547799      -16547799       948.45905     -16546851      -157.30027     -157.06859     -156.84653      0.48507168    -0.019213626    0.17355643     11831.876    
   3036000   318.51669      1.518          0.015931379    0.015907041    0.015880432   -156.98282      1866.7261      1866.7261      1866.7261      6.5049171e+09  0.10262823    -16539043      -16539043       948.48831     -16538095      -157.23049     -156.99029     -156.72768      0.48937994    -0.02875203     0.1651283      11903.88     
   3037000   318.52259      1.5185         0.015920562    0.015899467    0.015864476   -156.86983      1867.0967      1867.0967      1867.0967      6.5087929e+09  0.10256712    -16530289      -16530289       948.50588     -16529341      -157.12373     -156.91554     -156.5702       0.49061038    -0.02614699     0.15221556     11965.16     
   3038000   318.51575      1.519          0.015907124    0.015889918    0.015847576   -156.73861      1867.4674      1867.4674      1867.4674      6.5126703e+09  0.10250605    -16521539      -16521539       948.48551     -16520590      -156.99111     -156.8213      -156.40342      0.49085418    -0.022110717    0.1486463      11942.76     
   3039000   318.49676      1.5195         0.015894261    0.015878979    0.015832829   -156.61179      1867.8381      1867.8381      1867.8381      6.5165492e+09  0.10244504    -16512792      -16512792       948.42897     -16511844      -156.86416     -156.71334     -156.25787      0.49692224    -0.015055188    0.15472433     12007.913    
   3040000   318.48194      1.52           0.015881876    0.015868177    0.015820194   -156.49395      1868.2088      1868.2088      1868.2088      6.5204296e+09  0.10238407    -16504049      -16504049       948.38484     -16503101      -156.74193     -156.60673     -156.13317      0.50701909    -0.0029934065   0.16613911     11778.252    
   3041000   318.48964      1.5205         0.015870071    0.015859054    0.015809138   -156.38873      1868.5794      1868.5794      1868.5794      6.5243116e+09  0.10232315    -16495309      -16495309       948.40777     -16494361      -156.62543     -156.51669     -156.02406      0.50388115     0.011582658    0.17642155     11896.305    
   3042000   318.52178      1.521          0.01585984     0.015849393    0.015800931   -156.29629      1868.9501      1868.9501      1868.9501      6.5281951e+09  0.10226228    -16486571      -16486571       948.50348     -16485623      -156.52445     -156.42135     -155.94306      0.48677435     0.022073842    0.18808719     11835.321    
   3043000   318.56182      1.5215         0.015850441    0.015837393    0.015795673   -156.20859      1869.3208      1869.3208      1869.3208      6.5320802e+09  0.10220146    -16477835      -16477835       948.62271     -16476886      -156.43169     -156.30292     -155.89117      0.46633897     0.02003956     0.18980556     11815.404    
   3044000   318.57796      1.522          0.015840098    0.015824188    0.015788553   -156.1077       1869.6915      1869.6915      1869.6915      6.5359668e+09  0.10214069    -16469100      -16469100       948.67077     -16468151      -156.32962     -156.17259     -155.82091      0.4545493     -0.0065290985   0.16814519     11848.161    
   3045000   318.54153      1.5225         0.015828251    0.015811542    0.015776129   -155.98625      1870.0621      1870.0621      1870.0621      6.5398549e+09  0.10207996    -16460367      -16460367       948.56227     -16459419      -156.21269     -156.04779     -155.69829      0.4439848     -0.038414519    0.13460326     11829.978    
   3046000   318.4565       1.523          0.01581498     0.015798193    0.01576       -155.84562      1870.4328      1870.4328      1870.4328      6.5437446e+09  0.10201928    -16451639      -16451639       948.30908     -16450691      -156.08172     -155.91605     -155.53911      0.43914364    -0.036062392    0.11256839     11921.372    
   3047000   318.35712      1.5235         0.015802258    0.015782795    0.015746271   -155.70795      1870.8035      1870.8035      1870.8035      6.5476358e+09  0.10195865    -16442915      -16442915       948.01315     -16441967      -155.95616     -155.76407     -155.40361      0.45525531     0.0044241576   0.1127539      11974.03     
   3048000   318.28203      1.524          0.015792368    0.015770883    0.015737594   -155.60768      1871.1742      1871.1742      1871.1742      6.5515286e+09  0.10189807    -16434195      -16434195       947.78954     -16433247      -155.85856     -155.64652     -155.31798      0.48772852     0.042500999    0.12854144     11923.07     
   3049000   318.25971      1.5245         0.015786326    0.01576613     0.015732816   -155.55645      1871.5448      1871.5448      1871.5448      6.5554229e+09  0.10183754    -16425475      -16425475       947.72308     -16424527      -155.79892     -155.59961     -155.27082      0.52138086     0.045601818    0.14084569     11849.282    
   3050000   318.33043      1.525          0.015779455    0.015762142    0.015726841   -155.50107      1871.9155      1871.9155      1871.9155      6.5593187e+09  0.10177705    -16416754      -16416754       947.93365     -16415806      -155.73111     -155.56025     -155.21186      0.54382309     0.024644356    0.14345266     11930.678    
   3051000   318.48307      1.5255         0.015767279    0.015752591    0.015715815   -155.39332      1872.2862      1872.2862      1872.2862      6.5632161e+09  0.10171661    -16408034      -16408034       948.38819     -16407086      -155.61094     -155.46598     -155.10304      0.55695878     0.0075496131   0.14691472     11937.726    
   3052000   318.64888      1.526          0.015751464    0.015737801    0.015700813   -155.24329      1872.6569      1872.6569      1872.6569      6.5671151e+09  0.10165622    -16399319      -16399319       948.88195     -16398370      -155.45486     -155.32002     -154.95497      0.55962795    -0.0063235693   0.15201303     11912.784    
   3053000   318.74499      1.5265         0.015738687    0.015722995    0.0156878     -155.10973      1873.0275      1873.0275      1873.0275      6.5710156e+09  0.10159588    -16390610      -16390610       949.16814     -16389661      -155.32876     -155.1739      -154.82655      0.55111091    -0.025816629    0.14705175     11839.481    
   3054000   318.75894      1.527          0.015729963    0.015709232    0.015677719   -155.0026       1873.3982      1873.3982      1873.3982      6.5749176e+09  0.10153559    -16381903      -16381903       949.20969     -16380954      -155.24267     -155.03807     -154.72706      0.53094021    -0.053474493    0.1320805      11830.383    
   3055000   318.75815      1.5275         0.015721264    0.015695962    0.015668005   -154.89837      1873.7689      1873.7689      1873.7689      6.5788212e+09  0.10147534    -16373199      -16373199       949.20733     -16372250      -155.15682     -154.9071      -154.63119      0.50369963    -0.070465595    0.10809154     11910.373    
   3056000   318.7758       1.528          0.01571188     0.015685545    0.015659085   -154.80388      1874.1396      1874.1396      1874.1396      6.5827263e+09  0.10141514    -16364498      -16364498       949.2599      -16363548      -155.0642      -154.80429     -154.54316      0.48225486    -0.070390055    0.094098727    12125.887    
   3057000   318.78267      1.5285         0.015701944    0.015675924    0.015649928   -154.70942      1874.5103      1874.5103      1874.5103      6.5866329e+09  0.10135499    -16355797      -16355797       949.28037     -16354848      -154.96614     -154.70934     -154.45278      0.47996256    -0.053425958    0.1019299      11791.81     
   3058000   318.74694      1.529          0.015691212    0.015665006    0.015639918   -154.60527      1874.8809      1874.8809      1874.8809      6.5905411e+09  0.10129489    -16347099      -16347099       949.17396     -16346150      -154.86022     -154.60159     -154.35399      0.49053382    -0.027489693    0.1203472      11807.535    
   3059000   318.67255      1.5295         0.015680889    0.015653881    0.015629261   -154.49965      1875.2516      1875.2516      1875.2516      6.5944509e+09  0.10123483    -16338404      -16338404       948.95243     -16337455      -154.75834     -154.49179     -154.24881      0.50603813    -0.00059016264  0.14388471     11855.614    
   3060000   318.58227      1.53           0.015671172    0.015644032    0.01561849    -154.39985      1875.6223      1875.6223      1875.6223      6.5983622e+09  0.10117482    -16329711      -16329711       948.68359     -16328762      -154.66244     -154.39459     -154.14251      0.51991893     0.016949473    0.16672616     11712.094    
   3061000   318.51084      1.5305         0.015660158    0.015634108    0.015607632   -154.29525      1875.993       1875.993       1875.993       6.602275e+09   0.10111486    -16321020      -16321020       948.47089     -16320072      -154.55374     -154.29665     -154.03535      0.51651775     0.01899529     0.18092176     11852.448    
   3062000   318.49209      1.531          0.01564804     0.015624406    0.015597354   -154.18965      1876.3636      1876.3636      1876.3636      6.6061894e+09  0.10105495    -16312332      -16312332       948.41505     -16311383      -154.43414     -154.2009      -153.93391      0.50015383     0.015798326    0.18269433     11942.501    
   3063000   318.5235       1.5315         0.015636979    0.015616196    0.01558877    -154.09802      1876.7343      1876.7343      1876.7343      6.6101054e+09  0.10099508    -16303646      -16303646       948.50859     -16302697      -154.32498     -154.11987     -153.8492       0.48373378     0.0054009417   0.18628716     11906.351    
   3064000   318.58362      1.532          0.015627088    0.015608014    0.015580094   -154.01002      1877.105       1877.105       1877.105       6.6140229e+09  0.10093526    -16294961      -16294961       948.68762     -16294013      -154.22737     -154.03912     -153.76357      0.46879972    -0.014338151    0.19750147     11925.692    
   3065000   318.65564      1.5325         0.01561655     0.015598291    0.015568732   -153.90599      1877.4757      1877.4757      1877.4757      6.6179419e+09  0.10087549    -16286279      -16286279       948.90208     -16285330      -154.12336     -153.94316     -153.65144      0.46286675    -0.023682652    0.20978658     11851.544    
   3066000   318.6966       1.533          0.015604466    0.015586911    0.015554548   -153.78214      1877.8463      1877.8463      1877.8463      6.6218625e+09  0.10081576    -16277599      -16277599       949.02404     -16276650      -154.0041      -153.83085     -153.51145      0.4723598     -0.018597565    0.21286884     11806.436    
   3067000   318.6793       1.5335         0.015591247    0.015574592    0.015541186   -153.65417      1878.217       1878.217       1878.217       6.6257846e+09  0.10075609    -16268924      -16268924       948.97255     -16267975      -153.87364     -153.70928     -153.37958      0.47924496    -0.011332816    0.19896687     11875.181    
   3068000   318.61832      1.534          0.015578349    0.015563213    0.015529802   -153.53685      1878.5877      1878.5877      1878.5877      6.6297083e+09  0.10069646    -16260252      -16260252       948.79095     -16259303      -153.74635     -153.59697     -153.26723      0.47243853    -0.019288238    0.17718828     12017.692    
   3069000   318.54659      1.5345         0.015566682    0.015552805    0.015518699   -153.4277       1878.9584      1878.9584      1878.9584      6.6336335e+09  0.10063687    -16251583      -16251583       948.57734     -16250635      -153.63121     -153.49425     -153.15765      0.46197208    -0.043597604    0.14911293     11886.665    
   3070000   318.48307      1.535          0.015556451    0.015542465    0.015507421   -153.32293      1879.329       1879.329       1879.329       6.6375603e+09  0.10057733    -16242916      -16242916       948.3882      -16241968      -153.53023     -153.3922      -153.04635      0.45757659    -0.064727268    0.12618612     11806.089    
   3071000   318.44698      1.5355         0.015546852    0.015530676    0.015496014   -153.21504      1879.6997      1879.6997      1879.6997      6.6414886e+09  0.10051785    -16234252      -16234252       948.28073     -16233304      -153.4355      -153.27585     -152.93377      0.46289838    -0.071638584    0.12318784     11905.048    
   3072000   318.4656       1.536          0.015537307    0.015517478    0.015484369   -153.10191      1880.0704      1880.0704      1880.0704      6.6454185e+09  0.1004584     -16225591      -16225591       948.33619     -16224643      -153.34129     -153.1456      -152.81884      0.47656186    -0.075461563    0.1411006      11792.876    
   3073000   318.52852      1.5365         0.015528792    0.015505829    0.015474413   -153.00283      1880.4411      1880.4411      1880.4411      6.6493499e+09  0.10039901    -16216933      -16216933       948.52353     -16215984      -153.25726     -153.03063     -152.72059      0.49536591    -0.076238476    0.16023839     11746.118    
   3074000   318.58716      1.537          0.015520815    0.0154961      0.01546767    -152.9224       1880.8118      1880.8118      1880.8118      6.6532829e+09  0.10033966    -16208276      -16208276       948.69817     -16207328      -153.17854     -152.93462     -152.65403      0.51382877    -0.056175032    0.16381889     11867.786    
   3075000   318.62187      1.5375         0.015510624    0.015485966   