LAMMPS (23 Jun 2022 - Update 1)
OMP_NUM_THREADS environment is not set. Defaulting to 1 thread. (src/comm.cpp:98)
  using 1 OpenMP thread(s) per MPI task
###

# Read restart info
read_restart ${read_res}
read_restart ./trial5/1000/equpmf71.res
Reading restart file ...
  restart file = 23 Jun 2022, LAMMPS = 23 Jun 2022
  restoring atom style atomic from restart
  orthogonal box = (1886.3248 1886.3248 1886.3248) to (2113.6752 2113.6752 2113.6752)
  2 by 1 by 2 MPI processor grid
  restoring pair style table from restart
  100 atoms
  read_restart CPU = 0.053 seconds

# Settings
pair_style table/pgn spline 10941
pair_coeff 1 1 N20e.txt DE_GNP 308 72.9   # 1.35 * r
pair_coeff 2 2 N100e.txt DE_GNP 473.9 111.78
WARNING: 20 of 10941 force values in table DE_GNP are inconsistent with -dE/dr.
WARNING:  Should only be flagged at inflection points (src/pair_table_pgn.cpp:478)
pair_coeff 1 2 mixed_potentiale.txt DE_GNP 391.2 92.95
WARNING: 1564 of 10941 force values in table DE_GNP are inconsistent with -dE/dr.
WARNING:  Should only be flagged at inflection points (src/pair_table_pgn.cpp:478)

# Neighbor list
neighbor 2.0 bin
neigh_modify delay 0 every 1 check no once yes

# Temperature
variable T equal ${Temp}
variable T equal 300

# Deformation
reset_timestep 0
variable tmp equal "lx"
variable L0 equal ${tmp}
variable L0 equal 227.350352768767
variable strain equal "(lx - v_L0)/v_L0"
variable stp equal "step"
variable tmpe equal "temp"
variable p1 equal "v_strain"
variable p2 equal "-pxx*1.01325/10000"
variable p3 equal "-pyy*1.01325/10000"
variable p4 equal "-pzz*1.01325/10000"
variable p5 equal "lx"
variable p6 equal "ly"
variable p7 equal "lz"
variable p8 equal "press"
variable p9 equal "epair"
variable p10 equal "etotal"

# Thermo
thermo_style custom step temp v_p1 v_p2 v_p3 v_p4 press lx ly lz vol density epair pe ke etotal pxx pyy pzz pxy pxz pyz spcpu
thermo ${ts_save}
thermo 1000

# Dump
# dump 1 all custom 2000 ./${N20}${N100}/tensile/trajectory/trajectory_${usic}_${trial}_*.tensile.custom id type x y z ix iy iz
# dump_modify 1 sort id
dump 2 all cfg 20000 ./trial${trial}/${N20}${N100}/tensile/trajectory/dumpten.tens_${usic}_${trial}_*.cfg mass type xs ys zs fx fy fz
dump 2 all cfg 20000 ./trial5/${N20}${N100}/tensile/trajectory/dumpten.tens_${usic}_${trial}_*.cfg mass type xs ys zs fx fy fz
dump 2 all cfg 20000 ./trial5/100${N100}/tensile/trajectory/dumpten.tens_${usic}_${trial}_*.cfg mass type xs ys zs fx fy fz
dump 2 all cfg 20000 ./trial5/1000/tensile/trajectory/dumpten.tens_${usic}_${trial}_*.cfg mass type xs ys zs fx fy fz
dump 2 all cfg 20000 ./trial5/1000/tensile/trajectory/dumpten.tens_1_${trial}_*.cfg mass type xs ys zs fx fy fz
dump 2 all cfg 20000 ./trial5/1000/tensile/trajectory/dumpten.tens_1_5_*.cfg mass type xs ys zs fx fy fz
dump_modify 2 element N20 N100

fix 1 all nvt temp ${T} ${T} 100
fix 1 all nvt temp 300 ${T} 100
fix 1 all nvt temp 300 300 100
fix 2 all deform 1 x erate ${strain_rate} y erate ${strain_rate} z erate ${strain_rate} units box
fix 2 all deform 1 x erate 5e-6 y erate ${strain_rate} z erate ${strain_rate} units box
fix 2 all deform 1 x erate 5e-6 y erate 5e-6 z erate ${strain_rate} units box
fix 2 all deform 1 x erate 5e-6 y erate 5e-6 z erate 5e-6 units box
fix             def1 all print ${ts_save} "${p1} ${p2} ${p3} ${p4}" file ./tensile/tensile${N20}${N100}_${usic}_${trial}.txt screen no
fix             def1 all print 1000 "${p1} ${p2} ${p3} ${p4}" file ./tensile/tensile${N20}${N100}_${usic}_${trial}.txt screen no
fix             def1 all print 1000 "${p1} ${p2} ${p3} ${p4}" file ./tensile/tensile100${N100}_${usic}_${trial}.txt screen no
fix             def1 all print 1000 "${p1} ${p2} ${p3} ${p4}" file ./tensile/tensile1000_${usic}_${trial}.txt screen no
fix             def1 all print 1000 "${p1} ${p2} ${p3} ${p4}" file ./tensile/tensile1000_1_${trial}.txt screen no
fix             def1 all print 1000 "${p1} ${p2} ${p3} ${p4}" file ./tensile/tensile1000_1_5.txt screen no

timestep       		${ts}
timestep       		0.1
run				${steps_tensile}
run				6000000
Generated 0 of 1 mixed pair_coeff terms from geometric mixing rule
Unused restart file global fix info:
  fix style: npt, fix ID: 5
Neighbor list info ...
  update every 1 steps, delay 0 steps, check no
  max neighbors/atom: 2000, page size: 100000
  master list distance cutoff = 113.78
  ghost atom cutoff = 113.78
  binsize = 56.89, bins = 4 4 4
  1 neighbor lists, perpetual/occasional/extra = 1 0 0
  (1) pair table/pgn, perpetual
      attributes: half, newton on
      pair build: half/bin/atomonly/newton
      stencil: half/bin/3d
      bin: standard
Per MPI rank memory allocation (min/avg/max) = 3.829 | 3.829 | 3.829 Mbytes
   Step          Temp           v_p1           v_p2           v_p3           v_p4          Press            Lx             Ly             Lz           Volume        Density         E_pair         PotEng         KinEng         TotEng          Pxx            Pyy            Pzz            Pxy            Pxz            Pyz           S/CPU     
         0   300.62507      1.6251667e-15  0.072267008   -0.039288771   -0.034235853    4.1372391      227.35035      227.35035      227.35035      11751327       3.134899      -585614.65     -585614.65      88.714517     -585525.93     -713.21991      387.75003      337.8816      -2.108255       40.124067     -25.019375      0            
      1000   299.6975       0.0005         0.084914764   -0.023633638   -0.018750916   -139.91351      227.46403      227.46403      227.46403      11768962       3.1302013     -585593.18     -585593.18      88.44079      -585504.74     -838.04356      233.24587      185.05715      2.3998971      41.73434      -22.101371      28802.302    
      2000   297.80616      0.001          0.095236598   -0.010719139   -0.0048590285  -262.05586      227.5777       227.5777       227.5777       11786616       3.1255131     -585537.58     -585537.58      87.882656     -585449.7      -939.91215      105.78967      47.954883      4.6458806      41.014629     -21.816611      38344.396    
      3000   299.37718      0.0015         0.10441487     0.00045879308  0.0074957683  -369.66668      227.69138      227.69138      227.69138      11804287       3.1208342     -585452.64     -585452.64      88.346263     -585364.3      -1030.4946     -4.5279357     -73.977482      2.823715       41.205577     -27.249401      37796.695    
      4000   304.39348      0.002          0.11455207     0.011888496    0.018704991   -477.49175      227.80505      227.80505      227.80505      11821976       3.1161646     -585341.78     -585341.78      89.826575     -585251.95     -1130.541      -117.33033     -184.60391     -2.9802237      41.783709     -30.313735      38555.593    
      5000   303.58679      0.0025         0.12491944     0.02321418     0.028753641   -581.91384      227.91873      227.91873      227.91873      11839682       3.1115043     -585207.25     -585207.25      89.588522     -585117.67     -1232.859      -229.10615     -283.77638     -9.9293336      40.134643     -29.219308      38815.251    
      6000   291.05802      0.003          0.1331077      0.034487059    0.03930756    -680.65572      228.0324       228.0324       228.0324       11857406       3.1068533     -585046.55     -585046.55      85.891278     -584960.65     -1313.6709     -340.36081     -387.93546     -13.505722      37.828975     -29.51428       38716.428    
      7000   282.10187      0.0035         0.139654       0.045859034    0.050810801   -777.44497      228.14608      228.14608      228.14608      11875148       3.1022116     -584855.91     -584855.91      83.248316     -584772.67     -1378.2778     -452.59347     -501.46362     -11.025979      38.183685     -28.308392      37921.747    
      8000   304.46001      0.004          0.14756867     0.057866763    0.063301628   -884.0762       228.25975      228.25975      228.25975      11892907       3.0975792     -584634.85     -584634.85      89.846208     -584545.01     -1456.3896     -571.10055     -624.7385      -5.3747819      39.920696     -24.451625      38683.287    
      9000   339.44262      0.0045         0.1575237      0.070313112    0.075654065   -998.40737      228.37343      228.37343      228.37343      11910684       3.0929559     -584385.63     -584385.63      100.16958     -584285.46     -1554.6381     -693.93646     -746.64757     -1.0740075      39.438225     -18.424807      38765.451    
     10000   300.84659      0.005          0.16707191     0.081756442    0.08597841    -1101.4286      228.4871       228.4871       228.4871       11928479       3.0883419     -584110.64     -584110.64      88.779888     -584021.86     -1648.8716     -806.87335     -848.54093     -0.25472076     35.674311     -8.3655036      37212.066    
     11000   272.35383      0.0055         0.17506452     0.091608647    0.094878775   -1189.4134      228.60078      228.60078      228.60078      11946292       3.083737      -583812.87     -583812.87      80.371668     -583732.5      -1727.7525     -904.10705     -936.3807      -0.055703051    32.080867     -4.3501678      38224.874    
     12000   300.64921      0.006          0.18287484     0.099673209    0.10346124    -1269.8718      228.71445      228.71445      228.71445      11964122       3.0791412     -583493.91     -583493.91      88.721639     -583405.19     -1804.8343     -983.69809     -1021.083       3.132296       31.333858     -15.91026       38393.847    
     13000   325.40364      0.0065         0.19091913     0.10781457     0.1130942     -1354.8084      228.82813      228.82813      228.82813      11981970       3.0745546     -583150.63     -583150.63      96.026678     -583054.6      -1884.2253     -1064.0471     -1116.153       7.4215551      34.979235     -32.65593       38302.08     
     14000   290.61943      0.007          0.19857147     0.1173237      0.12388766    -1446.773       228.94181      228.94181      228.94181      11999836       3.0699771     -582782.02     -582782.02      85.76185      -582696.26     -1959.748      -1157.8949     -1222.6761      6.3863111      42.438607     -37.479873      38138.966    
     15000   268.9489       0.0075         0.20604128     0.12716163     0.13411672    -1537.3621      229.05548      229.05548      229.05548      12017719       3.0654087     -582389.45     -582389.45      79.366873     -582310.08     -2033.4694     -1254.9877     -1323.6292     -2.9917425      48.26799      -20.713367      38314.515    
     16000   304.11047      0.008          0.21305247     0.13762982     0.14445029    -1628.8595      229.16916      229.16916      229.16916      12035621       3.0608494     -581974.86     -581974.86      89.74306      -581885.12     -2102.6644     -1358.3007     -1425.6135     -14.825758      47.028686      1.5840477      38839.41     
     17000   330.44116      0.0085         0.21997695     0.14853457     0.15517517    -1722.7952      229.28283      229.28283      229.28283      12053540       3.056299      -581538.88     -581538.88      97.513252     -581441.37     -2171.0037     -1465.9222     -1531.4599     -19.365622      40.521087      2.3370805      38275.329    
     18000   300.90273      0.009          0.22771683     0.15946226     0.16522383    -1817.2643      229.39651      229.39651      229.39651      12071477       3.0517577     -581078.76     -581078.76      88.796454     -580989.97     -2247.3904     -1573.7701     -1630.6324     -12.156402      37.809039     -8.0166043      36938.781    
     19000   300.77404      0.0095         0.23560647     0.17067375     0.17489238    -1911.9092      229.51018      229.51018      229.51018      12089431       3.0472254     -580593.65     -580593.65      88.758479     -580504.89     -2325.255      -1684.4189     -1726.0536     -0.80751465     43.183691     -4.4647841      37763.258    
     20000   315.16562      0.01           0.24267097     0.18081372     0.18406666    -1998.6885      229.62386      229.62386      229.62386      12107404       3.0427021     -580086.14     -580086.14      93.005437     -579993.13     -2394.9763     -1784.4927     -1816.5967      4.4468292      50.554351      2.1062783      37062.18     
     21000   305.56004      0.0105         0.24935219     0.18818828     0.19138217    -2068.9946      229.73753      229.73753      229.73753      12125394       3.0381877     -579558.58     -579558.58      90.170828     -579468.41     -2460.9147     -1857.274      -1888.7952      1.4623526      51.460703     -0.2304837      38722.21     
     22000   302.85364      0.011          0.25590285     0.19484928     0.19768081    -2133.1785      229.85121      229.85121      229.85121      12143402       3.0336822     -579011.55     -579011.55      89.372169     -578922.18     -2525.5647     -1923.0129     -1950.9579     -4.9012521      44.646678     -7.027571       37776.939    
     23000   321.98095      0.0115         0.26191787     0.20286547     0.20513317    -2203.854       229.96488      229.96488      229.96488      12161428       3.0291857     -578446.4      -578446.4       95.016643     -578351.38     -2584.9284     -2002.1265     -2024.507      -8.4321685      35.072021     -14.77302       39082.993    
     24000   322.27558      0.012          0.26699285     0.21148494     0.21424231    -2278.8719      230.07856      230.07856      230.07856      12179471       3.024698      -577862.18     -577862.18      95.103587     -577767.08     -2635.0146     -2087.1941     -2114.4072     -6.5430818      27.771632     -18.446665      38833.813    
     25000   314.12689      0.0125         0.27162359     0.22045763     0.22462636    -2357.7846      230.19223      230.19223      230.19223      12197533       3.0202192     -577256.32     -577256.32      92.698906     -577163.63     -2680.7164     -2175.7476     -2216.8898     -5.5977541      27.717589     -16.060668      38665.406    
     26000   316.76684      0.013          0.27743072     0.22928579     0.2347634     -2439.2793      230.30591      230.30591      230.30591      12215612       3.0157492     -576629.79     -576629.79      93.477957     -576536.32     -2738.0283     -2262.8748     -2316.9347     -10.18417       38.304173     -12.666706      38870.777    
     27000   315.78737      0.0135         0.28464284     0.23625639     0.24211719    -2510.1289      230.41958      230.41958      230.41958      12233709       3.011288      -575986.11     -575986.11      93.188914     -575892.92     -2809.2064     -2331.6693     -2389.5109     -13.811571      53.501864     -8.9719278      38786.615    
     28000   318.04251      0.014          0.29108829     0.24129343     0.24646701    -2562.2131      230.53326      230.53326      230.53326      12251824       3.0068356     -575328.03     -575328.03      93.854408     -575234.18     -2872.818      -2381.381      -2432.4403     -7.6884745      59.393736     -2.2358402      38710.817    
     29000   324.7307       0.0145         0.29548342     0.24737559     0.2505336     -2610.0588      230.64693      230.64693      230.64693      12269957       3.002392      -574655.96     -574655.96      95.828092     -574560.13     -2916.1946     -2441.4073     -2472.5744      0.37416766     47.218186      7.1285043      38699.163    
     30000   326.48953      0.015          0.299384       0.25608918     0.2567822     -2672.1125      230.76061      230.76061      230.76061      12288108       2.9979572     -573967.77     -573967.77      96.347125     -573871.42     -2954.6904     -2527.4037     -2534.2433     -3.7703095      28.753019      12.285423      38233.072    
     31000   323.72852      0.0155         0.30389076     0.26497749     0.26577526    -2745.7637      230.87428      230.87428      230.87428      12306277       2.9935311     -573260.01     -573260.01      95.532348     -573164.48     -2999.1686     -2615.1245     -2622.9978     -17.768903      22.560784     -0.37079283     38975.284    
     32000   320.3442       0.016          0.3088185      0.27221349     0.2764091     -2820.7619      230.98796      230.98796      230.98796      12324463       2.9891137     -572531.32     -572531.32      94.533635     -572436.78     -3047.8017     -2686.5382     -2727.9457     -24.107314      35.199216     -26.83336       38693.255    
     33000   319.15288      0.0165         0.31463171     0.27938278     0.28663248    -2897.1033      231.10163      231.10163      231.10163      12342668       2.9847049     -571784.3      -571784.3       94.182076     -571690.12     -3105.1736     -2757.2936     -2828.8426     -15.232896      56.42745      -38.927236      37998.873    
     34000   318.93405      0.017          0.32035195     0.28707515     0.29343742    -2963.6138      231.21531      231.21531      231.21531      12360890       2.9803049     -571021.72     -571021.72      94.117501     -570927.6      -3161.6279     -2833.2114     -2896.0021     -1.4315841      69.432872     -25.271827      37782.825    
     35000   320.05835      0.0175         0.32405846     0.29310148     0.29547438    -3002.3335      231.32898      231.32898      231.32898      12379131       2.9759135     -570245.02     -570245.02      94.449282     -570150.57     -3198.2084     -2892.6867     -2916.1054      5.0212781      65.426931     -4.7236508      39784.657    
     36000   323.55044      0.018          0.32636226     0.29747787     0.29657618    -3027.9343      231.44266      231.44266      231.44266      12397389       2.9715307     -569457.05     -569457.05      95.479798     -569361.57     -3220.9451     -2935.8783     -2926.9794      1.5001086      46.711051     -0.55841879     38800.619    
     37000   326.56694      0.0185         0.32949469     0.30190928     0.30112774    -3067.7908      231.55633      231.55633      231.55633      12415665       2.9671565     -568660.58     -568660.58      96.369967     -568564.21     -3251.8598     -2979.6129     -2971.8997     -6.2608721      26.82981      -6.35317        38167.486    
     38000   325.54814      0.019          0.33417523     0.3069599      0.30938807    -3126.9782      231.67001      231.67001      231.67001      12433960       2.9627909     -567850.21     -567850.21      96.06932      -567754.14     -3298.0531     -3029.4587     -3053.4228     -14.336647      16.512027     -11.041332      38078.515    
     39000   320.33312      0.0195         0.33897159     0.31223317     0.3186096     -3190.4412      231.78368      231.78368      231.78368      12452272       2.9584338     -567022.88     -567022.88      94.530367     -566928.35     -3345.3895     -3081.5018     -3144.4323     -19.430248      19.668246     -13.613216      38783.456    
     40000   315.92407      0.02           0.34112598     0.31668465     0.32436397    -3231.1032      231.89736      231.89736      231.89736      12470602       2.9540853     -566182.36     -566182.36      93.229254     -566089.13     -3366.6517     -3125.4345     -3201.2235     -20.459232      30.413653     -11.025603      36141.708    
     41000   317.67993      0.0205         0.34139926     0.32132401     0.32668676    -3254.906       232.01104      232.01104      232.01104      12488950       2.9497454     -565329.81     -565329.81      93.747409     -565236.06     -3369.3488     -3171.2214     -3224.1477     -17.327827      40.042299     -9.0012367      37564.608    
     42000   324.7565       0.021          0.34335234     0.32844863     0.32997744    -3295.5947      232.12471      232.12471      232.12471      12507316       2.9454139     -564465.3      -564465.3       95.835707     -564369.47     -3388.6241     -3241.536      -3256.6241     -14.4797        42.205315     -17.529351      38344.048    
     43000   331.92128      0.0215         0.34748013     0.33635718     0.33542885    -3353.125       232.23839      232.23839      232.23839      12525700       2.9410908     -563590.5      -563590.5       97.950034     -563492.55     -3429.3623     -3319.5873     -3310.4254     -14.175565      36.356121     -30.845924      38221.639    
     44000   332.6189       0.022          0.35196425     0.34110429     0.34093487    -3401.6068      232.35206      232.35206      232.35206      12544102       2.9367763     -562705.28     -562705.28      98.155901     -562607.12     -3473.6171     -3366.4376     -3364.7656     -15.64849       27.452909     -30.904778      38377.931    
     45000   327.43089      0.0225         0.35605121     0.34235423     0.34562574    -3434.5955      232.46574      232.46574      232.46574      12562522       2.9324702     -561809.2      -561809.2       96.62492      -561712.57     -3513.9522     -3378.7735     -3411.0608     -13.001346      22.049721     -12.396787      37849.513    
     46000   321.41173      0.023          0.35912504     0.34351747     0.35046411    -3464.4514      232.57941      232.57941      232.57941      12580960       2.9281725     -560901.46     -560901.46      94.848665     -560806.61     -3544.2886     -3390.2538     -3458.8118     -4.260478       26.353308      8.3279709      38399.062    
     47000   317.22279      0.0235         0.3603314      0.34675271     0.35416905    -3491.2514      232.69309      232.69309      232.69309      12599417       2.9238831     -559979.5      -559979.5       93.612508     -559885.89     -3556.1944     -3422.1831     -3495.3768      4.101937       35.385286      14.215528      39078.522    
     48000   317.36165      0.024          0.36112398     0.35142394     0.3550912     -3512.2596      232.80676      232.80676      232.80676      12617891       2.9196022     -559044.78     -559044.78      93.653486     -558951.12     -3564.0166     -3468.2846     -3504.4776      2.129696       37.961172      5.4844132      38941.724    
     49000   323.53756      0.0245         0.36270533     0.35635808     0.35450292    -3531.7586      232.92044      232.92044      232.92044      12636383       2.9153296     -558105.38     -558105.38      95.475997     -558009.9      -3579.6233     -3516.9808     -3498.6718     -11.524488      29.963588     -6.0729617      38261.162    
     50000   334.03708      0.025          0.36489836     0.36153959     0.35601397    -3560.99        233.03411      233.03411      233.03411      12654893       2.9110654     -557165.43     -557165.43      98.574406     -557066.86     -3601.2668     -3568.1183     -3513.5847     -28.548174      19.094478     -6.145835       38466.767    
     51000   341.97655      0.0255         0.36807177     0.36623093     0.36119012    -3603.8912      233.14779      233.14779      233.14779      12673422       2.9068094     -556219.89     -556219.89      100.91735     -556118.97     -3632.5859     -3614.4183     -3564.6693     -36.421722      16.842451      1.1877474      38703.739    
     52000   341.1248       0.026          0.37118502     0.36832363     0.3678082     -3642.7892      233.26146      233.26146      233.26146      12691968       2.9025618     -555262.95     -555262.95      100.66599     -555162.29     -3663.3113     -3635.0716     -3629.9847     -31.393549      23.799861     -0.74669428     38855.611    
     53000   334.82455      0.0265         0.37136445     0.36786618     0.37269886    -3657.9636      233.37514      233.37514      233.37514      12710533       2.8983224     -554293.65     -554293.65      98.806789     -554194.84     -3665.0822     -3630.5569     -3678.2518     -15.46891       33.85135      -8.169586       33380.279    
     54000   327.90113      0.027          0.36924454     0.36832355     0.37568724    -3662.3253      233.48881      233.48881      233.48881      12729116       2.8940913     -553315.08     -553315.08      96.763687     -553218.32     -3644.1602     -3635.0708     -3707.7448      2.1463684      39.938329     -2.4894211      39478.865    
     55000   323.56648      0.0275         0.36769993     0.37057062     0.37784756    -3671.7431      233.60249      233.60249      233.60249      12747716       2.8898684     -552332.17     -552332.17      95.484532     -552236.69     -3628.9162     -3657.2477     -3729.0654      9.9904166      40.041319      13.575265      39019.46     
     56000   324.39106      0.028          0.36827583     0.37283075     0.37937383    -3686.094       233.71616      233.71616      233.71616      12766335       2.8856537     -551347.57     -551347.57      95.727865     -551251.84     -3634.5999     -3679.5535     -3744.1286      2.8804707      37.22424       20.780585      38825.565    
     57000   328.57235      0.0285         0.37017095     0.37507061     0.37946562    -3699.9989      233.82984      233.82984      233.82984      12784972       2.8814472     -550363.69     -550363.69      96.961765     -550266.72     -3653.3032     -3701.6592     -3745.0345     -12.243293      35.46743       15.273701      38198.171    
     58000   331.66049      0.029          0.37157893     0.37686486     0.37806257    -3705.9178      233.94351      233.94351      233.94351      12803627       2.8772489     -549379.34     -549379.34      97.873075     -549281.46     -3667.1989     -3719.367      -3731.1875     -21.78407       36.685092      5.3221282      38519.208    
     59000   333.36671      0.0295         0.37297052     0.37714253     0.37760706    -3709.9107      234.05719      234.05719      234.05719      12822300       2.8730587     -548390.28     -548390.28      98.376582     -548291.9      -3680.9328     -3722.1074     -3726.6919     -21.355652      38.739298     -8.0883849      38817.475    
     60000   335.73048      0.03           0.37526883     0.37771661     0.37979409    -3726.5549      234.17086      234.17086      234.17086      12840992       2.8688767     -547395.78     -547395.78      99.074129     -547296.71     -3703.6154     -3727.7731     -3748.2763     -15.987178      39.277239     -16.7048        164.51254    
     61000   337.7067       0.0305         0.37690158     0.38079311     0.38308321    -3752.8675      234.28454      234.28454      234.28454      12859701       2.8647027     -546395.65     -546395.65      99.657312     -546295.99     -3719.7294     -3758.1358     -3780.7373     -9.2507363      35.806271     -6.5313897      28920.293    
     62000   339.19361      0.031          0.37604869     0.38520071     0.38589626    -3773.8158      234.39821      234.39821      234.39821      12878429       2.8605369     -545388.39     -545388.39      100.0961      -545288.29     -3711.312      -3801.6355     -3808.5        -1.7557267      27.495577      11.24782       34536.579    
     63000   341.67199      0.0315         0.37381667     0.38853153     0.38877207    -3786.8913      234.51189      234.51189      234.51189      12897175       2.8563792     -544376.28     -544376.28      100.82747     -544275.45     -3689.2837     -3834.5081     -3836.882       2.7089425      17.811638      12.879138      34960.002    
     64000   344.08381      0.032          0.37324294     0.39015667     0.39172374    -3800.0603      234.62556      234.62556      234.62556      12915939       2.8522295     -543364.47     -543364.47      101.5392      -543262.93     -3683.6214     -3850.5469     -3866.0127     -0.24797254     13.892906      3.4947085      34864.812    
     65000   343.79105      0.0325         0.37487931     0.39197131     0.3936484     -3817.7449      234.73924      234.73924      234.73924      12934721       2.8480878     -542349.25     -542349.25      101.45281     -542247.79     -3699.7711     -3868.456      -3885.0077     -8.189935       17.938671      6.0737915      35481.401    
     66000   340.23481      0.033          0.37639368     0.39410286     0.39369195    -3829.8824      234.85291      234.85291      234.85291      12953522       2.8439541     -541326.43     -541326.43      100.40336     -541226.03     -3714.7168     -3889.4928     -3885.4375     -15.187633      20.871763      19.522576      34617.563    
     67000   338.4338       0.0335         0.37536279     0.3943441      0.39141383    -3819.7902      234.96659      234.96659      234.96659      12972341       2.8398285     -540301.7      -540301.7       99.871881     -540201.83     -3704.5427     -3891.8737     -3862.9541     -19.222272      11.556123      23.402373      35849.799    
     68000   343.0174       0.034          0.37248573     0.39201607     0.38971622    -3797.0821      235.08026      235.08026      235.08026      12991177       2.8357108     -539281.67     -539281.67      101.2245      -539180.44     -3676.1483     -3868.8978     -3846.2001     -22.912628     -4.9063054      16.175338      35212.348    
     69000   349.9782       0.0345         0.37137276     0.39022515     0.39231376    -3796.0742      235.19394      235.19394      235.19394      13010033       2.8316011     -538263.92     -538263.92      103.27863     -538160.64     -3665.1641     -3851.2228     -3871.8358     -25.23941      -7.4469579      11.372594      35254.178    
     70000   352.46904      0.035          0.37237092     0.39142503     0.39808747    -3822.2993      235.30762      235.30762      235.30762      13028906       2.8274993     -537243.01     -537243.01      104.01368     -537138.99     -3675.0153     -3863.0647     -3928.8179     -23.619482      13.591098      16.491777      35359.301    
     71000   350.82778      0.0355         0.37300457     0.39337068     0.40142133    -3841.752       235.42129      235.42129      235.42129      13047797       2.8234054     -536217.81     -536217.81      103.52935     -536114.28     -3681.2689     -3882.2668     -3961.7205     -15.202984      38.876639      10.729106      35541.518    
     72000   351.77489      0.036          0.37235936     0.39341347     0.39864787    -3830.6463      235.53497      235.53497      235.53497      13066707       2.8193194     -535193.85     -535193.85      103.80884     -535090.04     -3674.9012     -3882.689      -3934.3486     -0.33704192     45.263911     -13.011301      35266.252    
     73000   357.21517      0.0365         0.37052468     0.39202022     0.39186653    -3797.7183      235.64864      235.64864      235.64864      13085635       2.8152414     -534177.66     -534177.66      105.41427     -534072.25     -3656.7943     -3868.9387     -3867.422       10.49197       33.644418     -24.194245      35004.846    
     74000   361.2557       0.037          0.36883659     0.39007653     0.38761768    -3771.7931      235.76232      235.76232      235.76232      13104582       2.8111711     -533167.03     -533167.03      106.60663     -533060.42     -3640.1341     -3849.756      -3825.489       7.093184       18.307875     -9.7956592      35406.611    
     75000   359.11383      0.0375         0.36836157     0.38799874     0.38880089    -3767.2874      235.87599      235.87599      235.87599      13123546       2.8071087     -532155.83     -532155.83      105.97456     -532049.86     -3635.446      -3829.2498     -3837.1664     -2.3364134      5.9811624      10.015169      35355.417    
     76000   353.06021      0.038          0.36691989     0.38662144     0.39152618    -3766.9792      235.98967      235.98967      235.98967      13142529       2.8030542     -531143.08     -531143.08      104.18814     -531038.89     -3621.2177     -3815.657      -3864.063       0.12800769    -0.50965909     16.738401      34860.462    
     77000   348.90859      0.0385         0.36235827     0.38622961     0.38976172    -3744.879       236.10334      236.10334      236.10334      13161531       2.7990074     -530132.99     -530132.99      102.96299     -530030.03     -3576.198      -3811.7899     -3846.6491      12.135781      3.3720658      12.77555       34939.66     
     78000   349.68854      0.039          0.3572808      0.38693571     0.38341523    -3709.62        236.21702      236.21702      236.21702      13180550       2.7949685     -529129.12     -529129.12      103.19316     -529025.93     -3526.0873     -3818.7586     -3784.0141      10.834193      15.658218      12.344963      34933.561    
     79000   351.46517      0.0395         0.35464875     0.38672495     0.37847691    -3684.022       236.33069      236.33069      236.33069      13199588       2.7909372     -528133.65     -528133.65      103.71744     -528029.93     -3500.111      -3816.6785     -3735.2766     -8.6116654      20.563634      7.6064162      35070.403    
     80000   351.4129       0.04           0.35437011     0.38388016     0.37691391    -3668.6049      236.44437      236.44437      236.44437      13218644       2.7869138     -527145.65     -527145.65      103.70202     -527041.95     -3497.3611     -3788.6026     -3719.851      -28.122336      7.7169219     -3.5566309      33491.457    
     81000   352.12178      0.0405         0.35430337     0.37977627     0.37661325    -3653.8955      236.55804      236.55804      236.55804      13237719       2.7828981     -526163.54     -526163.54      103.91121     -526059.62     -3496.7024     -3748.1003     -3716.8838     -24.271226     -16.200063     -4.7778498      35976.383    
     82000   355.26806      0.041          0.35403223     0.37607845     0.3765676     -3640.6885      236.67172      236.67172      236.67172      13256812       2.7788901     -525184.36     -525184.36      104.83967     -525079.52     -3494.0265     -3711.6057     -3716.4333      3.2922281     -28.59837       2.8902415      34901.586    
     83000   360.65875      0.0415         0.35430006     0.37336029     0.37796866    -3637.2367      236.78539      236.78539      236.78539      13275923       2.7748897     -524203.03     -524203.03      106.43047     -524096.6      -3496.6698     -3684.7795     -3730.2607      32.897098     -13.997644      8.0051549      34121.4      
     84000   364.30188      0.042          0.35379392     0.37241523     0.38070537    -3641.4657      236.89907      236.89907      236.89907      13295052       2.7708971     -523220.99     -523220.99      107.50555     -523113.49     -3491.6745     -3675.4526     -3757.2699      33.476837      18.473169      3.1864786      34714.238    
     85000   363.49203      0.0425         0.34994275     0.37064569     0.38062855    -3622.7222      237.01274      237.01274      237.01274      13314200       2.7669121     -522245.09     -522245.09      107.26657     -522137.83     -3453.6665     -3657.9885     -3756.5117      2.8825342      37.65944      -7.5930724      34942.232    
     86000   361.44276      0.043          0.34327037     0.36732151     0.37376315    -3567.2507      237.12642      237.12642      237.12642      13333367       2.7629347     -521279.04     -521279.04      106.66183     -521172.38     -3387.8151     -3625.1815     -3688.7555     -30.525817      20.751667     -15.385337      35121.152    
     87000   359.89812      0.0435         0.33671176     0.36595933     0.36354436    -3507.5761      237.24009      237.24009      237.24009      13352551       2.758965      -520324.4      -520324.4       106.20601     -520218.19     -3323.0867     -3611.7377     -3587.9039     -42.375787     -23.16787      -16.329129      34407.274    
     88000   359.79662      0.044          0.33260559     0.36698583     0.35598949    -3472.5912      237.35377      237.35377      237.35377      13371754       2.7550029     -519380.31     -519380.31      106.17605     -519274.13     -3282.562      -3621.8686     -3513.3431     -32.506015     -62.648847     -9.0598622      35065.601    
     89000   362.6555       0.0445         0.33226805     0.36819907     0.35485064    -3471.7255      237.46744      237.46744      237.46744      13390976       2.7510483     -518441.18     -518441.18      107.01971     -518334.16     -3279.2307     -3633.8423     -3502.1035     -17.787086     -74.009279      4.9815846      35367.171    
     90000   365.58064      0.045          0.33407902     0.36727223     0.35930169    -3489.2769      237.58112      237.58112      237.58112      13410216       2.7471013     -517503.23     -517503.23      107.88292     -517395.35     -3297.1036     -3624.6951     -3546.032      -11.473923     -58.302171      20.190232      34542.926    
     91000   365.80299      0.0455         0.33427559     0.363047       0.36377529    -3490.7406      237.69479      237.69479      237.69479      13429474       2.7431619     -516565.85     -516565.85      107.94853     -516457.9      -3299.0435     -3582.9953     -3590.183      -9.6241754     -35.673651      27.951616      34342.317    
     92000   365.36247      0.046          0.33167044     0.35625164     0.36291229    -3456.9763      237.80847      237.80847      237.80847      13448751       2.73923       -515630.27     -515630.27      107.81853     -515522.45     -3273.3328     -3515.9303     -3581.6658     -1.9689613     -24.330478      20.776046      35028.488    
     93000   365.20242      0.0465         0.32826674     0.35068969     0.35706444    -3408.2437      237.92214      237.92214      237.92214      13468046       2.7353056     -514700.28     -514700.28      107.77131     -514592.5      -3239.7409     -3461.0381     -3523.952       10.5427       -20.924285      1.0316663      34863.091    
     94000   363.46221      0.047          0.32455105     0.34754817     0.34980872    -3361.8157      238.03582      238.03582      238.03582      13487360       2.7313887     -513782.86     -513782.86      107.25777     -513675.6      -3203.0698     -3430.0337     -3452.3437      10.298031     -15.960452     -15.779711      34169.35     
     95000   361.93567      0.0475         0.32067295     0.34488736     0.34400329    -3321.206       238.14949      238.14949      238.14949      13506692       2.7274793     -512881.18     -512881.18      106.80729     -512774.38     -3164.7959     -3403.7736     -3395.0485     -6.6490208     -10.482461     -20.501239      34445.636    
     96000   362.28186      0.048          0.31702688     0.34283828     0.3411866     -3293.2043      238.26317      238.26317      238.26317      13526042       2.7235773     -511990.81     -511990.81      106.90945     -511883.9      -3128.812      -3383.5508     -3367.25       -28.702146     -15.121408     -15.978445      35477.886    
     97000   362.70592      0.0485         0.31389459     0.34277208     0.34043032    -3280.1941      238.37684      238.37684      238.37684      13545411       2.7196828     -511105.28     -511105.28      107.03459     -510998.25     -3097.8988     -3382.8974     -3359.786      -39.612037     -30.76232      -4.7484788      36067.242    
     98000   362.94517      0.049          0.31192491     0.34254448     0.34009371    -3271.8582      238.49052      238.49052      238.49052      13564799       2.7157956     -510216.39     -510216.39      107.10519     -510109.28     -3078.4595     -3380.6512     -3356.464      -32.38964      -41.887299      2.5614821      34914.919    
     99000   363.47587      0.0495         0.31132155     0.33986311     0.34013935    -3261.2024      238.6042       238.6042       238.6042       13584205       2.7119159     -509327.98     -509327.98      107.2618      -509220.72     -3072.5048     -3354.1881     -3356.9144     -12.358027     -36.079797     -7.7021988      35457.086    
    100000   364.87303      0.05           0.31028694     0.33458215     0.33923415    -3237.448       238.71787      238.71787      238.71787      13603629       2.7080436     -508451.15     -508451.15      107.6741      -508343.47     -3062.294      -3302.0691     -3347.9808      8.2574889     -17.489824     -23.19054       2809.3428    
    101000   368.31159      0.0505         0.30718913     0.32973848     0.33542366    -3198.787       238.83155      238.83155      238.83155      13623072       2.7041787     -507583.93     -507583.93      108.68882     -507475.24     -3031.721      -3254.2658     -3310.3742      20.52655      -3.9275404     -18.285532      28647.504    
    102000   370.52136      0.051          0.30312331     0.32876418     0.33000685    -3164.3863      238.94522      238.94522      238.94522      13642534       2.7003211     -506721.02     -506721.02      109.34092     -506611.68     -2991.5944     -3244.6502     -3256.9144      20.332553     -7.6464284      6.8943455      35069.47     
    103000   369.02928      0.0515         0.29935152     0.32838991     0.32471915    -3133.3517      239.0589       239.0589       239.0589       13662014       2.6964708     -505867.06     -505867.06      108.90061     -505758.16     -2954.3698     -3240.9564     -3204.7288      16.812453     -23.256198      20.442479      34632.367    
    104000   366.90668      0.052          0.29609911     0.32495745     0.32037771    -3097.078       239.17257      239.17257      239.17257      13681513       2.6926278     -505023.65     -505023.65      108.27423     -504915.37     -2922.271      -3207.0807     -3161.8822      16.038044     -34.405445      10.642243      35185.889    
    105000   366.28221      0.0525         0.29404534     0.32000818     0.31762628    -3064.9882      239.28625      239.28625      239.28625      13701030       2.6887922     -504190.02     -504190.02      108.08995     -504081.93     -2902.0018     -3158.2352     -3134.7276      13.579243     -30.849253     -0.9901427      34776.747    
    106000   365.89882      0.053          0.2926952      0.31488438     0.31636983    -3039.5572      239.39992      239.39992      239.39992      13720565       2.6849638     -503363.37     -503363.37      107.97681     -503255.4      -2888.677      -3107.6672     -3122.3275      3.6086203     -15.434919     -8.812419       35024.241    
    107000   364.81231      0.0535         0.29051619     0.31095544     0.3163773     -3019.4882      239.5136       239.5136       239.5136       13740120       2.6811427     -502540.59     -502540.59      107.65619     -502432.93     -2867.1719     -3068.8916     -3122.4012     -12.09801      -0.53113619    -19.220712      34715.832    
    108000   363.96615      0.054          0.28730601     0.3098918      0.31531577    -3001.9363      239.62727      239.62727      239.62727      13759693       2.6773289     -501723.79     -501723.79      107.40648     -501616.39     -2835.4898     -3058.3943     -3111.9247     -26.216456     -1.2023357     -23.933922      35232.704    
    109000   364.43441      0.0545         0.283878       0.31083359     0.31071993    -2978.6381      239.74095      239.74095      239.74095      13779284       2.6735222     -500913.36     -500913.36      107.54466     -500805.82     -2801.658      -3067.689      -3066.5673     -31.305553     -20.332881     -17.827129      35532.604    
    110000   365.26455      0.055          0.2812674      0.31092512     0.30493104    -2951.307       239.85462      239.85462      239.85462      13798894       2.6697228     -500108.02     -500108.02      107.78964     -500000.23     -2775.8934     -3068.5923     -3009.4354     -23.272866     -40.043219     -6.3169471      34635.824    
    111000   364.28816      0.0555         0.27927926     0.30792246     0.30132356    -2923.0209      239.9683       239.9683       239.9683       13818523       2.6659306     -499308.74     -499308.74      107.50151     -499201.23     -2756.272      -3038.9584     -2973.8324     -11.794613     -42.16881       3.2209298      35698.336    
    112000   360.92528      0.056          0.27702827     0.30265145     0.30021151    -2894.6171      240.08197      240.08197      240.08197      13838170       2.6621456     -498516.02     -498516.02      106.50912     -498409.51     -2734.0564     -2986.9376     -2962.8573     -11.125861     -30.282203      8.3828817      36618.57     
    113000   357.27484      0.0565         0.27438298     0.29680469     0.29962599    -2864.7542      240.19565      240.19565      240.19565      13857835       2.6583677     -497732.4      -497732.4       105.43188     -497626.97     -2707.9495     -2929.2345     -2957.0786     -19.923261     -17.16067       9.3032713      35343.576    
    114000   355.70309      0.057          0.27175295     0.29175136     0.29815714    -2834.6458      240.30932      240.30932      240.30932      13877520       2.6545969     -496956.93     -496956.93      104.96805     -496851.96     -2681.9931     -2879.3621     -2942.5822     -20.839825     -15.485391      4.9482201      34357.723    
    115000   355.68582      0.0575         0.26950778     0.28956877     0.29559278    -2811.6435      240.423        240.423        240.423        13897223       2.6508333     -496184.1      -496184.1       104.96296     -496079.14     -2659.835      -2857.8216     -2917.274      -10.676821     -25.055423     -0.78188983     34608.113    
    116000   354.70744      0.058          0.26747613     0.28997911     0.29198117    -2794.4285      240.53667      240.53667      240.53667      13916945       2.6470768     -495413.43     -495413.43      104.67424     -495308.76     -2639.7842     -2861.8713     -2881.6301      1.1572256     -34.279107     -10.00176       34905.148    
    117000   353.34938      0.0585         0.26484729     0.28958924     0.28721088    -2768.8047      240.65035      240.65035      240.65035      13936685       2.6433274     -494650.91     -494650.91      104.27347     -494546.64     -2613.8396     -2858.0236     -2834.551       2.5986152     -28.293532     -20.563908      34910.866    
    118000   352.68328      0.059          0.26160595     0.28741776     0.28239406    -2735.1518      240.76402      240.76402      240.76402      13956444       2.6395851     -493898.48     -493898.48      104.07691     -493794.41     -2581.85       -2836.5928     -2787.0127     -6.4513717     -8.2503753     -20.384279      35713.494    
    119000   350.80081      0.0595         0.25978952     0.28437605     0.27904724    -2708.1596      240.8777       240.8777       240.8777       13976222       2.6358499     -493153.79     -493153.79      103.52139     -493050.27     -2563.9232     -2806.5734     -2753.9821     -14.637702      7.892878      -8.6396957      35213.477    
    120000   347.31028      0.06           0.25971945     0.27986111     0.27589554    -2682.7078      240.99137      240.99137      240.99137      13996018       2.6321216     -492414.57     -492414.57      102.49133     -492312.08     -2563.2317     -2762.0144     -2722.8772     -11.985217      2.9004527     -1.3591814      213.58674    
    121000   346.03361      0.0605         0.25914331     0.27429836     0.2725982     -2651.665       241.10505      241.10505      241.10505      14015833       2.6284005     -491679.02     -491679.02      102.11459     -491576.91     -2557.5456     -2707.1144     -2690.335       0.91895533    -18.875885      0.86857488     28885.722    
    122000   348.39149      0.061          0.25791216     0.2702859      0.27137581    -2630.3935      241.21872      241.21872      241.21872      14035667       2.6246863     -490949.91     -490949.91      102.8104      -490847.1      -2545.3951     -2667.5145     -2678.271       14.668299     -33.96718       7.0230654      35522.18     
    123000   352.04968      0.0615         0.25665411     0.26888917     0.27327704    -2627.9145      241.3324       241.3324       241.3324       14055519       2.6209791     -490227.92     -490227.92      103.88993     -490124.03     -2532.9791     -2653.7298     -2697.0347      18.646604     -28.958412      11.984643      35207.101    
    124000   355.09385      0.062          0.25456697     0.26973013     0.27608356    -2633.0477      241.44607      241.44607      241.44607      14075390       2.6172789     -489505.28     -489505.28      104.78826     -489400.49     -2512.3807     -2662.0294     -2724.7329      8.8358558     -14.184243      2.6252127      35305.252    
    125000   357.32178      0.0625         0.25233135     0.27135594     0.27669054    -2633.0384      241.55975      241.55975      241.55975      14095280       2.6135856     -488777.65     -488777.65      105.44573     -488672.2      -2490.3168     -2678.0749     -2730.7233     -6.7729756     -1.7662056     -19.422922      35409.915    
    126000   358.42365      0.063          0.25008318     0.27163314     0.27343538    -2615.8457      241.67342      241.67342      241.67342      14115189       2.6098994     -488053.84     -488053.84      105.77089     -487948.07     -2468.1291     -2680.8106     -2698.5974     -15.695568      5.7531116     -27.495966      33851.647    
    127000   359.29822      0.0635         0.24661991     0.26920766     0.26737789    -2576.5457      241.7871       241.7871       241.7871       14135116       2.60622       -487341.73     -487341.73      106.02898     -487235.7      -2433.9493     -2656.8731     -2638.8146     -9.5722582      6.203845      -15.889964      34846.288    
    128000   359.75463      0.064          0.24334645     0.26466935     0.26249342    -2534.7782      241.90078      241.90078      241.90078      14155062       2.6025475     -486640.78     -486640.78      106.16366     -486534.62     -2401.6427     -2612.0834     -2590.6086      6.0583012      0.10192639    -5.1080424      35316.414    
    129000   356.79501      0.0645         0.24274107     0.25977574     0.26086462    -2511.3296      242.01445      242.01445      242.01445      14175027       2.598882      -485946.62     -485946.62      105.29028     -485841.33     -2395.668      -2563.7872     -2574.5336      18.947869     -0.60300798    -0.21295841     35009.272    
    130000   350.44937      0.065          0.24310692     0.25590004     0.26076651    -2499.4604      242.12813      242.12813      242.12813      14195011       2.5952233     -485253.63     -485253.63      103.41768     -485150.21     -2399.2787     -2525.537      -2573.5653      22.361747      4.3720973      3.6193201      34566.906    
    131000   345.37472      0.0655         0.24271314     0.25472003     0.25982177    -2491.1751      242.2418       242.2418       242.2418       14215013       2.5915715     -484558.31     -484558.31      101.92015     -484456.39     -2395.3925     -2513.8912     -2564.2415      17.99646       2.866056       5.1915406      34842.875    
    132000   344.22154      0.066          0.24261985     0.25581243     0.25790368    -2488.1518      242.35548      242.35548      242.35548      14235034       2.5879265     -483862.54     -483862.54      101.57984     -483760.96     -2394.4718     -2524.6724     -2545.3114      10.779011     -1.4143803     -0.30112958     34756.091    
    133000   344.04052      0.0665         0.24234369     0.25690647     0.2558823     -2484.1927      242.46915      242.46915      242.46915      14255074       2.5842884     -483171.11     -483171.11      101.52643     -483069.58     -2391.7463     -2535.4698     -2525.362       0.47790836     4.1812442     -11.671471      34434.068    
    134000   342.50521      0.067          0.23949604     0.25625415     0.25350819    -2464.8684      242.58283      242.58283      242.58283      14275133       2.5806571     -482483.8      -482483.8       101.07335     -482382.72     -2363.6421     -2529.0319     -2501.9313     -12.11681       14.5461       -22.845983      34917.314    
    135000   340.65751      0.0675         0.23493662     0.25313994     0.25020004    -2428.7412      242.6965       242.6965       242.6965       14295210       2.5770325     -481799.68     -481799.68      100.5281      -481699.15     -2318.6441     -2498.297      -2469.2824     -17.173748      13.046516     -23.872587      34743.367    
    136000   341.16769      0.068          0.2307098      0.24852695     0.24709053    -2389.431       242.81018      242.81018      242.81018      14315307       2.5734148     -481123.93     -481123.93      100.67865     -481023.25     -2276.9287     -2452.7703     -2438.5939     -9.7918291     -1.5127045     -16.747267      34796.196    
    137000   345.37373      0.0685         0.22801205     0.24478745     0.24642569    -2366.0669      242.92385      242.92385      242.92385      14335422       2.5698038     -480459.12     -480459.12      101.91985     -480357.2      -2250.3039     -2415.8643     -2432.0324      5.1180261     -13.022808     -3.9004055      34036.496    
    138000   350.61163      0.069          0.22907246     0.24342345     0.24754968    -2368.7658      243.03753      243.03753      243.03753      14355556       2.5661996     -479801.24     -479801.24      103.46556     -479697.77     -2260.7695     -2402.4026     -2443.1254      18.708276     -11.247956      16.3561        34863.607    
    139000   353.75474      0.0695         0.23349245     0.24519323     0.24864901    -2392.7451      243.1512       243.1512       243.1512       14375709       2.5626021     -479141.41     -479141.41      104.39309     -479037.01     -2304.3913     -2419.869      -2453.9749      25.062558     -2.6379966      30.993725      34733.525    
    140000   353.99856      0.07           0.23710632     0.24926153     0.24850998    -2417.5601      243.26488      243.26488      243.26488      14395880       2.5590114     -478472.03     -478472.03      104.46504     -478367.57     -2340.0575     -2460.0201     -2452.6028      19.46149       5.1479752      24.621585      2853.7345    
    141000   353.06626      0.0705         0.23662086     0.25222794     0.24677607    -2420.0177      243.37855      243.37855      243.37855      14416071       2.5554273     -477792.99     -477792.99      104.18992     -477688.8      -2335.2663     -2489.2962     -2435.4904      6.4478048      10.853102      1.9687812      29107.324    
    142000   352.92655      0.071          0.23216871     0.25064715     0.24412916    -2391.4632      243.49223      243.49223      243.49223      14436280       2.55185       -477115.47     -477115.47      104.14869     -477011.32     -2291.3271     -2473.695      -2409.3675     -5.6089407      18.38565      -14.205139      35358.212    
    143000   353.42227      0.0715         0.22626602     0.24453828     0.24136217    -2342.8455      243.6059       243.6059       243.6059       14456509       2.5482793     -476452.17     -476452.17      104.29498     -476347.88     -2233.072      -2413.4052     -2382.0594     -16.838042      24.352794     -14.620556      34755.321    
    144000   353.28235      0.072          0.22228869     0.23750261     0.23986335    -2301.6849      243.71958      243.71958      243.71958      14476756       2.5447153     -475805.47     -475805.47      104.25369     -475701.22     -2193.8188     -2343.9686     -2367.2672     -24.671909      26.276274     -4.5564705      35304.446    
    145000   350.49853      0.0725         0.22111693     0.23270336     0.23940358    -2280.5292      243.83325      243.83325      243.83325      14497022       2.5411579     -475166.74     -475166.74      103.43218     -475063.3      -2182.2544     -2296.6036     -2362.7296     -20.576323      23.879428      4.4435935      34982.519    
    146000   346.19011      0.073          0.2217944      0.23129582     0.23964504    -2278.9218      243.94693      243.94693      243.94693      14517307       2.5376071     -474524.33     -474524.33      102.16077     -474422.17     -2188.9405     -2282.7122     -2365.1126     -4.691825       16.617175      1.9388774      34819.82     
    147000   342.18225      0.0735         0.22300054     0.23373093     0.24051485    -2293.762       244.0606       244.0606       244.0606       14537611       2.534063      -473876.02     -473876.02      100.97805     -473775.05     -2200.8442     -2306.7449     -2373.697       8.5312426      5.7043497     -8.9656083      35148.226    
    148000   339.25723      0.074          0.22277652     0.23732621     0.24022754    -2303.9074      244.17428      244.17428      244.17428      14557934       2.5305254     -473226.3      -473226.3       100.11488     -473126.18     -2198.6333     -2342.2275     -2370.8614      10.050346     -3.9931425     -14.616408      35076.562    
    149000   338.87118      0.0745         0.22091787     0.23757326     0.23749373    -2289.6122      244.28795      244.28795      244.28795      14578276       2.5269945     -472577.74     -472577.74      100.00095     -472477.74     -2180.2899     -2344.6657     -2343.8809      6.2723867     -4.6725268     -12.607443      35290.178    
    150000   340.46068      0.075          0.22027981     0.23320575     0.23424726    -2262.4651      244.40163      244.40163      244.40163      14598636       2.5234701     -471933.93     -471933.93      100.47001     -471833.46     -2173.9927     -2301.5618     -2311.8407      3.3679788      8.9843703     -5.7456978      34468.64     
    151000   341.2788       0.0755         0.22109447     0.22761335     0.23210399    -2239.6967      244.5153       244.5153       244.5153       14619016       2.5199522     -471295.96     -471295.96      100.71144     -471195.25     -2182.0328     -2246.3691     -2290.6883      1.8416223      29.327646      8.5733078      35129.928    
    152000   340.58458      0.076          0.22132613     0.22492327     0.23120467    -2228.6506      244.62898      244.62898      244.62898      14639415       2.5164409     -470658.37     -470658.37      100.50658     -470557.87     -2184.3191     -2219.8201     -2281.8127      2.7998021      40.119267      21.005822      35198.903    
    153000   339.89765      0.0765         0.21974391     0.22557632     0.23080513    -2224.2795      244.74265      244.74265      244.74265      14659832       2.5129361     -470022.85     -470022.85      100.30386     -469922.54     -2168.7038     -2226.2652     -2277.8696      8.176422       30.122831      14.535716      34933.424    
    154000   341.15743      0.077          0.21592668     0.22678705     0.22948421    -2211.3593      244.85633      244.85633      244.85633      14680269       2.5094378     -469394.89     -469394.89      100.67562     -469294.21     -2131.0306     -2238.2141     -2264.8331      12.934021      8.2398495     -5.380768       35139.892    
    155000   344.06629      0.0775         0.2119165      0.2270379      0.22784798    -2193.6093      244.97001      244.97001      244.97001      14700724       2.505946      -468771.91     -468771.91      101.53403     -468670.38     -2091.4533     -2240.6898     -2248.6847      11.133859     -9.5409962     -21.798896      35274.024    
    156000   345.64614      0.078          0.21071008     0.22735261     0.22685494    -2187.4089      245.08368      245.08368      245.08368      14721199       2.5024607     -468147.38     -468147.38      102.00024     -468045.38     -2079.5468     -2243.7958     -2238.8841      4.8828489     -14.652417     -23.258438      35323.911    
    157000   344.57123      0.0785         0.2115657      0.22750748     0.22675823    -2190.4151      245.19736      245.19736      245.19736      14741692       2.4989819     -467520.91     -467520.91      101.68304     -467419.22     -2087.9911     -2245.3243     -2237.9298      0.45609426    -10.173891     -11.69918       34788.955    
    158000   342.85181      0.079          0.2121338      0.22557032     0.22649985    -2185.0612      245.31103      245.31103      245.31103      14762205       2.4955094     -466896        -466896         101.17564     -466794.83     -2093.5979     -2226.206      -2235.3797      0.38811729    -2.9873632     -1.959623       35166.323    
    159000   343.25984      0.0795         0.21201558     0.22237005     0.22435231    -2167.0793      245.42471      245.42471      245.42471      14782737       2.4920435     -466277.45     -466277.45      101.29605     -466176.15     -2092.4311     -2194.6218     -2214.1851      3.3079831      7.1273042      7.6156509      35044.009    
    160000   345.61259      0.08           0.21095494     0.22052045     0.22177877    -2149.0391      245.53838      245.53838      245.53838      14803287       2.4885839     -465666.68     -465666.68      101.99034     -465564.69     -2081.9634     -2176.3676     -2188.7863      5.8408306      21.84288       11.951939      30576.375    
    161000   347.32642      0.0805         0.20988948     0.22046694     0.22083124    -2142.2408      245.65206      245.65206      245.65206      14823857       2.4851307     -465056.83     -465056.83      102.49609     -464954.33     -2071.4481     -2175.8395     -2179.4349      7.0269763      34.858797      3.4281135      35496.401    
    162000   347.14344      0.081          0.21003143     0.22076931     0.22135996    -2145.4419      245.76573      245.76573      245.76573      14844445       2.4816839     -464441.64     -464441.64      102.4421      -464339.2      -2072.849      -2178.8237     -2184.653       6.7744893      38.572022     -4.8098717      35323.447    
    163000   345.78769      0.0815         0.21041772     0.22074238     0.22206775    -2148.9526      245.87941      245.87941      245.87941      14865053       2.4782435     -463822.57     -463822.57      102.04201     -463720.53     -2076.6615     -2178.558      -2191.6382      6.0980729      30.323391     -4.4005531      35299.194    
    164000   343.28999      0.082          0.20954947     0.22063724     0.22219285    -2146.1619      245.99308      245.99308      245.99308      14885680       2.4748095     -463203.34     -463203.34      101.30494     -463102.03     -2068.0925     -2177.5203     -2192.8729      4.2293806      11.896035     -4.2758002      34731.83     
    165000   338.23588      0.0825         0.20739366     0.21988519     0.22098913    -2132.6358      246.10676      246.10676      246.10676      14906326       2.4713818     -462587.36     -462587.36      99.813475     -462487.55     -2046.8162     -2170.0981     -2180.9931      0.10145534    -9.5581538     -7.5170921      35359.345    
    166000   332.67765      0.083          0.20439923     0.21675679     0.21709834    -2099.6936      246.22043      246.22043      246.22043      14926991       2.4679604     -461976.68     -461976.68      98.17324      -461878.51     -2017.2635     -2139.2232     -2142.5941     -5.925955      -24.584872     -6.0887437      35262.279    
    167000   329.8391       0.0835         0.20163258     0.21258712     0.2125797     -2062.0097      246.33411      246.33411      246.33411      14947675       2.4645453     -461372.71     -461372.71      97.335581     -461275.38     -1989.9588     -2098.0717     -2097.9985     -10.055725     -29.113857      0.42843112     34696.302    
    168000   329.41935      0.084          0.19993928     0.2099482      0.21073009    -2041.6731      246.44778      246.44778      246.44778      14968378       2.4611365     -460777.43     -460777.43      97.211714     -460680.21     -1973.2473     -2072.0276     -2079.7443     -6.4883543     -22.609863      5.0013486      35521.598    
    169000   331.10964      0.0845         0.19876813     0.20985229     0.21137234    -2039.6176      246.56146      246.56146      246.56146      14989100       2.457734      -460188.79     -460188.79      97.710521     -460091.08     -1961.689      -2071.0811     -2086.0828      4.3453266     -7.1590726      10.111424      35141.382    
    170000   334.22797      0.085          0.19842747     0.21143567     0.21211011    -2046.1329      246.67513      246.67513      246.67513      15009842       2.4543378     -459599.97     -459599.97      98.630738     -459501.34     -1958.3269     -2086.7078     -2093.3641      14.9539        9.9344475      16.947619      35524.112    
    171000   337.43913      0.0855         0.20009013     0.21324505     0.21246357    -2058.7178      246.78881      246.78881      246.78881      15030602       2.4509478     -459004.22     -459004.22      99.578353     -458904.64     -1974.736      -2104.565      -2096.8524      16.384277      21.076496      13.693466      34598.747    
    172000   339.72926      0.086          0.20274353     0.21416775     0.21293636    -2072.0376      246.90248      246.90248      246.90248      15051382       2.4475641     -458401.26     -458401.26      100.25417     -458301.01     -2000.9231     -2113.6714     -2101.5185      7.0292699      23.924001     -3.4134144      35356.936    
    173000   340.8695       0.0865         0.20346304     0.2137162      0.21278297    -2072.4145      247.01616      247.01616      247.01616      15072181       2.4441866     -457797.19     -457797.19      100.59066     -457696.6      -2008.0241     -2109.2149     -2100.0046     -6.0817587      21.559176     -18.523904      35241.346    
    174000   342.12465      0.087          0.20169666     0.21209794     0.21150815    -2057.0861      247.12983      247.12983      247.12983      15092999       2.4408153     -457198.44     -457198.44      100.96105     -457097.48     -1990.5912     -2093.2439     -2087.4232     -11.415489      17.289377     -25.63303       35019.083    
    175000   343.88377      0.0875         0.19928064     0.21000606     0.2103825     -2038.5531      247.24351      247.24351      247.24351      15113836       2.4374502     -456606.35     -456606.35      101.48017     -456504.87     -1966.747      -2072.5986     -2076.3138     -6.8622679      12.319781     -30.465046      35278.483    
    176000   344.54852      0.088          0.19709385     0.2080937      0.20963144    -2022.5972      247.35718      247.35718      247.35718      15134692       2.4340913     -456018.65     -456018.65      101.67634     -455916.98     -1945.165      -2053.7251     -2068.9015      0.23514961     3.7300834     -28.960376      35119.884    
    177000   342.94718      0.0885         0.19554712     0.20589095     0.20779063    -2004.2066      247.47086      247.47086      247.47086      15155567       2.4307386     -455433.04     -455433.04      101.20378     -455331.84     -1929.9        -2031.9857     -2050.7341      1.085572      -7.0803427     -19.822383      34599.944    
    178000   340.10215      0.089          0.19510123     0.20372318     0.20498591    -1986.3815      247.58453      247.58453      247.58453      15176462       2.427392      -454849.06     -454849.06      100.36421     -454748.69     -1925.4994     -2010.5914     -2023.0536     -2.5040042     -9.6114373     -8.8525741      34258.754    
    179000   338.34694      0.0895         0.19512887     0.20373934     0.20409705    -1983.6015      247.69821      247.69821      247.69821      15197376       2.4240515     -454267.32     -454267.32      99.846249     -454167.48     -1925.7722     -2010.751      -2014.2813     -5.4454823      2.7482248     -0.31888585     35224.093    
    180000   337.43156      0.09           0.19482109     0.2060782      0.20526164    -1994.1144      247.81188      247.81188      247.81188      15218309       2.4207172     -453687.48     -453687.48      99.576118     -453587.91     -1922.7347     -2033.8337     -2025.7749     -4.2257484      22.18516       9.0525018      379.86078    
    181000   337.46989      0.0905         0.19365479     0.20782328     0.20550939    -1996.8335      247.92556      247.92556      247.92556      15239261       2.417389      -453106.72     -453106.72      99.58743      -453007.13     -1911.2242     -2051.0563     -2028.22       -0.31988044     33.682404      14.838895      27989.394    
    182000   339.66563      0.091          0.19216216     0.20726139     0.20499346    -1988.3774      248.03923      248.03923      248.03923      15260232       2.4140669     -452525.53     -452525.53      100.23539     -452425.3      -1896.4931     -2045.5109     -2023.1281      3.3651648      29.771481      11.843937      35241.023    
    183000   342.64808      0.0915         0.19167475     0.20496095     0.20595552    -1982.371       248.15291      248.15291      248.15291      15281223       2.4107509     -451945        -451945         101.11552     -451843.89     -1891.6827     -2022.8073     -2032.623       3.611819       13.273819      1.5345032      35265.844    
    184000   344.4085       0.092          0.19224518     0.20228091     0.20782688    -1981.5872      248.26659      248.26659      248.26659      15302233       2.4074409     -451365.03     -451365.03      101.63502     -451263.39     -1897.3124     -1996.3574     -2051.0918     -0.75899177    -6.6636441     -8.7580814      35479.944    
    185000   345.15474      0.0925         0.19307485     0.20034737     0.20832879    -1979.6069      248.38026      248.38026      248.38026      15323262       2.404137      -450786.14     -450786.14      101.85523     -450684.28     -1905.5007     -1977.2748     -2056.0453     -5.7709985     -16.859838     -15.219071      35067.999    
    186000   343.91328      0.093          0.19382705     0.1997739      0.20714862    -1976.3124      248.49394      248.49394      248.49394      15344311       2.4008392     -450208.24     -450208.24      101.48887     -450106.76     -1912.9243     -1971.6151     -2044.3979     -6.9104578     -13.53824      -21.909774      35394.19     
    187000   340.06366      0.0935         0.19423102     0.19944072     0.20466074    -1968.3608      248.60761      248.60761      248.60761      15365378       2.3975473     -449629.98     -449629.98      100.35285     -449529.63     -1916.9111     -1968.3269     -2019.8444     -5.6408529     -2.7306234     -24.405517      35081.129    
    188000   335.91231      0.094          0.1932514      0.19820784     0.20063398    -1947.8353      248.72129      248.72129      248.72129      15386465       2.3942615     -449053.36     -449053.36      99.127789     -448954.23     -1907.243      -1956.1593     -1980.1035     -5.256753       8.3097764     -12.291236      34436.386    
    189000   333.72835      0.0945         0.19070123     0.19637897     0.19678995    -1920.7835      248.83496      248.83496      248.83496      15407572       2.3909817     -448481.83     -448481.83      98.483301     -448383.34     -1882.0748     -1938.1098     -1942.1658     -7.2935353      17.310417      7.8440322      35079.849    
    190000   333.96073      0.095          0.18768698     0.19562593     0.19523309    -1903.2683      248.94864      248.94864      248.94864      15428697       2.3877079     -447917.35     -447917.35      98.551876     -447818.8      -1852.3264     -1930.6778     -1926.8008     -9.6431525      23.467532      19.834791      35402.587    
    191000   335.75739      0.0955         0.18441257     0.19592767     0.19570052    -1895.0268      249.06231      249.06231      249.06231      15449842       2.38444       -447359.86     -447359.86      99.08207      -447260.77     -1820.0106     -1933.6558     -1931.414      -11.023316      26.183786      19.346235      35394.747    
    192000   338.41958      0.096          0.18210027     0.19672784     0.19662833    -1893.1045      249.17599      249.17599      249.17599      15471006       2.3811782     -446803.33     -446803.33      99.867683     -446703.46     -1797.1899     -1941.5528     -1940.5707     -12.193071      25.511499      17.165254      34907.278    
    193000   339.39997      0.0965         0.18240972     0.19804253     0.19809472    -1903.2716      249.28966      249.28966      249.28966      15492190       2.3779222     -446241.21     -446241.21      100.157       -446141.06     -1800.244      -1954.5279     -1955.0429     -14.549766      20.987211      13.611118      35070.634    
    194000   337.86728      0.097          0.18462548     0.1985387      0.19798993    -1911.8483      249.40334      249.40334      249.40334      15513392       2.3746722     -445674.65     -445674.65      99.704699     -445574.94     -1822.1118     -1959.4246     -1954.0086     -17.800037      9.2193731      4.0068497      36018.628    
    195000   337.72736      0.0975         0.18672046     0.19673268     0.19448113    -1901.2559      249.51701      249.51701      249.51701      15534615       2.3714281     -445108.22     -445108.22      99.663411     -445008.55     -1842.7877     -1941.6006     -1919.3796     -16.685186     -6.0131141     -4.3637581      34533.453    
    196000   339.14589      0.098          0.18756512     0.19349466     0.19098716    -1881.8881      249.63069      249.63069      249.63069      15555856       2.3681899     -444548.47     -444548.47      100.08202     -444448.39     -1851.1238     -1909.6438     -1884.8967     -9.8331181     -12.534415     -7.425901       34974.209    
    197000   339.47289      0.0985         0.18686604     0.19008663     0.1907846     -1867.7104      249.74436      249.74436      249.74436      15577117       2.3649577     -443995.72     -443995.72      100.17852     -443895.54     -1844.2244     -1876.0092     -1882.8976     -3.4276155     -5.0109282     -15.410474      35198.191    
    198000   339.41016      0.099          0.18556563     0.18796474     0.192663      -1862.6314      249.85804      249.85804      249.85804      15598397       2.3617312     -443445.1      -443445.1       100.16        -443344.94     -1831.3904     -1855.0677     -1901.436      -2.6698675      8.7965034     -25.054529      34664.565    
    199000   340.2079       0.0995         0.18428559     0.18861134     0.1939021     -1864.6238      249.97171      249.97171      249.97171      15619697       2.3585107     -442892.98     -442892.98      100.39542     -442792.58     -1818.7574     -1861.4492     -1913.6649     -3.606355       19.469828     -23.863423      34617.31     
    200000   340.98373      0.1            0.18245501     0.19150501     0.19408734    -1868.7305      250.08539      250.08539      250.08539      15641016       2.355296      -442337.81     -442337.81      100.62436     -442237.18     -1800.691      -1890.0075     -1915.4931     -2.4674218      23.074377     -12.003468      29075.785    
    201000   340.15616      0.1005         0.18036413     0.19365382     0.1930082     -1865.371       250.19906      250.19906      250.19906      15662354       2.3520872     -441781.48     -441781.48      100.38015     -441681.1      -1780.0556     -1911.2146     -1904.8428     -2.6840254      18.889227      3.2893318      35580.507    
    202000   339.34235      0.101          0.1794303      0.19318956     0.19089055    -1853.8051      250.31274      250.31274      250.31274      15683712       2.3488841     -441227.97     -441227.97      100.13999     -441127.83     -1770.8393     -1906.6328     -1883.9432     -8.0573266      9.1379607      14.58416       34713.75     
    203000   338.55166      0.1015         0.17977764     0.19119522     0.19054023    -1847.2344      250.42641      250.42641      250.42641      15705089       2.3456869     -440677.39     -440677.39      99.906661     -440577.48     -1774.2674     -1886.9501     -1880.4858     -11.698898      0.073991232    15.308726      35082.644    
    204000   335.77968      0.102          0.18011668     0.18831193     0.19187519    -1843.2562      250.54009      250.54009      250.54009      15726486       2.3424955     -440127.45     -440127.45      99.088648     -440028.36     -1777.6134     -1858.4943     -1893.6609     -8.7205067     -3.5706392      4.5079369      34938.819    
    205000   333.64258      0.1025         0.17949922     0.18495956     0.19123039    -1828.0752      250.65376      250.65376      250.65376      15747902       2.3393099     -439578.18     -439578.18      98.45799      -439479.72     -1771.5196     -1825.4089     -1887.2972     -2.5598135     -1.5667956     -4.7886591      34716.234    
    206000   333.93629      0.103          0.17843455     0.18333328     0.18835739    -1809.7713      250.76744      250.76744      250.76744      15769337       2.33613       -439033.29     -439033.29      98.544663     -438934.74     -1761.0121     -1809.3588     -1858.9429     -1.5760789      3.913883      -1.9501951      34994.843    
    207000   334.48984      0.1035         0.17810888     0.18424864     0.18608111    -1804.2228      250.88111      250.88111      250.88111      15790792       2.332956      -438492.66     -438492.66      98.708017     -438393.95     -1757.798      -1818.3927     -1836.4778     -4.2199949      9.5865671      2.5062712      35213.786    
    208000   333.56819      0.104          0.1787895      0.18576283     0.18563051    -1809.9608      250.99479      250.99479      250.99479      15812266       2.3297876     -437950.38     -437950.38      98.436039     -437851.95     -1764.5151     -1833.3365     -1832.0307     -4.6626151      13.890924     -2.0706563      35202.893    
    209000   332.60082      0.1045         0.17890238     0.18618754     0.18634336    -1814.0744      251.10846      251.10846      251.10846      15833760       2.326625      -437405.36     -437405.36      98.150566     -437307.21     -1765.6292     -1837.5281     -1839.0659     -2.2753261      17.660211     -11.003228      34591.886    
    210000   333.84073      0.105          0.17771825     0.18538295     0.18677326    -1808.9463      251.22214      251.22214      251.22214      15855273       2.3234681     -436861.14     -436861.14      98.516465     -436762.62     -1753.9428     -1829.5874     -1843.3088      0.41177447     18.811544     -15.751519      35031.566    
    211000   336.60003      0.1055         0.17636337     0.18393405     0.18616926    -1797.7356      251.33581      251.33581      251.33581      15876806       2.3203169     -436319.77     -436319.77      99.330734     -436220.44     -1740.5712     -1815.288      -1837.3477      2.6217759      12.80359      -14.739177      35088.066    
    212000   338.67414      0.106          0.17503167     0.18260808     0.18476812    -1784.3832      251.44949      251.44949      251.44949      15898358       2.3171715     -435781.8      -435781.8       99.942805     -435681.85     -1727.4283     -1802.2016     -1823.5196      3.4691699      1.6952104     -12.974358      35741.878    
    213000   339.80637      0.1065         0.17385883     0.18184281     0.18337645    -1773.429       251.56317      251.56317      251.56317      15919930       2.3140317     -435247.09     -435247.09      100.27693     -435146.82     -1715.8533     -1794.649      -1809.7849      2.4246544     -6.599783      -9.6753326      34738.458    
    214000   339.52016      0.107          0.17330519     0.18142864     0.18319633    -1769.6527      251.67684      251.67684      251.67684      15941521       2.3108975     -434715.69     -434715.69      100.19246     -434615.5      -1710.3893     -1790.5615     -1808.0072      0.61620057    -4.659589      -4.003968       35229.158    
    215000   337.66833      0.1075         0.17292363     0.18089655     0.18379476    -1768.6156      251.79052      251.79052      251.79052      15963132       2.3077691     -434185.09     -434185.09      99.64599      -434085.45     -1706.6235     -1785.3101     -1813.9132     -0.53173088     1.6253922      2.5878193      35271.968    
    216000   334.95773      0.108          0.17292893     0.18043696     0.18356972    -1766.3808      251.90419      251.90419      251.90419      15984762       2.3046462     -433650.84     -433650.84      98.846091     -433551.99     -1706.6759     -1780.7743     -1811.6922     -0.46887538     3.7774374      11.790028      34789.417    
    217000   331.7309       0.1085         0.17355248     0.17990446     0.1820556     -1761.6993      252.01787      252.01787      252.01787      16006412       2.301529      -433114.46     -433114.46      97.893854     -433016.56     -1712.8298     -1775.519      -1796.7491     -1.1651682      2.7008427      18.611547      35098.684    
    218000   329.49955      0.109          0.17373609     0.17897618     0.18057603    -1754.3821      252.13154      252.13154      252.13154      16028081       2.2984175     -432579.82     -432579.82      97.235383     -432482.58     -1714.6419     -1766.3576     -1782.1469     -4.3380568      4.3654777      12.584124      35390.204    
[...]
   4235000   313.79325      2.1175         0.00047661183  0.00041901551  0.00029272769 -3.9093841      708.76472      708.76472      708.76472      3.5604614e+08  0.10346755    -19224.84      -19224.84       92.600449     -19132.24      -4.703793      -4.1353615     -2.8889977      0.028797543   -0.18379533     0.17206777     30284.888    
   4236000   312.5111       2.118          0.00046272153  0.00041474744  0.00028583985 -3.8269885      708.8784       708.8784       708.8784       3.5621748e+08  0.10341778    -19223.303     -19223.303      92.222085     -19131.081     -4.5667064     -4.093239      -2.82102        0.031160143   -0.1532201      0.15599311     29395.344    
   4237000   310.82549      2.1185         0.00044925785  0.00041044503  0.00027938459 -3.7473064      708.99208      708.99208      708.99208      3.5638888e+08  0.10336805    -19221.641     -19221.641      91.724662     -19129.917     -4.4338303     -4.0507775     -2.7573115      0.029889755   -0.13963942     0.13533491     28840.04     
   4238000   310.11262      2.119          0.00044377525  0.00040659734  0.00027714973 -3.70926        709.10575      709.10575      709.10575      3.5656033e+08  0.10331834    -19219.659     -19219.659      91.514296     -19128.145     -4.3797212     -4.0128037     -2.7352551      0.028520333   -0.18376838     0.11436364     29486.312    
   4239000   310.85051      2.1195         0.00044645687  0.0004021887   0.00027879988 -3.7090072      709.21943      709.21943      709.21943      3.5673183e+08  0.10326867    -19217.473     -19217.473      91.732047     -19125.741     -4.4061867     -3.9692939     -2.7515409      0.030176465   -0.27403937     0.098287483    30789.332    
   4240000   312.60702      2.12           0.00045279928  0.00039670888  0.00028079767 -3.7184171      709.3331       709.3331       709.3331       3.569034e+08   0.10321903    -19215.339     -19215.339      92.250391     -19123.088     -4.4687814     -3.9152123     -2.7712576      0.035331927   -0.37105547     0.088141427    28781.068    
   4241000   313.98467      2.1205         0.00045782058  0.00039055424  0.00027994668 -3.7118891      709.44678      709.44678      709.44678      3.5707501e+08  0.10316942    -19213.541     -19213.541      92.656936     -19120.884     -4.5183378     -3.8544706     -2.7628589      0.041601593   -0.43751901     0.085128105    28877.636    
   4242000   313.18667      2.121          0.00045854916  0.00038456494  0.00027504155 -3.6784461      709.56045      709.56045      709.56045      3.5724668e+08  0.10311984    -19212.1       -19212.1        92.421448     -19119.679     -4.5255283     -3.7953608     -2.7144491      0.043363862   -0.45372848     0.088016944    30750.26     
   4243000   311.33746      2.1215         0.0004547896   0.00037944481  0.00026704468 -3.6229265      709.67413      709.67413      709.67413      3.5741841e+08  0.1030703     -19210.81      -19210.81       91.875746     -19118.934     -4.4884244     -3.7448291     -2.635526       0.036731048   -0.42266083     0.093501973    29287.816    
   4244000   310.86024      2.122          0.00044792879  0.00037530545  0.00025768158 -3.5559366      709.7878       709.7878       709.7878       3.5759019e+08  0.10302079    -19209.411     -19209.411      91.734918     -19117.676     -4.4207135     -3.7039768     -2.5431194      0.0273608     -0.36357072     0.097498601    28791.425    
   4245000   311.29158      2.1225         0.00044139288  0.00037205688  0.00024995456 -3.4983282      709.90148      709.90148      709.90148      3.5776202e+08  0.1029713     -19207.794     -19207.794      91.862206     -19115.932     -4.356209      -3.671916      -2.4668597      0.020385126   -0.31295974     0.097082169    30649.372    
   4246000   311.33121      2.123          0.00043860071  0.00036900566  0.0002466102  -3.4681029      710.01515      710.01515      710.01515      3.5793391e+08  0.10292185    -19206.046     -19206.046      91.873902     -19114.172     -4.3286525     -3.6418027     -2.4338534      0.021431726   -0.30170671     0.09244765     29434.547    
   4247000   311.09284      2.1235         0.00044183049  0.00036500215  0.00024896351 -3.4732993      710.12883      710.12883      710.12883      3.5810586e+08  0.10287244    -19204.266     -19204.266      91.803559     -19112.463     -4.3605279     -3.6022911     -2.4570788      0.033431733   -0.34674667     0.086748518    28747.388    
   4248000   311.1474       2.124          0.0004504321   0.00036002395  0.00025576999 -3.507611       710.2425       710.2425       710.2425       3.5827786e+08  0.10282305    -19202.501     -19202.501      91.819659     -19110.682     -4.4454192     -3.5531601     -2.5242535      0.056043367   -0.43423958     0.082473548    30695.153    
   4249000   311.65038      2.1245         0.00045995296  0.00035520042  0.00026383934 -3.5496101      710.35618      710.35618      710.35618      3.5844992e+08  0.10277369    -19200.762     -19200.762      91.968088     -19108.794     -4.5393828     -3.5055556     -2.6038918      0.081284753   -0.5219425      0.078669017    31077.927    
   4250000   312.50736      2.125          0.00046466426  0.00035183058  0.0002693638  -3.5721972      710.46985      710.46985      710.46985      3.5862203e+08  0.10272437    -19199.075     -19199.075      92.220983     -19106.854     -4.5858797     -3.4722978     -2.658414       0.09378915    -0.56671559     0.071985659    30620.302    
   4251000   312.94811      2.1255         0.00046175664  0.00035060101  0.00027016595 -3.5612258      710.58353      710.58353      710.58353      3.5879419e+08  0.10267508    -19197.457     -19197.457      92.351048     -19105.106     -4.5571837     -3.460163      -2.6663307      0.083911652   -0.55026161     0.059082611    30765.848    
   4252000   312.14751      2.126          0.00045152673  0.00035128823  0.00026621225 -3.5168261      710.6972       710.6972       710.6972       3.5896642e+08  0.10262582    -19195.887     -19195.887      92.114791     -19103.772     -4.4562223     -3.4669453     -2.6273107      0.054617799   -0.48076199     0.04110862     31008.348    
   4253000   310.81382      2.1265         0.00043808476  0.00035355998  0.00025955587 -3.4581812      710.81088      710.81088      710.81088      3.5913869e+08  0.10257659    -19194.296     -19194.296      91.72122      -19102.575     -4.3235604     -3.4893657     -2.5616173      0.016412703   -0.38929841     0.02403418     30481.321    
   4254000   310.29908      2.127          0.00042597749  0.00035651996  0.00025279605 -3.4058508      710.92455      710.92455      710.92455      3.5931102e+08  0.10252739    -19192.67      -19192.67       91.569318     -19101.101     -4.2040709     -3.5185784     -2.4949031     -0.019247525   -0.30864425     0.013686878    30826.407    
   4255000   310.69716      2.1275         0.00041770128  0.00035923334  0.00024799291 -3.3717494      711.03823      711.03823      711.03823      3.5948341e+08  0.10247823    -19190.998     -19190.998      91.686791     -19099.311     -4.1223911     -3.5453574     -2.4474997     -0.043370312   -0.25789027     0.013177144    29757.778    
   4256000   311.31836      2.128          0.00041544685  0.00036090247  0.00024612685 -3.3636851      711.1519       711.1519       711.1519       3.5965585e+08  0.10242909    -19189.289     -19189.289      91.87011      -19097.419     -4.1001416     -3.5618305     -2.4290831     -0.04837134    -0.25182122     0.024775223    29934.605    
   4257000   311.71941      2.1285         0.00041973559  0.00036105872  0.00024706424 -3.3813917      711.26558      711.26558      711.26558      3.5982835e+08  0.10237999    -19187.652     -19187.652      91.988457     -19095.664     -4.1424682     -3.5633725     -2.4383344     -0.030799432   -0.29695748     0.044463727    30410.749    
   4258000   311.9543       2.129          0.00042904704  0.00035975652  0.00024957543 -3.4160013      711.37925      711.37925      711.37925      3.600009e+08   0.10233092    -19186.212     -19186.212      92.057776     -19094.154     -4.2343651     -3.5505208     -2.463118      -0.00040185025 -0.38549434     0.063338022    30735.509    
   4259000   312.56408      2.1295         0.00043965236  0.00035758524  0.00025218689 -3.4523382      711.49293      711.49293      711.49293      3.6017351e+08  0.10228188    -19185.021     -19185.021      92.237721     -19092.783     -4.3390315     -3.5290919     -2.4888911      0.028932223   -0.48345879     0.076282522    30448.493    
   4260000   313.58221      2.13           0.0004451347   0.00035532113  0.00025217902 -3.4628994      711.6066       711.6066       711.6066       3.6034617e+08  0.10223287    -19184.014     -19184.014      92.538171     -19091.476     -4.393138      -3.5067469     -2.4888134      0.049985233   -0.53439318     0.079712077    29547.932    
   4261000   313.77415      2.1305         0.00044028124  0.00035386503  0.00024742531 -3.4265041      711.72028      711.72028      711.72028      3.6051889e+08  0.10218389    -19183.079     -19183.079      92.594814     -19090.484     -4.345238      -3.4923763     -2.4418979      0.061080733   -0.49668835     0.071997181    30819.152    
   4262000   312.11081      2.131          0.00042957068  0.00035329702  0.00024074183 -3.3674135      711.83395      711.83395      711.83395      3.6069166e+08  0.10213494    -19182.078     -19182.078      92.103961     -19089.974     -4.239533      -3.4867705     -2.3759371      0.065770512   -0.40668643     0.055721748    28630.273    
   4263000   310.03966      2.1315         0.00042189877  0.0003530045   0.00023715288 -3.3294059      711.94763      711.94763      711.94763      3.6086449e+08  0.10208603    -19180.911     -19180.911      91.492766     -19089.418     -4.1638171     -3.4838835     -2.340517       0.067005738   -0.3404161      0.036122209    30758.69     
   4264000   309.83036      2.132          0.00042144473  0.00035223449  0.00023910334 -3.3317955      712.0613       712.0613       712.0613       3.6103737e+08  0.10203714    -19179.604     -19179.604      91.431        -19088.173     -4.1593361     -3.4762841     -2.3597664      0.067216884   -0.3399767      0.017604017    30754.176    
   4265000   311.81063      2.1325         0.00042409804  0.00035052283  0.00024404015 -3.3511342      712.17498      712.17498      712.17498      3.6121031e+08  0.10198829    -19178.424     -19178.424      92.015377     -19086.409     -4.1855222     -3.4593913     -2.4084891      0.068199154   -0.37927466     0.0023943794   28674.808    
   4266000   314.67606      2.133          0.00042483519  0.0003484892   0.00024861299 -3.3619126      712.28866      712.28866      712.28866      3.613833e+08   0.10193947    -19177.633     -19177.633      92.860966     -19084.772     -4.1927974     -3.439321      -2.4536195      0.066567902   -0.41614904    -0.011213616    29388.822    
   4267000   315.28991      2.1335         0.00042293561  0.0003474853   0.0002515498  -3.3620222      712.40233      712.40233      712.40233      3.6155635e+08  0.10189068    -19177.08      -19177.08       93.042114     -19084.037     -4.1740499     -3.4294133     -2.4826035      0.061028458   -0.43250922    -0.02441223     31439.604    
   4268000   311.89142      2.134          0.00041963841  0.00034861012  0.00025320088 -3.3603073      712.51601      712.51601      712.51601      3.6172945e+08  0.10184192    -19176.238     -19176.238      92.039218     -19084.199     -4.1415091     -3.4405143     -2.4988984      0.05141184    -0.4282644     -0.037200048    30280.005    
   4269000   308.73888      2.1345         0.00041777006  0.0003522373   0.00025489972 -3.3716822      712.62968      712.62968      712.62968      3.6190261e+08  0.10179319    -19174.792     -19174.792      91.108905     -19083.684     -4.1230699     -3.4763119     -2.5156646      0.039582913   -0.41580363    -0.047432672    29137.771    
   4270000   308.83234      2.135          0.00042196109  0.0003574644   0.00025916054 -3.4166824      712.74336      712.74336      712.74336      3.6207583e+08  0.10174449    -19173.046     -19173.046      91.136485     -19081.909     -4.1644322     -3.5278993     -2.5577157      0.029562804   -0.42719806    -0.051450393    30769.894    
   4271000   311.00602      2.1355         0.0004340638   0.0003623469   0.00026717643 -3.4989296      712.85703      712.85703      712.85703      3.622491e+08   0.10169583    -19171.366     -19171.366      91.777938     -19079.588     -4.2838766     -3.5760858     -2.6368264      0.024513445   -0.48413565    -0.046798096    31260.817    
   4272000   314.10931      2.136          0.00044799248  0.00036484471  0.00027554868 -3.5805111      712.97071      712.97071      712.97071      3.6242242e+08  0.10164719    -19169.821     -19169.821      92.693718     -19077.127     -4.421342      -3.6007374     -2.719454       0.022291199   -0.55404583    -0.034084467    29585.742    
   4273000   315.72017      2.1365         0.00045496881  0.0003638251   0.00027982846 -3.6141866      713.08438      713.08438      713.08438      3.625958e+08   0.10159859    -19168.324     -19168.324      93.169084     -19075.155     -4.4901931     -3.5906745     -2.7616921      0.018819868   -0.58071308    -0.016072169    29216.622    
   4274000   313.15237      2.137          0.00045220108  0.00036004653  0.00027918434 -3.590532       713.19806      713.19806      713.19806      3.6276924e+08  0.10155002    -19166.822     -19166.822      92.411324     -19074.411     -4.4628777     -3.553383      -2.7553352      0.0082061167  -0.54732705     0.0010105679   31493.009    
   4275000   310.23025      2.1375         0.00044528151  0.00035465684  0.00027667741 -3.5417905      713.31173      713.31173      713.31173      3.6294273e+08  0.10150147    -19165.339     -19165.339      91.549007     -19073.79      -4.3945869     -3.5001909     -2.7305937     -0.0076031189  -0.49166333     0.011889908    30952.653    
   4276000   310.47148      2.138          0.00044005086  0.00034875404  0.00027486054 -3.4991872      713.42541      713.42541      713.42541      3.6311628e+08  0.10145296    -19163.946     -19163.946      91.620196     -19072.326     -4.3429644     -3.4419348     -2.7126626     -0.021000365   -0.44885303     0.013508754    29486.171    
   4277000   312.1632       2.1385         0.00043843539  0.00034316329  0.00027453734 -3.4744174      713.53908      713.53908      713.53908      3.6328988e+08  0.10140448    -19162.756     -19162.756      92.11942      -19070.636     -4.3270209     -3.3867584     -2.7094729     -0.025444629   -0.42747278     0.0069954182   29995.55     
   4278000   314.07148      2.139          0.00044047201  0.00033822411  0.00027589658 -3.4693402      713.65276      713.65276      713.65276      3.6346353e+08  0.10135603    -19161.829     -19161.829      92.682555     -19069.146     -4.3471207     -3.3380125     -2.7228875     -0.016961216   -0.42947429    -0.0035218633   31367.352    
   4279000   315.39272      2.1395         0.0004425785   0.00033368448  0.0002766187  -3.4637114      713.76643      713.76643      713.76643      3.6363725e+08  0.10130761    -19161.055     -19161.055      93.072454     -19067.982     -4.3679102     -3.2932098     -2.7300143      0.0026753801  -0.43557251    -0.013725811    31339.531    
   4280000   313.7078       2.14           0.00043964167  0.00032942616  0.00027294303 -3.4279492      713.88011      713.88011      713.88011      3.6381101e+08  0.10125923    -19160.23      -19160.23       92.575233     -19067.655     -4.338926      -3.2511834     -2.6937383      0.02743716    -0.4121734     -0.021904926    30556.559    
   4281000   310.33054      2.1405         0.00043208575  0.00032573372  0.00026523947 -3.3656022      713.99378      713.99378      713.99378      3.6398484e+08  0.10121087    -19159.247     -19159.247      91.578602     -19067.668     -4.2643548     -3.2147418     -2.61771        0.048262298   -0.36587099    -0.027921908    30942.596    
   4282000   309.14417      2.141          0.00042959748  0.00032331968  0.00025960245 -3.3309305      714.10746      714.10746      714.10746      3.6415871e+08  0.10116254    -19158.142     -19158.142      91.228506     -19066.914     -4.2397975     -3.1909172     -2.562077       0.057280059   -0.36363592    -0.03301348     31306.691    
   4283000   310.94499      2.1415         0.00043722476  0.00032235618  0.00025942233 -3.3522601      714.22113      714.22113      714.22113      3.6433265e+08  0.10111425    -19157.056     -19157.056      91.759926     -19065.296     -4.3150729     -3.1814082     -2.5602993      0.055109441   -0.43578208    -0.038010137    31142.651    
   4284000   314.21948      2.142          0.00044430852  0.00032211003  0.00025947351 -3.3749225      714.33481      714.33481      714.33481      3.6450664e+08  0.10106598    -19156.225     -19156.225      92.72623      -19063.499     -4.3849841     -3.1789789     -2.5608044      0.047654571   -0.49887073    -0.043827182    30928.172    
   4285000   316.50667      2.1425         0.00044116586  0.00032202451  0.00025487417 -3.3491719      714.44848      714.44848      714.44848      3.6468068e+08  0.10101775    -19155.782     -19155.782      93.40118      -19062.381     -4.3539685     -3.1781348     -2.5154125      0.040476758   -0.47611904    -0.051319376    30711.137    
   4286000   313.8156       2.143          0.00043537325  0.00032124443  0.00025137277 -3.3160308      714.56216      714.56216      714.56216      3.6485478e+08  0.10096955    -19155.278     -19155.278      92.607045     -19062.671     -4.2967999     -3.170436      -2.4808564      0.034041757   -0.43097211    -0.058284615    30734.936    
   4287000   308.97847      2.1435         0.00043829283  0.00031951116  0.00025553793 -3.3336357      714.67583      714.67583      714.67583      3.6502893e+08  0.10092137    -19154.203     -19154.203      91.179606     -19063.023     -4.3256139     -3.1533299     -2.5219633      0.025996697   -0.45464997    -0.062282199    31107.85     
   4288000   308.8197       2.144          0.00044664426  0.00031688501  0.00026448198 -3.3818941      714.78951      714.78951      714.78951      3.6520315e+08  0.10087323    -19153.017     -19153.017      91.132755     -19061.884     -4.4080361     -3.1274119     -2.6102342      0.017547003   -0.52975936    -0.061726588    30983.702    
   4289000   312.7615       2.1445         0.00045318928  0.00031418825  0.00027268845 -3.421551       714.90318      714.90318      714.90318      3.6537741e+08  0.10082512    -19152.564     -19152.564      92.295979     -19060.268     -4.4726304     -3.100797      -2.6912258      0.009391951   -0.59862311    -0.057006799    30999.026    
   4290000   317.74558      2.145          0.00045425862  0.00031282445  0.00027679993 -3.4341081      715.01686      715.01686      715.01686      3.6555173e+08  0.10077704    -19152.74      -19152.74       93.766784     -19058.973     -4.483184      -3.0873373     -2.7318029      0.0015777683  -0.62786312    -0.048367485    31166.66     
   4291000   318.65177      2.1455         0.00044923054  0.00031370021  0.00027537826 -3.4157711      715.13053      715.13053      715.13053      3.6572611e+08  0.10072899    -19152.724     -19152.724      94.0342       -19058.69      -4.4335607     -3.0959803     -2.7177721     -0.0045356976  -0.60560629    -0.037654828    31038.66     
   4292000   312.68594      2.146          0.00044303842  0.00031674938  0.00026992604 -3.3874952      715.24421      715.24421      715.24421      3.6590054e+08  0.10068097    -19152.312     -19152.312      92.273682     -19060.038     -4.3724493     -3.1260733     -2.6639629     -0.0090702679  -0.56049145    -0.02859372     30737.586    
ERROR on proc 0: Pair distance > table outer cutoff: ijtype 1 1 dist 308.00003712331755 (src/pair_table_pgn.cpp:138)
Last command: run				${steps_tensile}
