LAMMPS (23 Jun 2022 - Update 1)
OMP_NUM_THREADS environment is not set. Defaulting to 1 thread. (src/comm.cpp:98)
  using 1 OpenMP thread(s) per MPI task
###

# Read restart info
read_restart ${read_res}
read_restart ./trial5/2080/equpmf71.res
Reading restart file ...
  restart file = 23 Jun 2022, LAMMPS = 23 Jun 2022
  restoring atom style atomic from restart
  orthogonal box = (1639.6108 1639.6108 1639.6108) to (2360.3892 2360.3892 2360.3892)
  1 by 2 by 2 MPI processor grid
  restoring pair style table from restart
  1000 atoms
  read_restart CPU = 0.211 seconds

# Settings
pair_style table/pgn spline 10941
pair_coeff 1 1 N20e.txt DE_GNP 308 72.9   # 1.35 * r
pair_coeff 2 2 N100e.txt DE_GNP 473.9 111.78
WARNING: 20 of 10941 force values in table DE_GNP are inconsistent with -dE/dr.
WARNING:  Should only be flagged at inflection points (src/pair_table_pgn.cpp:478)
pair_coeff 1 2 mixed_potentiale.txt DE_GNP 391.2 92.95
WARNING: 1564 of 10941 force values in table DE_GNP are inconsistent with -dE/dr.
WARNING:  Should only be flagged at inflection points (src/pair_table_pgn.cpp:478)

# Neighbor list
neighbor 2.0 bin
neigh_modify delay 0 every 1 check no once yes

# Temperature
variable T equal ${Temp}
variable T equal 300

# Deformation
reset_timestep 0
variable tmp equal "lx"
variable L0 equal ${tmp}
variable L0 equal 720.778302388879
variable strain equal "(lx - v_L0)/v_L0"
variable stp equal "step"
variable tmpe equal "temp"
variable p1 equal "v_strain"
variable p2 equal "-pxx*1.01325/10000"
variable p3 equal "-pyy*1.01325/10000"
variable p4 equal "-pzz*1.01325/10000"
variable p5 equal "lx"
variable p6 equal "ly"
variable p7 equal "lz"
variable p8 equal "press"
variable p9 equal "epair"
variable p10 equal "etotal"

# Thermo
thermo_style custom step temp v_p1 v_p2 v_p3 v_p4 press lx ly lz vol density epair pe ke etotal pxx pyy pzz pxy pxz pyz spcpu
thermo ${ts_save}
thermo 1000

# Dump
# dump 1 all custom 2000 ./${N20}${N100}/tensile/trajectory/trajectory_${usic}_${trial}_*.tensile.custom id type x y z ix iy iz
# dump_modify 1 sort id
dump 2 all cfg 20000 ./trial${trial}/${N20}${N100}/tensile/trajectory/dumpten.tens_${usic}_${trial}_*.cfg mass type xs ys zs fx fy fz
dump 2 all cfg 20000 ./trial5/${N20}${N100}/tensile/trajectory/dumpten.tens_${usic}_${trial}_*.cfg mass type xs ys zs fx fy fz
dump 2 all cfg 20000 ./trial5/20${N100}/tensile/trajectory/dumpten.tens_${usic}_${trial}_*.cfg mass type xs ys zs fx fy fz
dump 2 all cfg 20000 ./trial5/2080/tensile/trajectory/dumpten.tens_${usic}_${trial}_*.cfg mass type xs ys zs fx fy fz
dump 2 all cfg 20000 ./trial5/2080/tensile/trajectory/dumpten.tens_1_${trial}_*.cfg mass type xs ys zs fx fy fz
dump 2 all cfg 20000 ./trial5/2080/tensile/trajectory/dumpten.tens_1_5_*.cfg mass type xs ys zs fx fy fz
dump_modify 2 element N20 N100

fix 1 all nvt temp ${T} ${T} 100
fix 1 all nvt temp 300 ${T} 100
fix 1 all nvt temp 300 300 100
fix 2 all deform 1 x erate ${strain_rate} y erate ${strain_rate} z erate ${strain_rate} units box
fix 2 all deform 1 x erate 5e-6 y erate ${strain_rate} z erate ${strain_rate} units box
fix 2 all deform 1 x erate 5e-6 y erate 5e-6 z erate ${strain_rate} units box
fix 2 all deform 1 x erate 5e-6 y erate 5e-6 z erate 5e-6 units box
fix             def1 all print ${ts_save} "${p1} ${p2} ${p3} ${p4}" file ./tensile/tensile${N20}${N100}_${usic}_${trial}.txt screen no
fix             def1 all print 1000 "${p1} ${p2} ${p3} ${p4}" file ./tensile/tensile${N20}${N100}_${usic}_${trial}.txt screen no
fix             def1 all print 1000 "${p1} ${p2} ${p3} ${p4}" file ./tensile/tensile20${N100}_${usic}_${trial}.txt screen no
fix             def1 all print 1000 "${p1} ${p2} ${p3} ${p4}" file ./tensile/tensile2080_${usic}_${trial}.txt screen no
fix             def1 all print 1000 "${p1} ${p2} ${p3} ${p4}" file ./tensile/tensile2080_1_${trial}.txt screen no
fix             def1 all print 1000 "${p1} ${p2} ${p3} ${p4}" file ./tensile/tensile2080_1_5.txt screen no

timestep       		${ts}
timestep       		0.1
run				${steps_tensile}
run				6000000
Generated 0 of 1 mixed pair_coeff terms from geometric mixing rule
Unused restart file global fix info:
  fix style: npt, fix ID: 5
Neighbor list info ...
  update every 1 steps, delay 0 steps, check no
  max neighbors/atom: 2000, page size: 100000
  master list distance cutoff = 113.78
  ghost atom cutoff = 113.78
  binsize = 56.89, bins = 13 13 13
  1 neighbor lists, perpetual/occasional/extra = 1 0 0
  (1) pair table/pgn, perpetual
      attributes: half, newton on
      pair build: half/bin/atomonly/newton
      stencil: half/bin/3d
      bin: standard
Per MPI rank memory allocation (min/avg/max) = 3.844 | 3.847 | 3.85 Mbytes
   Step          Temp           v_p1           v_p2           v_p3           v_p4          Press            Lx             Ly             Lz           Volume        Density         E_pair         PotEng         KinEng         TotEng          Pxx            Pyy            Pzz            Pxy            Pxz            Pyz           S/CPU     
         0   307.93325      0              0.003993652    0.0087631795  -0.0027937522  -32.775983      720.7783       720.7783       720.7783       3.7445972e+08  1.694025      -48449824      -48449824       916.97265     -48448907      -39.414281     -86.485857      27.57219      -69.909944     -33.908787      3.6020731      0            
      1000   320.67602      0.0005         0.013354541    0.018272852    0.0066765614  -126.01021      721.13869      721.13869      721.13869      3.750217e+08   1.6914865     -48449249      -48449249       954.91843     -48448294      -131.79907     -180.33903     -65.892538     -68.906409     -33.533488      2.7142351      11150.987    
      2000   356.59807      0.001          0.021990651    0.027121728    0.015619191   -212.95031      721.49908      721.49908      721.49908      3.7558423e+08  1.6889531     -48448061      -48448061       1061.8881     -48446999      -217.03085     -267.67065     -154.14943     -68.532177     -32.739866      2.4665087      12114.583    
      3000   395.75571      0.0015         0.030122549    0.035234596    0.023909362   -293.66398      721.85947      721.85947      721.85947      3.7614732e+08  1.6864247     -48446291      -48446291       1178.4929     -48445112      -297.28645     -347.73842     -235.96706     -68.150701     -31.429075      2.4452317      12054.519    
      4000   424.45676      0.002          0.038215096    0.043085985    0.031965178   -372.61702      722.21986      722.21986      722.21986      3.7671098e+08  1.6839014     -48443923      -48443923       1263.9597     -48442659      -377.15367     -425.22561     -315.47177     -67.534749     -30.309795      1.8996193      12029.417    
      5000   439.0545       0.0025         0.046396934    0.051093026    0.040103849   -452.64844      722.58025      722.58025      722.58025      3.772752e+08   1.6813831     -48440926      -48440926       1307.4293     -48439618      -457.90214     -504.24896     -395.79421     -67.013386     -30.44536       1.238431       11880.533    
      6000   442.13673      0.003          0.054574473    0.05922897     0.048315756   -533.3307       722.94064      722.94064      722.94064      3.7783998e+08  1.6788698     -48437285      -48437285       1316.6077     -48435968      -538.60817     -584.54449     -476.83943     -66.18804      -31.56252       0.8709824      12195.877    
      7000   437.9294       0.0035         0.062751026    0.067396784    0.056576103   -614.27392      723.30103      723.30103      723.30103      3.7840533e+08  1.6763615     -48432999      -48432999       1304.079      -48431695      -619.30448     -665.15455     -558.36273     -64.543192     -32.02816       1.3045381      11960.85     
      8000   429.7752       0.004          0.070789381    0.075435647    0.064796651   -694.20735      723.66142      723.66142      723.66142      3.7897124e+08  1.6738582     -48428059      -48428059       1279.7972     -48426779      -698.63687     -744.49195     -639.49322     -62.753057     -31.331614      2.1546502      11975.111    
      9000   420.18399      0.0045         0.078487087    0.083133597    0.072761474   -771.05735      724.0218       724.0218       724.0218       3.7953771e+08  1.6713599     -48422457      -48422457       1251.2362     -48421206      -774.60732     -820.46481     -718.09991     -62.497723     -30.412959      2.1630327      11923.83     
     10000   411.0556       0.005          0.085859752    0.090534396    0.080368189   -844.68241      724.38219      724.38219      724.38219      3.8010475e+08  1.6688666     -48416213      -48416213       1224.0534     -48414989      -847.36987     -893.50501     -793.17235     -62.418576     -29.924227      1.0597916      11915.151    
     11000   403.12391      0.0055         0.093142761    0.097892771    0.087759943   -917.1658       724.74258      724.74258      724.74258      3.8067235e+08  1.6663783     -48409338      -48409338       1200.4342     -48408138      -919.24758     -966.12653     -866.12329     -60.886917     -29.593159     -0.052862311    12010.517    
     12000   396.28732      0.006          0.10044093     0.10528656     0.095050744   -989.48347      725.10297      725.10297      725.10297      3.8124052e+08  1.6638948     -48401838      -48401838       1180.076      -48400657      -991.27491     -1039.0976     -938.07791     -59.474973     -29.154482     -0.46866541     12075.989    
     13000   390.44028      0.0065         0.10768665     0.11257307     0.10226548    -1061.0254      725.46336      725.46336      725.46336      3.8180926e+08  1.6614163     -48393730      -48393730       1162.6645     -48392568      -1062.7846     -1111.0098     -1009.2818     -59.191442     -28.45145      -0.58988699     12276.968    
     14000   385.36485      0.007          0.11479609     0.11956445     0.10935623    -1130.7402      725.82375      725.82375      725.82375      3.8237855e+08  1.6589428     -48385037      -48385037       1147.5507     -48383889      -1132.9493     -1180.0093     -1079.2621     -58.906059     -28.245925     -0.95521612     12153.471    
     15000   381.21736      0.0075         0.12164607     0.12623916     0.11623523    -1197.8632      726.18414      726.18414      726.18414      3.8294842e+08  1.6564741     -48375761      -48375761       1135.2002     -48374626      -1200.5533     -1245.8837     -1147.1526     -57.728108     -28.468197     -0.93531991     12058.443    
     16000   378.30449      0.008          0.12826094     0.13285487     0.12297551    -1263.5622      726.54453      726.54453      726.54453      3.8351885e+08  1.6540103     -48365914      -48365914       1126.5262     -48364787      -1265.837      -1311.1756     -1213.6739     -55.934605     -27.909027     -0.21100456     12039.374    
     17000   376.1725       0.0085         0.13476693     0.13947288     0.12960614    -1328.5499      726.90492      726.90492      726.90492      3.8408984e+08  1.6515514     -48355510      -48355510       1120.1775     -48354390      -1330.0462     -1376.4903     -1279.1131     -54.492955     -26.827926      0.12507768     11718.941    
     18000   374.49683      0.009          0.14116648     0.14584913     0.13612299    -1392.0178      727.26531      727.26531      727.26531      3.846614e+08   1.6490974     -48344555      -48344555       1115.1876     -48343440      -1393.2049     -1439.419      -1343.4294     -54.02295      -26.023482     -0.29664788     12022.847    
     19000   373.39307      0.0095         0.14744843     0.15200907     0.14256168    -1454.1301      727.6257       727.6257       727.6257       3.8523353e+08  1.6466483     -48333062      -48333062       1111.9008     -48331950      -1455.2029     -1500.2129     -1406.9744     -53.854591     -25.219372     -0.15066423     12027.206    
     20000   372.91399      0.01           0.15359422     0.15811055     0.14887235    -1515.1809      727.98609      727.98609      727.98609      3.8580623e+08  1.644204      -48321044      -48321044       1110.4742     -48319934      -1515.857      -1560.4298     -1469.2558     -53.28772      -24.117746      0.60607202     1021.8318    
     21000   373.22857      0.0105         0.15958921     0.16406939     0.15488899    -1574.2992      728.34647      728.34647      728.34647      3.8637949e+08  1.6417645     -48308521      -48308521       1111.411      -48307409      -1575.0231     -1619.239      -1528.6355     -52.246522     -23.838028      1.1372251      10972.474    
     22000   374.29542      0.011          0.16548224     0.16985998     0.16067774    -1631.7788      728.70686      728.70686      728.70686      3.8695332e+08  1.6393299     -48295508      -48295508       1114.5878     -48294394      -1633.1828     -1676.3876     -1585.766      -50.905976     -24.22878       0.7614828      12019.576    
     23000   375.58755      0.0115         0.17119187     0.17558145     0.16637056    -1688.1121      729.06725      729.06725      729.06725      3.8752772e+08  1.6369        -48282010      -48282010       1118.4356     -48280891      -1689.5324     -1732.8541     -1641.9497     -49.743846     -23.822466     -0.40361426     11945.823    
     24000   376.61172      0.012          0.17671172     0.18125534     0.17202982    -1743.5542      729.42764      729.42764      729.42764      3.8810269e+08  1.634475      -48268026      -48268026       1121.4854     -48266905      -1744.0091     -1788.8512     -1697.8023     -48.952434     -22.90427      -0.82954681     11943.275    
     25000   377.33449      0.0125         0.18211555     0.1868124      0.17765388    -1798.1144      729.78803      729.78803      729.78803      3.8867822e+08  1.6320547     -48253565      -48253565       1123.6377     -48252441      -1797.3407     -1843.695      -1753.3075     -48.207662     -22.50489      -0.36086979     11983.727    
     26000   378.35293      0.013          0.18747892     0.1921614      0.1830972     -1851.2625      730.14842      730.14842      730.14842      3.8925433e+08  1.6296393     -48238643      -48238643       1126.6704     -48237517      -1850.2731     -1896.4856     -1807.0288     -47.418808     -21.923045     -0.41738535     12124.672    
     27000   380.11063      0.0135         0.19273258     0.19727375     0.18837356    -1902.7219      730.50881      730.50881      730.50881      3.89831e+08    1.6272285     -48223285      -48223285       1131.9046     -48222153      -1902.1227     -1946.9405     -1859.1025     -47.016938     -21.131862     -0.78046768     11983.286    
     28000   382.21517      0.014          0.19786142     0.20228216     0.19363834    -1953.3906      730.8692       730.8692       730.8692       3.9040824e+08  1.6248226     -48207490      -48207490       1138.1715     -48206352      -1952.7403     -1996.3697     -1911.0619     -46.121437     -20.786822     -0.95182794     12146.152    
     29000   384.40518      0.0145         0.20286487     0.20714497     0.19875938    -2002.695       731.22959      731.22959      731.22959      3.9098605e+08  1.6224214     -48191263      -48191263       1144.693      -48190118      -2002.1206     -2044.3619     -1961.6025     -44.645451     -19.851945     -1.2004136      12087.143    
     30000   386.87274      0.015          0.20775578     0.21189367     0.2036578     -2050.5214      731.58998      731.58998      731.58998      3.9156444e+08  1.6200249     -48174616      -48174616       1152.041      -48173464      -2050.3901     -2091.2279     -2009.9463     -43.131136     -18.984535     -0.85932291     11905.288    
     31000   389.20734      0.0155         0.21255979     0.21667749     0.20842393    -2097.7423      731.95037      731.95037      731.95037      3.9214339e+08  1.6176331     -48157558      -48157558       1158.993      -48156399      -2097.802      -2138.4406     -2056.9843     -41.843229     -18.295518      0.072913614    11949.484    
     32000   391.22972      0.016          0.21716663     0.22132826     0.21300029    -2143.2525      732.31076      732.31076      732.31076      3.9272291e+08  1.6152461     -48140099      -48140099       1165.0153     -48138934      -2143.268      -2184.3401     -2102.1495     -40.921611     -17.318408      0.33804809     11943.659    
     33000   393.25175      0.0165         0.22151092     0.22578488     0.21750333    -2187.0191      732.67114      732.67114      732.67114      3.93303e+08    1.6128637     -48122252      -48122252       1171.0366     -48121081      -2186.1428     -2228.3235     -2146.5909     -40.491189     -16.402469      0.30399048     11783.799    
     34000   395.2781       0.017          0.22573864     0.23011472     0.22199926    -2229.9617      733.03153      733.03153      733.03153      3.9388367e+08  1.610486      -48104034      -48104034       1177.0707     -48102857      -2227.8671     -2271.0557     -2190.9623     -39.623985     -15.912045      0.37314842     11936.355    
     35000   397.16343      0.0175         0.22999605     0.23423193     0.22631111    -2271.697       733.39192      733.39192      733.39192      3.944649e+08   1.608113      -48085452      -48085452       1182.6849     -48084269      -2269.8846     -2311.6894     -2233.517      -38.874162     -15.635182     -0.14729467     11784.821    
     36000   399.3555       0.018          0.23426836     0.23820354     0.23035757    -2312.1292      733.75231      733.75231      733.75231      3.9504671e+08  1.6057446     -48066507      -48066507       1189.2125     -48065317      -2312.049      -2350.8861     -2273.4524     -38.49603      -14.915329     -0.70134197     11792.95     
     37000   401.59404      0.0185         0.23847132     0.24224752     0.23446339    -2352.7666      734.1127       734.1127       734.1127       3.9562909e+08  1.6033809     -48047202      -48047202       1195.8785     -48046006      -2353.529      -2390.7971     -2313.9737     -37.370997     -13.488918     -0.18060049     11746.646    
     38000   403.14676      0.019          0.24241607     0.246294       0.2385511     -2392.5032      734.47309      734.47309      734.47309      3.9621204e+08  1.6010219     -48027540      -48027540       1200.5022     -48026339      -2392.4606     -2430.7328     -2354.3163     -36.015652     -12.136547      0.70919764     11850.692    
     39000   404.71572      0.0195         0.24618098     0.25012867     0.24243588    -2430.2838      734.83348      734.83348      734.83348      3.9679556e+08  1.5986674     -48007534      -48007534       1205.1743     -48006329      -2429.6174     -2468.578      -2392.6561     -35.355068     -11.773951      0.78530451     11714.757    
     40000   406.85369      0.02           0.24991997     0.25380384     0.24623175    -2467.162       735.19387      735.19387      735.19387      3.9737966e+08  1.5963176     -47987205      -47987205       1211.5408     -47985993      -2466.5183     -2504.8492     -2430.1184     -35.372434     -12.41063       0.091124826    1513.7021    
     41000   409.10858      0.0205         0.2535467      0.25731268     0.24992233    -2502.7772      735.55426      735.55426      735.55426      3.9796432e+08  1.5939724     -47966566      -47966566       1218.2555     -47965348      -2502.3113     -2539.4787     -2466.5417     -34.886188     -12.352414     -0.50490713     10999.816    
     42000   411.09343      0.021          0.25702999     0.26062166     0.253417      -2536.6186      735.91465      735.91465      735.91465      3.9854957e+08  1.5916317     -47945626      -47945626       1224.166      -47944402      -2536.6888     -2572.1358     -2501.0313     -33.401733     -10.401918     -0.24361616     11778.227    
     43000   412.50993      0.0215         0.26038441     0.26390749     0.25681641    -2569.6465      736.27504      736.27504      736.27504      3.9913538e+08  1.5892957     -47924382      -47924382       1228.3841     -47923153      -2569.7943     -2604.5644     -2534.5809     -32.571279     -8.6240041      0.98974029     11798.225    
     44000   413.46516      0.022          0.263595       0.2672011      0.26011653    -2601.9003      736.63543      736.63543      736.63543      3.9972177e+08  1.5869642     -47902828      -47902828       1231.2286     -47901597      -2601.4804     -2637.0699     -2567.1505     -32.302079     -8.3306944      2.4519152      11762.597    
     45000   414.52838      0.0225         0.26666676     0.27032618     0.26326365    -2632.6395      736.99581      736.99581      736.99581      4.0030873e+08  1.5846373     -47880986      -47880986       1234.3947     -47879751      -2631.7963     -2667.9119     -2598.2102     -31.148373     -8.5722774      2.8932374      11958.091    
     46000   415.7278       0.023          0.26974947     0.2733223      0.26636211    -2662.8304      737.3562       737.3562       737.3562       4.0089627e+08  1.5823149     -47858869      -47858869       1237.9664     -47857631      -2662.2203     -2697.4814     -2628.7896     -29.90682      -8.4126775      1.8373083      12014.095    
     47000   417.02824      0.0235         0.27290853     0.27629258     0.26949658    -2693.306       737.71659      737.71659      737.71659      4.0148438e+08  1.579997      -47836482      -47836482       1241.8389     -47835240      -2693.3977     -2726.7958     -2659.7245     -29.198481     -8.1814411      0.9002806      11842.429    
     48000   418.64725      0.024          0.27598304     0.27923118     0.27259343    -2723.2754      738.07698      738.07698      738.07698      4.0207307e+08  1.5776837     -47813821      -47813821       1246.66       -47812574      -2723.7408     -2755.7975     -2690.288      -28.87851      -8.5788902      1.0087289      11978.557    
     49000   420.24315      0.0245         0.27883703     0.28196186     0.27555965    -2751.4056      738.43737      738.43737      738.43737      4.0266233e+08  1.5753749     -47790899      -47790899       1251.4123     -47789648      -2751.9075     -2782.7472     -2719.5623     -28.145316     -8.6088369      1.1888893      12028.932    
     50000   421.74161      0.025          0.28148892     0.28439843     0.27830269    -2777.1693      738.79776      738.79776      738.79776      4.0325217e+08  1.5730706     -47767733      -47767733       1255.8745     -47766477      -2778.0796     -2806.7943     -2746.634      -26.930561     -7.6867176      1.0119594      11978.308    
     51000   423.55774      0.0255         0.28400907     0.28675805     0.28078677    -2801.3945      739.15815      739.15815      739.15815      4.0384258e+08  1.5707708     -47744337      -47744337       1261.2826     -47743076      -2802.9516     -2830.0819     -2771.15       -26.410338     -6.3240347      1.8819184      12036.858    
     52000   425.32446      0.026          0.28643351     0.28927217     0.28326434    -2825.7917      739.51854      739.51854      739.51854      4.0443357e+08  1.5684755     -47720715      -47720715       1266.5436     -47719448      -2826.8789     -2854.8943     -2795.6017     -25.809908     -5.1590206      2.5997211      11980.658    
     53000   426.29236      0.0265         0.28884755     0.29185473     0.28591057    -2850.9346      739.87893      739.87893      739.87893      4.0502513e+08  1.5661846     -47696856      -47696856       1269.4259     -47695586      -2850.7037     -2880.3822     -2821.718      -24.333075     -4.7515657      1.9800121      12171.512    
     54000   426.62694      0.027          0.29126294     0.29421296     0.28840524    -2874.8454      740.23932      740.23932      740.23932      4.0561728e+08  1.5638982     -47672764      -47672764       1270.4222     -47671493      -2874.5417     -2903.6562     -2846.3384     -23.640801     -5.3239722      1.798938       11557.69     
     55000   427.16515      0.0275         0.29355857     0.29620341     0.29056781    -2896.0598      740.59971      740.59971      740.59971      4.0621e+08     1.5616163     -47648463      -47648463       1272.0249     -47647191      -2897.1978     -2923.3004     -2867.6813     -23.966581     -6.1009847      2.2612982      11479.061    
     56000   428.02622      0.028          0.29563999     0.29802465     0.29248815    -2915.216       740.96009      740.96009      740.96009      4.0680329e+08  1.5593387     -47623974      -47623974       1274.589      -47622699      -2917.7399     -2941.2746     -2886.6336     -23.820589     -5.5654395      1.8893335      11859.678    
     57000   429.15546      0.0285         0.29753225     0.29983202     0.2943649     -2933.5609      741.32048      741.32048      741.32048      4.0739716e+08  1.5570657     -47599301      -47599301       1277.9517     -47598023      -2936.415      -2959.112      -2905.1557     -22.593731     -4.3304323      1.2197242      12024.761    
     58000   430.20998      0.029          0.29943851     0.3017317      0.2964256     -2952.8606      741.68087      741.68087      741.68087      4.0799162e+08  1.554797      -47574441      -47574441       1281.0919     -47573160      -2955.2283     -2977.8604     -2925.4932     -21.095587     -3.7136074      0.52186332     11884.63     
     59000   431.00638      0.0295         0.30138739     0.30367859     0.29858264    -2972.7729      742.04126      742.04126      742.04126      4.0858664e+08  1.5525327     -47549390      -47549390       1283.4634     -47548106      -2974.4623     -2997.0747     -2946.7816     -19.623229     -4.2423277      0.2649136      11713.836    
     60000   432.08033      0.03           0.30317416     0.30548941     0.30042253    -2990.6607      742.40165      742.40165      742.40165      4.0918225e+08  1.5502728     -47524163      -47524163       1286.6614     -47522876      -2992.0963     -3014.946      -2964.9398     -18.325626     -4.9417052      0.71160048     4313.483     
     61000   433.36561      0.0305         0.30480315     0.30716229     0.30188366    -3006.3298      742.76204      742.76204      742.76204      4.0977844e+08  1.5480174     -47498775      -47498775       1290.4888     -47497485      -3008.1732     -3031.4561     -2979.3601     -17.950938     -5.3973375      1.0211443      11398.984    
     62000   433.85016      0.031          0.30639503     0.30864716     0.30334044    -3021.2439      743.12243      743.12243      743.12243      4.103752e+08   1.5457662     -47473230      -47473230       1291.9317     -47471938      -3023.8838     -3046.1106     -2993.7374     -18.430369     -5.1202457      1.4702549      12041.304    
     63000   433.60322      0.0315         0.30793116     0.30998407     0.30493341    -3035.936       743.48282      743.48282      743.48282      4.1097255e+08  1.5435195     -47447536      -47447536       1291.1964     -47446245      -3039.0442     -3059.3049     -3009.4588     -18.844178     -3.7791299      1.8333862      12057.769    
     64000   433.51737      0.032          0.30932262     0.31120191     0.30643859    -3049.4716      743.84321      743.84321      743.84321      4.1157047e+08  1.5412771     -47421697      -47421697       1290.9407     -47420406      -3052.7769     -3071.324      -3024.3138     -18.194531     -1.9951288      1.5452867      11942.335    
     65000   434.05495      0.0325         0.31063512     0.31236587     0.30780251    -3062.1054      744.2036       744.2036       744.2036       4.1216897e+08  1.539039      -47395710      -47395710       1292.5415     -47394417      -3065.7302     -3082.8114     -3037.7746     -16.831415     -1.7548625      0.55727049     11861.203    
     66000   434.73617      0.033          0.31190884     0.31358458     0.30912113    -3074.6429      744.56399      744.56399      744.56399      4.1276805e+08  1.5368053     -47369590      -47369590       1294.5701     -47368296      -3078.301      -3094.8392     -3050.7884     -15.818998     -2.918731      -0.26589966     11828.529    
     67000   435.07582      0.0335         0.31305132     0.3147454      0.31035951    -3086.294       744.92438      744.92438      744.92438      4.1336772e+08  1.5345759     -47343356      -47343356       1295.5815     -47342061      -3089.5763     -3106.2956     -3063.0103     -14.877986     -3.451318       0.027767855    12070.137    
     68000   435.10848      0.034          0.31406426     0.31573928     0.31148274    -3096.5911      745.28476      745.28476      745.28476      4.1396796e+08  1.5323508     -47317008      -47317008       1295.6787     -47315712      -3099.5732     -3116.1044     -3074.0956     -13.586053     -2.2367761      0.81456918     12093.092    
     69000   435.23392      0.0345         0.31496582     0.31657138     0.31240109    -3105.3156      745.64515      745.64515      745.64515      4.1456879e+08  1.53013       -47290550      -47290550       1296.0523     -47289254      -3108.471      -3124.3166     -3083.1591     -12.440857     -0.27087819     0.91145264     11769.558    
     70000   435.7124       0.035          0.31581118     0.31719776     0.3131467     -3112.6101      746.00554      746.00554      746.00554      4.1517019e+08  1.5279135     -47263995      -47263995       1297.4771     -47262698      -3116.814      -3130.4985     -3090.5176     -11.690007      0.60743696     0.28480638     11878.541    
     71000   435.98362      0.0355         0.31658478     0.31785388     0.31396674    -3120.0112      746.36593      746.36593      746.36593      4.1577218e+08  1.5257013     -47237346      -47237346       1298.2848     -47236048      -3124.4489     -3136.9739     -3098.6108     -11.600123     -0.012428274   -0.70377641     11873.864    
     72000   435.55483      0.036          0.31723512     0.31866269     0.3148218     -3127.6243      746.72632      746.72632      746.72632      4.1637475e+08  1.5234933     -47210607      -47210607       1297.0079     -47209310      -3130.8672     -3144.9562     -3107.0496     -11.6472       -0.43867884    -1.5613449      11782.468    
     73000   434.98639      0.0365         0.31778716     0.31931407     0.31553326    -3133.9238      747.08671      747.08671      747.08671      4.169779e+08   1.5212896     -47183789      -47183789       1295.3152     -47182494      -3136.3155     -3151.3849     -3114.0712     -10.473434     -0.051566643   -1.2944122      11912.691    
     74000   434.78898      0.037          0.31827319     0.31972142     0.31615153    -3138.8967      747.4471       747.4471       747.4471       4.1758163e+08  1.5190901     -47156901      -47156901       1294.7273     -47155606      -3141.1122     -3155.4051     -3120.173      -8.8587768      0.64843999    -0.49906368     11998.584    
     75000   434.73504      0.0375         0.31869288     0.32000055     0.31675859    -3143.1927      747.80749      747.80749      747.80749      4.1818594e+08  1.5168949     -47129943      -47129943       1294.5667     -47128648      -3145.2541     -3158.1599     -3126.1642     -8.1662948      0.94477076    -0.046992854    12003.542    
     76000   434.71473      0.038          0.31906539     0.32025807     0.31733394    -3147.1582      748.16788      748.16788      748.16788      4.1879084e+08  1.5147039     -47102916      -47102916       1294.5062     -47101622      -3148.9306     -3160.7014     -3131.8425     -7.9524503      1.0713017     -0.17307099     12000.593    
     77000   434.67768      0.0385         0.31945353     0.32057168     0.31778213    -3150.9412      748.52827      748.52827      748.52827      4.1939632e+08  1.5125172     -47075830      -47075830       1294.3959     -47074536      -3152.7612     -3163.7965     -3136.2658     -7.0466874      1.6882768     -0.5875417      12104.095    
     78000   434.57276      0.039          0.31988527     0.32083718     0.31798806    -3153.9124      748.88866      748.88866      748.88866      4.2000238e+08  1.5103346     -47048695      -47048695       1294.0835     -47047400      -3157.0222     -3166.4168     -3138.2982     -5.8000653      2.0117848     -0.52242649     11879.154    
     79000   434.5341       0.0395         0.32010275     0.32088544     0.31798179    -3154.766       749.24905      749.24905      749.24905      4.2060903e+08  1.5081562     -47021530      -47021530       1293.9683     -47020236      -3159.1686     -3166.8931     -3138.2363     -5.1012059      2.0077353     -0.29053515     11998.421    
     80000   434.36148      0.04           0.31991589     0.32076142     0.31795764    -3153.6638      749.60943      749.60943      749.60943      4.2121626e+08  1.5059821     -46994339      -46994339       1293.4543     -46993046      -3157.3244     -3165.6691     -3137.9979     -5.2855547      1.9250877     -1.0680979      4553.0997    
     81000   433.5106       0.0405         0.31961753     0.32061306     0.31806984    -3152.5633      749.96982      749.96982      749.96982      4.2182408e+08  1.5038121     -46967118      -46967118       1290.9205     -46965827      -3154.3797     -3164.2049     -3139.1053     -5.3562703      2.4846168     -1.1710635      11202.669    
     82000   432.37134      0.041          0.31948387     0.32044589     0.31811316    -3151.7162      750.33021      750.33021      750.33021      4.2243248e+08  1.5016462     -46939868      -46939868       1287.528      -46938580      -3153.0607     -3162.555      -3139.5328     -3.8034716      3.0362781     -0.48976372     12016.752    
     83000   431.76218      0.0415         0.31946341     0.32024215     0.31786337    -3150.1568      750.6906       750.6906       750.6906       4.2304146e+08  1.4994845     -46912603      -46912603       1285.714      -46911317      -3152.8587     -3160.5442     -3137.0676     -1.1200381      2.7889058      0.32084904     12071.945    
     84000   431.65993      0.042          0.31930362     0.32005959     0.31758354    -3148.1101      751.05099      751.05099      751.05099      4.2365103e+08  1.497327      -46885340      -46885340       1285.4096     -46884055      -3151.2817     -3158.7426     -3134.3058      0.47229213     1.9591299      0.64991308     12163.18     
     85000   431.62923      0.0425         0.31894001     0.31968618     0.3174367     -3145.2023      751.41138      751.41138      751.41138      4.2426119e+08  1.4951736     -46858084      -46858084       1285.3181     -46856799      -3147.6931     -3155.0572     -3132.8567      0.41066794     1.2560891      0.30828973     12123.494    
     86000   431.39945      0.043          0.31857348     0.31916468     0.31725781    -3141.6925      751.77177      751.77177      751.77177      4.2487193e+08  1.4930243     -46830827      -46830827       1284.6339     -46829543      -3144.0758     -3149.9105     -3131.0912     -0.031264184    0.92416392    -0.13049643     12128        
     87000   430.90293      0.0435         0.3181438      0.31862891     0.31685356    -3137.1865      752.13216      752.13216      752.13216      4.2548326e+08  1.4908792     -46803573      -46803573       1283.1554     -46802290      -3139.8352     -3144.6228     -3127.1015      0.53123692     1.0202481     -0.0054784385   12141.906    
     88000   430.06926      0.044          0.31752898     0.31804215     0.31624979    -3131.2474      752.49255      752.49255      752.49255      4.2609517e+08  1.4887382     -46776334      -46776334       1280.6728     -46775053      -3133.7674     -3138.832      -3121.1428      2.0724635      1.6273393      0.23928987     12093.66     
     89000   428.90975      0.0445         0.3168244      0.31738583     0.31560116    -3124.6365      752.85294      752.85294      752.85294      4.2670767e+08  1.4866012     -46749121      -46749121       1277.22       -46747844      -3126.8137     -3132.3546     -3114.7413      3.4176697      2.9989903      0.38500969     12142.675    
     90000   427.82443      0.045          0.31603742     0.3166663      0.3149089     -3117.4031      753.21333      753.21333      753.21333      4.2732075e+08  1.4844684     -46721948      -46721948       1273.9881     -46720674      -3119.0468     -3125.2534     -3107.9092      3.7671928      4.3710678      0.33805973     11904.474    
     91000   427.40242      0.0455         0.3152066      0.31586664     0.31421128    -3109.7443      753.57372      753.57372      753.57372      4.2793443e+08  1.4823396     -46694814      -46694814       1272.7314     -46693541      -3110.8473     -3117.3614     -3101.0242      4.0627878      4.3433985     -0.13378642     11700.877    
     92000   426.99669      0.046          0.31455255     0.3151091      0.31374715    -3103.5737      753.9341       753.9341       753.9341       4.2854869e+08  1.4802149     -46667707      -46667707       1271.5232     -46666436      -3104.3923     -3109.8851     -3096.4436      4.3476219      2.8341403     -0.12835642     11753.792    
     93000   425.80641      0.0465         0.31392815     0.31426424     0.31325289    -3097.1142      754.29449      754.29449      754.29449      4.2916353e+08  1.4780942     -46640629      -46640629       1267.9788     -46639361      -3098.23       -3101.5469     -3091.5657      4.589246       1.4036805      1.1852769      12045.667    
     94000   424.33066      0.047          0.31309256     0.31315247     0.31235702    -3087.7607      754.65488      754.65488      754.65488      4.2977897e+08  1.4759776     -46613597      -46613597       1263.5842     -46612334      -3089.9834     -3090.5746     -3082.7241      5.346232       1.0771293      3.369756       12107.02     
     95000   423.10698      0.0475         0.31202872     0.31202504     0.31116573    -3076.6329      755.01527      755.01527      755.01527      4.3039499e+08  1.473865      -46586631      -46586631       1259.9403     -46585371      -3079.484      -3079.4477     -3070.967       6.4092131      1.8492641      4.6018903      12177.955    
     96000   422.09673      0.048          0.31080182     0.31102726     0.30999905    -3065.4762      755.37566      755.37566      755.37566      4.310116e+08   1.4717565     -46559728      -46559728       1256.932      -46558471      -3067.3755     -3069.6004     -3059.4527      7.0214199      2.5149313      4.489356       12021.561    
     97000   421.23604      0.0485         0.30948132     0.31001542     0.30894045    -3054.3209      755.73605      755.73605      755.73605      4.316288e+08   1.469652      -46532893      -46532893       1254.369      -46531639      -3054.3432     -3059.6143     -3049.0052      7.0816531      2.5275213      3.4740635      12025.883    
     98000   420.3448       0.049          0.30824829     0.30887373     0.30789972    -3043.0849      756.09644      756.09644      756.09644      4.3224659e+08  1.4675515     -46506137      -46506137       1251.715      -46504885      -3042.1741     -3048.3467     -3038.734       7.1814258      2.3328803      2.4707411      12010.429    
     99000   419.16797      0.0495         0.30709403     0.30752468     0.30677413    -3031.1468      756.45683      756.45683      756.45683      4.3286497e+08  1.465455      -46479459      -46479459       1248.2106     -46478211      -3030.7824     -3035.0326     -3027.6253      8.490388       2.1750698      2.5682633      12084.413    
    100000   417.62793      0.05           0.30590148     0.30615973     0.30556758    -3018.764       756.81722      756.81722      756.81722      4.3348394e+08  1.4633625     -46452855      -46452855       1243.6247     -46451611      -3019.0129     -3021.5616     -3015.7175      9.8873095      2.2651434      4.0006644      11730.022    
    101000   415.9194       0.0505         0.30451656     0.30480069     0.30425708    -3005.4259      757.17761      757.17761      757.17761      4.341035e+08   1.461274      -46426334      -46426334       1238.5369     -46425095      -3005.3448     -3008.1489     -3002.7839      9.6661429      2.7617351      5.3060673      12077.906    
    102000   414.62037      0.051          0.30300874     0.30336399     0.30284704    -2991.1005      757.538        757.538        757.538        4.3472364e+08  1.4591894     -46399910      -46399910       1234.6687     -46398676      -2990.4638     -2993.9698     -2988.8679      9.1531799      3.1536185      5.4386976      11980.86     
    103000   413.53807      0.0515         0.3015523      0.3019643      0.3014547     -2977.1241      757.89838      757.89838      757.89838      4.3534438e+08  1.4571088     -46373589      -46373589       1231.4457     -46372358      -2976.0898     -2980.1559     -2975.1266      9.7688489      2.6134945      5.1231604      11979.771    
    104000   412.4556       0.052          0.30004287     0.30045397     0.30001206    -2962.444       758.25877      758.25877      758.25877      4.3596571e+08  1.4550322     -46347370      -46347370       1228.2223     -46346142      -2961.1929     -2965.2502     -2960.8888      11.2755        2.2705255      5.2572752      11800.881    
    105000   411.48782      0.0525         0.29842396     0.29878933     0.29842361    -2946.4163      758.61916      758.61916      758.61916      4.3658763e+08  1.4529595     -46321262      -46321262       1225.3405     -46320037      -2945.2155     -2948.8214     -2945.2121      12.37285       2.7540928      5.4863648      12007.667    
    106000   410.66592      0.053          0.29684796     0.2971479      0.29676109    -2930.3625      758.97955      758.97955      758.97955      4.3721014e+08  1.4508907     -46295270      -46295270       1222.893      -46294047      -2929.6616     -2932.6218     -2928.8042      12.266233      3.6762389      5.7904706      11907.465    
    107000   409.69256      0.0535         0.29527269     0.29557352     0.29516995    -2914.7666      759.33994      759.33994      759.33994      4.3783324e+08  1.4488259     -46269391      -46269391       1219.9945     -46268171      -2914.1149     -2917.0839     -2913.1009      11.39477       4.219511       5.806962       11835.387    
    108000   408.21869      0.054          0.29354777     0.29386323     0.29363617    -2898.4198      759.70033      759.70033      759.70033      4.3845694e+08  1.446765      -46243629      -46243629       1215.6055     -46242414      -2897.0912     -2900.2046     -2897.9637      11.09568       4.0886659      5.9025174      11968.62     
    109000   406.42948      0.0545         0.29169425     0.29195273     0.29195477    -2880.5058      760.06072      760.06072      760.06072      4.3908122e+08  1.4447079     -46217996      -46217996       1210.2776     -46216786      -2878.7984     -2881.3495     -2881.3696      11.353986      3.7016457      6.492974       12111.952    
    110000   404.64207      0.055          0.28977937     0.29001436     0.29006969    -2861.6281      760.42111      760.42111      760.42111      4.397061e+08   1.4426548     -46192498      -46192498       1204.955      -46191293      -2859.9001     -2862.2192     -2862.7652      12.548922      3.3533767      6.9098969      12089.706    
    111000   403.134        0.0555         0.28783839     0.28817782     0.28823786    -2843.1749      760.7815       760.7815       760.7815       4.4033157e+08  1.4406056     -46167138      -46167138       1200.4642     -46165937      -2840.7441     -2844.094      -2844.6865      13.635061      3.0719393      6.8241738      11705.113    
    112000   401.76215      0.056          0.28589893     0.28635927     0.28664452    -2825.5702      761.14189      761.14189      761.14189      4.4095764e+08  1.4385603     -46141909      -46141909       1196.3791     -46140713      -2821.603      -2826.1462     -2828.9615      13.784063      3.2071603      7.018974       11955.334    
    113000   400.1132       0.0565         0.28418649     0.28450693     0.28511094    -2808.798       761.50228      761.50228      761.50228      4.4158429e+08  1.4365188     -46116807      -46116807       1191.4688     -46115616      -2804.7026     -2807.8651     -2813.8262      13.721688      3.4230982      7.7620159      12073.314    
    114000   398.43749      0.057          0.28251296     0.28256881     0.283237      -2790.7518      761.86267      761.86267      761.86267      4.4221154e+08  1.4344812     -46091843      -46091843       1186.4788     -46090656      -2788.1861     -2788.7373     -2795.3318      13.858636      3.934669       8.7462988      11994.51     
    115000   397.20937      0.0575         0.28057975     0.2805704      0.28107708    -2770.7122      762.22305      762.22305      762.22305      4.4283939e+08  1.4324474     -46067030      -46067030       1182.8217     -46065847      -2769.1068     -2769.0145     -2774.0151      14.065871      4.7627989      9.0468352      12043.824    
    116000   396.22304      0.058          0.27838002     0.27859253     0.27895804    -2749.9978      762.58344      762.58344      762.58344      4.4346783e+08  1.4304175     -46042371      -46042371       1179.8846     -46041191      -2747.3971     -2749.4945     -2753.1018      13.914064      5.7093285      8.3364574      11776.745    
    117000   395.31657      0.0585         0.27611301     0.27660048     0.27698823    -2729.5065      762.94383      762.94383      762.94383      4.4409686e+08  1.4283914     -46017863      -46017863       1177.1852     -46016686      -2725.0236     -2729.8345     -2733.6613      13.723688      6.3202822      7.6408056      11893.695    
    118000   394.28012      0.059          0.27406249     0.27456895     0.27516152    -2710.0681      763.30422      763.30422      763.30422      4.4472649e+08  1.4263691     -45993510      -45993510       1174.0989     -45992336      -2704.7865     -2709.7849     -2715.633       14.192854      6.2458306      7.7220446      12027.121    
    119000   392.80809      0.0595         0.27225473     0.27246181     0.27327354    -2690.9781      763.66461      763.66461      763.66461      4.4535671e+08  1.4243507     -45969316      -45969316       1169.7154     -45968146      -2686.9452     -2688.989      -2697.0002      15.250313      6.2056089      7.3092327      11955.995    
    120000   391.06649      0.06           0.27036314     0.27032979     0.27126531    -2671.1349      764.025        764.025        764.025        4.4598752e+08  1.4223361     -45945279      -45945279       1164.5292     -45944115      -2668.2767     -2667.9476     -2677.1805      15.626921      6.452105       6.6388458      307.15036    
    121000   389.56904      0.0605         0.26818026     0.26818926     0.26923191    -2650.2227      764.38539      764.38539      764.38539      4.4661894e+08  1.4203252     -45921402      -45921402       1160.0701     -45920242      -2646.7334     -2646.8222     -2657.1124      15.024291      6.5811455      7.1505517      11176.991    
    122000   388.35878      0.061          0.26587955     0.26620021     0.26725854    -2629.6186      764.74578      764.74578      764.74578      4.4725094e+08  1.4183182     -45897682      -45897682       1156.4661     -45896525      -2624.0271     -2627.1918     -2637.6367      14.729662      6.6298967      8.7040966      11802.08     
    123000   386.90844      0.0615         0.26380152     0.26430306     0.2653478     -2610.2554      765.10617      765.10617      765.10617      4.4788355e+08  1.4163149     -45874110      -45874110       1152.1473     -45872958      -2603.5186     -2608.4684     -2618.7792      15.365461      7.0907125      9.6144693      12019.01     
    124000   385.09415      0.062          0.26190748     0.26233662     0.26344762    -2591.3043      765.46656      765.46656      765.46656      4.4851675e+08  1.4143154     -45850685      -45850685       1146.7446     -45849538      -2584.8259     -2589.0611     -2600.0259      15.722955      7.3565277      9.1161561      11799.899    
    125000   383.23801      0.0625         0.2598779      0.26020805     0.26149546    -2571.2029      765.82695      765.82695      765.82695      4.4915054e+08  1.4123196     -45827418      -45827418       1141.2173     -45826277      -2564.7954     -2568.0538     -2580.7595      15.076628      7.2112774      8.1739709      11798.407    
    126000   381.59287      0.063          0.25766818     0.25795584     0.25933887    -2549.4297      766.18734      766.18734      766.18734      4.4978494e+08  1.4103277     -45804322      -45804322       1136.3184     -45803186      -2542.9873     -2545.8262     -2559.4756      14.827468      7.3293071      8.2428695      11888.319    
    127000   380.31585      0.0635         0.25540928     0.25572793     0.25707168    -2527.2108      766.54772      766.54772      766.54772      4.5041993e+08  1.4083394     -45781400      -45781400       1132.5157     -45780267      -2520.6936     -2523.8385     -2537.1002      15.80652       7.683895       9.0753712      11854.352    
    128000   379.12592      0.064          0.25324877     0.25361424     0.25496169    -2506.2084      766.90811      766.90811      766.90811      4.5105552e+08  1.4063549     -45758649      -45758649       1128.9722     -45757520      -2499.3711     -2502.978      -2516.2762      16.651112      8.0881571      9.4159431      11958.173    
    129000   377.71832      0.0645         0.25128728     0.25169598     0.25317896    -2487.5803      767.2685       767.2685       767.2685       4.516917e+08   1.4043741     -45736051      -45736051       1124.7806     -45734926      -2480.0126     -2484.0462     -2498.682       16.519013      7.9012447      8.7787438      11997.417    
    130000   376.05476      0.065          0.24940512     0.24975598     0.25151912    -2469.5459      767.62889      767.62889      767.62889      4.5232848e+08  1.4023971     -45713597      -45713597       1119.8269     -45712477      -2461.4371     -2464.8999     -2482.3008      15.641928      7.5406741      8.2320535      12209.982    
    131000   374.61649      0.0655         0.24746425     0.24771051     0.24960831    -2450.1458      767.98928      767.98928      767.98928      4.5296587e+08  1.4004237     -45691289      -45691289       1115.5439     -45690174      -2442.2823     -2444.7127     -2463.4425      14.579869      7.243286       8.0337188      12116.602    
    132000   373.34206      0.066          0.24540625     0.24571086     0.24742877    -2429.6271      768.34967      768.34967      768.34967      4.5360385e+08  1.398454      -45669142      -45669142       1111.7489     -45668030      -2421.9714     -2424.9777     -2441.9321      14.480115      7.365337       7.6502551      12066.746    
    133000   372.01408      0.0665         0.24323509     0.24372297     0.24525688    -2408.7999      768.71006      768.71006      768.71006      4.5424242e+08  1.3964881     -45647162      -45647162       1107.7944     -45646054      -2400.5437     -2405.3587     -2420.4972      14.977953      7.3976815      6.9120782      11854.488    
    134000   370.95749      0.067          0.241067       0.24169751     0.2432524     -2388.4099      769.07045      769.07045      769.07045      4.548816e+08   1.3945258     -45625347      -45625347       1104.648      -45624242      -2379.1463     -2385.369      -2400.7146      15.227058      7.259002       6.5853903      12496.968    
    135000   370.22594      0.0675         0.23911596     0.23977819     0.2414123     -2369.624       769.43084      769.43084      769.43084      4.5552138e+08  1.3925672     -45603690      -45603690       1102.4696     -45602587      -2359.891      -2366.4267     -2382.5542      15.076267      6.7944976      7.2793362      12106.129    
    136000   369.07341      0.068          0.23735699     0.2379805      0.23965206    -2352.1327      769.79123      769.79123      769.79123      4.5616176e+08  1.3906123     -45582174      -45582174       1099.0376     -45581075      -2342.5314     -2348.6849     -2365.1819      15.234889      6.6666905      8.4980955      12302.319    
    137000   367.20984      0.0685         0.23556737     0.23614107     0.23784846    -2334.2607      770.15162      770.15162      770.15162      4.5680273e+08  1.388661      -45560796      -45560796       1093.4882     -45559703      -2324.8692     -2330.5311     -2347.3818      15.887487      6.7900021      9.2238485      11984.151    
    138000   365.6518       0.069          0.23367183     0.23410438     0.23591001    -2314.9477      770.51201      770.51201      770.51201      4.5744431e+08  1.3867134     -45539575      -45539575       1088.8486     -45538486      -2306.1617     -2310.4306     -2328.2508      15.857387      6.6765851      9.1369352      12094.93     
    139000   364.60496      0.0695         0.23178651     0.23209143     0.23399354    -2295.8187      770.87239      770.87239      770.87239      4.5808649e+08  1.3847694     -45518510      -45518510       1085.7313     -45517424      -2287.555      -2290.5644     -2309.3367      14.71989       6.2833414      8.087067       12100.524    
    140000   363.3615       0.07           0.22991864     0.23029072     0.23217456    -2277.766       771.23278      771.23278      771.23278      4.5872926e+08  1.382829      -45497587      -45497587       1082.0285     -45496505      -2269.1205     -2272.7927     -2291.3847      13.977537      5.9363008      7.1061371      164.26402    
    141000   361.90724      0.0705         0.22807619     0.22860151     0.23033964    -2260.1113      771.59317      771.59317      771.59317      4.5937264e+08  1.3808923     -45476805      -45476805       1077.698      -45475727      -2250.937      -2256.1215     -2273.2755      14.653258      5.3562797      6.8265124      10841.545    
    142000   360.63631      0.071          0.22625884     0.22696998     0.22855122    -2242.8819      771.95356      771.95356      771.95356      4.6001662e+08  1.3789592     -45456162      -45456162       1073.9134     -45455089      -2233.0011     -2240.0195     -2255.6251      15.636092      4.7018931      7.1769622      11959.826    
    143000   359.28693      0.0715         0.22464718     0.22541197     0.2269765     -2227.2741      772.31395      772.31395      772.31395      4.6066121e+08  1.3770296     -45435648      -45435648       1069.8951     -45434578      -2217.0953     -2224.6432     -2240.0839      15.728429      4.7369732      7.6234941      12056.805    
    144000   357.86206      0.072          0.22322426     0.22376101     0.22543371    -2212.0865      772.67434      772.67434      772.67434      4.6130639e+08  1.3751037     -45415251      -45415251       1065.6521     -45414185      -2203.0522     -2208.3495     -2224.8578      14.637247      4.9366281      8.0839637      12117.943    
    145000   356.99248      0.0725         0.22176026     0.22200637     0.22371391    -2195.8402      773.03473      773.03473      773.03473      4.6195218e+08  1.3731814     -45394979      -45394979       1063.0627     -45393916      -2188.6036     -2191.0325     -2207.8846      13.277927      4.6018421      7.9224629      12146.428    
    146000   356.57214      0.073          0.22013518     0.22036115     0.22199761    -2179.4356      773.39512      773.39512      773.39512      4.6259856e+08  1.3712627     -45374845      -45374845       1061.8109     -45373783      -2172.5653     -2174.7955     -2190.9461      12.28379       3.7938377      7.4041963      12059.668    
    147000   355.52966      0.0735         0.21843525     0.21890688     0.22038302    -2163.7475      773.75551      773.75551      773.75551      4.6324555e+08  1.3693475     -45354843      -45354843       1058.7066     -45353784      -2155.7883     -2160.4429     -2175.0113      12.548621      2.920727       7.2625075      12204.314    
    148000   353.84349      0.074          0.21689719     0.2174725      0.21886374    -2148.9709      774.1159       774.1159       774.1159       4.6389315e+08  1.3674359     -45334957      -45334957       1053.6855     -45333903      -2140.6089     -2146.2867     -2160.0172      13.845059      2.2072348      7.8029287      11885.059    
    149000   352.23872      0.0745         0.21555722     0.21597058     0.21735364    -2134.654       774.47629      774.47629      774.47629      4.6454135e+08  1.3655278     -45315174      -45315174       1048.9068     -45314126      -2127.3844     -2131.4639     -2145.1137      14.234488      2.0260807      8.6481564      11384.285    
    150000   350.93474      0.075          0.21415259     0.21451792     0.21577904    -2120.0742      774.83668      774.83668      774.83668      4.6519015e+08  1.3636233     -45295501      -45295501       1045.0237     -45294456      -2113.5218     -2117.1273     -2129.5736      12.508132      2.8102384      8.994254       11691.994    
    151000   349.64325      0.0755         0.2126271      0.21314595     0.21432179    -2105.7483      775.19706      775.19706      775.19706      4.6583955e+08  1.3617224     -45275940      -45275940       1041.1779     -45274899      -2098.4663     -2103.587      -2115.1916      10.212026      3.5301757      8.5543087      11751.181    
    152000   348.0765       0.076          0.21119115     0.21179389     0.21306745    -2092.45        775.55745      775.55745      775.55745      4.6648956e+08  1.3598249     -45256489      -45256489       1036.5124     -45255453      -2084.2946     -2090.2432     -2102.8123      9.4422038      3.3834119      7.7178859      11741.937    
    153000   346.86864      0.0765         0.20985689     0.21036082     0.21177075    -2079.0804      775.91784      775.91784      775.91784      4.6714017e+08  1.357931      -45237146      -45237146       1032.9156     -45236113      -2071.1265     -2076.0999     -2090.0148      10.245619      2.8161446      7.5735421      11838.689    
    154000   346.34418      0.077          0.20869164     0.20903348     0.21042098    -2066.44        776.27823      776.27823      776.27823      4.6779139e+08  1.3560406     -45217909      -45217909       1031.3538     -45216877      -2059.6264     -2063          -2076.6936      11.364622      2.1226491      7.9427515      11877.486    
    155000   345.60129      0.0775         0.2076687      0.20793181     0.20909388    -2055.0848      776.63862      776.63862      776.63862      4.6844321e+08  1.3541538     -45198761      -45198761       1029.1416     -45197732      -2049.5308     -2052.1274     -2063.5961      11.536448      1.6368054      7.9674162      11683.742    
    156000   344.22725      0.078          0.20655521     0.20693299     0.20781704    -2043.9353      776.99901      776.99901      776.99901      4.6909564e+08  1.3522704     -45179688      -45179688       1025.05       -45178663      -2038.5415     -2042.2698     -2050.9947      10.419297      1.3581308      7.5069895      12000.892    
    157000   342.93505      0.0785         0.20523586     0.20582731     0.20657026    -2031.856       777.3594       777.3594       777.3594       4.6974867e+08  1.3503905     -45160700      -45160700       1021.202      -45159679      -2025.5205     -2031.3576     -2038.69        8.9437253      0.69807575     7.4059544      12009.912    
    158000   342.08072      0.079          0.20379409     0.20458033     0.20528074    -2018.7685      777.71979      777.71979      777.71979      4.7040231e+08  1.3485141     -45141814      -45141814       1018.658      -45140795      -2011.2912     -2019.0509     -2025.9634      8.3254824      0.43267636     8.0507573      11947.927    
    159000   341.3829       0.0795         0.20256425     0.20336498     0.20410044    -2006.8416      778.08018      778.08018      778.08018      4.7105656e+08  1.3466411     -45123021      -45123021       1016.58       -45122004      -1999.1537     -2007.0564     -2014.3147      8.362344       1.2574868      8.3976693      11937.615    
    160000   340.4448       0.08           0.20171841     0.20236178     0.20315799    -1997.6583      778.44057      778.44057      778.44057      4.7171141e+08  1.3447717     -45104305      -45104305       1013.7865     -45103291      -1990.8059     -1997.1555     -2005.0135      7.9173698      2.0802972      7.6840955      11711.122    
    161000   339.37314      0.0805         0.20098886     0.20143497     0.20227985    -1989.3204      778.80096      778.80096      778.80096      4.7236687e+08  1.3429056     -45085662      -45085662       1010.5952     -45084651      -1983.6058     -1988.0086     -1996.3469      7.409535       2.1419351      7.0032409      11734.562    
    162000   338.40226      0.081          0.20004894     0.2004399      0.2012831     -1979.6758      779.16134      779.16134      779.16134      4.7302293e+08  1.3410431     -45067088      -45067088       1007.7041     -45066080      -1974.3295     -1978.1881     -1986.5098      7.3971579      1.8301892      7.0451962      12014.107    
    163000   337.70637      0.0815         0.19891768     0.19941359     0.20008851    -1968.648       779.52173      779.52173      779.52173      4.736796e+08   1.339184      -45048582      -45048582       1005.6319     -45047576      -1963.1649     -1968.0591     -1974.7201      7.5144332      1.3763221      7.4669088      11103.152    
    164000   336.9978       0.082          0.1978364      0.19847268     0.19893194    -1958.1907      779.88212      779.88212      779.88212      4.7433688e+08  1.3373283     -45030149      -45030149       1003.5219     -45029145      -1952.4935     -1958.7731     -1963.3057      7.3913392      0.6367622      7.735736       11662.705    
    165000   336.1072       0.0825         0.19694367     0.19760103     0.19797215    -1949.2289      780.24251      780.24251      780.24251      4.7499477e+08  1.335476      -45011785      -45011785       1000.8698     -45010784      -1943.6829     -1950.1705     -1953.8332      6.9073502      0.018308491    7.7390607      11640.888    
    166000   335.42149      0.083          0.19616956     0.19673415     0.19713415    -1941.0737      780.6029       780.6029       780.6029       4.7565327e+08  1.3336272     -44993487      -44993487       998.82793     -44992489      -1936.0431     -1941.6151     -1945.5628      6.171989      -0.27569915     7.4894453      10806.891    
    167000   334.94621      0.0835         0.19535942     0.19585295     0.19626966    -1932.6656      780.96329      780.96329      780.96329      4.7631237e+08  1.3317818     -44975258      -44975258       997.41262     -44974261      -1928.0475     -1932.9183     -1937.0309      5.386893      -0.11252875     7.4165833      11962.18     
    168000   334.37348      0.084          0.19445194     0.19494746     0.19532966    -1923.609       781.32368      781.32368      781.32368      4.7697208e+08  1.3299398     -44957098      -44957098       995.70713     -44956102      -1919.0914     -1923.9819     -1927.7539      4.8607124      0.36928423     7.053095       12118.99     
    169000   333.59801      0.0845         0.19360136     0.19409565     0.19443455    -1915.0639      781.68407      781.68407      781.68407      4.776324e+08   1.3281011     -44938997      -44938997       993.39792     -44938004      -1910.6968     -1915.5751     -1918.9198      4.7899716      1.1136512      6.5789847      11994.728    
    170000   332.68075      0.085          0.19289535     0.19329333     0.19362462    -1907.4375      782.04446      782.04446      782.04446      4.7829333e+08  1.3262659     -44920945      -44920945       990.66648     -44919954      -1903.7291     -1907.6569     -1910.9264      4.9886884      1.5561767      6.2861981      12031.996    
    171000   332.02626      0.0855         0.19220246     0.19254648     0.19288286    -1900.2609      782.40485      782.40485      782.40485      4.7895487e+08  1.324434      -44902940      -44902940       988.71751     -44901951      -1896.8908     -1900.286      -1903.6058      5.2316918      1.4764124      5.7876909      12088.847    
    172000   331.54095      0.086          0.19147144     0.19186924     0.19215085    -1893.2199      782.76524      782.76524      782.76524      4.7961702e+08  1.3226055     -44884988      -44884988       987.27235     -44884000      -1889.6762     -1893.6021     -1896.3814      5.1051735      0.9519772      5.4192167      11890.912    
    173000   330.98481      0.0865         0.19069619     0.19123084     0.19137963    -1886.0322      783.12563      783.12563      783.12563      4.8027978e+08  1.3207804     -44867087      -44867087       985.61624     -44866102      -1882.025      -1887.3016     -1888.7701      4.6163592      0.26235644     6.0801301      11765.01     
    174000   330.30497      0.087          0.18990526     0.19060315     0.19061021    -1878.8342      783.48601      783.48601      783.48601      4.8094315e+08  1.3189587     -44849238      -44849238       983.5918      -44848254      -1874.2192     -1881.1068     -1881.1765      4.1215561      0.1763998      6.8733705      11977.366    
    175000   329.80323      0.0875         0.18913467     0.18985711     0.18973424    -1870.9631      783.8464       783.8464       783.8464       4.8160713e+08  1.3171402     -44831443      -44831443       982.0977      -44830461      -1866.614      -1873.744      -1872.5313      4.1636751      0.98232476     7.2572251      12034.414    
    176000   329.68417      0.088          0.18834772     0.18899376     0.18889451    -1862.7716      784.20679      784.20679      784.20679      4.8227172e+08  1.3153252     -44813704      -44813704       981.74317     -44812723      -1858.8475     -1865.2234     -1864.2438      4.564436       1.7951209      7.4160974      11950.84     
    177000   329.46117      0.0885         0.18762106     0.18821416     0.18816618    -1855.4204      784.56718      784.56718      784.56718      4.8293693e+08  1.3135134     -44796019      -44796019       981.0791      -44795038      -1851.6759     -1857.5293     -1857.0558      4.4357903      1.6236993      7.5939829      12219.793    
    178000   328.83765      0.089          0.18700948     0.18750487     0.18754198    -1849.0216      784.92757      784.92757      784.92757      4.8360274e+08  1.311705      -44778379      -44778379       979.22236     -44777399      -1845.6401     -1850.5292     -1850.8954      3.8562934      0.89121608     7.9513671      12193.493    
    179000   328.07327      0.0895         0.18647353     0.18684942     0.18705808    -1843.5103      785.28796      785.28796      785.28796      4.8426917e+08  1.3098999     -44760776      -44760776       976.94617     -44759799      -1840.3507     -1844.0604     -1846.1197      3.2565406      0.39566586     7.5612523      12261.851    
    180000   327.49502      0.09           0.18590482     0.18623707     0.18653404    -1837.9009      785.64835      785.64835      785.64835      4.849362e+08   1.3080981     -44743210      -44743210       975.22425     -44742234      -1834.7379     -1838.017      -1840.9479      3.3207265      0.55183483     6.4850585      11934.064    
    181000   327.39119      0.0905         0.18525704     0.1856283      0.18577915    -1831.2838      786.00874      786.00874      786.00874      4.8560385e+08  1.3062996     -44725688      -44725688       974.91507     -44724713      -1828.3448     -1832.0089     -1833.4977      4.0630112      1.1490422      5.9057566      11867.142    
    182000   327.5756       0.091          0.18461761     0.18509795     0.18499362    -1824.8513      786.36913      786.36913      786.36913      4.8627211e+08  1.3045044     -44708214      -44708214       975.46419     -44707239      -1822.0341     -1826.7747     -1825.7451      5.0305369      1.4563883      6.2524501      12121.24     
    183000   327.33847      0.0915         0.1840674      0.18463677     0.18442183    -1819.6431      786.72952      786.72952      786.72952      4.8694099e+08  1.3027125     -44690778      -44690778       974.75807     -44689803      -1816.604      -1822.2232     -1820.1019      5.2911755      1.0028201      6.5189325      12214.467    
    184000   326.84631      0.092          0.18348885     0.18411568     0.18389879    -1814.3049      787.08991      787.08991      787.08991      4.8761048e+08  1.3009239     -44673370      -44673370       973.29249     -44672397      -1810.8942     -1817.0805     -1814.94        4.557099       0.39200661     6.7364893      12146.741    
    185000   326.5942       0.0925         0.18284344     0.18352839     0.18330201    -1808.2864      787.4503       787.4503       787.4503       4.8828058e+08  1.2991386     -44656001      -44656001       972.54175     -44655028      -1804.5244     -1811.2844     -1809.0502      3.2799869      0.22264054     6.7106955      11941.021    
    186000   326.36739      0.093          0.18216341     0.18287638     0.18266731    -1801.8163      787.81068      787.81068      787.81068      4.8895129e+08  1.2973565     -44638680      -44638680       971.86636     -44637708      -1797.8131     -1804.8496     -1802.7862      2.4594296      0.59847907     6.7779178      12162.876    
    187000   326.04719      0.0935         0.18150041     0.18215945     0.18206305    -1795.2888      788.17107      788.17107      788.17107      4.8962262e+08  1.2955777     -44621405      -44621405       970.91285     -44620434      -1791.2698     -1797.7739     -1796.8226      2.2686021      0.97496678     6.9751218      12225.434    
    188000   325.62392      0.094          0.18098523     0.18149182     0.18155196    -1789.7163      788.53146      788.53146      788.53146      4.9029457e+08  1.2938021     -44604166      -44604166       969.65243     -44603196      -1786.1854     -1791.185      -1791.7786      2.478178       1.1699515      7.0817563      12086.377    
    189000   325.15361      0.0945         0.18061802     0.18097254     0.18096621    -1784.873       788.89185      788.89185      788.89185      4.9096712e+08  1.2920298     -44586956      -44586956       968.25192     -44585988      -1782.5612     -1786.0601     -1785.9976      2.943687       1.6929977      6.9743134      11944.396    
    190000   324.9638       0.095          0.18018371     0.18050887     0.18025521    -1779.5799      789.25224      789.25224      789.25224      4.916403e+08   1.2902607     -44569780      -44569780       967.6867      -44568813      -1778.2749     -1781.4841     -1778.9806      3.2260393      1.4812169      6.7243688      12062.605    
    191000   325.20281      0.0955         0.17957945     0.17996809     0.17967106    -1773.8913      789.61263      789.61263      789.61263      4.9231408e+08  1.2884948     -44552649      -44552649       968.39845     -44551681      -1772.3114     -1776.147      -1773.2155      3.5509727      0.52574736     6.7514812      12064.318    
    192000   325.52891      0.096          0.17892449     0.17941069     0.17921122    -1768.3902      789.97302      789.97302      789.97302      4.9298849e+08  1.2867321     -44535562      -44535562       969.36951     -44534592      -1765.8475     -1770.6459     -1768.6772      4.1753432      0.39640532     6.7992305      12077.585    
    193000   325.50757      0.0965         0.17833995     0.17891497     0.17874503    -1763.3027      790.33341      790.33341      790.33341      4.936635e+08   1.2849727     -44518506      -44518506       969.30596     -44517537      -1760.0785     -1765.7535     -1764.0763      4.3213448      0.82030035     6.6830208      12047.962    
    194000   325.05134      0.097          0.17782372     0.17845518     0.17824691    -1758.4532      790.6938       790.6938       790.6938       4.9433914e+08  1.2832165     -44501475      -44501475       967.94738     -44500507      -1754.9836     -1761.2157     -1759.1602      3.8005611      0.89014051     6.9764988      12110.384    
    195000   324.59643      0.0975         0.17729333     0.17793448     0.17764434    -1753.0131      791.05419      791.05419      791.05419      4.9501539e+08  1.2814635     -44484478      -44484478       966.59273     -44483511      -1749.7491     -1756.0768     -1753.2133      3.278954       1.0723058      7.8226889      12131.159    
    196000   324.23582      0.098          0.17677502     0.17740042     0.17705637    -1747.6168      791.41458      791.41458      791.41458      4.9569226e+08  1.2797136     -44467519      -44467519       965.51892     -44466554      -1744.6338     -1750.806      -1747.4105      3.1752221      1.4118937      7.9121924      12203.769    
    197000   323.78768      0.0985         0.17627927     0.17682461     0.17657344    -1742.5029      791.77497      791.77497      791.77497      4.9636974e+08  1.277967      -44450593      -44450593       964.18443     -44449629      -1739.7412     -1745.1232     -1742.6444      3.2581094      1.2684098      6.9364576      11956.883    
    198000   323.71091      0.099          0.17581527     0.17625301     0.17609348    -1737.5171      792.13535      792.13535      792.13535      4.9704784e+08  1.2762235     -44433695      -44433695       963.95583     -44432732      -1735.1618     -1739.482      -1737.9076      3.1128002      0.62285199     6.4460084      12015.634    
    199000   323.85455      0.0995         0.17539745     0.17581276     0.17560523    -1733.0881      792.49574      792.49574      792.49574      4.9772656e+08  1.2744832     -44416827      -44416827       964.38356     -44415863      -1731.0383     -1735.137      -1733.0889      2.9859889      0.573963       6.9536014      12012.32     
    200000   323.5514       0.1            0.17496131     0.17548046     0.17510663    -1728.9198      792.85613      792.85613      792.85613      4.9840589e+08  1.2727461     -44399987      -44399987       963.48081     -44399024      -1726.7339     -1731.8575     -1728.1681      2.9203993      1.5082381      7.0549696      11447.643    
    201000   323.44792      0.1005         0.17436692     0.17496535     0.17456813    -1723.4983      793.21652      793.21652      793.21652      4.9908585e+08  1.2710121     -44383182      -44383182       963.17267     -44382219      -1720.8677     -1726.7738     -1722.8535      3.1048631      2.7061026      6.8452062      11599.907    
    202000   324.06875      0.101          0.17376233     0.17433352     0.17410708    -1717.9141      793.57691      793.57691      793.57691      4.9976642e+08  1.2692812     -44366416      -44366416       965.0214      -44365451      -1714.9008     -1720.5381     -1718.3033      3.3768563      2.886832       6.5912386      11473.41     
    203000   324.37602      0.1015         0.17329656     0.17381025     0.17375312    -1713.4959      793.9373       793.9373       793.9373       5.0044761e+08  1.2675535     -44349685      -44349685       965.93641     -44348719      -1710.3041     -1715.3738     -1714.81        3.0503753      1.9024795      6.9750315      11581.269    
    204000   324.1165       0.102          0.17289314     0.17344226     0.17326287    -1709.3454      794.29769      794.29769      794.29769      5.0112942e+08  1.265829      -44332977      -44332977       965.1636      -44332012      -1706.3226     -1711.742      -1709.9716      2.5127488      0.75416513     7.7582692      11624.796    
    205000   323.63028      0.1025         0.17241094     0.17316236     0.17271365    -1705.0315      794.65808      794.65808      794.65808      5.0181184e+08  1.2641075     -44316296      -44316296       963.71571     -44315332      -1701.5637     -1708.9796     -1704.5512      2.4392688     -0.14948439     7.73389        11771.834    
    206000   322.92349      0.103          0.1718592      0.17273476     0.17221198    -1700.1593      795.01847      795.01847      795.01847      5.0249489e+08  1.2623892     -44299644      -44299644       961.611       -44298682      -1696.1184     -1704.7595     -1699.6001      2.9213014     -0.67848795     6.3724342      11796.168    
    207000   322.64856      0.1035         0.17131103     0.17204775     0.17169071    -1694.3811      795.37886      795.37886      795.37886      5.0317856e+08  1.260674      -44283023      -44283023       960.79232     -44282062      -1690.7084     -1697.9792     -1694.4555      3.7851696     -0.1441814      5.523069       11921.146    
    208000   322.89405      0.104          0.17094436     0.17141645     0.17121852    -1689.5446      795.73925      795.73925      795.73925      5.0386284e+08  1.2589619     -44266437      -44266437       961.52335     -44265476      -1687.0896     -1691.7489     -1689.7954      4.0326906      1.1607824      6.3253345      12049.093    
    209000   322.88928      0.1045         0.17065683     0.17105754     0.17075582    -1685.8958      796.09963      796.09963      796.09963      5.0454775e+08  1.2572529     -44249884      -44249884       961.50913     -44248922      -1684.2519     -1688.2066     -1685.2289      3.4426327      1.8312147      7.7085181      11868.467    
    210000   322.67396      0.105          0.17023528     0.17075097     0.17023882    -1681.7997      796.46002      796.46002      796.46002      5.0523328e+08  1.255547      -44233355      -44233355       960.86794     -44232394      -1680.0915     -1685.1811     -1680.1265      2.2842641      1.5835845      8.4060759      11866.719    
    211000   322.56779      0.1055         0.16972763     0.17030808     0.16974243    -1677.0397      796.82041      796.82041      796.82041      5.0591942e+08  1.2538442     -44216854      -44216854       960.5518      -44215894      -1675.0814     -1680.8101     -1675.2275      1.5084984      1.4333829      8.4862792      12071.072    
    212000   322.50258      0.106          0.16923291     0.16979436     0.16933692    -1672.3882      797.1808       797.1808       797.1808       5.0660619e+08  1.2521445     -44200382      -44200382       960.3576      -44199422      -1670.199      -1675.7401     -1671.2255      1.8916931      1.6930713      8.1495713      11959.342    
    213000   322.55494      0.1065         0.1687698      0.16927377     0.16893055    -1667.8152      797.54119      797.54119      797.54119      5.0729358e+08  1.2504478     -44183937      -44183937       960.51353     -44182976      -1665.6284     -1670.6022     -1667.2149      3.0014457      1.3093951      7.4228901      11991.238    
    214000   322.94563      0.107          0.16827187     0.16884468     0.16856217    -1663.5537      797.90158      797.90158      797.90158      5.0798159e+08  1.2487542     -44167520      -44167520       961.67693     -44166558      -1660.7143     -1666.3674     -1663.5793      3.763269       0.44365103     6.8705931      11942.818    
    215000   323.27987      0.1075         0.16776411     0.16850949     0.16820985    -1659.6215      798.26197      798.26197      798.26197      5.0867023e+08  1.2470636     -44151131      -44151131       962.67224     -44150168      -1655.7031     -1663.0593     -1660.1022      3.772206       0.16926419     6.4557184      11961.672    
    216000   323.09928      0.108          0.16733138     0.16813856     0.16779456    -1655.6115      798.62236      798.62236      798.62236      5.0935948e+08  1.2453761     -44134767      -44134767       962.13447     -44133805      -1651.4323     -1659.3986     -1656.0036      3.631186       0.59459334     6.521972       12031.332    
    217000   322.79167      0.1085         0.16692893     0.1677016      0.16723896    -1651.0222      798.98275      798.98275      798.98275      5.1004936e+08  1.2436917     -44118432      -44118432       961.21848     -44117471      -1647.4604     -1655.0861     -1650.5202      3.392176       1.620464       6.9491273      11983.025    
    218000   322.69577      0.109          0.16648771     0.16724662     0.16666378    -1646.1818      799.34314      799.34314      799.34314      5.1073986e+08  1.2420102     -44102129      -44102129       960.9329      -44101168      -1643.1059     -1650.5958     -1644.8437      3.1691034      2.5023979      7.7853203      11990.277    
[...]
   3065000   321.34242      1.5325         0.01493295     0.015009959    0.014775902   -147.11345      1825.3711      1825.3711      1825.3711      6.0820989e+09  0.10429691    -14376776      -14376776       956.90287     -14375819      -147.37676     -148.13678     -145.82682      0.2211395      0.398452       1.3251482      11848.653    
   3066000   321.34333      1.533          0.014922843    0.014999782    0.01476717    -147.018        1825.7314      1825.7314      1825.7314      6.085702e+09   0.10423516    -14369184      -14369184       956.90558     -14368227      -147.27701     -148.03634     -145.74064      0.21121181     0.39568462     1.3357465      11900.638    
   3067000   321.3678       1.5335         0.014915524    0.014990712    0.014754554   -146.92258      1826.0918      1826.0918      1826.0918      6.0893066e+09  0.10417346    -14361594      -14361594       956.97842     -14360637      -147.20478     -147.94683     -145.61612      0.21125524     0.39066367     1.3508452      11846.316    
   3068000   321.39091      1.534          0.014908906    0.014981801    0.014740403   -146.82494      1826.4522      1826.4522      1826.4522      6.0929126e+09  0.10411181    -14354006      -14354006       957.04726     -14353049      -147.13946     -147.85888     -145.47647      0.21692411     0.40518142     1.3593143      11765.43     
   3069000   321.40195      1.5345         0.014900449    0.014971292    0.01472644    -146.71661      1826.8126      1826.8126      1826.8126      6.09652e+09    0.1040502     -14346420      -14346420       957.08013     -14345463      -147.056       -147.75516     -145.33867      0.22405515     0.43508554     1.363656       11815.181    
   3070000   321.41256      1.535          0.014889508    0.014958458    0.014714462   -146.59899      1827.173       1827.173       1827.173       6.1001288e+09  0.10398865    -14338838      -14338838       957.11171     -14337881      -146.94802     -147.6285      -145.22045      0.23322374     0.45671422     1.3586132      11934.062    
   3071000   321.42768      1.5355         0.014878763    0.014946098    0.014705887   -146.49477      1827.5334      1827.5334      1827.5334      6.1037391e+09  0.10392714    -14331258      -14331258       957.15674     -14330301      -146.84197     -147.50652     -145.13582      0.24497597     0.46026872     1.3476825      11904.937    
   3072000   321.44061      1.536          0.014869973    0.014936945    0.014700231   -146.41714      1827.8938      1827.8938      1827.8938      6.1073507e+09  0.10386568    -14323680      -14323680       957.19524     -14322723      -146.75522     -147.41619     -145.08         0.24977023     0.44439795     1.3415918      12018.135    
   3073000   321.43617      1.5365         0.0148625      0.014930215    0.014694803   -146.35256      1828.2542      1828.2542      1828.2542      6.1109638e+09  0.10380427    -14316103      -14316103       957.18203     -14315146      -146.68147     -147.34977     -145.02643      0.24729053     0.40578129     1.349691       11928.079    
   3074000   321.41913      1.537          0.014854502    0.014924124    0.014686782   -146.27982      1828.6146      1828.6146      1828.6146      6.1145784e+09  0.10374291    -14308526      -14308526       957.13128     -14307569      -146.60253     -147.28965     -144.94727      0.25223407     0.36146147     1.3689512      11899.656    
   3075000   321.42408      1.5375         0.014843361    0.014915743    0.014675888   -146.17976      1828.9749      1828.9749      1828.9749      6.1181943e+09  0.10368159    -14300950      -14300950       957.14604     -14299993      -146.49259     -147.20693     -144.83975      0.26369995     0.33525114     1.3885902      11902.795    
   3076000   321.46948      1.538          0.014828347    0.014905023    0.014665545   -146.06107      1829.3353      1829.3353      1829.3353      6.1218117e+09  0.10362033    -14293378      -14293378       957.28122     -14292421      -146.34441     -147.10114     -144.73767      0.27490331     0.33393966     1.4040303      11836.565    
   3077000   321.52179      1.5385         0.014812654    0.014894683    0.01465569    -145.94301      1829.6957      1829.6957      1829.6957      6.1254305e+09  0.10355911    -14285809      -14285809       957.43699     -14284852      -146.18953     -146.99909     -144.64042      0.2775442      0.35305392     1.4050348      11828.132    
   3078000   321.53205      1.539          0.014801001    0.014884688    0.014642904   -145.82973      1830.0561      1830.0561      1830.0561      6.1290507e+09  0.10349794    -14278243      -14278243       957.46754     -14277286      -146.07452     -146.90045     -144.51423      0.26983218     0.375174       1.3813046      11826.71     
   3079000   321.48513      1.5395         0.014795269    0.014875287    0.014627962   -145.7308       1830.4165      1830.4165      1830.4165      6.1326724e+09  0.10343682    -14270680      -14270680       957.32781     -14269723      -146.01795     -146.80767     -144.36676      0.26379438     0.38740184     1.3504055      11869.52     
   3080000   321.38795      1.54           0.014790769    0.014865967    0.014613896   -145.63905      1830.7769      1830.7769      1830.7769      6.1362955e+09  0.10337575    -14263118      -14263118       957.03844     -14262161      -145.97354     -146.71569     -144.22794      0.26737791     0.39102872     1.3425324      11329.429    
   3081000   321.28066      1.5405         0.014781809    0.014854098    0.014602867   -145.53425      1831.1373      1831.1373      1831.1373      6.13992e+09    0.10331472    -14255558      -14255558       956.71894     -14254602      -145.88511     -146.59855     -144.11909      0.27637904     0.37998701     1.3595284      11780.27     
   3082000   321.21152      1.541          0.014767936    0.014839318    0.014594466   -145.41236      1831.4977      1831.4977      1831.4977      6.1435459e+09  0.10325375    -14248001      -14248001       956.51305     -14247045      -145.7482      -146.45269     -144.03618      0.28784413     0.36244208     1.3820296      11854.564    
   3083000   321.21601      1.5415         0.014754789    0.014825845    0.014587651   -145.30236      1831.8581      1831.8581      1831.8581      6.1471733e+09  0.10319282    -14240448      -14240448       956.52641     -14239491      -145.61845     -146.31971     -143.96893      0.29907288     0.35905592     1.3958533      11817.996    
   3084000   321.28961      1.542          0.014745493    0.014816162    0.014581151   -145.21854      1832.2184      1832.2184      1832.2184      6.1508021e+09  0.10313194    -14232896      -14232896       956.7456      -14231940      -145.5267      -146.22415     -143.90478      0.29859727     0.37017121     1.3920014      11854.372    
   3085000   321.40024      1.5425         0.014736817    0.01480757     0.014573129   -145.13534      1832.5788      1832.5788      1832.5788      6.1544323e+09  0.1030711     -14225346      -14225346       957.07503     -14224389      -145.44107     -146.13935     -143.8256       0.27724956     0.38302326     1.3689282      11884.008    
   3086000   321.48452      1.543          0.01472692     0.014799341    0.014563233   -145.04316      1832.9392      1832.9392      1832.9392      6.1580639e+09  0.10301032    -14217798      -14217798       957.32601     -14216841      -145.3434      -146.05814     -143.72794      0.24569761     0.38948215     1.3364643      11947.287    
   3087000   321.50245      1.5435         0.014715091    0.014792486    0.014552015   -144.94479      1833.2996      1833.2996      1833.2996      6.161697e+09   0.10294958    -14210252      -14210252       957.37941     -14209294      -145.22666     -145.99049     -143.61722      0.22122564     0.39482355     1.3080309      11945.894    
   3088000   321.47015      1.544          0.01470193     0.014784893    0.014539983   -144.83693      1833.66        1833.66        1833.66        6.1653315e+09  0.10288889    -14202708      -14202708       957.28322     -14201751      -145.09676     -145.91555     -143.49847      0.22280282     0.40879139     1.3015484      11841.003    
   3089000   321.40924      1.5445         0.014689797    0.014773442    0.01452621    -144.71404      1834.0204      1834.0204      1834.0204      6.1689675e+09  0.10282825    -14195167      -14195167       957.10182     -14194210      -144.97703     -145.80254     -143.36255      0.24435237     0.42937528     1.3229059      11881.423    
   3090000   321.34199      1.545          0.014678794    0.014758494    0.014512424   -144.58331      1834.3808      1834.3808      1834.3808      6.1726048e+09  0.10276766    -14187630      -14187630       956.90156     -14186673      -144.86843     -145.65501     -143.22649      0.26501714     0.44343071     1.3535298      11860.749    
   3091000   321.28407      1.5455         0.014668128    0.014743348    0.01450142    -144.4622       1834.7412      1834.7412      1834.7412      6.1762436e+09  0.10270711    -14180096      -14180096       956.72911     -14179139      -144.76317     -145.50554     -143.11788      0.27576587     0.43752079     1.3744907      11825.428    
   3092000   321.24514      1.546          0.014658389    0.014730501    0.014492325   -144.35797      1835.1016      1835.1016      1835.1016      6.1798838e+09  0.10264661    -14172566      -14172566       956.61317     -14171609      -144.66705     -145.37874     -143.02813      0.27788424     0.41528908     1.3742889      11796.689    
   3093000   321.22629      1.5465         0.014651396    0.014720827    0.014483033   -144.27257      1835.4619      1835.4619      1835.4619      6.1835255e+09  0.10258616    -14165037      -14165037       956.55705     -14164080      -144.59804     -145.28327     -142.93642      0.26747254     0.38863401     1.353752       11765.092    
   3094000   321.21799      1.547          0.014646637    0.014714489    0.014472402   -144.20109      1835.8223      1835.8223      1835.8223      6.1871686e+09  0.10252576    -14157509      -14157509       956.53231     -14156553      -144.55107     -145.22071     -142.8315       0.24859091     0.37337943     1.3471162      11778.28     
   3095000   321.22415      1.5475         0.014639869    0.014708457    0.014461051   -144.12165      1836.1827      1836.1827      1836.1827      6.1908131e+09  0.1024654     -14149982      -14149982       956.55066     -14149026      -144.48428     -145.16119     -142.71948      0.23345409     0.380491       1.3663724      11723.94     
   3096000   321.251        1.548          0.014629734    0.014698728    0.0144504     -144.02126      1836.5431      1836.5431      1836.5431      6.194459e+09   0.10240509    -14142457      -14142457       956.63061     -14141500      -144.38425     -145.06517     -142.61436      0.2306478      0.39787541     1.3842551      11769.296    
   3097000   321.2821       1.5485         0.014617136    0.014685487    0.014441068   -143.90556      1836.9035      1836.9035      1836.9035      6.1981064e+09  0.10234483    -14134935      -14134935       956.72322     -14133978      -144.25992     -144.93449     -142.52226      0.24812781     0.41254208     1.365755       11826.283    
   3098000   321.31184      1.549          0.014603525    0.014672468    0.014433056   -143.79159      1837.2639      1837.2639      1837.2639      6.2017552e+09  0.10228461    -14127416      -14127416       956.8118      -14126459      -144.12559     -144.806       -142.44318      0.27228148     0.41988853     1.3160049      11918.465    
   3099000   321.35178      1.5495         0.014592454    0.014662116    0.014425564   -143.69647      1837.6243      1837.6243      1837.6243      6.2054054e+09  0.10222445    -14119900      -14119900       956.93073     -14118943      -144.01632     -144.70384     -142.36925      0.28792471     0.42155622     1.2715312      11958.68     
   3100000   321.39479      1.55           0.014585634    0.014655916    0.014418021   -143.62882      1837.9847      1837.9847      1837.9847      6.2090571e+09  0.10216433    -14112386      -14112386       957.05881     -14111428      -143.94902     -144.64264     -142.2948       0.29124274     0.40981489     1.255226       11641.957    
   3101000   321.41879      1.5505         0.014580454    0.014651683    0.01440999    -143.57144      1838.3451      1838.3451      1838.3451      6.2127102e+09  0.10210425    -14104871      -14104871       957.13027     -14103914      -143.8979      -144.60087     -142.21554      0.28365233     0.38358631     1.2669684      11889.537    
   3102000   321.42574      1.551          0.014572685    0.014645188    0.014399885   -143.49127      1838.7054      1838.7054      1838.7054      6.2163648e+09  0.10204423    -14097357      -14097357       957.15097     -14096399      -143.82122     -144.53677     -142.11581      0.27207599     0.36474183     1.2941624      11768.041    
   3103000   321.42383      1.5515         0.014561219    0.014634558    0.01438804    -143.37961      1839.0658      1839.0658      1839.0658      6.2200207e+09  0.10198425    -14089844      -14089844       957.14527     -14088887      -143.70806     -144.43186     -141.99891      0.26781103     0.36145861     1.3228515      11721.172    
   3104000   321.41671      1.552          0.014548123    0.014621045    0.014378489   -143.26065      1839.4262      1839.4262      1839.4262      6.2236781e+09  0.10192432    -14082336      -14082336       957.12408     -14081379      -143.57881     -144.29849     -141.90465      0.27078375     0.36520287     1.3361068      11795.374    
   3105000   321.4051       1.5525         0.014534975    0.014607914    0.014371806   -143.15222      1839.7866      1839.7866      1839.7866      6.227337e+09   0.10186443    -14074831      -14074831       957.0895      -14073874      -143.44905     -144.16891     -141.8387       0.26852547     0.36548578     1.3311634      11967.476    
   3106000   321.41003      1.553          0.014521258    0.014595835    0.014364436   -143.04311      1840.147       1840.147       1840.147       6.2309972e+09  0.10180459    -14067328      -14067328       957.1042      -14066371      -143.31367     -144.04969     -141.76596      0.24585561     0.361426       1.3106351      11957.535    
   3107000   321.4406       1.5535         0.014507048    0.014585141    0.014353921   -142.92659      1840.5074      1840.5074      1840.5074      6.2346589e+09  0.1017448     -14059828      -14059828       957.19523     -14058871      -143.17343     -143.94415     -141.66218      0.19944588     0.35704193     1.2860547      11996.969    
   3108000   321.4752       1.554          0.01449458     0.014574988    0.014339767   -142.80561      1840.8678      1840.8678      1840.8678      6.2383221e+09  0.10168506    -14052332      -14052332       957.29824     -14051375      -143.05039     -143.84395     -141.52249      0.15829135     0.35774956     1.2793966      11956.578    
   3109000   321.51605      1.5545         0.014484784    0.014562665    0.014322262   -142.67526      1841.2282      1841.2282      1841.2282      6.2419866e+09  0.10162536    -14044840      -14044840       957.41989     -14043882      -142.9537      -143.72233     -141.34974      0.15030371     0.36862002     1.2926299      11959.124    
   3110000   321.55927      1.555          0.014478002    0.014550161    0.01430685    -142.56111      1841.5886      1841.5886      1841.5886      6.2456526e+09  0.10156571    -14037352      -14037352       957.54859     -14036394      -142.88677     -143.59893     -141.19763      0.16943758     0.37668151     1.3021256      11837.764    
   3111000   321.57666      1.5555         0.014473601    0.014542381    0.014298559   -142.49376      1841.949       1841.949       1841.949       6.2493201e+09  0.1015061     -14029866      -14029866       957.60037     -14028908      -142.84333     -143.52214     -141.1158       0.20895945     0.37285276     1.296728       11798.536    
   3112000   321.56322      1.556          0.014468067    0.014538652    0.014294808   -142.45095      1842.3093      1842.3093      1842.3093      6.252989e+09   0.10144655    -14022379      -14022379       957.56036     -14021421      -142.78871     -143.48534     -141.07879      0.25047622     0.36379155     1.2909629      11806.279    
   3113000   321.54194      1.5565         0.014459378    0.014533807    0.014291456   -142.3954       1842.6697      1842.6697      1842.6697      6.2566593e+09  0.10138704    -14014891      -14014891       957.497       -14013934      -142.70297     -143.43753     -141.04571      0.27049112     0.35526056     1.2941409      11863.326    
   3114000   321.53618      1.557          0.014448461    0.014523471    0.014285407   -142.30558      1843.0301      1843.0301      1843.0301      6.260331e+09   0.10132757    -14007405      -14007405       957.47984     -14006447      -142.59523     -143.33552     -140.98601      0.27452108     0.34997666     1.2998962      11849.898    
   3115000   321.53916      1.5575         0.014437176    0.014508772    0.014275292   -142.18682      1843.3905      1843.3905      1843.3905      6.2640042e+09  0.10126815    -13999921      -13999921       957.48873     -13998964      -142.48384     -143.19044     -140.88618      0.27874297     0.35017602     1.3066494      11848.358    
   3116000   321.5372       1.558          0.014425674    0.014494645    0.014262834   -142.06153      1843.7509      1843.7509      1843.7509      6.2676788e+09  0.10120878    -13992441      -13992441       957.48287     -13991484      -142.37033     -143.05103     -140.76323      0.27529732     0.35654701     1.310951       11854.487    
   3117000   321.52515      1.5585         0.01441219     0.014483809    0.014249498   -141.93765      1844.1113      1844.1113      1844.1113      6.2713549e+09  0.10114946    -13984965      -13984965       957.44698     -13984008      -142.23726     -142.94408     -140.63161      0.25242023     0.35762688     1.3143146      11936.891    
   3118000   321.50862      1.559          0.014398081    0.014475584    0.014236784   -141.82235      1844.4717      1844.4717      1844.4717      6.2750324e+09  0.10109018    -13977492      -13977492       957.39777     -13976535      -142.09801     -142.8629      -140.50613      0.21995254     0.35448667     1.3146571      11910.044    
   3119000   321.49545      1.5595         0.01438739     0.014467857    0.014227346   -141.73071      1844.8321      1844.8321      1844.8321      6.2787113e+09  0.10103094    -13970022      -13970022       957.35854     -13969065      -141.9925      -142.78665     -140.41299      0.2006086      0.36675148     1.3148375      11778.59     
   3120000   321.48689      1.56           0.014383304    0.014460049    0.014222176   -141.67457      1845.1925      1845.1925      1845.1925      6.2823917e+09  0.10097176    -13962554      -13962554       957.33307     -13961596      -141.95217     -142.70958     -140.36197      0.20946266     0.39256118     1.3194784      11658.704    
   3121000   321.47212      1.5605         0.014382988    0.01445296     0.014217582   -141.6351       1845.5528      1845.5528      1845.5528      6.2860735e+09  0.10091262    -13955084      -13955084       957.28907     -13954127      -141.94905     -142.63962     -140.31662      0.23575343     0.41583257     1.3242935      11881.16     
   3122000   321.45045      1.561          0.014378681    0.014444826    0.014210583   -141.57115      1845.9132      1845.9132      1845.9132      6.2897567e+09  0.10085352    -13947613      -13947613       957.22456     -13946656      -141.90654     -142.55935     -140.24755      0.25286596     0.42448577     1.3215932      11859.89     
   3123000   321.44287      1.5615       