ITEM: TIMESTEP
0
ITEM: NUMBER OF ATOMS
1000
ITEM: BOX BOUNDS pp pp pp
-1.0000000000000000e+02 5.1000000000000000e+03
-1.0000000000000000e+02 5.1000000000000000e+03
-1.0000000000000000e+02 5.1000000000000000e+03
ITEM: ATOMS type x y z ix iy iz
1 3779.57 2374.01 4422.86 0 0 0
1 1623.83 1481.21 1732.68 0 0 0
1 2066.7 660.803 3866.1 0 0 0
1 3759.61 1301.4 10.938 0 0 0
1 3430.41 428.662 768.008 0 0 0
1 319.847 4736.67 4999.73 0 0 0
1 3069.16 5000 2161.73 0 0 0
1 3440.64 1222.38 1128.25 0 0 0
1 4200.29 4400.91 7.186 0 0 0
1 455.167 3840.67 2398.55 0 0 0
1 3823.52 872.003 2923.65 0 0 0
1 3415.05 1221.66 2352.68 0 0 0
1 4276.67 2567.51 1709.07 0 0 0
1 87.025 4118.07 2607.93 0 0 0
1 1864.34 3406.73 4999.83 0 0 0
1 3933.84 3338.8 1811.75 0 0 0
1 0.015 762.028 0.602 0 0 0
1 2459.4 1809.89 1065.91 0 0 0
1 1793.28 2970.17 2620.78 0 0 0
1 2771.89 525.197 4.712 0 0 0
1 4658.06 2538.06 3834.17 0 0 0
1 197.884 4992.72 509.923 0 0 0
1 3183.97 4059.61 2361.13 0 0 0
1 4999.43 8.894 2655.4 0 0 0
1 2200.07 1952.27 1281.42 0 0 0
1 3076.59 1652.74 3782.25 0 0 0
1 4242.35 3895.46 3793.04 0 0 0
1 515.258 4272.28 2573.61 0 0 0
1 2292.75 3337.6 3241.34 0 0 0
1 2212.71 490.742 3505.28 0 0 0
1 2140.62 179.812 3083.85 0 0 0
1 4868.79 3776.08 4390.85 0 0 0
1 4315.58 21.867 3672.65 0 0 0
1 1137.93 1232.29 2660.56 0 0 0
1 929.599 2641.97 2082.06 0 0 0
1 2558.01 351.937 1903.52 0 0 0
1 1292.79 756.14 432.094 0 0 0
1 3061.48 3614.29 3782.28 0 0 0
1 588.421 3808.77 1918.2 0 0 0
1 736.25 3662.95 1700.05 0 0 0
1 1756.92 1718.18 3186.21 0 0 0
1 3104.18 4442.8 3265.27 0 0 0
1 984.365 4634.75 2985.45 0 0 0
1 4874.28 2538.86 4999.98 0 0 0
1 620.257 1412.32 57.018 0 0 0
1 822.409 1466.23 1144.92 0 0 0
1 4311.94 17.849 4858.43 0 0 0
1 2164.2 2329.45 308.591 0 0 0
1 4771.46 1808.54 2904.47 0 0 0
1 3903.84 1123.83 3223.36 0 0 0
1 4540.75 3262.24 3555.39 0 0 0
1 3350.35 4320.56 982.827 0 0 0
1 3288.95 2004.69 4406.72 0 0 0
1 3031.89 1113.71 4170.55 0 0 0
1 3906.91 1483.08 3234.79 0 0 0
1 3126.75 4582.4 1334.97 0 0 0
1 1468.22 2480.88 792.329 0 0 0
1 2941.77 178.858 3376.83 0 0 0
1 1776.02 222.58 2441.89 0 0 0
1 0 3631.63 4897.69 0 0 0
1 950.366 490.711 4999.99 0 0 0
1 0 1681.71 1860.02 0 0 0
1 0 337.899 2806.76 0 0 0
1 3516.05 1674.42 5.245 0 0 0
1 4589.75 2422.28 1533.38 0 0 0
1 3030.74 0 1895.38 0 0 0
1 2977.7 84.984 2171.65 0 0 0
1 1795.4 766.639 1928.19 0 0 0
1 101.779 81.219 2187.82 0 0 0
1 1172.03 3417.01 756.787 0 0 0
1 1228.19 3402.58 3745.35 0 0 0
1 972.882 3643.21 0 0 0 0
1 236.023 1870.32 1796.22 0 0 0
1 676.288 1131.31 32.518 0 0 0
1 1415.38 1215.09 9.015 0 0 0
1 0 1833.13 3558.27 0 0 0
1 132.287 749.053 171.888 0 0 0
1 0 722.302 2219.55 0 0 0
1 2881.63 519.176 0.096 0 0 0
1 3125.98 1873.62 1301.61 0 0 0
1 3736.38 3519.78 1636.56 0 0 0
1 773.757 1902.6 10.717 0 0 0
1 440.401 1570.87 2725.74 0 0 0
1 415.5 259.044 226.331 0 0 0
1 0.425 2414.13 3005.46 0 0 0
1 1569.68 701.04 2122.85 0 0 0
1 2492.95 865.846 1039.24 0 0 0
1 0.001 654.379 526.09 0 0 0
1 0 2902.3 2660.91 0 0 0
1 1692.24 1928.6 747.107 0 0 0
1 2458.21 2646.39 1059.47 0 0 0
1 70.207 278.325 1249.28 0 0 0
1 33.085 452.118 1850.37 0 0 0
1 4261.47 0.021 0.011 0 0 0
1 176.094 636.953 1404.67 0 0 0
1 32.218 1060.51 1144.44 0 0 0
1 4243.17 1694 1024.75 0 0 0
1 35.872 1159.76 1959.46 0 0 0
1 2031.58 6.422 751.657 0 0 0
1 4805.62 3679.22 1583.48 0 0 0
1 925.52 1503.66 354.729 0 0 0
1 393.078 2.727 1019.66 0 0 0
1 3625.48 4062.47 3970.24 0 0 0
1 519.45 1338.83 2082.53 0 0 0
1 547.536 3252.39 4477.93 0 0 0
1 844.757 0 716.575 0 0 0
1 734.983 925.314 4280.19 0 0 0
1 1008.04 1690.98 0 0 0 0
1 0 2779.99 163.209 0 0 0
1 674.846 4762.46 405.775 0 0 0
1 1946.94 887.767 1656.8 0 0 0
1 501.003 2430.1 1500.99 0 0 0
1 1372.14 2205.8 811.131 0 0 0
1 105.06 1314.78 3439.73 0 0 0
1 0 934.142 2057.91 0 0 0
1 0.01 1531.86 561.584 0 0 0
1 540.411 0 1288.01 0 0 0
1 582.678 4729.51 4481.19 0 0 0
1 1439.97 2287.42 220 0 0 0
1 790.142 912.978 1402.19 0 0 0
1 2878.43 0 747.686 0 0 0
1 1294.24 71.849 2680.41 0 0 0
1 44.105 438.316 2301.17 0 0 0
1 5000 3521.92 4241.94 0 0 0
1 778.995 1845.5 440.899 0 0 0
1 1076.12 1495.11 1679.97 0 0 0
1 6.638 3.061 4983.46 0 0 0
1 0 1392.2 338.026 0 0 0
1 2331.08 0 2340.23 0 0 0
1 1218.62 45.917 523.308 0 0 0
1 1648.81 0 1226.23 0 0 0
1 1166.07 1354.55 950.229 0 0 0
1 1118.21 315.578 269.848 0 0 0
1 1512.94 4330.38 3417.71 0 0 0
1 1133.11 465.819 2394.96 0 0 0
1 3617.7 632.442 456.089 0 0 0
1 138.12 111.026 792.285 0 0 0
1 941.532 139.332 766.534 0 0 0
1 1507.93 194.506 1396.26 0 0 0
1 445.908 1373.31 1638.26 0 0 0
1 4347.48 2206.81 1424.27 0 0 0
1 1061.96 4216.26 0 0 0 0
1 913.327 129.356 0 0 0 0
1 1972.04 2951.45 4887.82 0 0 0
1 560.019 1329.96 105.97 0 0 0
1 2190.62 4849.44 235.867 0 0 0
1 109.498 1105.83 0 0 0 0
1 0 188.688 476.915 0 0 0
1 4424.63 2212.69 1557.36 0 0 0
1 2532.05 2589.57 1445.38 0 0 0
1 258.954 246.323 0 0 0 0
1 132.838 204.673 1320.41 0 0 0
1 225.043 0.147 2141.17 0 0 0
1 1184.78 585.097 1478.13 0 0 0
1 1747 0 1998.68 0 0 0
1 1344.04 673.586 98.963 0 0 0
1 1140.38 1803.62 1672.68 0 0 0
1 0 288.248 1597.42 0 0 0
1 1739.47 603.728 1131.38 0 0 0
1 1065.55 2532.97 3828.12 0 0 0
1 285.731 1011.14 1071.41 0 0 0
1 15.104 376.303 1051.57 0 0 0
1 102.127 403.352 589.98 0 0 0
1 709.247 4120.95 1590.81 0 0 0
1 0.793 1232.05 440.343 0 0 0
1 2523.13 5000 1370.66 0 0 0
1 4047.32 0 3116 0 0 0
1 0 2133.29 834.174 0 0 0
1 138.339 570.627 244.068 0 0 0
1 0 4300.12 448.519 0 0 0
1 1592.17 382.953 177.471 0 0 0
1 268.174 466.432 115.632 0 0 0
1 1284.55 4464.46 2384.84 0 0 0
1 369.142 881.422 72.53 0 0 0
1 3955.98 603.329 1013.71 0 0 0
1 1097.46 1534.14 2582.09 0 0 0
1 900.037 20.106 867.662 0 0 0
1 237.572 1188.87 168.266 0 0 0
1 145.026 825.759 715.382 0 0 0
1 743.131 433.981 4.821 0 0 0
1 4599.05 1715.2 2250.88 0 0 0
1 1086.99 0 1278.57 0 0 0
1 901.6 143.073 114.871 0 0 0
1 214.253 1200.73 1523.3 0 0 0
1 2819.91 1757.33 4977.16 0 0 0
1 1186.67 3690.45 0 0 0 0
1 4516.32 2362.52 1590.65 0 0 0
1 2298.46 938.574 2235.26 0 0 0
1 910.139 266.802 683.935 0 0 0
1 731.915 3116.5 2563.31 0 0 0
1 378.393 0 1328.47 0 0 0
1 847.053 2205.02 1781.64 0 0 0
1 2437.41 1009.43 851.744 0 0 0
1 518.172 0 2631.04 0 0 0
1 1591.81 1477.88 746.545 0 0 0
1 369.486 0.412 1449.85 0 0 0
1 310.631 2302.22 1175.15 0 0 0
1 185.878 362.572 101.169 0 0 0
1 3810.16 3448.03 2039.98 0 0 0
1 823.124 2502.96 657.267 0 0 0
1 719.369 710.574 4210.84 0 0 0
1 1351.72 2315.11 876.523 0 0 0
1 720.636 0 2964.84 0 0 0
1 1086.04 2504.66 214.358 0 0 0
1 1420.4 329.385 2277.16 0 0 0
1 0 2298.27 1163.05 0 0 0
1 0 184.281 1682.98 0 0 0
1 259.65 1003.82 107.841 0 0 0
1 0 1448.33 3172.71 0 0 0
1 2828.81 5000 2677.09 0 0 0
1 2168.19 1139.03 0 0 0 0
1 0 2150.63 3011.93 0 0 0
1 909.729 1072.26 1802.94 0 0 0
1 0 1085.53 1491.91 0 0 0
1 0 953.977 5000 0 0 0
1 211.599 1269.85 519.415 0 0 0
1 341.95 2392.74 4182.78 0 0 0
1 1844.12 66.928 0.134 0 0 0
1 880.514 127.28 960.109 0 0 0
1 14.453 857.853 1752.24 0 0 0
1 2644.82 2192.32 2980.39 0 0 0
1 2804.92 3179.6 1006.45 0 0 0
1 1516.66 0 1475.34 0 0 0
1 225.644 1347.17 631.954 0 0 0
1 2024.82 3825.89 3621.66 0 0 0
1 2032.63 0 519.515 0 0 0
1 1241.41 4896.56 4964.22 0 0 0
1 1776.58 915.012 0 0 0 0
1 658.018 0 731.069 0 0 0
1 0 539.143 1930.02 0 0 0
1 2279.85 1500.71 1380.29 0 0 0
1 62.083 24.488 2684.99 0 0 0
1 372.249 116.76 959.796 0 0 0
1 0 1413 461.374 0 0 0
1 4997.87 2629.39 3904.35 0 0 0
1 295.757 1182.83 34.729 0 0 0
1 800.004 2374.94 935.861 0 0 0
1 2773.2 2175.02 3623.17 0 0 0
1 1986.29 4137.95 142.761 0 0 0
1 4541.88 3537.72 4558.52 0 0 0
1 0 367.978 1491.03 0 0 0
1 1222.18 2385.04 772.48 0 0 0
1 3798.62 4581.25 2208.28 0 0 0
1 1008.36 1785.88 1481.1 0 0 0
1 358.047 823.618 562.688 0 0 0
1 1367.52 0 966.281 0 0 0
1 1034.16 2407.38 0 0 0 0
1 1.192 1165.97 78.689 0 0 0
1 1406.51 2027.67 459.51 0 0 0
1 684.212 50.531 2049.39 0 0 0
1 1241.54 370.387 0 0 0 0
1 1271.19 478.163 2649.62 0 0 0
1 3686.99 1665.47 1851.68 0 0 0
1 1771.1 1379.37 2091.44 0 0 0
1 572.094 1637.43 1546.54 0 0 0
1 12.223 1130.37 1373.62 0 0 0
1 1015.26 585.885 228.04 0 0 0
1 751.566 683.264 71.062 0 0 0
1 2752.49 203.606 2019.27 0 0 0
1 132.321 1890.38 1040.84 0 0 0
1 2671.81 0 2142.75 0 0 0
1 413.644 1169.53 0 0 0 0
1 2319.57 778.81 1395.59 0 0 0
1 121.55 289.86 211.011 0 0 0
1 3402.31 502.99 1087.08 0 0 0
1 0 3583.37 1317.46 0 0 0
1 0 1837.01 2425.14 0 0 0
1 394.14 0 2040.07 0 0 0
1 1608 2450.34 1464.91 0 0 0
1 19.741 1693.66 3300.22 0 0 0
1 1262.74 1194.46 2663.77 0 0 0
1 33.202 142.92 1835.09 0 0 0
1 991.961 7.602 2952.96 0 0 0
1 2229.23 7.956 719.511 0 0 0
1 1208.94 3099.59 868.958 0 0 0
1 1818.03 3236.87 1289.09 0 0 0
1 410.549 0 207.346 0 0 0
1 1702.78 1847.51 428.672 0 0 0
1 2244.93 57.36 3028.26 0 0 0
1 1378.85 1265.23 755.281 0 0 0
1 1091.28 3232.97 1519.44 0 0 0
1 227.574 402.67 0 0 0 0
1 820.761 165.927 781.59 0 0 0
1 100.76 874.58 316.851 0 0 0
1 652.577 2343.68 477.782 0 0 0
1 2349.62 547.083 4107.33 0 0 0
1 2814.75 0 1482.95 0 0 0
1 831.525 747.186 834.959 0 0 0
1 180.603 397.797 1008.88 0 0 0
1 1908.99 2961.89 0 0 0 0
1 410.713 0.106 589.785 0 0 0
1 365.69 2349.02 961.472 0 0 0
1 111.456 336.646 0.773 0 0 0
1 1922.86 812.916 60.824 0 0 0
1 1092.91 1601.02 0 0 0 0
1 301.395 0 3652.42 0 0 0
1 153.546 1815.64 0.612 0 0 0
1 502.396 1661.1 513.827 0 0 0
1 83.854 210.612 354.343 0 0 0
1 1474.12 1487.04 408.948 0 0 0
1 2421.39 2618.85 1494.72 0 0 0
1 583.403 1028.19 1035.15 0 0 0
1 2611.7 3602.26 261.639 0 0 0
1 2011.79 0.093 118.999 0 0 0
1 756.814 571.487 216.752 0 0 0
1 713.108 221.226 582.11 0 0 0
1 472.247 4148.73 1347.78 0 0 0
1 4624.87 0 2253.48 0 0 0
1 795.461 1189.02 0 0 0 0
1 1370.49 2022.75 28.551 0 0 0
1 1101.11 0.212 945.692 0 0 0
1 429.807 2791.36 118.146 0 0 0
1 4994.64 7.471 1106.29 0 0 0
1 2347.92 3357.05 1367.21 0 0 0
1 3364.87 1081.16 1592.46 0 0 0
1 4175 3908.36 2953.77 0 0 0
1 744.425 2429.22 0 0 0 0
1 2923.53 3719.47 333.259 0 0 0
1 3129.89 1565.8 1412 0 0 0
1 1691.63 0.039 1109.21 0 0 0
1 2031.4 3904.55 2361.53 0 0 0
1 542.136 1493.2 2877.08 0 0 0
1 1738.34 714.157 65.934 0 0 0
1 249.451 2304.73 0.602 0 0 0
1 14.788 2376.03 727.113 0 0 0
1 2463.87 1033.89 4106 0 0 0
1 494.242 542.065 1865.82 0 0 0
1 31.825 106.824 2522.51 0 0 0
1 673.402 2472.96 3582.88 0 0 0
1 626.708 2483.39 1096.75 0 0 0
1 2344.26 1482.75 11.992 0 0 0
1 5000 2931.15 0 0 0 0
1 3353.02 3615.94 3148.9 0 0 0
1 4376.25 2198.14 569.179 0 0 0
1 3435.03 3244.82 0 0 0 0
1 2067.2 1617.08 1095.36 0 0 0
1 3712.8 1482.37 0 0 0 0
1 0 2277.49 1707.96 0 0 0
1 2784.42 2104.66 687.981 0 0 0
1 2742.95 1486.35 0 0 0 0
1 2795.82 7.533 164.738 0 0 0
1 25.564 1152.04 1019.71 0 0 0
1 0 573.488 627.816 0 0 0
1 1060.01 2483.69 1236.68 0 0 0
1 3772.72 1539.58 3964.97 0 0 0
1 6.597 1975.23 373.565 0 0 0
1 0 3805.76 1622.91 0 0 0
1 241.78 1833.9 1655 0 0 0
1 0 3445.58 1177.41 0 0 0
1 0 972.864 2160.93 0 0 0
1 1.373 2558.76 2132.61 0 0 0
1 910.149 1867.1 1012.45 0 0 0
1 819.322 215.267 131.462 0 0 0
1 35.103 4379.02 604 0 0 0
1 0 1707.81 1209.87 0 0 0
1 2038.12 3196.08 3.813 0 0 0
1 306.822 1820.6 1908.56 0 0 0
1 345.692 752.369 181.821 0 0 0
1 12.906 3729.42 96.492 0 0 0
1 495.299 843.371 0 0 0 0
1 183.608 595.616 8.282 0 0 0
1 120.489 1619.12 424.608 0 0 0
1 543.52 2095.15 3697.12 0 0 0
1 1240.3 58.643 0 0 0 0
1 2076.97 0 402.837 0 0 0
1 2747.99 4367.37 2750.67 0 0 0
1 2726.76 0 789.259 0 0 0
1 4483.48 408.861 4259.2 0 0 0
1 2510.61 9.453 493.672 0 0 0
1 2122.94 61.178 571.967 0 0 0
1 980.44 298.925 485.593 0 0 0
1 608.303 2128.25 1749.11 0 0 0
1 3798.05 0.441 3225.43 0 0 0
1 727.438 3070.94 1.301 0 0 0
1 197.536 941.921 4920.27 0 0 0
1 492.594 363.259 166.174 0 0 0
1 1075.93 1017.45 809.775 0 0 0
1 1812.28 3682.17 555.266 0 0 0
1 177.276 1111.19 1178.12 0 0 0
1 225.546 1047.78 247.827 0 0 0
1 1032.25 5.248 1130.28 0 0 0
1 685.379 802.537 74.286 0 0 0
1 1982.77 4145.92 0 0 0 0
1 2020.26 3855.51 4469.98 0 0 0
1 935.978 214.065 889.24 0 0 0
1 1493.29 1713.27 45.919 0 0 0
1 3925.76 3439.08 4209.65 0 0 0
1 254.025 97.978 1784.46 0 0 0
1 1392.44 3696.86 1841.05 0 0 0
1 24.646 342.029 427.713 0 0 0
1 63.686 237.343 586.444 0 0 0
1 2819.19 210.36 80.879 0 0 0
1 628.795 947.555 0 0 0 0
1 1575.28 955.78 0 0 0 0
1 3125.77 484.428 2.185 0 0 0
1 1247.19 980.405 71.943 0 0 0
1 2592.13 2147.52 1584.62 0 0 0
1 612.009 2978.11 67.395 0 0 0
1 2066.64 1789.49 1.308 0 0 0
1 24.094 3113.82 10.039 0 0 0
1 1556.21 0 2148.23 0 0 0
1 1331.92 869.64 2168.21 0 0 0
1 673.014 515.148 78.746 0 0 0
1 76.676 384.16 149.827 0 0 0
1 437.375 1590.11 1376.56 0 0 0
1 1699.99 1916.96 2.202 0 0 0
1 346.961 136.998 356.451 0 0 0
1 0 2161.13 956.065 0 0 0
1 3119.55 393.444 1111.09 0 0 0
1 4125.47 1983.96 969.375 0 0 0
1 143.532 4278.75 4253.05 0 0 0
1 598.079 460.437 0 0 0 0
1 11.35 279.612 36.548 0 0 0
1 1061.28 0 1429.16 0 0 0
1 1704.94 948.931 622.078 0 0 0
1 1141.16 0 2054.51 0 0 0
1 680.698 1591.46 241.686 0 0 0
1 4091.46 2264.8 770.635 0 0 0
1 2238.5 1224.69 260.436 0 0 0
1 648.264 274.752 16.011 0 0 0
1 2178.1 1416.91 89.594 0 0 0
1 0 1430.85 162.552 0 0 0
1 2514.38 484.03 674.797 0 0 0
1 200.276 1703.2 0 0 0 0
1 2713.8 3939.53 3745.22 0 0 0
1 618.06 321.642 1191.67 0 0 0
1 1174.39 2635.03 700.456 0 0 0
1 490.574 2114.05 0 0 0 0
1 3947.34 523.337 0 0 0 0
1 1631.42 414.828 0 0 0 0
1 0 3371.7 943.112 0 0 0
1 2902.38 0 2905.66 0 0 0
1 2825.56 105.203 113.89 0 0 0
1 2048.43 2281.89 954.936 0 0 0
1 414.889 2326.39 3632.81 0 0 0
1 0 1948.52 1185.77 0 0 0
1 524.427 1.774 381.256 0 0 0
1 1134.61 785.005 47.47 0 0 0
1 0 2171.17 3193.31 0 0 0
1 3751.62 754.047 2456.02 0 0 0
1 1.31 2.817 4191.85 0 0 0
1 1296.75 1033.52 3514.24 0 0 0
1 4225.75 996.897 2128.08 0 0 0
1 608.678 457.326 3196.2 0 0 0
1 2317.11 579.497 1114.94 0 0 0
1 0 2846.2 266.056 0 0 0
1 22.426 79.832 1737.51 0 0 0
1 1368.33 299.566 4297.32 0 0 0
1 1046.91 219.083 596.424 0 0 0
1 130.145 1428.83 2271.09 0 0 0
1 4055.84 0 1337.45 0 0 0
1 961.594 2914.69 851.436 0 0 0
1 0 3507.01 3018.68 0 0 0
1 398.911 894.369 860.266 0 0 0
1 1137.84 3050.06 2930.77 0 0 0
1 4879.41 3921.28 2112.18 0 0 0
1 697.812 552.308 2571.46 0 0 0
1 2303.32 2811.11 948.037 0 0 0
1 3253.71 2367.61 1628.76 0 0 0
1 1007.89 719.373 984.58 0 0 0
1 1387.87 150.988 147.593 0 0 0
1 17.702 1587.06 239.449 0 0 0
1 338.253 95.808 172.034 0 0 0
1 974.168 1863.72 0 0 0 0
1 1875.27 148.573 1206.7 0 0 0
1 0 1412.72 588.192 0 0 0
1 2751.84 769.424 5000 0 0 0
1 696.492 1930.01 1637.18 0 0 0
1 352.756 1134.64 159.591 0 0 0
1 1636.71 0 2049.13 0 0 0
1 13.792 11.459 2384.15 0 0 0
1 1022.46 0 2020.9 0 0 0
1 1972.45 0 3476.23 0 0 0
1 4189.67 4282.97 4848.1 0 0 0
1 2100.5 3757.01 652.631 0 0 0
1 898.808 2671.97 103.92 0 0 0
1 2303.11 3366.15 2993.41 0 0 0
1 1019.12 5000 2583.28 0 0 0
1 2243.66 325.091 4215.21 0 0 0
1 291.57 17.911 567.685 0 0 0
1 4781.64 2161.31 394.692 0 0 0
1 1058.09 2802.3 1338.47 0 0 0
1 209.581 18.519 805.965 0 0 0
1 3.453 3504.69 1415.64 0 0 0
1 415.424 16.427 2251.34 0 0 0
1 3724.58 1574.29 667.716 0 0 0
1 402.247 1371.61 1512.44 0 0 0
1 1570.33 4.667 326.396 0 0 0
1 52.142 1505.68 1683.89 0 0 0
1 4565.68 3403.37 1097.58 0 0 0
1 1307.63 2032.3 924.108 0 0 0
1 1502.09 5000 0 0 0 0
1 1357.86 1573.96 1904.28 0 0 0
1 1461.78 1929.32 1272.42 0 0 0
1 1273.16 1420.26 0.088 0 0 0
1 535.175 1253.22 594.146 0 0 0
1 0 3275.8 2219.48 0 0 0
1 1082.04 94.412 685.682 0 0 0
1 2413.72 1626.36 0 0 0 0
1 2412.85 3.923 578.306 0 0 0
1 686.873 4779.22 4374.02 0 0 0
1 131.997 35.769 1052.56 0 0 0
1 1997.98 0 235.767 0 0 0
1 579.729 4.616 823.116 0 0 0
1 719.664 2840.61 726.706 0 0 0
1 37.975 1251.71 1392.86 0 0 0
1 2241.43 3935.98 3407.52 0 0 0
1 990.372 1418.84 0 0 0 0
1 383.254 3925.48 793.593 0 0 0
1 359.457 3800.75 1599 0 0 0
1 1902.38 34.953 117.998 0 0 0
1 1375.08 454.737 631.114 0 0 0
1 367.986 2394.34 494.262 0 0 0
1 1043.18 1155.49 1214.94 0 0 0
1 0 509.188 149.692 0 0 0
1 4864.78 897.6 3606.53 0 0 0
1 34.706 1754.26 1988.58 0 0 0
1 1221.02 2659.82 8.413 0 0 0
1 948.481 442.97 2989.14 0 0 0
1 1075.81 1448.37 1560.83 0 0 0
1 3022.62 73.752 65.275 0 0 0
1 491.026 1799.02 94.624 0 0 0
1 0.003 0 3112.95 0 0 0
1 551.115 183.575 1005.24 0 0 0
1 3705.04 541.67 920.416 0 0 0
1 3756.66 4999.98 291.741 0 0 0
1 2069.72 158.637 0 0 0 0
1 437.275 3863.39 4117.82 0 0 0
1 248.922 1001.92 722.461 0 0 0
1 1075.03 922.374 0 0 0 0
1 4927.89 73.789 140.415 0 0 0
1 6.233 2332.47 246.341 0 0 0
1 1.293 293.187 158.714 0 0 0
1 15.985 901.213 1623.38 0 0 0
1 3164.17 0 1854.98 0 0 0
1 1233.68 740.531 3.314 0 0 0
1 791.27 0 2666.23 0 0 0
1 1101.15 0 2633.74 0 0 0
1 4999.58 3526.55 621.486 0 0 0
1 305.434 134.044 2568.2 0 0 0
1 312.958 1605.76 15.14 0 0 0
1 1896.66 641.693 1441.07 0 0 0
1 1278.42 248.037 0 0 0 0
1 1804.39 1643.89 33.205 0 0 0
1 83.27 962.155 249.29 0 0 0
1 3279.61 0 1902.91 0 0 0
1 2047.56 0 1944.67 0 0 0
1 841.633 10.548 4990.8 0 0 0
1 1396.46 968.715 0 0 0 0
1 1619.77 161.443 105.228 0 0 0
1 3898.34 1960.93 19.653 0 0 0
1 606.466 193.249 114.382 0 0 0
1 52.321 1375.84 0 0 0 0
1 4.496 1824.27 1176.86 0 0 0
1 640.49 87.287 307.844 0 0 0
1 1233.39 1149.32 0.425 0 0 0
1 302.457 2604.68 622.867 0 0 0
1 507.171 1330.23 0 0 0 0
1 317.625 366.232 1054.7 0 0 0
1 136.982 488.74 472.638 0 0 0
1 1863.58 661.698 4353.9 0 0 0
1 270.09 560.834 1489.61 0 0 0
1 1493.12 0 430.419 0 0 0
1 344.431 2.631 357.298 0 0 0
1 0 541.316 2174.51 0 0 0
1 3581.41 4052.08 2707.86 0 0 0
1 0 80.063 3021.34 0 0 0
1 2074.37 315.503 105.928 0 0 0
1 1409.7 266.322 115.836 0 0 0
1 2650.72 1508.63 802.378 0 0 0
1 4926.21 4730.13 139.253 0 0 0
1 1511.03 1783.85 1957.8 0 0 0
1 973.114 1301.85 1642.33 0 0 0
1 1033.95 711.707 658.723 0 0 0
1 170.073 3515.06 2913.48 0 0 0
1 2332.65 0 2215.57 0 0 0
1 0 2502.08 1555.92 0 0 0
1 3644.67 8.874 20.255 0 0 0
1 2059.59 3615.1 0 0 0 0
1 784.328 2092.46 4110.18 0 0 0
1 8.691 724.376 794.109 0 0 0
1 2960.48 186.598 236.125 0 0 0
1 178.272 1759.32 3240.33 0 0 0
1 657.982 3846.2 2142.37 0 0 0
1 2834.24 4588.96 1279.14 0 0 0
1 3153.68 278.454 1499.82 0 0 0
1 972.506 1473.11 1131.91 0 0 0
1 192.611 1298.9 145.184 0 0 0
1 1900.17 2998.96 315.119 0 0 0
1 688.588 0.114 385.341 0 0 0
1 159.248 2434.59 2199.66 0 0 0
1 2500.91 240.149 10.257 0 0 0
1 0 637.736 1516.87 0 0 0
1 2440.95 2220.36 15.29 0 0 0
1 1690.15 972.321 432.26 0 0 0
1 739.045 2400.44 3707.05 0 0 0
1 4033.92 55.934 2348.28 0 0 0
1 4092.91 4817.17 2012.82 0 0 0
1 1022.84 2838.97 3104.32 0 0 0
1 387.517 6.439 876.992 0 0 0
1 1525.73 512.997 0 0 0 0
1 1527.97 1848.44 3830.37 0 0 0
1 468.634 755.505 121.161 0 0 0
1 2480.1 3127.26 646.537 0 0 0
1 3818.86 0 932.488 0 0 0
1 499.36 125.825 3955.63 0 0 0
1 0.065 2763.2 2879.42 0 0 0
1 1192.88 3420.05 869.007 0 0 0
1 475.688 157.674 153.323 0 0 0
1 1581.11 725.744 440.182 0 0 0
1 851.353 3113.73 0 0 0 0
1 4985.41 2596.93 4960.45 0 0 0
1 2550.54 0 1365.56 0 0 0
1 139.571 0 579.055 0 0 0
1 1187.26 0 2992.73 0 0 0
1 741.167 58.84 241.859 0 0 0
1 4362.71 381.206 8.506 0 0 0
1 834.073 1905.47 2395.56 0 0 0
1 3994.8 0 55.982 0 0 0
1 1017.4 1447.67 2076.69 0 0 0
1 3699.57 1965.35 0 0 0 0
1 2432.19 971.007 733.15 0 0 0
1 12.609 1865.61 754.806 0 0 0
1 133.755 1213.4 2884.91 0 0 0
1 674.75 1665.35 2407.02 0 0 0
1 2831.74 4040.39 1514.75 0 0 0
1 2491.3 1954.31 2831.45 0 0 0
1 696.782 2526.7 2627.16 0 0 0
1 8.136 267.928 1109.18 0 0 0
1 2532.64 13.122 2638.34 0 0 0
1 155.019 687.487 1290.92 0 0 0
1 28.777 630.717 3199.92 0 0 0
1 1508.4 134.106 80.031 0 0 0
1 52.682 2110.21 303.029 0 0 0
1 105.015 1127.15 463.448 0 0 0
1 117.492 217.249 700.942 0 0 0
1 681.7 1001.97 335.519 0 0 0
1 1316.77 25.392 214.706 0 0 0
1 962.174 4744.38 2697.45 0 0 0
1 0 763.958 680.423 0 0 0
1 773.001 310.898 0 0 0 0
1 18.82 672.794 1634.8 0 0 0
1 4224.83 1215.54 1322.6 0 0 0
1 3509.36 1396.63 0 0 0 0
1 1814.29 2407.2 730.9 0 0 0
1 781.342 6.241 1135.38 0 0 0
1 737.773 1685.88 860.402 0 0 0
1 3400.01 303.96 4808.19 0 0 0
1 1328.88 1390.42 767.926 0 0 0
1 4314.02 4597.96 1986.7 0 0 0
1 254.317 1440.73 410.451 0 0 0
1 816.933 323.641 202.624 0 0 0
1 260.831 953.394 3466.23 0 0 0
1 1396.06 0 1424.19 0 0 0
1 1237.93 36.962 292.713 0 0 0
1 96.977 1365.87 113.397 0 0 0
1 1669.33 294.76 7.202 0 0 0
1 1095.27 357.088 0 0 0 0
1 13.292 248.543 1481.75 0 0 0
1 0 2055 2649.52 0 0 0
1 1981.64 47.727 1400.84 0 0 0
1 1692.29 1712.49 156.528 0 0 0
1 678.636 1774.34 2252.38 0 0 0
1 921.112 1660.09 3608.95 0 0 0
1 1105.97 0 1698.36 0 0 0
1 1209.12 97.203 1096.84 0 0 0
1 0.375 274.429 2360.27 0 0 0
1 1066.58 4259.23 2760.64 0 0 0
1 2454.67 80.622 162.64 0 0 0
1 0 502.245 300.08 0 0 0
1 2981.39 564.822 1860.91 0 0 0
1 2390.1 2340.24 1396.71 0 0 0
1 1535.48 864.397 2357.91 0 0 0
1 2558.42 2382.1 4649.64 0 0 0
1 832.906 0 1925.26 0 0 0
1 712.313 2948.49 0 0 0 0
1 95.731 274.392 1406.88 0 0 0
1 688.93 602.25 0 0 0 0
1 4795.61 2587.83 3705.14 0 0 0
1 2802.69 2758.77 284.664 0 0 0
1 1674.43 675.192 2343.94 0 0 0
1 208.306 528.764 809.39 0 0 0
1 1228.41 860.334 2787.48 0 0 0
1 125.313 22.092 2410.88 0 0 0
1 3339.45 1855.16 465.082 0 0 0
1 13.47 2368.08 1838.81 0 0 0
1 490.28 3589.09 2509.89 0 0 0
1 272.556 953.895 207.906 0 0 0
1 1906.39 5000 1603.54 0 0 0
1 908.15 1271.08 1880.53 0 0 0
1 82.626 386.769 1407.55 0 0 0
1 3580.19 1185.56 6.513 0 0 0
1 8.24 145.88 2380.39 0 0 0
1 280.979 488.858 1161.9 0 0 0
1 1414.72 0 1091.26 0 0 0
1 482.904 1835.87 1575.72 0 0 0
1 0 872.987 1285.59 0 0 0
1 3054.72 2798.62 382.041 0 0 0
1 1184.56 397.563 864.958 0 0 0
1 0 2781.75 1559.3 0 0 0
1 2841.23 0 628.073 0 0 0
1 697.044 0 1526.16 0 0 0
1 0 1603.26 667.868 0 0 0
1 1019.24 4197.94 985.782 0 0 0
1 117.204 133.196 2008.5 0 0 0
1 286.441 1404.38 103.347 0 0 0
1 0 1132.03 1624.79 0 0 0
1 0 2072.94 1790.78 0 0 0
1 1.378 1390.29 3687.15 0 0 0
1 0 595.464 426.749 0 0 0
1 765.613 1654.46 0 0 0 0
1 585.721 1955.28 0 0 0 0
1 2.353 3446.42 122.399 0 0 0
1 4.344 1120.93 181.55 0 0 0
1 2313.96 1226.9 1447.18 0 0 0
1 822.533 1163 1334.05 0 0 0
1 13.34 1649.73 4035.8 0 0 0
1 1235.5 946.328 1047.84 0 0 0
1 539.54 1645.41 28.251 0 0 0
1 370.502 4226.79 3214.51 0 0 0
1 605.745 912.815 920.754 0 0 0
1 147.011 305.263 1094.79 0 0 0
1 4048.5 2184.41 1505.64 0 0 0
1 1277.62 2740.63 1478.43 0 0 0
1 962.01 1451.83 1696.21 0 0 0
1 2100.85 273.996 2441.92 0 0 0
1 1617.19 156.66 215.101 0 0 0
1 2650.17 1694.03 366.714 0 0 0
1 568.538 1226.87 2.595 0 0 0
1 1920.82 4188.55 4113.81 0 0 0
1 3862.81 1654.86 1426.53 0 0 0
1 1744.43 4243.2 391.044 0 0 0
1 26.449 57.03 1983.12 0 0 0
1 1719.31 811.322 342.167 0 0 0
1 3636.37 4538.79 3937.74 0 0 0
1 351.158 602.442 39.503 0 0 0
1 7.16 1825.23 610.95 0 0 0
1 2561.1 1543.84 29.569 0 0 0
1 279.649 83.636 678.24 0 0 0
1 731.584 123.349 136.898 0 0 0
1 1149.43 464.089 25.435 0 0 0
1 1452.89 0 274.981 0 0 0
1 482.392 949.371 1013.58 0 0 0
1 2192.6 4636.71 758.474 0 0 0
1 1763.71 1634.39 3275.19 0 0 0
1 4608.22 4545.53 4673.52 0 0 0
1 0 147.004 4411.28 0 0 0
1 27.034 2604.47 4745.65 0 0 0
1 3078.09 1811.93 1907.18 0 0 0
1 2487.59 1619.85 1227.75 0 0 0
1 4998.5 3681.94 2.742 0 0 0
1 2905.47 23.584 1745.88 0 0 0
1 1707.4 1567.99 349.716 0 0 0
1 333.093 1575.73 159.42 0 0 0
1 542.944 3950.56 1883.73 0 0 0
1 934.63 2491.22 194.476 0 0 0
1 2542.81 200.972 732.422 0 0 0
1 369.911 238.518 905.063 0 0 0
1 18.641 1303.06 525.532 0 0 0
1 406.479 773.61 21.099 0 0 0
1 212.183 48.793 2532.81 0 0 0
1 3500.02 473.753 3908.87 0 0 0
1 1393.3 1468.11 48.843 0 0 0
1 2023.08 664.195 4786.43 0 0 0
1 1030.44 1532.2 3361.22 0 0 0
1 1823.75 1513.7 1914.59 0 0 0
1 4226.09 1742.24 869.94 0 0 0
1 3671.05 1622.95 2386.01 0 0 0
1 3200.46 1786.97 1508.16 0 0 0
1 3990.64 1785.48 4983.69 0 0 0
1 5000 924.17 1405.57 0 0 0
1 3977.55 1921.88 1729.08 0 0 0
1 4120.92 2716.14 269.348 0 0 0
1 3.798 4469.61 1.184 0 0 0
1 1876.48 1494.96 4302.61 0 0 0
1 836.007 4338.86 3444.52 0 0 0
1 2869.43 1817.73 800.063 0 0 0
1 2437.05 2051.96 2823.68 0 0 0
1 3122.69 1562.36 2594.11 0 0 0
1 3875.84 3096.2 123.622 0 0 0
1 910.511 4264.2 3164.49 0 0 0
1 1209.82 1969.23 4364.7 0 0 0
1 3146.66 3617.42 2328.48 0 0 0
1 2330.62 4083.77 2361.4 0 0 0
1 1597.41 4011.61 2951.07 0 0 0
1 974.599 13.257 4999.72 0 0 0
1 2166.42 3263.56 3239.83 0 0 0
1 3759.66 2986.14 1731.68 0 0 0
1 4423.16 922.101 2.035 0 0 0
1 1865.87 2710.62 2031.05 0 0 0
1 2278.28 4997.71 1325.76 0 0 0
1 2557.51 2915.75 5.556 0 0 0
1 5000 2247.04 1550.25 0 0 0
1 388.871 1239.02 2298.07 0 0 0
1 4640.75 122.834 3294.03 0 0 0
1 2149.09 3161.22 4260.51 0 0 0
1 4466.52 3781.34 5000 0 0 0
1 4994.84 1270.73 400.749 0 0 0
1 2309.47 1699.35 1061.96 0 0 0
1 4456.03 3341.04 1145.42 0 0 0
2 1005.08 1953.04 4997.3 0 0 0
2 4998.38 13.84 0.265 0 0 0
2 4996.47 4996.81 867.804 0 0 0
2 0.102 8.43 3918.12 0 0 0
2 1480.91 3622.29 689.173 0 0 0
2 3195.76 0 3613.77 0 0 0
2 4999.94 1701.88 148.383 0 0 0
2 166.032 4979.32 4959.06 0 0 0
2 3709.22 3506.87 0.021 0 0 0
2 752.731 0.001 0.547 0 0 0
2 4988.24 4992.99 4120.34 0 0 0
2 5000 583.442 4918.93 0 0 0
2 3646.63 4999.54 25.664 0 0 0
2 2.222 4999.48 4999.81 0 0 0
2 3974.33 4999.31 4988.87 0 0 0
2 4992.33 4993.53 4994.49 0 0 0
2 4978.22 4999.54 3255.51 0 0 0
2 312.234 0.004 0.001 0 0 0
2 4522.3 0 0 0 0 0
2 1319.15 4591.03 4994.75 0 0 0
2 5000 4014.71 0 0 0 0
2 4997.33 269.893 15.928 0 0 0
2 3843.72 2391.08 12.408 0 0 0
2 1831.91 1870.1 0 0 0 0
2 1930.07 2637.45 3940.51 0 0 0
2 5000 923.885 139.867 0 0 0
2 904.841 1558.34 17.262 0 0 0
2 3427.14 33.446 163.026 0 0 0
2 71.317 4961.27 59.668 0 0 0
2 2502.23 0 3776.76 0 0 0
2 1283.82 0 1697.11 0 0 0
2 1614.45 1071.93 2369.63 0 0 0
2 97.924 1473.87 2048.8 0 0 0
2 2797.61 3.084 1221.51 0 0 0
2 530.224 992.961 4371.48 0 0 0
2 0 3079.23 605.285 0 0 0
2 343.814 2671.14 766.097 0 0 0
2 862.435 578.723 0 0 0 0
2 1648.82 1065.36 316.328 0 0 0
2 1555.21 0 2490.91 0 0 0
2 134.823 0 1478.7 0 0 0
2 84.868 86.627 4899.62 0 0 0
2 2.408 3049.81 1883.49 0 0 0
2 1204.28 1158.06 1217.54 0 0 0
2 736.517 0 876.3 0 0 0
2 1307.08 2416.05 0 0 0 0
2 54.279 518.794 811.163 0 0 0
2 1533.08 3471.34 0 0 0 0
2 0 1767.18 194.417 0 0 0
2 1049.5 2389.3 5000 0 0 0
2 255.541 0 993.55 0 0 0
2 1974.51 2056.22 1343.08 0 0 0
2 548.551 137.887 725.293 0 0 0
2 2125.68 0 1648.25 0 0 0
2 2062.85 224.109 523.841 0 0 0
2 3278.79 2668.82 3520.8 0 0 0
2 750.342 1094.7 438.527 0 0 0
2 985.414 481.748 111.725 0 0 0
2 605.746 4985.93 4.159 0 0 0
2 13.529 143.555 856.584 0 0 0
2 0 1258.3 215.663 0 0 0
2 0 585.834 4270.53 0 0 0
2 120.998 2791.43 565.6 0 0 0
2 1318.32 3530.8 0 0 0 0
2 133.553 1075.52 146.007 0 0 0
2 1309.45 0 3299.15 0 0 0
2 482.608 920.531 723.867 0 0 0
2 1695.54 82.408 15.954 0 0 0
2 572.215 1071.92 846.392 0 0 0
2 2950.6 2991.81 0 0 0 0
2 1460.38 29.534 0 0 0 0
2 2271.93 38.337 82.623 0 0 0
2 159.09 982.903 431.651 0 0 0
2 347.241 51.662 1605.89 0 0 0
2 1885.76 2453.66 269.827 0 0 0
2 217.338 877.398 64.412 0 0 0
2 479.08 37.924 9.378 0 0 0
2 2247.55 2836.52 1989.95 0 0 0
2 667.447 1532.86 0 0 0 0
2 3756.9 303.51 1478.38 0 0 0
2 2283.77 1203.38 470.007 0 0 0
2 613.313 0 193.107 0 0 0
2 3080.34 1297.86 0 0 0 0
2 2188.15 1544.3 0 0 0 0
2 452.83 974.721 178.114 0 0 0
2 1479.76 489.643 2442.09 0 0 0
2 70.612 4508.16 118.054 0 0 0
2 1709.09 380.103 360.126 0 0 0
2 1116.9 849.843 297.085 0 0 0
2 0 159.543 1327.17 0 0 0
2 1048.7 0 174.968 0 0 0
2 827.143 0 481.066 0 0 0
2 0 182.266 245.157 0 0 0
2 92.312 0.213 718.022 0 0 0
2 2658.98 171.837 101.032 0 0 0
2 4745.16 0 1915.58 0 0 0
2 524.417 538.581 2110.16 0 0 0
2 237.403 0 193.825 0 0 0
2 3427.93 160.249 1440.02 0 0 0
2 147.127 582.807 2252 0 0 0
2 585.143 3267.33 16.016 0 0 0
2 61.541 84.41 4063.84 0 0 0
2 138.99 1097.31 2211.88 0 0 0
2 4071.04 0 3283.31 0 0 0
2 459.396 0.049 1173.82 0 0 0
2 4459.19 2216.89 2813.72 0 0 0
2 1584.99 6.427 147.728 0 0 0
2 673.91 12.398 576.799 0 0 0
2 896.077 0 1252.9 0 0 0
2 67.671 2022.76 926.446 0 0 0
2 15.809 3831.13 4974.17 0 0 0
2 900.59 783.707 579.221 0 0 0
2 2700.61 4360.62 4999.99 0 0 0
2 2243.15 2174.26 0 0 0 0
2 951.383 300.709 0 0 0 0
2 475.767 2693.95 2882.31 0 0 0
2 58.651 1050.77 894.199 0 0 0
2 248.691 723.227 0 0 0 0
2 3790.34 0 1565.05 0 0 0
2 1749.69 3488.54 290.901 0 0 0
2 1941.27 1697.31 0 0 0 0
2 848.406 0 1588.12 0 0 0
2 0 0 2120.51 0 0 0
2 205.338 173.923 143.291 0 0 0
2 565.965 0 1028.12 0 0 0
2 3645.55 411.822 3137.37 0 0 0
2 1138.33 1347.84 0 0 0 0
2 736.984 3556.36 1402.8 0 0 0
2 2087.55 505.453 10.399 0 0 0
2 0 1315.18 1877.35 0 0 0
2 0 2018.97 2402.26 0 0 0
2 139.223 53.441 5.763 0 0 0
2 2468.86 0 0 0 0 0
2 288.169 999.005 569.63 0 0 0
2 2137.23 1475.66 1062.44 0 0 0
2 1110.22 1208.44 2095.83 0 0 0
2 112.513 2331.64 19.097 0 0 0
2 695.982 1073.16 160.059 0 0 0
2 3627.03 3627.92 793.675 0 0 0
2 1641.17 1640.21 0 0 0 0
2 1120.33 1874.22 2539.23 0 0 0
2 60.165 593.143 1039.74 0 0 0
2 1398.45 1012.95 963.978 0 0 0
2 0 1699.72 504.083 0 0 0
2 1060.45 1268.15 166.35 0 0 0
2 703.432 833.262 325.894 0 0 0
2 49.617 705.382 306.922 0 0 0
2 219.5 155.273 1129.93 0 0 0
2 6.438 1530 1831.12 0 0 0
2 1163.76 0 1549.58 0 0 0
2 21.337 3601.46 0.47 0 0 0
2 298.174 235.473 1515.76 0 0 0
2 1291.68 2276.93 1436.5 0 0 0
2 0 1018.05 0 0 0 0
2 14.044 42.244 1600.45 0 0 0
2 1.152 1.045 1016.87 0 0 0
2 0 2751.83 389.44 0 0 0
2 1012.08 1068.46 364.103 0 0 0
2 4940.48 1385.59 13.523 0 0 0
2 0 348.976 4118.44 0 0 0
2 1174.32 0 2344.41 0 0 0
2 1060.4 163.279 98.573 0 0 0
2 1257.89 13.433 666.429 0 0 0
2 4999.58 130.22 670.355 0 0 0
2 0.298 914.65 1451.59 0 0 0
2 47.863 842.712 107.088 0 0 0
2 5.095 4672.24 17.722 0 0 0
2 3283.64 4944.42 0.027 0 0 0
2 2800.02 0 1639.75 0 0 0
2 0 901.524 763.2 0 0 0
2 1229.39 43.877 894.08 0 0 0
2 2130.05 3390.28 4245.31 0 0 0
2 1027.45 0 773.684 0 0 0
2 2698.39 3305.24 1802.78 0 0 0
2 963.34 1223.07 3394.3 0 0 0
2 1944.76 2305.04 3516.93 0 0 0
2 192.882 192.134 921.354 0 0 0
2 0 909.641 408.441 0 0 0
2 590.076 2265.61 2738.72 0 0 0
2 368.256 477.837 444.71 0 0 0
2 75.307 62.085 3697.47 0 0 0
2 739.324 169.588 0 0 0 0
2 2248.66 382.805 0 0 0 0
2 1582.67 551.809 1412.12 0 0 0
2 219.458 1997.2 33.527 0 0 0
2 1966.46 1823.11 1366.84 0 0 0
2 56.237 1004.69 565.681 0 0 0
2 1580.26 1297.58 4.187 0 0 0
2 4980.43 3.664 3813.99 0 0 0
2 0 4132.67 0 0 0 0
2 3824.36 4968.88 4907.42 0 0 0
2 4999.22 2426.4 1958.81 0 0 0
2 4862.97 2649.7 4003.69 0 0 0
2 4999.3 2838.24 4997.29 0 0 0
2 3525.93 2504.7 39.367 0 0 0