ITEM: TIMESTEP
0
ITEM: NUMBER OF ATOMS
1000
ITEM: BOX BOUNDS pp pp pp
-1.0000000000000000e+02 4.1000000000000000e+03
-1.0000000000000000e+02 4.1000000000000000e+03
-1.0000000000000000e+02 4.1000000000000000e+03
ITEM: ATOMS type x y z ix iy iz
1 264.951 591.579 172.357 0 0 0
1 618.992 633.11 326.646 0 0 0
1 50.454 792.841 341.826 0 0 0
1 643.606 849.822 947.892 0 0 0
1 90.36 532.105 802.538 0 0 0
1 731.884 21.45 766.235 0 0 0
1 400.546 939.251 539.797 0 0 0
1 725.373 342.065 718.144 0 0 0
1 497.182 741.261 404.04 0 0 0
1 310.114 742.336 534.02 0 0 0
1 191.202 827.842 183.72 0 0 0
1 479.153 710.046 721.408 0 0 0
1 910.92 775.461 774.522 0 0 0
1 544.537 124.195 245.379 0 0 0
1 790.522 295.648 958.372 0 0 0
1 625.071 847.111 6.55 0 0 0
1 355.151 615.289 82.595 0 0 0
1 43.08 354.201 0.003 0 0 0
1 658.521 105.577 444.1 0 0 0
1 299.359 859.056 27.844 0 0 0
1 491.444 332.305 166.547 0 0 0
1 122.485 66.78 513.997 0 0 0
1 802.485 800.808 591.217 0 0 0
1 298.776 967.257 348.905 0 0 0
1 280.533 901.784 706.418 0 0 0
1 19.391 1.908 895.312 0 0 0
1 784.801 616.399 590.521 0 0 0
1 495.701 571.307 149.83 0 0 0
1 602.453 84.442 735.356 0 0 0
1 558.532 764.278 809.336 0 0 0
1 406.007 340.476 642.139 0 0 0
1 587.14 474.91 330.545 0 0 0
1 64.06 402.45 371.073 0 0 0
1 835.338 299.798 253.008 0 0 0
1 0.004 294.509 359.184 0 0 0
1 877.661 177.494 960.527 0 0 0
1 877.467 972.677 412.063 0 0 0
1 756.693 702.107 90.006 0 0 0
1 779.789 233.792 717.015 0 0 0
1 6.828 920.379 608.657 0 0 0
1 370.132 526.761 416.351 0 0 0
1 508.603 453.161 193.861 0 0 0
1 801.891 852.919 261.969 0 0 0
1 509.016 105.39 641.836 0 0 0
1 436.747 378.204 356.89 0 0 0
1 220.236 792.284 826.462 0 0 0
1 126.579 892.836 387.941 0 0 0
1 302.261 499.825 956.091 0 0 0
1 298.04 273.987 675.805 0 0 0
1 814.885 812.283 444.209 0 0 0
1 362.811 377.175 201.694 0 0 0
1 522.83 712.17 574.215 0 0 0
1 738.043 921.362 866.614 0 0 0
1 399.142 754.753 88.799 0 0 0
1 536.878 391.83 479.202 0 0 0
1 572.782 372.824 772.059 0 0 0
1 587.781 302.696 408.651 0 0 0
1 389.252 484.35 763.406 0 0 0
1 212.754 201.158 283.57 0 0 0
1 231.63 302.45 122.661 0 0 0
1 386.323 673.867 825.872 0 0 0
1 777.471 836.738 956.951 0 0 0
1 909.804 347.236 441.175 0 0 0
1 164.93 968.544 11.209 0 0 0
1 398.724 211.076 313.426 0 0 0
1 446.702 4.872 290.026 0 0 0
1 259.975 217.955 923.025 0 0 0
1 734.623 220.189 564.396 0 0 0
1 101.178 297.567 928.777 0 0 0
1 429.929 955.859 941.783 0 0 0
1 488.433 540.054 591.161 0 0 0
1 610.949 167.22 613.433 0 0 0
1 772.683 670.94 713.925 0 0 0
1 739.411 698.466 327.977 0 0 0
1 584.9 920.93 828.868 0 0 0
1 259.317 780.406 707.193 0 0 0
1 971.348 935.709 523.713 0 0 0
1 456.667 862.513 292.195 0 0 0
1 348.941 502.709 187.972 0 0 0
1 677.713 471.169 162.821 0 0 0
1 244.512 207.838 403.162 0 0 0
1 104.987 541.519 245.533 0 0 0
1 453.59 693.562 251.477 0 0 0
1 600.879 642.522 816.45 0 0 0
1 299.608 795.368 324.248 0 0 0
1 152.532 631.009 344.084 0 0 0
1 45.874 968.741 319.283 0 0 0
1 951.243 661.89 280.006 0 0 0
1 2325.47 651.725 186.498 0 0 0
1 2395.31 557.751 813.94 0 0 0
1 2361.25 675.621 739.557 0 0 0
1 2774.97 490.311 958.13 0 0 0
1 2588.67 923.021 122.162 0 0 0
1 2511.58 499.714 102.946 0 0 0
1 2474.08 639.927 477.608 0 0 0
1 2719.69 800.595 528.123 0 0 0
1 2602.05 578.741 140.323 0 0 0
1 2251.78 428.221 8.669 0 0 0
1 2754.77 848.778 422.818 0 0 0
1 2422.6 227.522 322.919 0 0 0
1 2368.26 423.472 47.704 0 0 0
1 2421.34 222.975 528.141 0 0 0
1 2683.61 860.896 10.836 0 0 0
1 2421.96 506.064 624.697 0 0 0
1 2590.69 320.773 594.902 0 0 0
1 2297.42 266.811 6.945 0 0 0
1 2667.85 451.267 248.659 0 0 0
1 2620 893.923 301.313 0 0 0
1 2389.76 354.621 444.941 0 0 0
1 2672.28 170.596 83.911 0 0 0
1 2322.72 179.578 454.877 0 0 0
1 2284.45 336.923 505.506 0 0 0
1 2433.73 987.318 238.026 0 0 0
1 2780.78 311.851 965.366 0 0 0
1 2288.26 399.608 342.066 0 0 0
1 2760.6 798.45 706.483 0 0 0
1 2301.36 247.849 323.212 0 0 0
1 2518.1 312.856 178.634 0 0 0
1 2309.86 438.618 671.364 0 0 0
1 2600.74 189.767 727.778 0 0 0
1 2381.74 119.544 726.777 0 0 0
1 2284.21 104.191 637.497 0 0 0
1 2506.49 332.933 307.192 0 0 0
1 2642.25 667.298 384.941 0 0 0
1 2607 847.175 668.553 0 0 0
1 2474.42 24.513 809.639 0 0 0
1 2556.16 815.514 396.981 0 0 0
1 2608 900.519 782.881 0 0 0
1 2809.28 375.137 698.465 0 0 0
1 2429.26 361.912 832.111 0 0 0
1 2819.59 894.785 551.321 0 0 0
1 2444.11 620.624 67.805 0 0 0
1 2332.56 17.374 307.91 0 0 0
1 2630.96 262.603 186.967 0 0 0
1 2458.38 176.972 892.393 0 0 0
1 2389.53 804.628 424.673 0 0 0
1 2340.86 865.15 237.453 0 0 0
1 2294.72 890.38 78.419 0 0 0
1 2758.41 151.569 731.837 0 0 0
1 2570.22 299.798 768.758 0 0 0
1 2358.46 562.495 269.29 0 0 0
1 2405.69 286.052 64.108 0 0 0
1 2774.01 803.54 868.611 0 0 0
1 2697.38 458.676 758.283 0 0 0
1 2388.4 403.349 171.885 0 0 0
1 2596.85 796.088 558.886 0 0 0
1 2506.83 165.184 418.643 0 0 0
1 2753.43 562.987 584.252 0 0 0
1 2340.2 81.515 889.28 0 0 0
1 2752.64 307.113 466.677 0 0 0
1 2423.44 445.715 280.842 0 0 0
1 2639.1 840.006 906.144 0 0 0
1 2773.51 765.743 114.936 0 0 0
1 2702.71 126.697 302.945 0 0 0
1 2367.61 772.148 20.795 0 0 0
1 2683.02 321.827 809.184 0 0 0
1 2586.66 13.181 292.739 0 0 0
1 2789.62 623.382 313.775 0 0 0
1 2225.64 352.711 833.974 0 0 0
1 2528.09 707.802 916.245 0 0 0
1 2283.46 1026.6 229.334 0 0 0
1 2253.16 830.835 352.949 0 0 0
1 2515.11 88.486 966.244 0 0 0
1 2438.63 116.924 202.157 0 0 0
1 2656.28 47.657 586.754 0 0 0
1 2690.49 727.699 6.179 0 0 0
1 2794.51 997.687 885.895 0 0 0
1 2676.4 39.785 880.402 0 0 0
1 2304.85 150.804 180.418 0 0 0
1 2544.93 130.171 96.837 0 0 0
1 2438.86 884.126 167.883 0 0 0
1 2393.2 52.649 8.386 0 0 0
1 2500.77 89.27 708.933 0 0 0
1 2695.63 982.656 31.816 0 0 0
1 2280.63 810.95 518.74 0 0 0
1 145.002 2666.91 690.623 0 0 0
1 879.173 2757.76 97.643 0 0 0
1 169.514 2538.74 924.271 0 0 0
1 461.079 2704.78 483.97 0 0 0
1 774.219 2465.28 773.146 0 0 0
1 730.696 2369.52 696.084 0 0 0
1 99.132 2712.85 915.154 0 0 0
1 660.657 2495.54 808.278 0 0 0
1 122.218 2570.18 80.432 0 0 0
1 491.931 2299.75 344.247 0 0 0
1 100.889 2424.89 428.219 0 0 0
1 985.215 2754.7 530.035 0 0 0
1 430.246 2441.98 704.648 0 0 0
1 312.443 2689.17 469.946 0 0 0
1 6.528 2686.37 376.068 0 0 0
1 553.135 2486.4 453.632 0 0 0
1 906.104 2366.04 92.614 0 0 0
1 264.335 2353.86 870.356 0 0 0
1 940.011 2555.09 22.508 0 0 0
1 558.423 2753.43 673.788 0 0 0
1 378.047 2347.45 23.692 0 0 0
1 838.715 2341.69 630.134 0 0 0
1 0 2656.12 137.874 0 0 0
1 934.438 2560.62 314.51 0 0 0
1 14.219 2655.63 693.72 0 0 0
1 620.476 2639.41 892.294 0 0 0
1 203.198 2283.65 100.862 0 0 0
1 462.006 2454.68 568.155 0 0 0
1 836.152 2668.89 290.551 0 0 0
1 601.491 2669.5 586.45 0 0 0
1 661.495 2757.99 461.713 0 0 0
1 891.643 2575.52 136.687 0 0 0
1 881.364 2706.3 451.309 0 0 0
1 404.73 2787.16 566.009 0 0 0
1 16.846 2563.55 222.782 0 0 0
1 578.425 2787.02 846.245 0 0 0
1 884.837 2384.71 774.43 0 0 0
1 918.885 2688.25 191.596 0 0 0
1 220.243 2428.85 457.353 0 0 0
1 500.073 2262.13 519.41 0 0 0
1 1.623 2804.01 747.202 0 0 0
1 91.274 2586.14 470.346 0 0 0
1 762.736 2593.17 365.719 0 0 0
1 342.151 2462.43 872.974 0 0 0
1 341.521 2604.74 388.104 0 0 0
1 694.725 2648.41 500.825 0 0 0
1 290.8 2828.26 145.679 0 0 0
1 385.702 2595.81 915.886 0 0 0
1 0 2654.39 534.733 0 0 0
1 198.29 2593.56 181.621 0 0 0
1 148.754 2467.29 593.662 0 0 0
1 182.177 2352.19 202.943 0 0 0
1 458.006 2577.65 369.51 0 0 0
1 676.598 2617.55 131.615 0 0 0
1 604.443 2347.67 372.438 0 0 0
1 516.626 2732.03 20.965 0 0 0
1 703.812 2748.59 169.336 0 0 0
1 499.95 2652.83 872.431 0 0 0
1 750.303 2604.72 602.229 0 0 0
1 741.365 2430.81 353.446 0 0 0
1 708.948 2802.12 358.81 0 0 0
1 263.456 2739.66 67.265 0 0 0
1 337.803 2289.05 496.483 0 0 0
1 1006.6 2667.45 398.694 0 0 0
1 752.439 2408.89 472.642 0 0 0
1 643.05 2567.86 681.535 0 0 0
1 7.508 2402.06 148.992 0 0 0
1 293.493 2769.18 770.472 0 0 0
1 114.326 2716.22 483.575 0 0 0
1 981.959 2433.66 578.987 0 0 0
1 17.386 2565.61 18.219 0 0 0
1 899.42 2747.78 638.349 0 0 0
1 516.588 2597.65 494.126 0 0 0
1 681.837 2544.86 936.469 0 0 0
1 315.296 2484.44 388.782 0 0 0
1 174.435 2549.81 358.113 0 0 0
1 858.049 2256.23 844.926 0 0 0
1 741.061 2441.47 197.917 0 0 0
1 701.508 2611.59 9.612 0 0 0
1 4.455 2459.87 736.388 0 0 0
1 545.866 2360.65 575.831 0 0 0
1 492.751 2400.86 54.07 0 0 0
1 761.482 2705.7 704.058 0 0 0
1 981.969 2680.54 72.1 0 0 0
1 422.04 2744.27 887.319 0 0 0
1 140.203 2771.22 803.911 0 0 0
1 264.271 2624.12 772.101 0 0 0
1 788.779 2538.56 60.754 0 0 0
1 318.04 274.312 2478.72 0 0 0
1 230.905 643.902 2530.1 0 0 0
1 751.162 680.568 2224.89 0 0 0
1 913.069 521.681 2371.17 0 0 0
1 711.577 33.637 2633.95 0 0 0
1 869.889 22.145 2538.99 0 0 0
1 389.115 533.434 2351.41 0 0 0
1 28.88 230.379 2370.08 0 0 0
1 669.653 932.416 2249.14 0 0 0
1 774.362 414.231 2434.47 0 0 0
1 423.905 222.947 2595.57 0 0 0
1 518.178 356.957 2212.28 0 0 0
1 849.234 261.178 2448.3 0 0 0
1 742.95 337.519 2644.81 0 0 0
1 45.091 553.732 2499.34 0 0 0
1 608.572 806.447 2417.55 0 0 0
1 693.146 628.36 2362.47 0 0 0
1 933.813 372.717 2327.77 0 0 0
1 928.368 376.169 2650.51 0 0 0
1 904.964 936.74 2226.31 0 0 0
1 548.526 191.273 2585.68 0 0 0
1 725.037 894.456 2442.38 0 0 0
1 154.091 897.796 2621.2 0 0 0
1 957.556 51.838 2653.41 0 0 0
1 238.456 538.179 2397.07 0 0 0
1 728.951 127.381 2503.8 0 0 0
1 818.091 987.04 2306.09 0 0 0
1 710.59 111.795 2349.16 0 0 0
1 13.363 438.239 2547.07 0 0 0
1 142.49 609.208 2305.26 0 0 0
1 475.301 645.457 2271.99 0 0 0
1 471.959 119.31 2255.04 0 0 0
1 900.835 982.082 2515.06 0 0 0
1 484.764 469.664 2300.71 0 0 0
1 800.94 259.683 2567.91 0 0 0
1 475.429 18.804 2443.18 0 0 0
1 873.204 654.994 2559.65 0 0 0
1 232.829 432.661 2491.52 0 0 0
1 1007.47 54.135 2448.95 0 0 0
1 766.359 325.056 2318.64 0 0 0
1 164.911 908.085 2455.21 0 0 0
1 300.241 217.627 2359.67 0 0 0
1 109.418 51.566 2237.58 0 0 0
1 131.363 969.284 2306.8 0 0 0
1 491.856 657.578 2413.47 0 0 0
1 442.382 294.837 2498.85 0 0 0
1 553.25 813.207 2310.15 0 0 0
1 549.772 830.822 2563.66 0 0 0
1 399.481 681.76 2510.67 0 0 0
1 166.071 286.088 2636.41 0 0 0
1 518.855 527.886 2553.85 0 0 0
1 312.594 18.646 2384.51 0 0 0
1 848.166 8.567 2417.6 0 0 0
1 679.631 740.568 2501.49 0 0 0
1 5.398 991.807 2458.71 0 0 0
1 321.382 407.43 2371.36 0 0 0
1 966.246 230.383 2425.55 0 0 0
1 931.774 160.717 2601.23 0 0 0
1 642.975 888.443 2654.29 0 0 0
1 130.485 735.184 2618.96 0 0 0
1 233.95 978.859 2577.23 0 0 0
1 637.121 606.398 2559.2 0 0 0
1 892.794 629.517 2271.81 0 0 0
1 330.945 901.069 2372.2 0 0 0
1 882.778 258.739 2287.68 0 0 0
1 121.171 159.644 2331.02 0 0 0
1 780.959 729.832 2403.02 0 0 0
1 242.765 109.287 2482.81 0 0 0
1 251.479 829.732 2285.42 0 0 0
1 120.709 343.799 2459.41 0 0 0
1 143.102 279.489 2318.56 0 0 0
1 386.968 475.477 2630.04 0 0 0
1 255.641 735.659 2411.59 0 0 0
1 241.773 367.235 2287.42 0 0 0
1 52.331 835.909 2510.12 0 0 0
1 322.907 151.731 2245.69 0 0 0
1 1.896 672.652 2388.57 0 0 0
1 381.079 791.166 2353.03 0 0 0
1 663.682 246.817 2439.27 0 0 0
1 7.887 721.761 2507.72 0 0 0
1 486.401 874.1 2220.65 0 0 0
1 100.226 786.84 2318.88 0 0 0
1 -0 -0 2234.47 0 0 0
1 876.769 144.271 2466.23 0 0 0
1 153.636 544.114 2552.14 0 0 0
1 791.407 185.305 2257.67 0 0 0
1 911.855 89.434 2286.11 0 0 0
1 2666.93 2411.3 526.453 0 0 0
1 2559.08 2385.69 11.64 0 0 0
1 2380.9 2673.05 8.206 0 0 0
1 2718.13 2679.87 145.374 0 0 0
1 2303.36 2662.84 337.929 0 0 0
1 2508.8 2714.12 179.176 0 0 0
1 2478.05 2334.87 482.847 0 0 0
1 2769.46 2721.81 623.035 0 0 0
1 2303.65 2420.55 962.981 0 0 0
1 2370.62 2504.53 170.494 0 0 0
1 2387.58 2332.08 307.642 0 0 0
1 2756.72 2573.85 404.65 0 0 0
1 2708.03 2538.45 205.911 0 0 0
1 2308.58 2226.36 316.992 0 0 0
1 2507.05 2496.92 0 0 0 0
1 2505.31 2638.96 19.86 0 0 0
1 2296.9 2348.38 560.175 0 0 0
1 2659.53 2504.79 603.473 0 0 0
1 2740.16 2413.24 235.726 0 0 0
1 2570.29 2249.05 675.568 0 0 0
1 2704.63 2511.11 988.525 0 0 0
1 2367.23 2471.38 544.227 0 0 0
1 2730.42 2368.41 786.627 0 0 0
1 2530.89 2554.18 103.893 0 0 0
1 2297.63 2374.81 10.963 0 0 0
1 2253.62 2745.82 232.667 0 0 0
1 2600.88 2427.35 191.006 0 0 0
1 2205.21 2342.05 639.946 0 0 0
1 2510.47 2347.07 770.329 0 0 0
1 2644.13 2530.77 486.303 0 0 0
1 2711.33 2376.63 78.975 0 0 0
1 2435.46 2428.12 393.55 0 0 0
1 2627.71 2505.87 31.821 0 0 0
1 2384.52 2543.17 418.133 0 0 0
1 2334.23 2626.6 670.344 0 0 0
1 2382.23 2665.89 566.456 0 0 0
1 2446.67 2562.51 549.324 0 0 0
1 2623.1 2590.01 375.032 0 0 0
1 2259.51 2272.04 883.866 0 0 0
1 2685.88 2743.1 371.836 0 0 0
1 2547.36 2428.11 334.614 0 0 0
1 2297.45 2593.03 124.618 0 0 0
1 2427.97 2427.68 924.227 0 0 0
1 2441.25 2350.05 670.885 0 0 0
1 2695.55 2421.11 895.092 0 0 0
1 2480.6 2226.93 421.231 0 0 0
1 2604.75 2330.9 880.854 0 0 0
1 2598.99 2236.77 797.251 0 0 0
1 2412.28 2754.22 397.433 0 0 0
1 2636.22 2606.03 901.825 0 0 0
1 2612.06 2659.63 492.42 0 0 0
1 2515.66 2307.98 986.964 0 0 0
1 2769.38 2506.43 680.465 0 0 0
1 2595.52 2556.35 248.433 0 0 0
1 2595.84 2842.32 228.517 0 0 0
1 2339.39 2415.06 711.242 0 0 0
1 2515.98 2778.2 3.684 0 0 0
1 2256.47 2462.96 180.768 0 0 0
1 2616.6 2391.14 730.761 0 0 0
1 2556.27 2361.16 574.16 0 0 0
1 2248.22 2627.7 537.927 0 0 0
1 2411.63 2445.52 272.82 0 0 0
1 2429.2 2468.51 648.286 0 0 0
1 2252.93 2393.95 793.216 0 0 0
1 2331.05 2661.68 455.712 0 0 0
1 2823.3 2579.84 219.286 0 0 0
1 2373.89 2623.07 966.771 0 0 0
1 2258.99 2509.28 483.258 0 0 0
1 2242.23 2424.53 358.266 0 0 0
1 2591.36 2741.71 618.564 0 0 0
1 2503.61 2667.82 566.866 0 0 0
1 2778.82 2629.05 539.715 0 0 0
1 2488.84 2253.89 586.215 0 0 0
1 2260.76 2318.57 112.8 0 0 0
1 2276.95 2738.24 909.596 0 0 0
1 2674.09 2377.65 399.679 0 0 0
1 2354.83 2604.42 847.866 0 0 0
1 2738.47 2506.61 91.95 0 0 0
1 2437.49 2280.32 842.869 0 0 0
1 2722.74 2705.91 984.676 0 0 0
1 2524.09 2480.54 457.094 0 0 0
1 2405.99 2552.97 734.155 0 0 0
1 2482.59 2523.13 212.967 0 0 0
1 2475.52 2615.7 294.853 0 0 0
1 2759.28 2283.35 153.386 0 0 0
1 2669.58 2628.84 601.873 0 0 0
1 2284.99 2271.16 435.351 0 0 0
1 2337.44 2393.12 455.304 0 0 0
1 2407.51 150.492 2848.73 0 0 0
1 2581.1 897.545 2567.57 0 0 0
1 2855.51 587.062 2559.96 0 0 0
1 2567.97 162.735 2804.09 0 0 0
1 2892.99 261.887 2477.67 0 0 0
1 2463.17 396.777 2424.26 0 0 0
1 2363.3 288.357 2521.33 0 0 0
1 2770.54 760.802 2461.22 0 0 0
1 2335.3 0 2555.7 0 0 0
1 2436.76 840.108 2332.81 0 0 0
1 2512.36 177.574 2318.77 0 0 0
1 2398.12 113.892 2353.22 0 0 0
1 2506.96 826.274 2456.79 0 0 0
1 2303.06 889.113 2978.03 0 0 0
1 2579.64 220.668 2681.05 0 0 0
1 2402.47 434.625 2944.04 0 0 0
1 2858.4 171.761 2572.66 0 0 0
1 2456.41 936.728 2645.88 0 0 0
1 2360.44 202.212 2606.26 0 0 0
1 2677.14 574.646 2833.42 0 0 0
1 2499.83 49.122 2386.97 0 0 0
1 2631.97 459.578 2634.74 0 0 0
1 2879.07 36.944 2664.41 0 0 0
1 2551.98 368.3 2549.52 0 0 0
1 2619.23 665.248 2568.49 0 0 0
1 2333.31 790.829 2913.48 0 0 0
1 2729.49 406.029 2892.85 0 0 0
1 2820.26 713.769 2572.86 0 0 0
1 2381.02 821.446 2509.03 0 0 0
1 2496.6 616.498 2503.15 0 0 0
1 2337.23 174.449 2727.46 0 0 0
1 2629.26 72.663 2519.4 0 0 0
1 2356.18 540.336 2688.82 0 0 0
1 2829.87 972.486 2508.13 0 0 0
1 2815.14 963.526 2347.23 0 0 0
1 2845.29 157.635 2398.45 0 0 0
1 2593.67 926.233 2433.91 0 0 0
1 2876.16 935.72 2843.9 0 0 0
1 2916.11 693.326 2851.55 0 0 0
1 2424.14 454.232 2813.15 0 0 0
1 2750.56 29.244 2432.41 0 0 0
1 2822.03 817.597 2922.17 0 0 0
1 2932.13 855.802 2494.24 0 0 0
1 2347.06 917.398 2413.28 0 0 0
1 2368.26 790.047 2632.8 0 0 0
1 2861.82 253.025 2866.62 0 0 0
1 2480.03 31.381 2940.53 0 0 0
1 2575.71 585.522 2761.53 0 0 0
1 2738.35 638.416 2521.49 0 0 0
1 2478.58 259.491 2545 0 0 0
1 2602.57 0.377 2345.47 0 0 0
1 2696.25 652.384 2681.54 0 0 0
1 2642.85 314.265 2344.68 0 0 0
1 2625.73 277.305 2582.64 0 0 0
1 2854.45 450.208 2296.02 0 0 0
1 2906.01 543.75 2692.67 0 0 0
1 2514.1 991.141 2872.57 0 0 0
1 2775.72 497.817 2376.55 0 0 0
1 2676.79 0 2667.64 0 0 0
1 2344.84 396.337 2572.74 0 0 0
1 2305.46 525.291 2900.86 0 0 0
1 2698.04 216.731 2843.36 0 0 0
1 2315.64 164.351 2500.41 0 0 0
1 2286.09 257.375 2335.72 0 0 0
1 2598.23 790.576 2821.97 0 0 0
1 2823.76 660.401 2374.26 0 0 0
1 2434.92 241.658 2403.47 0 0 0
1 2551.42 123.462 2613.42 0 0 0
1 2725.57 311.739 2728.2 0 0 0
1 2356.56 360.496 2776.62 0 0 0
1 2435.34 693.403 2849.16 0 0 0
1 2665.83 920.22 2908.47 0 0 0
1 2664.7 683.512 2406.56 0 0 0
1 2549.79 343.226 2835.43 0 0 0
1 2306.38 391.806 2450.03 0 0 0
1 2759 73.532 2736.7 0 0 0
1 2627.01 527.499 2520.78 0 0 0
1 2424.04 572.563 2838.99 0 0 0
1 2513.39 485.791 2605.21 0 0 0
1 2403.6 0 2713.19 0 0 0
1 2793.71 661.221 2913.33 0 0 0
1 2711.51 205.757 2481.76 0 0 0
1 2455.34 830.1 2872.18 0 0 0
1 2519.58 737.432 2575.3 0 0 0
1 2499 39.218 2527.89 0 0 0
1 2340.32 257.474 2841.73 0 0 0
1 2697.01 3.881 2868.29 0 0 0
1 623.518 2622.36 2500.37 0 0 0
1 276.292 2400.76 2605.78 0 0 0
1 279.677 2627.91 2250.24 0 0 0
1 157.046 2438.14 2604.57 0 0 0
1 734.456 2453.92 2437.79 0 0 0
1 484.273 2535.69 2589.31 0 0 0
1 533.098 2474.56 2171.66 0 0 0
1 562.501 2421.28 2469.73 0 0 0
1 348.51 2478.05 2489.69 0 0 0
1 307.503 2455.15 2115.43 0 0 0
1 51.042 2366.73 2520.94 0 0 0
1 803.915 2424.95 2558.06 0 0 0
1 154.905 2290.96 2297.51 0 0 0
1 609.449 2534.95 2417.9 0 0 0
1 385.367 2351.83 2140.82 0 0 0
1 497.715 2539.8 2469.13 0 0 0
1 468.596 2507.76 2270.05 0 0 0
1 719.984 2091.14 2408.01 0 0 0
1 421.49 2400.28 2583.19 0 0 0
1 0.01 2276.45 2405.41 0 0 0
1 699.752 2178.22 2529.08 0 0 0
1 828.781 2193.71 2446.51 0 0 0
1 92.195 2395.26 2406.43 0 0 0
1 178.348 2632.01 2411.76 0 0 0
1 565.86 2394.37 2270.88 0 0 0
1 774.855 2633.54 2256.15 0 0 0
1 679.588 2329.29 2590.64 0 0 0
1 440.378 2300.4 2512.11 0 0 0
1 208.857 2140.12 2502.92 0 0 0
1 314.398 2348.33 2472.97 0 0 0
1 264.582 2335.78 2325.03 0 0 0
1 730.279 2318.02 2284.2 0 0 0
1 676.264 2356.45 2157.45 0 0 0
1 699.883 2476.86 2148.73 0 0 0
1 100.151 2495.71 2322.46 0 0 0
1 274.607 2248.34 2177.61 0 0 0
1 559.096 2292.62 2102.28 0 0 0
1 218.187 2285.86 2519.26 0 0 0
1 668.964 2199.1 2157.67 0 0 0
1 533.089 2610.44 2259.85 0 0 0
1 482.834 2314.83 2233.16 0 0 0
1 918.845 2323.92 2638.39 0 0 0
1 751.841 2495.16 2325.36 0 0 0
1 681.4 2295.49 2474.47 0 0 0
1 873.301 2202.07 2301.39 0 0 0
1 831.921 2295.9 2182.24 0 0 0
1 264.37 2166.77 2382.41 0 0 0
1 976.557 2336.04 2495.87 0 0 0
1 797.688 2199.49 2672.79 0 0 0
1 895.109 2239.33 2538.45 0 0 0
1 800.68 2555 2578.19 0 0 0
1 755.8 2170.74 2237.02 0 0 0
1 864.522 2380.71 2462.31 0 0 0
1 934.423 2247.32 2421.45 0 0 0
1 376.583 2594.16 2514.67 0 0 0
1 565.895 2201.2 2608.09 0 0 0
1 505.55 2243.05 2427.82 0 0 0
1 296.895 2399.15 2222.18 0 0 0
1 556.389 2400.91 2599.26 0 0 0
1 454.42 2206.26 2324.29 0 0 0
1 926.555 2319.57 2324.71 0 0 0
1 1043.99 2430.48 2269.56 0 0 0
1 384.286 2544.19 2393.65 0 0 0
1 347.792 2234.17 2274.36 0 0 0
1 68.479 2493.51 2201.44 0 0 0
1 1047.84 2252.44 2356.72 0 0 0
1 108.884 2218.5 2626.83 0 0 0
1 0.089 2558.13 2582.2 0 0 0
1 677.698 2454.95 2595.95 0 0 0
1 657.03 2566.66 2260.08 0 0 0
1 996.575 2438.55 2594.75 0 0 0
1 821.998 2296.89 2382.49 0 0 0
1 186.836 2562.4 2529.37 0 0 0
1 627.528 2368.54 2374.77 0 0 0
1 466.836 2174.34 2519.59 0 0 0
1 1041.38 2563.97 2323.42 0 0 0
1 557.72 2138.18 2303.27 0 0 0
1 257.153 2500.95 2413.72 0 0 0
1 944.724 2484.2 2480.05 0 0 0
1 894.848 2503.85 2201.76 0 0 0
1 191.823 2165.99 2263.04 0 0 0
1 377.521 2385.73 2327.28 0 0 0
1 414.493 2584.36 2161.33 0 0 0
1 189.761 2439.83 2263.39 0 0 0
1 1017.86 2624.49 2587.11 0 0 0
1 0 2542.26 2371.89 0 0 0
1 743.955 2599.71 2466.9 0 0 0
1 873.708 2661.01 2360.32 0 0 0
1 2537.67 2021.93 2362.09 0 0 0
1 2103.82 2780.93 2616.62 0 0 0
1 2501.34 2534.29 2190.16 0 0 0
1 2328.28 2651.86 2071.3 0 0 0
1 2663.23 2326.01 2007.62 0 0 0
1 2336.05 2703.36 2770.6 0 0 0
1 2291.39 3145.52 2958.52 0 0 0
1 2592.52 3068.28 3167.06 0 0 0
1 2433.59 2526.74 2361.5 0 0 0
1 2921.74 2864.44 2663.15 0 0 0
1 2699.72 2008.15 2531.45 0 0 0
1 2013.4 2155.83 2894.6 0 0 0
1 2609.89 2003.41 2069.63 0 0 0
1 2349.31 2111.52 2042.05 0 0 0
1 2224.4 2363.82 3147.08 0 0 0
1 2749.52 2189.29 2477.59 0 0 0
1 2650.89 2888.45 2243.07 0 0 0
1 2005.81 2431.63 2722.31 0 0 0
1 2444.09 2001.34 2692.95 0 0 0
1 2908.18 2340.25 2477.77 0 0 0
1 2066.65 2336.63 2788.53 0 0 0
1 2194.42 2009.44 2660.53 0 0 0
1 2598 2227.98 2610.46 0 0 0
1 2759.32 2445.62 2028.38 0 0 0
1 2468.46 2668.97 2190.11 0 0 0
1 3013.58 2009.92 2435 0 0 0
1 2709.28 3133.29 2445.82 0 0 0
1 2774.82 2381.13 2485.93 0 0 0
1 2582.64 2185.74 2769.3 0 0 0
1 2655 2799.19 2373.07 0 0 0
1 3005.14 2885.97 2456.37 0 0 0
1 2579.1 2110.59 2124.71 0 0 0
1 2409.5 2237.95 2468.97 0 0 0
1 2281.83 2460.78 2076.02 0 0 0
1 2004.12 3554.26 3011.59 0 0 0
1 2595.84 2145.53 2356.51 0 0 0
1 2252.82 2000.99 2475.66 0 0 0
1 2356.13 2852.59 2243.38 0 0 0
1 2050.03 2736.05 2397.69 0 0 0
1 2557.79 2926.61 2001.57 0 0 0
1 2262.73 2207.11 2260.76 0 0 0
1 2074.43 2452.58 3032.24 0 0 0
1 2014.04 2594.64 2430.64 0 0 0
1 2515.18 3134.52 2452.14 0 0 0
1 2015.64 2404.67 3137.82 0 0 0
1 2584.83 2934.62 2611.27 0 0 0
1 2015.7 3017.99 2004.07 0 0 0
1 2543.56 2927.08 2410.05 0 0 0
1 2455.49 2153.11 2242.31 0 0 0
1 2792.65 3038.13 2721.87 0 0 0
1 3004.18 2013.06 2226.19 0 0 0
1 2231.2 2876.39 2091.02 0 0 0
1 2548.19 2593.57 2603.77 0 0 0
1 2498.04 2008.26 2000 0 0 0
1 2434.82 2461.51 2619.53 0 0 0
1 2353.35 2344.06 2013 0 0 0
1 2457.68 2128.36 2507.5 0 0 0
1 2901.43 2373 3084.1 0 0 0
1 2584.22 2027.78 2865.62 0 0 0
1 2023.73 2821.17 2052.99 0 0 0
1 2076.52 2208.62 2590.54 0 0 0
1 2849.15 2015.08 3063.33 0 0 0
1 2655.09 2550.39 2453.62 0 0 0
1 2682.56 2016.83 2170.91 0 0 0
1 2254.43 2117.66 2511.02 0 0 0
1 2364.52 2509.64 2002.21 0 0 0
1 2665.17 2577.74 2908.22 0 0 0
1 2574.9 2931.3 3153.16 0 0 0
1 2735.94 2611.21 2012.43 0 0 0
1 2058.02 2282.66 2412.95 0 0 0
1 2853.83 2593.64 2487.93 0 0 0
1 3239.06 2540.82 2223.2 0 0 0
1 2000.77 2102.22 2220.05 0 0 0
1 2593.64 2333.97 2439.97 0 0 0
1 2534.27 2367.1 2084.89 0 0 0
1 2044.39 3191.94 2522.67 0 0 0
1 2929.98 2558.59 2193.44 0 0 0
1 2011.44 2006.14 2581.41 0 0 0
1 2023.63 2703.55 3149.94 0 0 0
1 2389.73 2316.65 3005.32 0 0 0
1 2490.16 2095.56 2788.28 0 0 0
1 2024.29 2374.1 2267.82 0 0 0
1 2752.59 2025.75 2062.49 0 0 0
1 2193.62 2870.3 2434.91 0 0 0
1 2214.31 2093.19 2002.8 0 0 0
1 2466.35 2298.38 3417.03 0 0 0
1 3372 2401.72 2670.29 0 0 0
2 412.146 624.565 528.068 0 0 0
2 747.45 80.123 202.021 0 0 0
2 555.127 0 604.318 0 0 0
2 499.323 450.828 672.4 0 0 0
2 23.489 50.755 264.738 0 0 0
2 139.69 653.702 172.382 0 0 0
2 795.258 89.199 571.145 0 0 0
2 1948.52 1325.99 1771.25 0 0 0
2 379.566 387.288 463.924 0 0 0
2 845.727 515.484 407.501 0 0 0
2 531.069 615.703 412.411 0 0 0
2 103.831 56.637 696.574 0 0 0
2 37.404 27.39 28.582 0 0 0
2 640.9 500.954 498.717 0 0 0
2 994.963 221.312 938.948 0 0 0
2 381.876 206.539 613.276 0 0 0
2 153.954 49.113 265.577 0 0 0
2 178.871 593.279 23.925 0 0 0
2 812.844 529.676 159.009 0 0 0
2 1448.26 1970.98 1769.46 0 0 0
2 499.054 587.81 745.122 0 0 0
2 92.16 353.967 186.032 0 0 0
2 281.362 726.615 207.927 0 0 0
2 15.073 185.348 809.965 0 0 0
2 304.077 33.282 181.006 0 0 0
2 95.948 184.468 1056.37 0 0 0
2 171.433 274.056 784.026 0 0 0
2 783.174 445.633 1166.55 0 0 0
2 706.145 91.247 28.358 0 0 0
2 53.29 520.617 35.627 0 0 0
2 478.382 430.395 1.459 0 0 0
2 337.905 319.629 23.665 0 0 0
2 335.362 20.194 603.988 0 0 0
2 587.095 359.096 258.491 0 0 0
2 1989.01 831.08 1996.9 0 0 0
2 997.471 1120.29 1019.04 0 0 0
2 781.904 11.928 380.185 0 0 0
2 70.087 521.209 641.073 0 0 0
2 4000 1875.04 179.338 0 0 0
2 2891.55 755.571 365.912 0 0 0
2 3372.54 439.34 739.112 0 0 0
2 2000 0 130.048 0 0 0
2 4000 0 2000 0 0 0
2 3860.06 437.397 159.74 0 0 0
2 3253.98 272.125 799.997 0 0 0
2 3121.14 478.679 34.194 0 0 0
2 3442.4 807.02 744.591 0 0 0
2 2803.03 56.208 794.948 0 0 0
2 3655.43 103.416 641.413 0 0 0
2 3851.91 221.979 731.412 0 0 0
2 3150.48 804.833 224.868 0 0 0
2 2847.38 456.392 788.232 0 0 0
2 2800.95 270.35 853.107 0 0 0
2 3349.98 432.244 64.062 0 0 0
2 2000 1775.04 0 0 0 0
2 3273.64 328.944 543.931 0 0 0
2 3607.82 404.067 253.214 0 0 0
2 3579.64 909.261 754.426 0 0 0
2 3845.36 789.304 370.923 0 0 0
2 2762.85 286.323 628.435 0 0 0
2 3743.16 99.622 539.619 0 0 0
2 3217.02 228.278 505.196 0 0 0
2 3016.94 472.385 814.582 0 0 0
2 3168.82 116.631 223.081 0 0 0
2 3066.36 1014.64 360.816 0 0 0
2 3608.53 161.356 510.02 0 0 0
2 2713.42 320.319 308.264 0 0 0
2 2889.22 24.198 239.097 0 0 0
2 2932.71 199.124 703.748 0 0 0
2 3011.2 823.161 904.145 0 0 0
2 3768.39 345.564 604.402 0 0 0
2 3722.05 461.473 656.161 0 0 0
2 2982.47 816.411 278.192 0 0 0
2 3555.04 444.516 388.356 0 0 0
2 3828.61 30.669 791.869 0 0 0
2 0 2000 0 0 0 0
2 278.967 3058.41 412.137 0 0 0
2 863.272 2847.72 549.235 0 0 0
2 788.066 3487.14 437.087 0 0 0
2 820.135 3311.58 366.079 0 0 0
2 798.021 2938.33 17.462 0 0 0
2 409.234 3914.69 905.091 0 0 0
2 174.633 3820.32 906.138 0 0 0
2 206.962 3316.44 154.694 0 0 0
2 251.76 3084.64 826.727 0 0 0
2 348.43 2899.9 903.887 0 0 0
2 346.761 2824.65 19.085 0 0 0
2 650.859 2933.48 35.516 0 0 0
2 311.185 2906.85 262.718 0 0 0
2 376.12 3528.35 681.503 0 0 0
2 761.26 3120.7 855.871 0 0 0
2 438.671 3209.85 669.62 0 0 0
2 764.825 3095.46 590.552 0 0 0
2 523.219 3131.49 958.227 0 0 0
2 370.354 3824.01 747.402 0 0 0
2 26.066 3155.52 193.07 0 0 0
2 695.268 3241.73 338.727 0 0 0
2 279.89 2831.82 404.296 0 0 0
2 761.25 2772.92 567.176 0 0 0
2 51.981 3808.1 99.482 0 0 0
2 439.691 3365.62 1058.67 0 0 0
2 916.106 2875.88 104.516 0 0 0
2 751.578 3421.97 905.008 0 0 0
2 164.635 3435.08 938.179 0 0 0
2 537.642 3633.15 294.673 0 0 0
2 2000 4000 2000 0 0 0
2 915.192 2916.3 401.883 0 0 0
2 328.546 3025.59 607.876 0 0 0
2 343.721 3421.99 155.522 0 0 0
2 480.579 3550.2 162.176 0 0 0
2 281.019 3852.51 849.413 0 0 0
2 308.229 3685.7 942.442 0 0 0
2 165.709 2862.89 200.026 0 0 0
2 589.383 382.211 2750.46 0 0 0
2 737.247 502.08 2844.02 0 0 0
2 47.384 532.148 3349.26 0 0 0
2 482.872 952.834 3159.8 0 0 0
2 626.143 324.292 3583.15 0 0 0
2 143.569 737.481 3088.48 0 0 0
2 608.113 645.001 3542.4 0 0 0
2 629.333 968.52 3381.25 0 0 0
2 239.545 463.625 2881.48 0 0 0
2 595.609 954.558 3109.39 0 0 0
2 324.716 991.001 3323.27 0 0 0
2 750.787 946.869 3422.7 0 0 0
2 736.911 407.965 3353.88 0 0 0
2 727.505 513.55 3516.19 0 0 0
2 470.832 496.253 2869.47 0 0 0
2 35.389 898.641 2944.91 0 0 0
2 556.653 39.895 2816.89 0 0 0
2 295.61 803.14 3866.26 0 0 0
2 278.285 77.398 3436.01 0 0 0
2 86.394 116.541 3747.69 0 0 0
2 751.233 773.141 3594.6 0 0 0
2 180.605 301.7 2892.75 0 0 0
2 245.334 508.521 3623.92 0 0 0
2 877.41 503.061 3418.79 0 0 0
2 486.267 617.741 3095.86 0 0 0
2 220.885 793.083 2936.45 0 0 0
2 225.786 83.556 3902.68 0 0 0
2 684.697 244.515 2906.15 0 0 0
2 286.701 205.91 3273.97 0 0 0
2 632.561 154.158 3634.85 0 0 0
2 470.944 767.567 2920.65 0 0 0
2 831.642 111.301 3842.73 0 0 0
2 114.193 54.815 3051.43 0 0 0
2 740.899 584.75 3221.39 0 0 0
2 696.771 982.91 3862.16 0 0 0
2 589.547 193.818 3059.38 0 0 0
2 650.339 653.723 2714.47 0 0 0
2 3652.76 3523.36 48.397 0 0 0
2 3155.92 3371.68 106.007 0 0 0
2 3077.78 2688.39 666.612 0 0 0
2 3540.99 3649.46 231.018 0 0 0
2 3322.24 3171.99 497.775 0 0 0
2 3163.46 2625.07 206.666 0 0 0
2 2683.21 2966.18 275.721 0 0 0
2 3541.64 3050.14 159.793 0 0 0
2 2676.58 3318.62 185.624 0 0 0
2 2830.43 3456.91 527.115 0 0 0
2 2782.35 3398.94 350.202 0 0 0
2 3030.36 3201.6 449.366 0 0 0
2 2955.19 3521.39 344.424 0 0 0
2 2937.45 2704.22 212.793 0 0 0
2 3625.82 3585.03 760.984 0 0 0
2 2843.41 2806.03 118.413 0 0 0
2 2899.7 3070.45 641.915 0 0 0
2 3199.4 2558.52 588.079 0 0 0
2 3373.26 2766.61 332.758 0 0 0
2 3564.2 3179.87 443.062 0 0 0
2 2769.19 2761.56 459.363 0 0 0
2 2754.19 3367.35 598.636 0 0 0
2 2659.85 3241.57 303.562 0 0 0
2 3355.65 2683.16 189.101 0 0 0
2 3035.73 3188.12 215.604 0 0 0
2 2834.49 3348.65 28.505 0 0 0
2 3059.62 3614.01 604.489 0 0 0
2 3383.69 3343.7 731.276 0 0 0
2 3671.26 3240.74 219.44 0 0 0
2 2847.59 2901.55 659.333 0 0 0
2 3279.75 2686.62 334.064 0 0 0
2 2683.86 3463.13 425.89 0 0 0
2 2609.91 2682.73 247.231 0 0 0
2 3634.2 3368.4 149.1 0 0 0
2 2780.25 3634.67 301.681 0 0 0
2 3667.81 3624.9 357.295 0 0 0
2 3685.93 3237.48 68.027 0 0 0
2 3283.78 2951.12 377.23 0 0 0
2 3634.23 762.198 3623.12 0 0 0
2 3226.64 47.955 3340.47 0 0 0
2 3367.15 148.174 3027.21 0 0 0
2 3547.16 452.458 3247.25 0 0 0
2 3315.52 651.427 3237.54 0 0 0
2 3054.02 176.006 3021.4 0 0 0
2 3217.01 693.786 3338.17 0 0 0
2 3126.38 270.774 3123 0 0 0
2 2607.44 437.48 2908.61 0 0 0
2 3064.84 56.549 2644.33 0 0 0
2 3242.03 74.894 3120.17 0 0 0
2 2754.29 400.939 3348.54 0 0 0
2 3706.24 77.536 3358.45 0 0 0
2 3281.17 761.807 3588.8 0 0 0
2 3188.78 844.913 3613.62 0 0 0
2 2944.87 728.01 3531.27 0 0 0
2 2885.53 436.542 2929.32 0 0 0
2 3620.85 224.727 3221.42 0 0 0
2 3708.69 226.896 3136.99 0 0 0
2 3017.49 673.662 2916.13 0 0 0
2 3372.44 775.476 2712.09 0 0 0
2 3482.98 641.399 3671.24 0 0 0
2 2623.61 211.276 3438.95 0 0 0
2 2797.07 126.278 3164.41 0 0 0
2 3504.04 837.425 3539.95 0 0 0
2 3268.4 528.008 3597.24 0 0 0
2 2994.16 627.517 3249.19 0 0 0
2 3490.6 619.741 2718.68 0 0 0
2 2954.53 275.217 3312.04 0 0 0
2 3289 21.013 2857.86 0 0 0
2 3127.28 527.253 3549.32 0 0 0
2 2820.32 631.283 2744.58 0 0 0
2 3056.83 438.973 3323.74 0 0 0
2 2715.47 769.544 2735.93 0 0 0
2 3517.82 835.591 3676.66 0 0 0
2 2835.96 472.84 3591.09 0 0 0
2 3317.87 568.208 2895.47 0 0 0
2 484.227 3780.4 3540.12 0 0 0
2 193.381 3734.82 2663.72 0 0 0
2 265.312 3879.95 3417.63 0 0 0
2 905.593 3425.7 3668.57 0 0 0
2 252.203 3233.16 3788.53 0 0 0
2 217.596 3396.91 3721.64 0 0 0
2 562.314 2736.43 2681.01 0 0 0
2 221.316 2968.2 3571.77 0 0 0
2 563.897 3702.13 3427.85 0 0 0
2 849.901 2815.44 2970.74 0 0 0
2 554.75 3610.53 3665.79 0 0 0
2 810.848 3258.47 2824.65 0 0 0
2 818.22 2923.26 3784.55 0 0 0
2 201.662 3054.89 3801.61 0 0 0
2 956.783 3132.29 2902.94 0 0 0
2 227.533 2838.14 3513.47 0 0 0
2 484.595 2929.97 3655.53 0 0 0
2 972.616 2833.15 3479.96 0 0 0
2 552.193 3260.85 3050.67 0 0 0
2 341.76 3207.11 3021.03 0 0 0
2 126.47 2890.4 3279.09 0 0 0
2 328.47 3135.3 3636.96 0 0 0
2 546.216 2829.82 3521.45 0 0 0
2 309.727 3860.41 3106.88 0 0 0