LAMMPS (23 Jun 2022 - Update 1)
OMP_NUM_THREADS environment is not set. Defaulting to 1 thread. (src/comm.cpp:98)
  using 1 OpenMP thread(s) per MPI task

# Init #
dimension   3
boundary    p p p
units       real
atom_style  atomic

# Atom Definition #
read_data ${input_data}
read_data ./pgnpmf/5050/dat5050.dat
Reading data file ...
  orthogonal box = (-100 -100 -100) to (4100 4100 4100)
  1 by 2 by 2 MPI processor grid
  reading atoms ...
  1000 atoms
  read_data CPU = 0.007 seconds

# Settings #
pair_style table spline 9941

pair_coeff 1 1 ./pgnpmf/N20.txt DE_GNP 75.6
pair_coeff 2 2 ./pgnpmf/N100.txt DE_GNP 115.92
WARNING: 3 of 9941 force values in table DE_GNP are inconsistent with -dE/dr.
WARNING:  Should only be flagged at inflection points (src/pair_table.cpp:463)
pair_coeff 1 2 ./pgnpmf/mixed_potential.txt DE_GNP 95.66
WARNING: 1562 of 9941 force values in table DE_GNP are inconsistent with -dE/dr.
WARNING:  Should only be flagged at inflection points (src/pair_table.cpp:463)

# Neighbor list calc frequency #
neigh_modify delay 0 every 1 check yes

# Saving frequency #
variable ts_save equal floor(${steps_gen}*0.01)
variable ts_save equal floor(5000*0.01)

# Dump #
dump 1 all custom 10000 ./pgnpmf/${folder}/generation/trajectory/trajectory_${usic}_${trial}.gen.custom type x y z ix iy iz
dump 1 all custom 10000 ./pgnpmf/5050/generation/trajectory/trajectory_${usic}_${trial}.gen.custom type x y z ix iy iz
dump 1 all custom 10000 ./pgnpmf/5050/generation/trajectory/trajectory_1_${trial}.gen.custom type x y z ix iy iz
dump 1 all custom 10000 ./pgnpmf/5050/generation/trajectory/trajectory_1_1.gen.custom type x y z ix iy iz
dump_modify 1 first no sort id
dump 2 all cfg 10000 ./pgnpmf/${folder}/generation/trajectory/dumpgen.tens_*.cfg mass type xs ys zs fx fy fz
dump 2 all cfg 10000 ./pgnpmf/5050/generation/trajectory/dumpgen.tens_*.cfg mass type xs ys zs fx fy fz
dump_modify 2 element N20 N100

# Fix #
fix 1 all momentum 1000 linear 1 1 1 angular

variable T equal ${Temp}
variable T equal 300

# Velocity #
velocity all create ${T} ${Vseed} mom yes rot yes dist gaussian
velocity all create 300 ${Vseed} mom yes rot yes dist gaussian
velocity all create 300 57138 mom yes rot yes dist gaussian

fix 2 all nvt temp ${T} 370000 100.0 #iso 1.0 1.0 1000.0
fix 2 all nvt temp 300 370000 100.0 
run ${steps_gen}
run 5000
Generated 0 of 1 mixed pair_coeff terms from geometric mixing rule
Neighbor list info ...
  update every 1 steps, delay 0 steps, check yes
  max neighbors/atom: 2000, page size: 100000
  master list distance cutoff = 117.92
  ghost atom cutoff = 117.92
  binsize = 58.96, bins = 72 72 72
  1 neighbor lists, perpetual/occasional/extra = 1 0 0
  (1) pair table, perpetual
      attributes: half, newton on
      pair build: half/bin/atomonly/newton
      stencil: half/bin/3d
      bin: standard
Per MPI rank memory allocation (min/avg/max) = 6.143 | 6.145 | 6.147 Mbytes
   Step          Temp          E_pair         E_mol          TotEng         Press     
         0   300           -273878.74      0             -272985.39     -0.064932847  
      5000   357297.14     -322236.77      0              741733.09      0.58155971   
Loop time of 0.102004 on 4 procs for 5000 steps with 1000 atoms

Performance: 4235.127 ns/day, 0.006 hours/ns, 49017.672 timesteps/s
98.5% CPU use with 4 MPI tasks x 1 OpenMP threads

MPI task timing breakdown:
Section |  min time  |  avg time  |  max time  |%varavg| %total
---------------------------------------------------------------
Pair    | 0.0048001  | 0.0051481  | 0.0058808  |   0.6 |  5.05
Neigh   | 0.0015082  | 0.0015515  | 0.0016109  |   0.1 |  1.52
Comm    | 0.056387   | 0.058786   | 0.061254   |   0.8 | 57.63
Output  | 2.1057e-05 | 2.4235e-05 | 3.2773e-05 |   0.0 |  0.02
Modify  | 0.021811   | 0.025276   | 0.029422   |   1.8 | 24.78
Other   |            | 0.01122    |            |       | 11.00

Nlocal:            250 ave         267 max         234 min
Histogram: 1 0 0 1 0 0 1 0 0 1
Nghost:          180.5 ave         218 max         149 min
Histogram: 1 0 1 0 0 1 0 0 0 1
Neighs:             11 ave          20 max           6 min
Histogram: 1 0 2 0 0 0 0 0 0 1

Total # of neighbors = 44
Ave neighs/atom = 0.044
Neighbor list builds = 13
Dangerous builds = 0

unfix 2

fix 3 all nvt temp 370000 370000 100.0
run 500000
Generated 0 of 1 mixed pair_coeff terms from geometric mixing rule
Per MPI rank memory allocation (min/avg/max) = 6.143 | 6.145 | 6.147 Mbytes
   Step          Temp          E_pair         E_mol          TotEng         Press     
      5000   357297.14     -322236.77      0              741733.09      0.58155971   
    505000   369557.21     -277239.13      0              823239.12      0.71420177   
Loop time of 10.5406 on 4 procs for 500000 steps with 1000 atoms

Performance: 4098.429 ns/day, 0.006 hours/ns, 47435.525 timesteps/s
99.4% CPU use with 4 MPI tasks x 1 OpenMP threads

MPI task timing breakdown:
Section |  min time  |  avg time  |  max time  |%varavg| %total
---------------------------------------------------------------
Pair    | 0.4942     | 0.6955     | 0.86166    |  16.8 |  6.60
Neigh   | 0.2972     | 0.30754    | 0.32095    |   1.8 |  2.92
Comm    | 5.1772     | 5.4468     | 5.7354     |   9.2 | 51.67
Output  | 0.1086     | 0.11565    | 0.13416    |   3.1 |  1.10
Modify  | 2.4334     | 2.6775     | 2.9961     |  12.6 | 25.40
Other   |            | 1.298      |            |       | 12.31

Nlocal:            250 ave         303 max         209 min
Histogram: 1 0 0 1 1 0 0 0 0 1
Nghost:          92.25 ave          99 max          86 min
Histogram: 1 0 0 1 0 0 1 0 0 1
Neighs:          12.75 ave          20 max           6 min
Histogram: 1 1 0 0 0 0 0 1 0 1

Total # of neighbors = 51
Ave neighs/atom = 0.051
Neighbor list builds = 2373
Dangerous builds = 0

unfix 3

fix 4 all nvt temp 370000 3700000 $(100*dt)
fix 4 all nvt temp 370000 3700000 100
run 500000
Generated 0 of 1 mixed pair_coeff terms from geometric mixing rule
Per MPI rank memory allocation (min/avg/max) = 6.15 | 6.152 | 6.155 Mbytes
   Step          Temp          E_pair         E_mol          TotEng         Press     
    505000   369557.21     -277239.13      0              823239.12      0.71420177   
   1005000   3635063.9     -118075.18      0              10706524       6.6637083    
Loop time of 9.79779 on 4 procs for 500000 steps with 1000 atoms

Performance: 4409.159 ns/day, 0.005 hours/ns, 51031.934 timesteps/s
99.5% CPU use with 4 MPI tasks x 1 OpenMP threads

MPI task timing breakdown:
Section |  min time  |  avg time  |  max time  |%varavg| %total
---------------------------------------------------------------
Pair    | 0.52021    | 0.563      | 0.62483    |   5.2 |  5.75
Neigh   | 0.65019    | 0.66298    | 0.67143    |   1.0 |  6.77
Comm    | 4.5893     | 4.638      | 4.6646     |   1.3 | 47.34
Output  | 0.10513    | 0.1116     | 0.12829    |   2.9 |  1.14
Modify  | 2.5993     | 2.6362     | 2.7098     |   2.7 | 26.91
Other   |            | 1.186      |            |       | 12.10

Nlocal:            250 ave         262 max         241 min
Histogram: 1 0 1 0 1 0 0 0 0 1
Nghost:           74.5 ave          79 max          71 min
Histogram: 1 0 1 0 0 1 0 0 0 1
Neighs:           5.75 ave           9 max           2 min
Histogram: 1 0 0 0 0 2 0 0 0 1

Total # of neighbors = 23
Ave neighs/atom = 0.023
Neighbor list builds = 5267
Dangerous builds = 0

unfix 4

fix 5 all nvt temp 3700000 ${T} 100.0
fix 5 all nvt temp 3700000 300 100.0
run ${steps_gen}
run 5000
Generated 0 of 1 mixed pair_coeff terms from geometric mixing rule
Per MPI rank memory allocation (min/avg/max) = 6.15 | 6.152 | 6.155 Mbytes
   Step          Temp          E_pair         E_mol          TotEng         Press     
   1005000   3635063.9     -118075.18      0              10706524       6.6637083    
   1010000   70339.63      -101364.2       0              108095.21      0.14760383   
Loop time of 0.0881927 on 4 procs for 5000 steps with 1000 atoms

Performance: 4898.363 ns/day, 0.005 hours/ns, 56694.015 timesteps/s
99.5% CPU use with 4 MPI tasks x 1 OpenMP threads

MPI task timing breakdown:
Section |  min time  |  avg time  |  max time  |%varavg| %total
---------------------------------------------------------------
Pair    | 0.0038436  | 0.0046372  | 0.0051256  |   0.7 |  5.26
Neigh   | 0.0055838  | 0.0056526  | 0.0057781  |   0.1 |  6.41
Comm    | 0.040971   | 0.041757   | 0.042283   |   0.2 | 47.35
Output  | 0.0019577  | 0.0019631  | 0.001972   |   0.0 |  2.23
Modify  | 0.023337   | 0.023802   | 0.024234   |   0.2 | 26.99
Other   |            | 0.01038    |            |       | 11.77

Nlocal:            250 ave         259 max         241 min
Histogram: 1 0 1 0 0 0 0 1 0 1
Nghost:             74 ave          78 max          69 min
Histogram: 1 0 0 1 0 0 0 0 1 1
Neighs:           5.75 ave           9 max           3 min
Histogram: 1 0 0 1 0 1 0 0 0 1

Total # of neighbors = 23
Ave neighs/atom = 0.023
Neighbor list builds = 49
Dangerous builds = 0

# Thermo #
thermo_style custom step temp press pe ke etotal epair lx ly lz xlo xhi ylo yhi zlo zhi vol density dt time

# Run stle #
run_style verlet

# Run #
timestep ${ts}
timestep 1
thermo ${ts_save}
thermo 50
# run ${steps_gen}

# write restart #
write_restart ${write_restart}
write_restart ./pgnpmf/5050/genpmf.res
System init for write_restart ...
Generated 0 of 1 mixed pair_coeff terms from geometric mixing rule


Total wall time: 0:00:20
