LAMMPS (23 Jun 2022 - Update 1)
OMP_NUM_THREADS environment is not set. Defaulting to 1 thread. (src/comm.cpp:98)
  using 1 OpenMP thread(s) per MPI task
# Read restart
read_restart ${read_res}
read_restart ./pgnpmf/5050/equpmf57.res
Reading restart file ...
  restart file = 23 Jun 2022, LAMMPS = 23 Jun 2022
  restoring atom style atomic from restart
  orthogonal box = (1674.2837 1674.2837 1674.2837) to (2325.7163 2325.7163 2325.7163)
  1 by 2 by 2 MPI processor grid
  restoring pair style table from restart
  1000 atoms
  read_restart CPU = 0.005 seconds

# Settings

pair_style table spline 9941

pair_coeff 1 1 ./pgnpmf/N20.txt DE_GNP 75.6
pair_coeff 2 2 ./pgnpmf/N100.txt DE_GNP 115.92
WARNING: 3 of 9941 force values in table DE_GNP are inconsistent with -dE/dr.
WARNING:  Should only be flagged at inflection points (src/pair_table.cpp:463)
pair_coeff 1 2 ./pgnpmf/mixed_potential.txt DE_GNP 95.66
WARNING: 1562 of 9941 force values in table DE_GNP are inconsistent with -dE/dr.
WARNING:  Should only be flagged at inflection points (src/pair_table.cpp:463)

#Neigh_list Calc Frequency

neigh_modify delay 0 every 1 check yes

# Saving Frequency (50 frames)

variable ts_save equal ${steps_equ}
variable ts_save equal 5000

# Dump
#dump 1 all custom ${ts_save} ./pgnpmf/${folder}/equilibration/trajectory/trajectory_${usic}_${trial}.equ.custom type x y z ix iy iz
#dump_modify 1 first no sort id
dump 2 all cfg 50000 ./pgnpmf/${folder}/equilibration/trajectory/dumpgen.tens_*.cfg mass type xs ys zs fx fy fz
dump 2 all cfg 50000 ./pgnpmf/5050/equilibration/trajectory/dumpgen.tens_*.cfg mass type xs ys zs fx fy fz
dump_modify 2 element N20 N100

# thermo_style
thermo_style custom step temp press pe density ke etotal lx ly lz xlo xhi ylo yhi zlo zhi vol dt time cpu tpcpu spcpu cpuremain

# run info
timestep ${ts}
timestep 0.25
thermo 200

# fix

fix 1 all momentum 1000 linear 1 1 1 angular
variable T equal ${temp}
variable T equal 300
fix 2 all nvt temp ${T} 370000 100.0
fix 2 all nvt temp 300 370000 100.0

run 100000
Generated 0 of 1 mixed pair_coeff terms from geometric mixing rule
Unused restart file global fix info:
  fix style: npt, fix ID: 5
Neighbor list info ...
  update every 1 steps, delay 0 steps, check yes
  max neighbors/atom: 2000, page size: 100000
  master list distance cutoff = 117.92
  ghost atom cutoff = 117.92
  binsize = 58.96, bins = 12 12 12
  1 neighbor lists, perpetual/occasional/extra = 1 0 0
  (1) pair table, perpetual
      attributes: half, newton on
      pair build: half/bin/atomonly/newton
      stencil: half/bin/3d
      bin: standard
Per MPI rank memory allocation (min/avg/max) = 3.084 | 3.085 | 3.086 Mbytes
   Step          Temp          Press          PotEng        Density         KinEng         TotEng           Lx             Ly             Lz            Xlo            Xhi            Ylo            Yhi            Zlo            Zhi           Volume           Dt            Time           CPU           T/CPU          S/CPU         CPULeft    
  58010000   315.83027      0.080817519   -33317921       1.933883       940.48861     -33316980       651.43269      651.43269      651.43269      1674.2837      2325.7163      1674.2837      2325.7163      1674.2837      2325.7163      2.7644494e+08  0.25           15260000       0              0              0              0            
  58010200   348.23607     -0.062207316   -33317950       1.933883       1036.9876     -33316913       651.43269      651.43269      651.43269      1674.2837      2325.7163      1674.2837      2325.7163      1674.2837      2325.7163      2.7644494e+08  0.25           15260050       0.017374966    2877.5841      11509.753      8.6713271    
  58010400   408.39973     -0.19046271    -33317982       1.933883       1216.1446     -33316766       651.43269      651.43269      651.43269      1674.2837      2325.7163      1674.2837      2325.7163      1674.2837      2325.7163      2.7644494e+08  0.25           15260100       0.03372514     3058.0544      12232.132      8.3982247    
  58010600   498.3663      -0.30603147    -33318016       1.933883       1484.0497     -33316532       651.43269      651.43269      651.43269      1674.2837      2325.7163      1674.2837      2325.7163      1674.2837      2325.7163      2.7644494e+08  0.25           15260150       0.048838826    3308.2734      13233.17       8.0913802    
  58010800   620.21089     -0.41834517    -33318054       1.933883       1846.8821     -33316207       651.43269      651.43269      651.43269      1674.2837      2325.7163      1674.2837      2325.7163      1674.2837      2325.7163      2.7644494e+08  0.25           15260200       0.064609265    3170.4629      12681.927      8.0118628    
  58011000   781.11962     -0.53968816    -33318096       1.933883       2326.0409     -33315770       651.43269      651.43269      651.43269      1674.2837      2325.7163      1674.2837      2325.7163      1674.2837      2325.7163      2.7644494e+08  0.25           15260250       0.081005421    3049.5038      12197.938      8.019801     
  58011200   992.56827     -0.68461386    -33318142       1.933883       2955.6988     -33315186       651.43269      651.43269      651.43269      1674.2837      2325.7163      1674.2837      2325.7163      1674.2837      2325.7163      2.7644494e+08  0.25           15260300       0.097279763    3072.3609      12289.373      8.0095689    
  58011400   1268.3026     -0.87923115    -33318192       1.933883       3776.7885     -33314416       651.43269      651.43269      651.43269      1674.2837      2325.7163      1674.2837      2325.7163      1674.2837      2325.7163      2.7644494e+08  0.25           15260350       0.11310219     3160.0838      12640.469      7.9657844    
  58011600   1625.9222     -1.1499872     -33318248       1.933883       4841.7186     -33313407       651.43269      651.43269      651.43269      1674.2837      2325.7163      1674.2837      2325.7163      1674.2837      2325.7163      2.7644494e+08  0.25           15260400       0.1297315      3006.7254      12026.765      7.9786396    
  58011800   2086.8287     -1.4404412     -33318310       1.933883       6214.2194     -33312096       651.43269      651.43269      651.43269      1674.2837      2325.7163      1674.2837      2325.7163      1674.2837      2325.7163      2.7644494e+08  0.25           15260450       0.14566533     3137.9814      12551.999      7.9469833    
  58012000   2675.3991     -1.6615299     -33318378       1.933883       7966.8815     -33310411       651.43269      651.43269      651.43269      1674.2837      2325.7163      1674.2837      2325.7163      1674.2837      2325.7163      2.7644494e+08  0.25           15260500       0.16118637     3221.3601      12885.586      7.8982561    
  58012200   3419.91       -1.7785193     -33318451       1.933883       10183.908     -33308267       651.43269      651.43269      651.43269      1674.2837      2325.7163      1674.2837      2325.7163      1674.2837      2325.7163      2.7644494e+08  0.25           15260550       0.17697761     3166.3317      12665.155      7.8675839    
  58012400   4348.0009     -1.7091261     -33318529       1.933883       12947.604     -33305582       651.43269      651.43269      651.43269      1674.2837      2325.7163      1674.2837      2325.7163      1674.2837      2325.7163      2.7644494e+08  0.25           15260600       0.1918705      3357.3802      13429.666      7.8028241    
  58012600   5483.2811     -1.2722062     -33318614       1.933883       16328.275     -33302286       651.43269      651.43269      651.43269      1674.2837      2325.7163      1674.2837      2325.7163      1674.2837      2325.7163      2.7644494e+08  0.25           15260650       0.20676322     3357.3376      13429.282      7.7457544    
  58012800   6837.2785     -0.69049879    -33318704       1.933883       20360.248     -33298344       651.43269      651.43269      651.43269      1674.2837      2325.7163      1674.2837      2325.7163      1674.2837      2325.7163      2.7644494e+08  0.25           15260700       0.22219569     3239.9414      12959.794      7.7134434    
  58013000   8398.8041     -0.59815225    -33326176       1.933883       25010.205     -33301166       651.43269      651.43269      651.43269      1674.2837      2325.7163      1674.2837      2325.7163      1674.2837      2325.7163      2.7644494e+08  0.25           15260750       0.23734308     3300.8891      13203.591      7.6741624    
  58013200   10124.595     -0.55925254    -33326277       1.933883       30149.316     -33296128       651.43269      651.43269      651.43269      1674.2837      2325.7163      1674.2837      2325.7163      1674.2837      2325.7163      2.7644494e+08  0.25           15260800       0.25317675     3157.8216      12631.186      7.6586675    
  58013400   11921.574     -0.19394891    -33326387       1.933883       35500.412     -33290886       651.43269      651.43269      651.43269      1674.2837      2325.7163      1674.2837      2325.7163      1674.2837      2325.7163      2.7644494e+08  0.25           15260850       0.26832145     3301.5003      13206.155      7.6235436    
  58013600   13640.713      0.74308467    -33326497       1.933883       40619.713     -33285877       651.43269      651.43269      651.43269      1674.2837      2325.7163      1674.2837      2325.7163      1674.2837      2325.7163      2.7644494e+08  0.25           15260900       0.28347039     3300.5557      13202.148      7.590765     
  58013800   15092.413      1.9123785     -33326601       1.933883       44942.629     -33281658       651.43269      651.43269      651.43269      1674.2837      2325.7163      1674.2837      2325.7163      1674.2837      2325.7163      2.7644494e+08  0.25           15260950       0.29858386     3308.3132      13233.347      7.5589376    
  58014000   16096.344      3.1253178     -33326689       1.933883       47932.164     -33278757       651.43269      651.43269      651.43269      1674.2837      2325.7163      1674.2837      2325.7163      1674.2837      2325.7163      2.7644494e+08  0.25           15261000       0.31405668     3231.478       12925.788      7.5374121    
  58014200   16587.298      3.9078788     -33326772       1.933883       49394.141     -33277378       651.43269      651.43269      651.43269      1674.2837      2325.7163      1674.2837      2325.7163      1674.2837      2325.7163      2.7644494e+08  0.25           15261050       0.32984914     3166.0556      12664.142      7.5237546    
  58014400   16698.312      4.6235124     -33326844       1.933883       49724.723     -33277119       651.43269      651.43269      651.43269      1674.2837      2325.7163      1674.2837      2325.7163      1674.2837      2325.7163      2.7644494e+08  0.25           15261100       0.34484633     3333.955       13335.877      7.4926192    
  58014600   16742.29       4.5720712     -33326909       1.933883       49855.682     -33277053       651.43269      651.43269      651.43269      1674.2837      2325.7163      1674.2837      2325.7163      1674.2837      2325.7163      2.7644494e+08  0.25           15261150       0.35977777     3348.6572      13394.646      7.4615226    
  58014800   17045.961      3.137444      -33327329       1.933883       50759.96      -33276569       651.43269      651.43269      651.43269      1674.2837      2325.7163      1674.2837      2325.7163      1674.2837      2325.7163      2.7644494e+08  0.25           15261200       0.37466214     3359.2353      13437.095      7.430837     
  58015000   17808.659      2.7574072     -33327369       1.933883       53031.146     -33274338       651.43269      651.43269      651.43269      1674.2837      2325.7163      1674.2837      2325.7163      1674.2837      2325.7163      2.7644494e+08  0.25           15261250       0.3897418      3315.7044      13262.662      7.4051366    
  58015200   19008.416      1.945838      -33334405       1.933883       56603.817     -33277801       651.43269      651.43269      651.43269      1674.2837      2325.7163      1674.2837      2325.7163      1674.2837      2325.7163      2.7644494e+08  0.25           15261300       0.4047326      3335.3922      13341.696      7.3786218    
  58015400   20410.38       2.5748636     -33334793       1.933883       60778.625     -33274014       651.43269      651.43269      651.43269      1674.2837      2325.7163      1674.2837      2325.7163      1674.2837      2325.7163      2.7644494e+08  0.25           15261350       0.41971146     3337.9903      13351.886      7.3527632    
  58015600   21704.054      4.4460096     -33334804       1.933883       64630.966     -33270173       651.43269      651.43269      651.43269      1674.2837      2325.7163      1674.2837      2325.7163      1674.2837      2325.7163      2.7644494e+08  0.25           15261400       0.43498766     3273.1075      13092.472      7.3326841    
  58015800   22642.526      5.1808023     -33336698       1.933883       67425.577     -33269272       651.43269      651.43269      651.43269      1674.2837      2325.7163      1674.2837      2325.7163      1674.2837      2325.7163      2.7644494e+08  0.25           15261450       0.45020691     3285.2955      13141.11       7.3120193    
  58016000   23139.355      5.9526514     -33336687       1.933883       68905.048     -33267782       651.43269      651.43269      651.43269      1674.2837      2325.7163      1674.2837      2325.7163      1674.2837      2325.7163      2.7644494e+08  0.25           15261500       0.46529795     3313.2344      13252.927      7.2897034    
  58016200   23311.376      7.0396924     -33336656       1.933883       69417.297     -33267238       651.43269      651.43269      651.43269      1674.2837      2325.7163      1674.2837      2325.7163      1674.2837      2325.7163      2.7644494e+08  0.25           15261550       0.48086477     3211.9623      12847.706      7.2750552    
  58016400   23435.682      8.0803616     -33329598       1.933883       69787.459     -33259810       651.43269      651.43269      651.43269      1674.2837      2325.7163      1674.2837      2325.7163      1674.2837      2325.7163      2.7644494e+08  0.25           15261600       0.49601954     3299.2745      13197.256      7.2543192    
  58016600   23805.588      8.2451209     -33331429       1.933883       70888.977     -33260541       651.43269      651.43269      651.43269      1674.2837      2325.7163      1674.2837      2325.7163      1674.2837      2325.7163      2.7644494e+08  0.25           15261650       0.51161979     3205.0415      12820.293      7.2402292    
  58016800   24597.71       8.8757064     -33331359       1.933883       73247.78      -33258111       651.43269      651.43269      651.43269      1674.2837      2325.7163      1674.2837      2325.7163      1674.2837      2325.7163      2.7644494e+08  0.25           15261700       0.52717998     3213.3668      12853.267      7.2254997    
  58017000   25784.246      8.6630037     -33330906       1.933883       76781.082     -33254125       651.43269      651.43269      651.43269      1674.2837      2325.7163      1674.2837      2325.7163      1674.2837      2325.7163      2.7644494e+08  0.25           15261750       0.54278611     3203.889       12815.502      7.2113322    
  58017200   27146.881      9.2468601     -33332332       1.933883       80838.775     -33251493       651.43269      651.43269      651.43269      1674.2837      2325.7163      1674.2837      2325.7163      1674.2837      2325.7163      2.7644494e+08  0.25           15261800       0.55802572     3280.9         13123.695      7.192361     
  58017400   28388.132      11.187885     -33334108       1.933883       84535.009     -33249573       651.43269      651.43269      651.43269      1674.2837      2325.7163      1674.2837      2325.7163      1674.2837      2325.7163      2.7644494e+08  0.25           15261850       0.57350385     3230.3911      12921.577      7.1765753    
  58017600   29274.732      13.048542     -33326969       1.933883       87175.153     -33239794       651.43269      651.43269      651.43269      1674.2837      2325.7163      1674.2837      2325.7163      1674.2837      2325.7163      2.7644494e+08  0.25           15261900       0.58893075     3241.0437      12964.202      7.1601871    
  58017800   29732.164      14.41298      -33334194       1.933883       88537.307     -33245657       651.43269      651.43269      651.43269      1674.2837      2325.7163      1674.2837      2325.7163      1674.2837      2325.7163      2.7644494e+08  0.25           15261950       0.6046335      3184.1842      12736.77       7.1471042    
  58018000   29897.148      14.991844     -33335916       1.933883       89028.602     -33246888       651.43269      651.43269      651.43269      1674.2837      2325.7163      1674.2837      2325.7163      1674.2837      2325.7163      2.7644494e+08  0.25           15262000       0.62036861     3177.5699      12710.241      7.1342667    
  58018200   30050.316      17.853223     -33328354       1.933883       89484.709     -33238869       651.43269      651.43269      651.43269      1674.2837      2325.7163      1674.2837      2325.7163      1674.2837      2325.7163      2.7644494e+08  0.25           15262050       0.63630664     3137.1935      12548.491      7.1235597    
  58018400   30471.573      19.32287      -33326265       1.933883       90739.14      -33235525       651.43269      651.43269      651.43269      1674.2837      2325.7163      1674.2837      2325.7163      1674.2837      2325.7163      2.7644494e+08  0.25           15262100       0.65171507     3244.959       12980.162      7.1068225    
  58018600   31308.641      21.781        -33318666       1.933883       93231.785     -33225435       651.43269      651.43269      651.43269      1674.2837      2325.7163      1674.2837      2325.7163      1674.2837      2325.7163      2.7644494e+08  0.25           15262150       0.66720979     3226.9009      12907.575      7.091143     
  58018800   32520.077      22.938772     -33316906       1.933883       96839.237     -33220067       651.43269      651.43269      651.43269      1674.2837      2325.7163      1674.2837      2325.7163      1674.2837      2325.7163      2.7644494e+08  0.25           15262200       0.68278043     3211.178       12844.765      7.0761108    
  58019000   33879.581      24.823136     -33314766       1.933883       100887.61     -33213878       651.43269      651.43269      651.43269      1674.2837      2325.7163      1674.2837      2325.7163      1674.2837      2325.7163      2.7644494e+08  0.25           15262250       0.69821952     3238.5521      12954.209      7.0597962    
  58019200   35087.278      25.887898     -33310906       1.933883       104483.92     -33206422       651.43269      651.43269      651.43269      1674.2837      2325.7163      1674.2837      2325.7163      1674.2837      2325.7163      2.7644494e+08  0.25           15262300       0.71383905     3201.0926      12804.312      7.0453043    
  58019400   35924.103      27.474145     -33310626       1.933883       106975.84     -33203651       651.43269      651.43269      651.43269      1674.2837      2325.7163      1674.2837      2325.7163      1674.2837      2325.7163      2.7644494e+08  0.25           15262350       0.72994366     3104.6991      12418.732      7.035438     
  58019600   36337.555      28.570887     -33317705       1.933883       108207.03     -33209498       651.43269      651.43269      651.43269      1674.2837      2325.7163      1674.2837      2325.7163      1674.2837      2325.7163      2.7644494e+08  0.25           15262400       0.74535389     3244.5874      12978.318      7.0187729    
  58019800   36483.3        30.23512      -33319647       1.933883       108641.04     -33211006       651.43269      651.43269      651.43269      1674.2837      2325.7163      1674.2837      2325.7163      1674.2837      2325.7163      2.7644494e+08  0.25           15262450       0.76081219     3234.5255      12938.268      7.0025983    
  58020000   36648.289      31.273511     -33317780       1.933883       109132.35     -33208648       651.43269      651.43269      651.43269      1674.2837      2325.7163      1674.2837      2325.7163      1674.2837      2325.7163      2.7644494e+08  0.25           15262500       0.77603346     3284.8865      13139.514      6.9843203    
  58020200   37111.275      32.431248     -33317436       1.933883       110511.04     -33206924       651.43269      651.43269      651.43269      1674.2837      2325.7163      1674.2837      2325.7163      1674.2837      2325.7163      2.7644494e+08  0.25           15262550       0.7913283      3269.0663      13076.176      6.9668131    
  58020400   37999.909      33.603961     -33326339       1.933883       113157.24     -33213182       651.43269      651.43269      651.43269      1674.2837      2325.7163      1674.2837      2325.7163      1674.2837      2325.7163      2.7644494e+08  0.25           15262600       0.8064457      3307.4665      13229.988      6.9478584    
  58020600   39245.662      34.915518     -33325946       1.933883       116866.88     -33209079       651.43269      651.43269      651.43269      1674.2837      2325.7163      1674.2837      2325.7163      1674.2837      2325.7163      2.7644494e+08  0.25           15262650       0.82185991     3243.7547      12974.739      6.9315566    
  58020800   40607.486      35.592022     -33316260       1.933883       120922.16     -33195338       651.43269      651.43269      651.43269      1674.2837      2325.7163      1674.2837      2325.7163      1674.2837      2325.7163      2.7644494e+08  0.25           15262700       0.83718946     3261.6688      13046.838      6.914584     
  58021000   41787.959      38.336881     -33311082       1.933883       124437.41     -33186645       651.43269      651.43269      651.43269      1674.2837      2325.7163      1674.2837      2325.7163      1674.2837      2325.7163      2.7644494e+08  0.25           15262750       0.85239573     3288.137       13152.641      6.8966731    
  58021200   42576.532      41.313799     -33310638       1.933883       126785.64     -33183852       651.43269      651.43269      651.43269      1674.2837      2325.7163      1674.2837      2325.7163      1674.2837      2325.7163      2.7644494e+08  0.25           15262800       0.86751641     3306.7263      13226.882      6.8781832    
  58021400   42945.016      42.42211      -33317924       1.933883       127882.93     -33190041       651.43269      651.43269      651.43269      1674.2837      2325.7163      1674.2837      2325.7163      1674.2837      2325.7163      2.7644494e+08  0.25           15262850       0.88284155     3262.6246      13050.534      6.861399     
  58021600   43070.351      43.682526     -33317812       1.933883       128256.15     -33189556       651.43269      651.43269      651.43269      1674.2837      2325.7163      1674.2837      2325.7163      1674.2837      2325.7163      2.7644494e+08  0.25           15262900       0.89802732     3292.5334      13170.181      6.8436035    
  58021800   43248.227      45.050845     -33319210       1.933883       128785.83     -33190424       651.43269      651.43269      651.43269      1674.2837      2325.7163      1674.2837      2325.7163      1674.2837      2325.7163      2.7644494e+08  0.25           15262950       0.91469018     3000.6819      12002.725      6.8369374    
  58022000   43746.119      47.768847     -33318693       1.933883       130268.47     -33188425       651.43269      651.43269      651.43269      1674.2837      2325.7163      1674.2837      2325.7163      1674.2837      2325.7163      2.7644494e+08  0.25           15263000       0.93032982     3197.0193      12788.063      6.8224333    
  58022200   44683.85       51.318995     -33320056       1.933883       133060.88     -33186996       651.43269      651.43269      651.43269      1674.2837      2325.7163      1674.2837      2325.7163      1674.2837      2325.7163      2.7644494e+08  0.25           15263050       0.9449612      3417.3248      13669.387      6.800636     
  58022400   45968.511      53.31237      -33317243       1.933883       136886.38     -33180357       651.43269      651.43269      651.43269      1674.2837      2325.7163      1674.2837      2325.7163      1674.2837      2325.7163      2.7644494e+08  0.25           15263100       0.95924789     3499.7676      13998.977      6.776636     
  58022600   47340.846      56.659191     -33316310       1.933883       140972.96     -33175337       651.43269      651.43269      651.43269      1674.2837      2325.7163      1674.2837      2325.7163      1674.2837      2325.7163      2.7644494e+08  0.25           15263150       0.9747713      3220.9237      12883.663      6.7615237    
  58022800   48494.493      57.666947     -33317985       1.933883       144408.32     -33173577       651.43269      651.43269      651.43269      1674.2837      2325.7163      1674.2837      2325.7163      1674.2837      2325.7163      2.7644494e+08  0.25           15263200       0.98994126     3295.9939      13183.976      6.7439895    
  58023000   49232.727      59.676138     -33317389       1.933883       146606.65     -33170782       651.43269      651.43269      651.43269      1674.2837      2325.7163      1674.2837      2325.7163      1674.2837      2325.7163      2.7644494e+08  0.25           15263250       1.004679       3392.659       13570.733      6.7236338    
  58023200   49552.813      61.503462     -33324158       1.933883       147559.82     -33176599       651.43269      651.43269      651.43269      1674.2837      2325.7163      1674.2837      2325.7163      1674.2837      2325.7163      2.7644494e+08  0.25           15263300       1.0192436      3432.9842      13731.942      6.7023113    
  58023400   49657.561      62.465571     -33325441       1.933883       147871.74     -33177569       651.43269      651.43269      651.43269      1674.2837      2325.7163      1674.2837      2325.7163      1674.2837      2325.7163      2.7644494e+08  0.25           15263350       1.0349128      3190.9805      12763.9        6.6883294    
  58023600   49847.556      63.883673     -33324810       1.933883       148437.51     -33176373       651.43269      651.43269      651.43269      1674.2837      2325.7163      1674.2837      2325.7163      1674.2837      2325.7163      2.7644494e+08  0.25           15263400       1.04991        3333.9181      13335.607      6.6700304    
  58023800   50391.094      65.310778     -33331187       1.933883       150056.07     -33181131       651.43269      651.43269      651.43269      1674.2837      2325.7163      1674.2837      2325.7163      1674.2837      2325.7163      2.7644494e+08  0.25           15263450       1.0652808      3252.9408      13011.861      6.654158     
  58024000   51384.971      68.290338     -33330187       1.933883       153015.67     -33177171       651.43269      651.43269      651.43269      1674.2837      2325.7163      1674.2837      2325.7163      1674.2837      2325.7163      2.7644494e+08  0.25           15263500       1.0810193      3176.9144      12707.549      6.6405604    
  58024200   52702.106      71.077127     -33333311       1.933883       156937.87     -33176374       651.43269      651.43269      651.43269      1674.2837      2325.7163      1674.2837      2325.7163      1674.2837      2325.7163      2.7644494e+08  0.25           15263550       1.0965612      3217.1126      12868.483      6.6257139    
  58024400   54072.967      73.426845     -33334534       1.933883       161020.06     -33173514       651.43269      651.43269      651.43269      1674.2837      2325.7163      1674.2837      2325.7163      1674.2837      2325.7163      2.7644494e+08  0.25           15263600       1.1122115      3194.8335      12775.502      6.6115205    
  58024600   55194.177      75.319938     -33335378       1.933883       164358.84     -33171020       651.43269      651.43269      651.43269      1674.2837      2325.7163      1674.2837      2325.7163      1674.2837      2325.7163      2.7644494e+08  0.25           15263650       1.1287389      3025.2827      12104.515      6.602362     
  58024800   55874.793      77.858602     -33342417       1.933883       166385.59     -33176032       651.43269      651.43269      651.43269      1674.2837      2325.7163      1674.2837      2325.7163      1674.2837      2325.7163      2.7644494e+08  0.25           15263700       1.1455832      2968.3706      11873.225      6.5948583    
  58025000   56146.925      82.172007     -33334332       1.933883       167195.96     -33167136       651.43269      651.43269      651.43269      1674.2837      2325.7163      1674.2837      2325.7163      1674.2837      2325.7163      2.7644494e+08  0.25           15263750       1.1621332      3021.0946      12084.253      6.5854384    
  58025200   56229.724      83.092349     -33335503       1.933883       167442.52     -33168060       651.43269      651.43269      651.43269      1674.2837      2325.7163      1674.2837      2325.7163      1674.2837      2325.7163      2.7644494e+08  0.25           15263800       1.1784204      3069.9144      12279.851      6.5743602    
  58025400   56440.34       84.639026     -33334768       1.933883       168069.69     -33166698       651.43269      651.43269      651.43269      1674.2837      2325.7163      1674.2837      2325.7163      1674.2837      2325.7163      2.7644494e+08  0.25           15263850       1.1942611      3156.4383      12625.895      6.5606948    
  58025600   57035.937      89.123998     -33330612       1.933883       169843.28     -33160769       651.43269      651.43269      651.43269      1674.2837      2325.7163      1674.2837      2325.7163      1674.2837      2325.7163      2.7644494e+08  0.25           15263900       1.2100868      3159.4025      12637.596      6.5468938    
  58025800   58084.671      92.274609     -33327969       1.933883       172966.23     -33155003       651.43269      651.43269      651.43269      1674.2837      2325.7163      1674.2837      2325.7163      1674.2837      2325.7163      2.7644494e+08  0.25           15263950       1.2263662      3071.3468      12285.354      6.5354599    
  58026000   59437.314      96.018462     -33319816       1.933883       176994.17     -33142822       651.43269      651.43269      651.43269      1674.2837      2325.7163      1674.2837      2325.7163      1674.2837      2325.7163      2.7644494e+08  0.25           15264000       1.2424573      3107.3744      12429.363      6.5229146    
  58026200   60804.886      99.362694     -33324511       1.933883       181066.57     -33143444       651.43269      651.43269      651.43269      1674.2837      2325.7163      1674.2837      2325.7163      1674.2837      2325.7163      2.7644494e+08  0.25           15264050       1.2582805      3159.8871      12639.759      6.5088951    
  58026400   61884.21       102.00887     -33323705       1.933883       184280.61     -33139425       651.43269      651.43269      651.43269      1674.2837      2325.7163      1674.2837      2325.7163      1674.2837      2325.7163      2.7644494e+08  0.25           15264100       1.2741508      3150.446       12601.799      6.4950754    
  58026600   62512.331      105.0141      -33317410       1.933883       186151.05     -33131259       651.43269      651.43269      651.43269      1674.2837      2325.7163      1674.2837      2325.7163      1674.2837      2325.7163      2.7644494e+08  0.25           15264150       1.2899212      3170.6036      12682.366      6.4807001    
  58026800   62731.902      106.79771     -33316567       1.933883       186804.89     -33129763       651.43269      651.43269      651.43269      1674.2837      2325.7163      1674.2837      2325.7163      1674.2837      2325.7163      2.7644494e+08  0.25           15264200       1.3057515      3158.4679      12633.889      6.466591     
  58027000   62797.814      109.947       -33315347       1.933883       187001.17     -33128346       651.43269      651.43269      651.43269      1674.2837      2325.7163      1674.2837      2325.7163      1674.2837      2325.7163      2.7644494e+08  0.25           15264250       1.3213341      3208.6639      12834.638      6.4512327    
  58027200   63030.267      115.2822      -33316367       1.933883       187693.37     -33128674       651.43269      651.43269      651.43269      1674.2837      2325.7163      1674.2837      2325.7163      1674.2837      2325.7163      2.7644494e+08  0.25           15264300       1.3373793      3116.2434      12465.039      6.4380933    
  58027400   63674.099      120.16947     -33317000       1.933883       189610.6      -33127389       651.43269      651.43269      651.43269      1674.2837      2325.7163      1674.2837      2325.7163      1674.2837      2325.7163      2.7644494e+08  0.25           15264350       1.3531604      3168.3482      12673.423      6.4236345    
  58027600   64782.287      123.39141     -33317994       1.933883       192910.59     -33125083       651.43269      651.43269      651.43269      1674.2837      2325.7163      1674.2837      2325.7163      1674.2837      2325.7163      2.7644494e+08  0.25           15264400       1.3688897      3178.7996      12715.15       6.4089032    
  58027800   66168.72       126.95928     -33316676       1.933883       197039.15     -33119637       651.43269      651.43269      651.43269      1674.2837      2325.7163      1674.2837      2325.7163      1674.2837      2325.7163      2.7644494e+08  0.25           15264450       1.3836216      3394.0105      13576.097      6.3895432    
  58028000   67533.386      129.92165     -33317612       1.933883       201102.89     -33116509       651.43269      651.43269      651.43269      1674.2837      2325.7163      1674.2837      2325.7163      1674.2837      2325.7163      2.7644494e+08  0.25           15264500       1.3980152      3473.7504      13895.07       6.3687454    
  58028200   68574.95       133.69132     -33307367       1.933883       204204.49     -33103162       651.43269      651.43269      651.43269      1674.2837      2325.7163      1674.2837      2325.7163      1674.2837      2325.7163      2.7644494e+08  0.25           15264550       1.4118404      3616.5711      14466.228      6.3455348    
  58028400   69142.19       137.64172     -33306367       1.933883       205893.63     -33100473       651.43269      651.43269      651.43269      1674.2837      2325.7163      1674.2837      2325.7163      1674.2837      2325.7163      2.7644494e+08  0.25           15264600       1.4266287      3380.8935      13521.886      6.3268093    
  58028600   69313.17       141.24478     -33297955       1.933883       206402.78     -33091553       651.43269      651.43269      651.43269      1674.2837      2325.7163      1674.2837      2325.7163      1674.2837      2325.7163      2.7644494e+08  0.25           15264650       1.4409706      3486.4802      13947.566      6.306193     
  58028800   69366.535      143.35363     -33299174       1.933883       206561.7      -33092612       651.43269      651.43269      651.43269      1674.2837      2325.7163      1674.2837      2325.7163      1674.2837      2325.7163      2.7644494e+08  0.25           15264700       1.455403       3464.4138      13857.888      6.2861113    
  58029000   69628.372      146.27408     -33298474       1.933883       207341.4      -33091133       651.43269      651.43269      651.43269      1674.2837      2325.7163      1674.2837      2325.7163      1674.2837      2325.7163      2.7644494e+08  0.25           15264750       1.4694605      3556.8141      14227.222      6.2645512    
  58029200   70332.929      151.6854      -33298923       1.933883       209439.45     -33089483       651.43269      651.43269      651.43269      1674.2837      2325.7163      1674.2837      2325.7163      1674.2837      2325.7163      2.7644494e+08  0.25           15264800       1.483475       3567.738       14270.776      6.2429669    
  58029400   71497.163      155.00403     -33307464       1.933883       212906.34     -33094558       651.43269      651.43269      651.43269      1674.2837      2325.7163      1674.2837      2325.7163      1674.2837      2325.7163      2.7644494e+08  0.25           15264850       1.497445       3579.1111      14316.602      6.2213522    
  58029600   72914.006      157.69592     -33304065       1.933883       217125.46     -33086939       651.43269      651.43269      651.43269      1674.2837      2325.7163      1674.2837      2325.7163      1674.2837      2325.7163      2.7644494e+08  0.25           15264900       1.5115926      3534.1763      14136.794      6.2006226    
  58029800   74261.443      163.44816     -33296685       1.933883       221137.9      -33075547       651.43269      651.43269      651.43269      1674.2837      2325.7163      1674.2837      2325.7163      1674.2837      2325.7163      2.7644494e+08  0.25           15264950       1.5261241      3440.7939      13763.164      6.1815815    
  58030000   75249.114      167.85485     -33295874       1.933883       224079.01     -33071795       651.43269      651.43269      651.43269      1674.2837      2325.7163      1674.2837      2325.7163      1674.2837      2325.7163      2.7644494e+08  0.25           15265000       1.5404686      3485.6546      13942.539      6.1618828    
  58030200   75756.485      170.29358     -33296570       1.933883       225589.88     -33070980       651.43269      651.43269      651.43269      1674.2837      2325.7163      1674.2837      2325.7163      1674.2837      2325.7163      2.7644494e+08  0.25           15265050       1.5543852      3592.8001      14371.074      6.1406003    
  58030400   75890.558      173.46184     -33287599       1.933883       225989.12     -33061609       651.43269      651.43269      651.43269      1674.2837      2325.7163      1674.2837      2325.7163      1674.2837      2325.7163      2.7644494e+08  0.25           15265100       1.5684252      3561.2586      14245.243      6.1199419    
  58030600   75944.037      176.6416      -33291840       1.933883       226148.37     -33065692       651.43269      651.43269      651.43269      1674.2837      2325.7163      1674.2837      2325.7163      1674.2837      2325.7163      2.7644494e+08  0.25           15265150       1.5824268      3571.0434      14284.021      6.099265     
  58030800   76247.162      180.26292     -33290584       1.933883       227051.03     -33063533       651.43269      651.43269      651.43269      1674.2837      2325.7163      1674.2837      2325.7163      1674.2837      2325.7163      2.7644494e+08  0.25           15265200       1.5964241      3572.0958      14288.451      6.0787001    
  58031000   77007.832      185.57524     -33294784       1.933883       229316.17     -33065468       651.43269      651.43269      651.43269      1674.2837      2325.7163      1674.2837      2325.7163      1674.2837      2325.7163      2.7644494e+08  0.25           15265250       1.6107096      3500.0361      14000.029      6.0593452    
  58031200   78222.312      189.79454     -33297277       1.933883       232932.69     -33064344       651.43269      651.43269      651.43269      1674.2837      2325.7163      1674.2837      2325.7163      1674.2837      2325.7163      2.7644494e+08  0.25           15265300       1.625539       3371.694       13486.741      6.0421067    
  58031400   79658.175      193.75762     -33305226       1.933883       237208.44     -33068018       651.43269      651.43269      651.43269      1674.2837      2325.7163      1674.2837      2325.7163      1674.2837      2325.7163      2.7644494e+08  0.25           15265350       1.6399036      3480.7803      13923.237      6.0232056    
  58031600   80982.866      196.1183      -33326017       1.933883       241153.15     -33084864       651.43269      651.43269      651.43269      1674.2837      2325.7163      1674.2837      2325.7163      1674.2837      2325.7163      2.7644494e+08  0.25           15265400       1.6539248      3566.066       14264.269      6.0031419    
  58031800   81918.034      201.2191      -33312168       1.933883       243937.92     -33068230       651.43269      651.43269      651.43269      1674.2837      2325.7163      1674.2837      2325.7163      1674.2837      2325.7163      2.7644494e+08  0.25           15265450       1.6677095      3627.2044      14508.771      5.9823416    
  58032000   82365.332      207.09414     -33305671       1.933883       245269.89     -33060401       651.43269      651.43269      651.43269      1674.2837      2325.7163      1674.2837      2325.7163      1674.2837      2325.7163      2.7644494e+08  0.25           15265500       1.6816001      3599.535       14398.132      5.9620447    
  58032200   82460.903      211.12804     -33320536       1.933883       245554.49     -33074981       651.43269      651.43269      651.43269      1674.2837      2325.7163      1674.2837      2325.7163      1674.2837      2325.7163      2.7644494e+08  0.25           15265550       1.6956985      3546.5002      14186.06       5.9425906    
  58032400   82524.991      214.92345     -33318754       1.933883       245745.33     -33073009       651.43269      651.43269      651.43269      1674.2837      2325.7163      1674.2837      2325.7163      1674.2837      2325.7163      2.7644494e+08  0.25           15265600       1.7100438      3485.4347      13941.647      5.9240888    
  58032600   82872.593      219.56774     -33318051       1.933883       246780.43     -33071270       651.43269      651.43269      651.43269      1674.2837      2325.7163      1674.2837      2325.7163      1674.2837      2325.7163      2.7644494e+08  0.25           15265650       1.7254975      3235.4898      12941.909      5.9094555    
  58032800   83698.093      222.69743     -33325867       1.933883       249238.63     -33076628       651.43269      651.43269      651.43269      1674.2837      2325.7163      1674.2837      2325.7163      1674.2837      2325.7163      2.7644494e+08  0.25           15265700       1.7397255      3514.1692      14056.61       5.8906582    
  58033000   84958.801      228.70374     -33320596       1.933883       252992.8      -33067603       651.43269      651.43269      651.43269      1674.2837      2325.7163      1674.2837      2325.7163      1674.2837      2325.7163      2.7644494e+08  0.25           15265750       1.7538471      3540.6948      14162.998      5.8715829    
  58033200   86397.53       231.96571     -33324558       1.933883       257277.09     -33067280       651.43269      651.43269      651.43269      1674.2837      2325.7163      1674.2837      2325.7163      1674.2837      2325.7163      2.7644494e+08  0.25           15265800       1.7686119      3386.4413      13545.759      5.8547227    
  58033400   87678.528      238.53496     -33324527       1.933883       261091.68     -33063435       651.43269      651.43269      651.43269      1674.2837      2325.7163      1674.2837      2325.7163      1674.2837      2325.7163      2.7644494e+08  0.25           15265850       1.7827524      3535.9321      14143.709      5.8358552    
  58033600   88550.035      243.08469     -33323320       1.933883       263686.88     -33059633       651.43269      651.43269      651.43269      1674.2837      2325.7163      1674.2837      2325.7163      1674.2837      2325.7163      2.7644494e+08  0.25           15265900       1.7966607      3594.977       14379.87       5.8163162    
  58033800   88945.159      248.26861     -33328350       1.933883       264863.5      -33063487       651.43269      651.43269      651.43269      1674.2837      2325.7163      1674.2837      2325.7163      1674.2837      2325.7163      2.7644494e+08  0.25           15265950       1.8111055      3461.4044      13845.665      5.7985896    
  58034000   89033.747      253.16875     -33336001       1.933883       265127.29     -33070874       651.43269      651.43269      651.43269      1674.2837      2325.7163      1674.2837      2325.7163      1674.2837      2325.7163      2.7644494e+08  0.25           15266000       1.8259253      3373.8626      13495.349      5.7821052    
  58034200   89124.394      258.96444     -33333985       1.933883       265397.23     -33068588       651.43269      651.43269      651.43269      1674.2837      2325.7163      1674.2837      2325.7163      1674.2837      2325.7163      2.7644494e+08  0.25           15266050       1.840673       3390.4252      13561.721      5.7654209    
  58034400   89532.567      265.53911     -33324944       1.933883       266612.7      -33058332       651.43269      651.43269      651.43269      1674.2837      2325.7163      1674.2837      2325.7163      1674.2837      2325.7163      2.7644494e+08  0.25           15266100       1.8548902      3516.8511      14067.473      5.7471261    
  58034600   90418.204      270.48413     -33310766       1.933883       269249.97     -33041516       651.43269      651.43269      651.43269      1674.2837      2325.7163      1674.2837      2325.7163      1674.2837      2325.7163      2.7644494e+08  0.25           15266150       1.8693013      3469.5533      13878.073      5.7294926    
  58034800   91706.077      278.44881     -33292391       1.933883       273085.04     -33019306       651.43269      651.43269      651.43269      1674.2837      2325.7163      1674.2837      2325.7163      1674.2837      2325.7163      2.7644494e+08  0.25           15266200       1.8838181      3444.2544      13777.168      5.7122302    
  58035000   93134.33       282.96676     -33288759       1.933883       277338.13     -33011421       651.43269      651.43269      651.43269      1674.2837      2325.7163      1674.2837      2325.7163      1674.2837      2325.7163      2.7644494e+08  0.25           15266250       1.8980334      3517.3718      14069.409      5.6941073    
  58035200   94370.531      289.33757     -33292488       1.933883       281019.33     -33011468       651.43269      651.43269      651.43269      1674.2837      2325.7163      1674.2837      2325.7163      1674.2837      2325.7163      2.7644494e+08  0.25           15266300       1.9138811      3155.0413      12620.213      5.6808918    
  58035400   95180.786      294.63577     -33287490       1.933883       283432.13     -33004058       651.43269      651.43269      651.43269      1674.2837      2325.7163      1674.2837      2325.7163      1674.2837      2325.7163      2.7644494e+08  0.25           15266350       1.9290447      3297.3272      13189.295      5.6656268    
  58035600   95533.146      299.43547     -33276783       1.933883       284481.39     -32992302       651.43269      651.43269      651.43269      1674.2837      2325.7163      1674.2837      2325.7163      1674.2837      2325.7163      2.7644494e+08  0.25           15266400       1.9436247      3429.38        13717.292      5.6486669    
  58035800   95612.023      306.54615     -33282334       1.933883       284716.28     -32997618       651.43269      651.43269      651.43269      1674.2837      2325.7163      1674.2837      2325.7163      1674.2837      2325.7163      2.7644494e+08  0.25           15266450       1.9585515      3349.6892      13398.984      5.6327402    
  58036000   95735.484      310.68508     -33280858       1.933883       285083.92     -32995774       651.43269      651.43269      651.43269      1674.2837      2325.7163      1674.2837      2325.7163      1674.2837      2325.7163      2.7644494e+08  0.25           15266500       1.9737714      3285.1194      13140.484      5.6176643    
  58036200   96203.262      317.58919     -33273142       1.933883       286476.89     -32986665       651.43269      651.43269      651.43269      1674.2837      2325.7163      1674.2837      2325.7163      1674.2837      2325.7163      2.7644494e+08  0.25           15266550       1.9892063      3239.4315      12957.697      5.6031911    
  58036400   97151.005      324.50728     -33269373       1.933883       289299.1      -32980074       651.43269      651.43269      651.43269      1674.2837      2325.7163      1674.2837      2325.7163      1674.2837      2325.7163      2.7644494e+08  0.25           15266600       2.0042041      3333.8307      13335.359      5.5874849    
  58036600   98466.445      330.01205     -33275207       1.933883       293216.26     -32981991       651.43269      651.43269      651.43269      1674.2837      2325.7163      1674.2837      2325.7163      1674.2837      2325.7163      2.7644494e+08  0.25           15266650       2.0195373      3260.9035      13043.546      5.572715     
  58036800   99871.168      339.12124     -33257957       1.933883       297399.28     -32960558       651.43269      651.43269      651.43269      1674.2837      2325.7163      1674.2837      2325.7163      1674.2837      2325.7163      2.7644494e+08  0.25           15266700       2.0352847      3175.1404      12700.558      5.5590676    
  58037000   101041.63      347.46567     -33256005       1.933883       300884.73     -32955121       651.43269      651.43269      651.43269      1674.2837      2325.7163      1674.2837      2325.7163      1674.2837      2325.7163      2.7644494e+08  0.25           15266750       2.0508842      3205.2369      12820.86       5.5449897    
  58037200   101779.92      353.59593     -33254019       1.933883       303083.22     -32950936       651.43269      651.43269      651.43269      1674.2837      2325.7163      1674.2837      2325.7163      1674.2837      2325.7163      2.7644494e+08  0.25           15266800       2.0662725      3249.2007      12996.869      5.5303244    
  58037400   102091.8       358.64464     -33253529       1.933883       304011.95     -32949518       651.43269      651.43269      651.43269      1674.2837      2325.7163      1674.2837      2325.7163      1674.2837      2325.7163      2.7644494e+08  0.25           15266850       2.0809562      3405.1618      13620.758      5.5137806    
  58037600   102188.18      361.46123     -33251500       1.933883       304298.96     -32947201       651.43269      651.43269      651.43269      1674.2837      2325.7163      1674.2837      2325.7163      1674.2837      2325.7163      2.7644494e+08  0.25           15266900       2.0959788      3328.3264      13313.328      5.4981531    
  58037800   102373.31      368.18313     -33248704       1.933883       304850.24     -32943854       651.43269      651.43269      651.43269      1674.2837      2325.7163      1674.2837      2325.7163      1674.2837      2325.7163      2.7644494e+08  0.25           15266950       2.1103813      3471.6195      13886.454      5.4809242    
  58038000   102918.5       375.7124      -33248519       1.933883       306473.73     -32942045       651.43269      651.43269      651.43269      1674.2837      2325.7163      1674.2837      2325.7163      1674.2837      2325.7163      2.7644494e+08  0.25           15267000       2.1251449      3386.7049      13546.819      5.4646643    
  58038200   103922.76      383.66377     -33237144       1.933883       309464.24     -32927679       651.43269      651.43269      651.43269      1674.2837      2325.7163      1674.2837      2325.7163      1674.2837      2325.7163      2.7644494e+08  0.25           15267050       2.1401683      3328.1678      13312.602      5.4490867    
  58038400   105244.55      389.80032     -33233116       1.933883       313400.29     -32919716       651.43269      651.43269      651.43269      1674.2837      2325.7163      1674.2837      2325.7163      1674.2837      2325.7163      2.7644494e+08  0.25           15267100       2.1544078      3511.3203      14045.198      5.4315416    
  58038600   106594.95      396.85049     -33231753       1.933883       317421.56     -32914332       651.43269      651.43269      651.43269      1674.2837      2325.7163      1674.2837      2325.7163      1674.2837      2325.7163      2.7644494e+08  0.25           15267150       2.1688651      3458.3997      13833.769      5.4145857    
  58038800   107684.3       405.78225     -33222202       1.933883       320665.45     -32901537       651.43269      651.43269      651.43269      1674.2837      2325.7163      1674.2837      2325.7163      1674.2837      2325.7163      2.7644494e+08  0.25           15267200       2.1830604      3522.371       14089.309      5.3970163    
  58039000   108354.02      411.45441     -33219997       1.933883       322659.77     -32897337       651.43269      651.43269      651.43269      1674.2837      2325.7163      1674.2837      2325.7163      1674.2837      2325.7163      2.7644494e+08  0.25           15267250       2.1976966      3416.1452      13664.63       5.3805738    
  58039200   108650.91      421.11466     -33208857       1.933883       323543.84     -32885313       651.43269      651.43269      651.43269      1674.2837      2325.7163      1674.2837      2325.7163      1674.2837      2325.7163      2.7644494e+08  0.25           15267300       2.2122405      3437.8958      13751.694      5.3639312    
  58039400   108793.03      426.72188     -33201121       1.933883       323967.08     -32877154       651.43269      651.43269      651.43269      1674.2837      2325.7163      1674.2837      2325.7163      1674.2837      2325.7163      2.7644494e+08  0.25           15267350       2.2268009      3433.9574      13735.871      5.3473574    
  58039600   109073.28      433.83864     -33195269       1.933883       324801.6      -32870468       651.43269      651.43269      651.43269      1674.2837      2325.7163      1674.2837      2325.7163      1674.2837      2325.7163      2.7644494e+08  0.25           15267400       2.2420057      3288.4406      13153.663      5.3323436    
  58039800   109718.74      441.79865     -33192985       1.933883       326723.68     -32866262       651.43269      651.43269      651.43269      1674.2837      2325.7163      1674.2837      2325.7163      1674.2837      2325.7163      2.7644494e+08  0.25           15267450       2.257239       3282.3051      13129.22       5.317394     
  58040000   110777.6       448.89677     -33196552       1.933883       329876.79     -32866675       651.43269      651.43269      651.43269      1674.2837      2325.7163      1674.2837      2325.7163      1674.2837      2325.7163      2.7644494e+08  0.25           15267500       2.2725449      3266.7214      13066.559      5.3026109    
  58040200   112074.67      456.09343     -33187597       1.933883       333739.24     -32853858       651.43269      651.43269      651.43269      1674.2837      2325.7163      1674.2837      2325.7163      1674.2837      2325.7163      2.7644494e+08  0.25           15267550       2.2871497      3423.5132      13694.211      5.2861994    
  58040400   113318.65      465.31236     -33175972       1.933883       337443.58     -32838528       651.43269      651.43269      651.43269      1674.2837      2325.7163      1674.2837      2325.7163      1674.2837      2325.7163      2.7644494e+08  0.25           15267600       2.3024972      3257.8611      13031.677      5.2715118    
  58040600   114282.82      472.88965     -33171336       1.933883       340314.74     -32831021       651.43269      651.43269      651.43269      1674.2837      2325.7163      1674.2837      2325.7163      1674.2837      2325.7163      2.7644494e+08  0.25           15267650       2.3175545      3320.6295      13282.44       5.2561587    
  58040800   114881.95      479.53698     -33168932       1.933883       342098.83     -32826833       651.43269      651.43269      651.43269      1674.2837      2325.7163      1674.2837      2325.7163      1674.2837      2325.7163      2.7644494e+08  0.25           15267700       2.3328928      3259.8096      13039.255      5.2414401    
  58041000   115203.46      486.92875     -33162711       1.933883       343056.24     -32819655       651.43269      651.43269      651.43269      1674.2837      2325.7163      1674.2837      2325.7163      1674.2837      2325.7163      2.7644494e+08  0.25           15267750       2.3481681      3273.2901      13093.099      5.226573     
  58041200   115468.17      493.25138     -33159887       1.933883       343844.48     -32816042       651.43269      651.43269      651.43269      1674.2837      2325.7163      1674.2837      2325.7163      1674.2837      2325.7163      2.7644494e+08  0.25           15267800       2.3628934      3395.502       13582.107      5.210488     
  58041400   115928.68      498.64283     -33147038       1.933883       345215.82     -32801822       651.43269      651.43269      651.43269      1674.2837      2325.7163      1674.2837      2325.7163      1674.2837      2325.7163      2.7644494e+08  0.25           15267850       2.378109       3286.0977      13144.333      5.1954919    
  58041600   116746.72      505.14193     -33151933       1.933883       347651.8      -32804281       651.43269      651.43269      651.43269      1674.2837      2325.7163      1674.2837      2325.7163      1674.2837      2325.7163      2.7644494e+08  0.25           15267900       2.3930969      3336.0413      13344.097      5.1799997    
  58041800   117889.14      513.10669     -33149439       1.933883       351053.74     -32798385       651.43269      651.43269      651.43269      1674.2837      2325.7163      1674.2837      2325.7163      1674.2837      2325.7163      2.7644494e+08  0.25           15267950       2.4077252      3418.0359      13672.261      5.1637425    
  58042000   119124.07      520.82344     -33165096       1.933883       354731.15     -32810365       651.43269      651.43269      651.43269      1674.2837      2325.7163      1674.2837      2325.7163      1674.2837      2325.7163      2.7644494e+08  0.25           15268000       2.4231113      3249.6904      12998.569      5.1491168    
  58042200   120196.63      529.17503     -33164089       1.933883       357925.04     -32806164       651.43269      651.43269      651.43269      1674.2837      2325.7163      1674.2837      2325.7163      1674.2837      2325.7163      2.7644494e+08  0.25           15268050       2.4385851      3231.2504      12925.256      5.1346654    
  58042400   120978.98      535.77015     -33176662       1.933883       360254.74     -32816408       651.43269      651.43269      651.43269      1674.2837      2325.7163      1674.2837      2325.7163      1674.2837      2325.7163      2.7644494e+08  0.25           15268100       2.4535203      3347.7768      13391.004      5.1190785    
  58042600   121539.33      542.39274     -33174457       1.933883       361923.36     -32812534       651.43269      651.43269      651.43269      1674.2837      2325.7163      1674.2837      2325.7163      1674.2837      2325.7163      2.7644494e+08  0.25           15268150       2.4684847      3341.2972      13365.226      5.103559     
  58042800   122125.18      551.03322     -33164869       1.933883       363667.93     -32801201       651.43269      651.43269      651.43269      1674.2837      2325.7163      1674.2837      2325.7163      1674.2837      2325.7163      2.7644494e+08  0.25           15268200       2.4833737      3358.1807      13432.864      5.0878927    
  58043000   123121.3       559.52067     -33152637       1.933883       366634.22     -32786003       651.43269      651.43269      651.43269      1674.2837      2325.7163      1674.2837      2325.7163      1674.2837      2325.7163      2.7644494e+08  0.25           15268250       2.4986485      3273.1234      13092.152      5.0730211    
  58043200   124916.69      567.01877     -33150007       1.933883       371980.56     -32778026       651.43269      651.43269      651.43269      1674.2837      2325.7163      1674.2837      2325.7163      1674.2837      2325.7163      2.7644494e+08  0.25           15268300       2.5130976      3460.6653      13842.843      5.0564784    
  58043400   127211.32      575.31757     -33154329       1.933883       378813.6      -32775515       651.43269      651.43269      651.43269      1674.2837      2325.7163      1674.2837      2325.7163      1674.2837      2325.7163      2.7644494e+08  0.25           15268350       2.5278437      3390.7195      13562.945      5.040556     
  58043600   128753.58      584.20937     -33160888       1.933883       383406.17     -32777482       651.43269      651.43269      651.43269      1674.2837      2325.7163      1674.2837      2325.7163      1674.2837      2325.7163      2.7644494e+08  0.25           15268400       2.5424535      3422.4182      13689.68       5.0243765    
  58043800   128740.41      591.66693     -33157434       1.933883       383366.96     -32774067       651.43269      651.43269      651.43269      1674.2837      2325.7163      1674.2837      2325.7163      1674.2837      2325.7163      2.7644494e+08  0.25           15268450       2.5568612      3470.3386      13881.347      5.0078212    
  58044000   126915         597.14939     -33148500       1.933883       377931.2      -32770569       651.43269      651.43269      651.43269      1674.2837      2325.7163      1674.2837      2325.7163      1674.2837      2325.7163      2.7644494e+08  0.25           15268500       2.5707363      3603.6062      14414.563      4.9902565    
  58044200   123083.28      601.61276     -33153175       1.933883       366521        -32786654       651.43269      651.43269      651.43269      1674.2837      2325.7163      1674.2837      2325.7163      1674.2837      2325.7163      2.7644494e+08  0.25           15268550       2.5845656      3615.5055      14461.964      4.9726478    
  58044400   119586.35      607.14989     -33153136       1.933883       356107.74     -32797028       651.43269      651.43269      651.43269      1674.2837      2325.7163      1674.2837      2325.7163      1674.2837      2325.7163      2.7644494e+08  0.25           15268600       2.5989572      3474.2356      13897.04       4.9561549    
  58044600   119454.64      616.26897     -33143145       1.933883       355715.52     -32787429       651.43269      651.43269      651.43269      1674.2837      2325.7163      1674.2837      2325.7163      1674.2837      2325.7163      2.7644494e+08  0.25           15268650       2.6125238      3685.5408      14742.199      4.9381265    
  58044800   123520.77      626.40539     -33136352       1.933883       367823.75     -32768528       651.43269      651.43269      651.43269      1674.2837      2325.7163      1674.2837      2325.7163      1674.2837      2325.7163      2.7644494e+08  0.25           15268700       2.6266339      3543.5489      14174.207      4.9211682    
  58045000   127029.58      635.23752     -33144868       1.933883       378272.41     -32766596       651.43269      651.43269      651.43269      1674.2837      2325.7163      1674.2837      2325.7163      1674.2837      2325.7163      2.7644494e+08  0.25           15268750       2.6407551      3540.7721      14162.97       4.9042635    
  58045200   128821.55      644.68154     -33141257       1.933883       383608.57     -32757648       651.43269      651.43269      651.43269      1674.2837      2325.7163      1674.2837      2325.7163      1674.2837      2325.7163      2.7644494e+08  0.25           15268800       2.6544684      3646.1316      14584.652      4.8866382    
  58045400   130408.79      653.53488     -33140465       1.933883       388335.09     -32752130       651.43269      651.43269      651.43269      1674.2837      2325.7163      1674.2837      2325.7163      1674.2837      2325.7163      2.7644494e+08  0.25           15268850       2.6681321      3659.2857      14637.047      4.868968     
  58045600   131993.38      661.74453     -33150979       1.933883       393053.75     -32757925       651.43269      651.43269      651.43269      1674.2837      2325.7163      1674.2837      2325.7163      1674.2837      2325.7163      2.7644494e+08  0.25           15268900       2.6816235      3706.0723      14824.308      4.8510304    
  58045800   133368.12      666.90715     -33146348       1.933883       397147.49     -32749200       651.43269      651.43269      651.43269      1674.2837      2325.7163      1674.2837      2325.7163      1674.2837      2325.7163      2.7644494e+08  0.25           15268950       2.6957938      3528.5001      14114.083      4.8343599    
  58046000   134372.49      673.90285     -33145519       1.933883       400138.32     -32745380       651.43269      651.43269      651.43269      1674.2837      2325.7163      1674.2837      2325.7163      1674.2837      2325.7163      2.7644494e+08  0.25           15269000       2.7094776      3653.9662      14615.832      4.8168524    
  58046200   135017.41      682.04943     -33133488       1.933883       402058.8      -32731429       651.43269      651.43269      651.43269      1674.2837      2325.7163      1674.2837      2325.7163      1674.2837      2325.7163      2.7644494e+08  0.25           15269050       2.7229514      3710.9045      14843.577      4.7990174    
  58046400   135539.54      690.43682     -33121071       1.933883       403613.59     -32717458       651.43269      651.43269      651.43269      1674.2837      2325.7163      1674.2837      2325.7163      1674.2837      2325.7163      2.7644494e+08  0.25           15269100       2.7371895      3511.7252      14046.951      4.782565     
  58046600   136385.99      697.86822     -33118639       1.933883       406134.2      -32712504       651.43269      651.43269      651.43269      1674.2837      2325.7163      1674.2837      2325.7163      1674.2837      2325.7163      2.7644494e+08  0.25           15269150       2.750999       3620.6728      14482.682      4.765395     
  58046800   138227.54      706.30366     -33117352       1.933883       411618.02     -32705734       651.43269      651.43269      651.43269      1674.2837      2325.7163      1674.2837      2325.7163      1674.2837      2325.7163      2.7644494e+08  0.25           15269200       2.764761       3633.2063      14532.825      4.7481797    
  58047000   141068.81      715.65415     -33117724       1.933883       420078.82     -32697646       651.43269      651.43269      651.43269      1674.2837      2325.7163      1674.2837      2325.7163      1674.2837      2325.7163      2.7644494e+08  0.25           15269250       2.7783891      3668.8725      14675.445      4.7307741    
  58047200   143108.61      725.66656     -33112923       1.933883       426153.02     -32686770       651.43269      651.43269      651.43269      1674.2837      2325.7163      1674.2837      2325.7163      1674.2837      2325.7163      2.7644494e+08  0.25           15269300       2.7920553      3658.6712      14634.769      4.7134728    
  58047400   142951.42      734.76125     -33109978       1.933883       425684.93     -32684293       651.43269      651.43269      651.43269      1674.2837      2325.7163      1674.2837      2325.7163      1674.2837      2325.7163      2.7644494e+08  0.25           15269350       2.8054325      3737.7035      14950.74       4.6957272    
  58047600   140298.32      740.987       -33112522       1.933883       417784.45     -32694738       651.43269      651.43269      651.43269      1674.2837      2325.7163      1674.2837      2325.7163      1674.2837      2325.7163      2.7644494e+08  0.25           15269400       2.8192493      3618.7942      14475.203      4.6787572    
  58047800   135203.5       744.56178     -33107702       1.933883       402612.93     -32705089       651.43269      651.43269      651.43269      1674.2837      2325.7163      1674.2837      2325.7163      1674.2837      2325.7163      2.7644494e+08  0.25           15269450       2.8337835      3440.1772      13760.644      4.6630013    
  58048000   130990.26      749.48732     -33104824       1.933883       390066.62     -32714758       651.43269      651.43269      651.43269      1674.2837      2325.7163      1674.2837      2325.7163      1674.2837      2325.7163      2.7644494e+08  0.25           15269500       2.8475756      3625.2256      14500.929      4.6460477    
  58048200   131107.29      757.77213     -33097290       1.933883       390415.11     -32706875       651.43269      651.43269      651.43269      1674.2837      2325.7163      1674.2837      2325.7163      1674.2837      2325.7163      2.7644494e+08  0.25           15269550       2.8611553      3681.9741      14727.89       4.6287834    
  58048400   136050.29      768.96707     -33103350       1.933883       405134.54     -32698216       651.43269      651.43269      651.43269      1674.2837      2325.7163      1674.2837      2325.7163      1674.2837      2325.7163      2.7644494e+08  0.25           15269600       2.874815       3660.3996      14641.553      4.6116858    
  58048600   139347.91      778.00249     -33105939       1.933883       414954.27     -32690985       651.43269      651.43269      651.43269      1674.2837      2325.7163      1674.2837      2325.7163      1674.2837      2325.7163      2.7644494e+08  0.25           15269650       2.8885262      3646.6709      14586.792      4.5947052    
  58048800   141118.02      784.25981     -33093738       1.933883       420225.36     -32673513       651.43269      651.43269      651.43269      1674.2837      2325.7163      1674.2837      2325.7163      1674.2837      2325.7163      2.7644494e+08  0.25           15269700       2.9023159      3625.8813      14503.427      4.577883     
  58049000   143221.36      795.37582     -33090798       1.933883       426488.75     -32664309       651.43269      651.43269      651.43269      1674.2837      2325.7163      1674.2837      2325.7163      1674.2837      2325.7163      2.7644494e+08  0.25           15269750       2.916397       3550.8597      14203.519      4.561547     
  58049200   145463.79      804.52696     -33080090       1.933883       433166.33     -32646924       651.43269      651.43269      651.43269      1674.2837      2325.7163      1674.2837      2325.7163      1674.2837      2325.7163      2.7644494e+08  0.25           15269800       2.9306086      3518.2683      14073.005      4.5454368    
  58049400   147228.3       811.45868     -33082761       1.933883       438420.75     -32644341       651.43269      651.43269      651.43269      1674.2837      2325.7163      1674.2837      2325.7163      1674.2837      2325.7163      2.7644494e+08  0.25           15269850       2.9450359      3465.6524      13862.696      4.5296773    
  58049600   148231.81      821.16084     -33077472       1.933883       441409.03     -32636063       651.43269      651.43269      651.43269      1674.2837      2325.7163      1674.2837      2325.7163      1674.2837      2325.7163      2.7644494e+08  0.25           15269900       2.9587308      3651.0024      14604.025      4.5128143    
  58049800   148567.97      828.05157     -33076344       1.933883       442410.06     -32633934       651.43269      651.43269      651.43269      1674.2837      2325.7163      1674.2837      2325.7163      1674.2837      2325.7163      2.7644494e+08  0.25           15269950       2.9724312      3649.5058      14597.855      4.4959921    
  58050000   148573.38      835.22599     -33073301       1.933883       442426.15     -32630875       651.43269      651.43269      651.43269      1674.2837      2325.7163      1674.2837      2325.7163      1674.2837      2325.7163      2.7644494e+08  0.25           15270000       2.988795       3055.4957      12222.019      4.4831957    
  58050200   148820.64      844.11362     -33075744       1.933883       443162.44     -32632581       651.43269      651.43269      651.43269      1674.2837      2325.7163      1674.2837      2325.7163      1674.2837      2325.7163      2.7644494e+08  0.25           15270050       3.0023103      3699.5367      14798.08       4.4661265    
  58050400   150107.58      851.20404     -33076126       1.933883       446994.74     -32629131       651.43269      651.43269      651.43269      1674.2837      2325.7163      1674.2837      2325.7163      1674.2837      2325.7163      2.7644494e+08  0.25           15270100       3.0160459      3640.1788      14560.819      4.4494173    
  58050600   152899.07      860.59729     -33069667       1.933883       455307.31     -32614360       651.43269      651.43269      651.43269      1674.2837      2325.7163      1674.2837      2325.7163      1674.2837      2325.7163      2.7644494e+08  0.25           15270150       3.030282       3512.19        14048.611      4.43347      
  58050800   155719.23      870.56055     -33060544       1.933883       463705.27     -32596839       651.43269      651.43269      651.43269      1674.2837      2325.7163      1674.2837      2325.7163      1674.2837      2325.7163      2.7644494e+08  0.25           15270200       3.0442792      3572.168       14288.694      4.4171926    
  58051000   156624.84      879.43754     -33054430       1.933883       466402.03     -32588028       651.43269      651.43269      651.43269      1674.2837      2325.7163      1674.2837      2325.7163      1674.2837      2325.7163      2.7644494e+08  0.25           15270250       3.0582795      3571.338       14285.398      4.4009418    
  58051200   155279.14      884.4892      -33042502       1.933883       462394.77     -32580107       651.43269      651.43269      651.43269      1674.2837      2325.7163      1674.2837      2325.7163      1674.2837      2325.7163      2.7644494e+08  0.25           15270300       3.0720958      3618.9107      14475.424      4.3844512    
  58051400   151725.52      889.02923     -33039517       1.933883       451812.68     -32587705       651.43269      651.43269      651.43269      1674.2837      2325.7163      1674.2837      2325.7163      1674.2837      2325.7163      2.7644494e+08  0.25           15270350       3.0860803      3575.3602      14301.602      4.3682231    
  58051600   146529.64      892.37615     -33029614       1.933883       436340.25     -32593274       651.43269      651.43269      651.43269      1674.2837      2325.7163      1674.2837      2325.7163      1674.2837      2325.7163      2.7644494e+08  0.25           15270400       3.1001147      3562.7109      14250.975      4.3520868    
  58051800   143207.36      898.98122     -33030380       1.933883       426447.07     -32603933       651.43269      651.43269      651.43269      1674.2837      2325.7163      1674.2837      2325.7163      1674.2837      2325.7163      2.7644494e+08  0.25           15270450       3.1139046      3625.8361      14503.211      4.3356309    
  58052000   145251.87      907.31823     -33041259       1.933883       432535.26     -32608724       651.43269      651.43269      651.43269      1674.2837      2325.7163      1674.2837      2325.7163      1674.2837      2325.7163      2.7644494e+08  0.25           15270500       3.1279046      3571.4436      14285.867      4.31949      
  58052200   151641.69      918.08526     -33023838       1.933883       451563.06     -32572275       651.43269      651.43269      651.43269      1674.2837      2325.7163      1674.2837      2325.7163      1674.2837      2325.7163      2.7644494e+08  0.25           15270550       3.1418855      3576.3049      14305.213      4.3033436    
  58052400   154749         925.45037     -33024968       1.933883       460816.09     -32564152       651.43269      651.43269      651.43269      1674.2837      2325.7163      1674.2837      2325.7163      1674.2837      2325.7163      2.7644494e+08  0.25           15270600       3.1557146      3615.5794      14462.432      4.287011     
  58052600   156714.92      934.34748     -33020081       1.933883       466670.27     -32553411       651.43269      651.43269      651.43269      1674.2837      2325.7163      1674.2837      2325.7163      1674.2837      2325.7163      2.7644494e+08  0.25           15270650       3.1692926      3682.4066      14729.636      4.2703639    
  58052800   158687.72      945.14212     -33012040       1.933883       472544.94     -32539495       651.43269      651.43269      651.43269      1674.2837      2325.7163      1674.2837      2325.7163      1674.2837      2325.7163      2.7644494e+08  0.25           15270700       3.1829495      3661.1594      14644.64       4.2538509    
  58053000   160470         951.77196     -33020319       1.933883       477852.27     -32542467       651.43269      651.43269      651.43269      1674.2837      2325.7163      1674.2837      2325.7163      1674.2837      2325.7163      2.7644494e+08  0.25           15270750       3.1970412      3548.1796      14192.621      4.237941     
  58053200   161737.96      958.60272     -33013320       1.933883       481628.02     -32531692       651.43269      651.43269      651.43269      1674.2837      2325.7163      1674.2837      2325.7163      1674.2837      2325.7163      2.7644494e+08  0.25           15270800       3.2106797      3666.0985      14664.447      4.2214517    
  58053400   162356.18      963.22895     -33008971       1.933883       483468.98     -32525502       651.43269      651.43269      651.43269      1674.2837      2325.7163      1674.2837      2325.7163      1674.2837      2325.7163      2.7644494e+08  0.25           15270850       3.223911       3778.9007      15115.426      4.2044581    
  58053600   162470.74      970.16354     -32999562       1.933883       483810.12     -32515752       651.43269      651.43269      651.43269      1674.2837      2325.7163      1674.2837      2325.7163      1674.2837      2325.7163      2.7644494e+08  0.25           15270900       3.2374018      3706.2022      14824.853      4.1878345    
  58053800   162446.5       976.39424     -32993647       1.933883       483737.94     -32509909       651.43269      651.43269      651.43269      1674.2837      2325.7163      1674.2837      2325.7163      1674.2837      2325.7163      2.7644494e+08  0.25           15270950       3.2503777      3853.2898      15398.021      4.170595     
  58054000   162845.91      984.02434     -32982062       1.933883       484927.32     -32497135       651.43269      651.43269      651.43269      1674.2837      2325.7163      1674.2837      2325.7163      1674.2837      2325.7163      2.7644494e+08  0.25           15271000       3.2644677      3548.6523      14207.513      4.1547796    
  58054200   164391.41      990.04023     -32979412       1.933883       489529.55     -32489883       651.43269      651.43269      651.43269      1674.2837      2325.7163      1674.2837      2325.7163      1674.2837      2325.7163      2.7644494e+08  0.25           15271050       3.2780416      3683.5278      14734.049      4.1383448    
  58054400   167109.36      997.40789     -32977160       1.933883       497623.14     -32479537       651.43269      651.43269      651.43269      1674.2837      2325.7163      1674.2837      2325.7163      1674.2837      2325.7163      2.7644494e+08  0.25           15271100       3.2915413      3703.8151      14815.357      4.1218424    
  58054600   169605.33      1003.6125     -32980398       1.933883       505055.72     -32475342       651.43269      651.43269      651.43269      1674.2837      2325.7163      1674.2837      2325.7163      1674.2837      2325.7163      2.7644494e+08  0.25           15271150       3.3048561      3755.202       15020.746      4.1051378    
  58054800   170475.4       1011.4905     -32985559       1.933883       507646.64     -32477912       651.43269      651.43269      651.43269      1674.2837      2325.7163      1674.2837      2325.7163      1674.2837      2325.7163      2.7644494e+08  0.25           15271200       3.3187918      3587.9359      14351.882      4.0892278    
[...]
  58999400   299.45086      2.1170751     -33255167       1.9354116      891.71352     -33254275       651.26114      651.26114      651.26114      1674.3694      2325.6306      1674.3694      2325.6306      1674.3694      2325.6306      2.762266e+08   0.25           15507350       21.545215      3358.407       13433.592      0.78914755   
  58999600   291.38377     -1.5293997     -33255187       1.9353248      867.69111     -33254319       651.27088      651.27088      651.27088      1674.3646      2325.6354      1674.3646      2325.6354      1674.3646      2325.6354      2.7623899e+08  0.25           15507400       21.560566      3257.1641      13028.632      0.77427453   
  58999800   311.1849      -2.2991926     -33255207       1.935306       926.65551     -33254281       651.27298      651.27298      651.27298      1674.3635      2325.6365      1674.3635      2325.6365      1674.3635      2325.6365      2.7624167e+08  0.25           15507450       21.575478      3353.0463      13412.171      0.75938541   
  59000000   298.68198      0.91470265    -33255228       1.935383       889.42392     -33254339       651.26435      651.26435      651.26435      1674.3678      2325.6322      1674.3678      2325.6322      1674.3678      2325.6322      2.7623069e+08  0.25           15507500       21.59213       3002.6221      12010.447      0.74455627   
  59000200   298.72028      4.0084084     -33255247       1.9354569      889.53799     -33254358       651.25606      651.25606      651.25606      1674.372       2325.628       1674.372       2325.628       1674.372       2325.628       2.7622013e+08  0.25           15507550       21.607052      3350.685       13402.813      0.72966619   
  59000400   298.35638      2.4490676     -33255267       1.9354201      888.45435     -33254379       651.26019      651.26019      651.26019      1674.3699      2325.6301      1674.3699      2325.6301      1674.3699      2325.6301      2.7622538e+08  0.25           15507600       21.621984      3348.4184      13393.709      0.71477641   
  59000600   298.60036     -1.354163      -33255287       1.9353304      889.18087     -33254398       651.27025      651.27025      651.27025      1674.3649      2325.6351      1674.3649      2325.6351      1674.3649      2325.6351      2.7623819e+08  0.25           15507650       21.636742      3388.0299      13552.093      0.69988092   
  59000800   299.24901     -1.1493844     -33255307       1.935337       891.11244     -33254416       651.26951      651.26951      651.26951      1674.3652      2325.6348      1674.3652      2325.6348      1674.3652      2325.6348      2.7623725e+08  0.25           15507700       21.651506      3386.5716      13546.291      0.68498582   
  59001000   294.69323      3.2480127     -33255328       1.9354435      877.54612     -33254450       651.25757      651.25757      651.25757      1674.3712      2325.6288      1674.3712      2325.6288      1674.3712      2325.6288      2.7622205e+08  0.25           15507750       21.666809      3267.5168      13070.052      0.67010754   
  59001200   314.1388       2.5235596     -33255348       1.9354266      935.4517      -33254413       651.25946      651.25946      651.25946      1674.3703      2325.6297      1674.3703      2325.6297      1674.3703      2325.6297      2.7622446e+08  0.25           15507800       21.681576      3385.7724      13543.154      0.65521253   
  59001400   296.4718      -2.4453274     -33255368       1.9353086      882.84238     -33254486       651.2727       651.2727       651.2727       1674.3637      2325.6363      1674.3637      2325.6363      1674.3637      2325.6363      2.7624131e+08  0.25           15507850       21.696506      3349.002       13395.933      0.64032248   
  59001600   304.87746      4.0400571     -33255389       1.9354622      907.87301     -33254481       651.25547      651.25547      651.25547      1674.3723      2325.6277      1674.3723      2325.6277      1674.3723      2325.6277      2.7621938e+08  0.25           15507900       21.711696      3291.7068      13166.836      0.62543985   
  59001800   292.55869     -1.1539604     -33255409       1.9353383      871.18982     -33254538       651.26936      651.26936      651.26936      1674.3653      2325.6347      1674.3653      2325.6347      1674.3653      2325.6347      2.7623706e+08  0.25           15507950       21.726566      3362.5008      13450.021      0.61054782   
  59002000   307.85031      3.0161819     -33255429       1.9354358      916.72565     -33254512       651.25842      651.25842      651.25842      1674.3708      2325.6292      1674.3708      2325.6292      1674.3708      2325.6292      2.7622314e+08  0.25           15508000       21.741471      3354.6053      13418.417      0.59565678   
  59002200   300.28294      7.8467618     -33255447       1.9355493      894.19132     -33254553       651.2457       651.2457       651.2457       1674.3771      2325.6229      1674.3771      2325.6229      1674.3771      2325.6229      2.7620695e+08  0.25           15508050       21.756786      3264.6527      13058.617      0.58077668   
  59002400   298.96164      0.33175974    -33255099       1.935368       890.25672     -33254209       651.26603      651.26603      651.26603      1674.367       2325.633       1674.367       2325.633       1674.367       2325.633       2.7623282e+08  0.25           15508100       21.771828      3324.0155      13296.034      0.56588888   
  59002600   295.97062      3.4518564     -33255118       1.9354418      881.34997     -33254237       651.25776      651.25776      651.25776      1674.3711      2325.6289      1674.3711      2325.6289      1674.3711      2325.6289      2.762223e+08   0.25           15508150       21.786734      3354.3825      13417.584      0.55099742   
  59002800   312.24893     -5.6252677     -33255137       1.9352266      929.82399     -33254207       651.2819       651.2819       651.2819       1674.3591      2325.6409      1674.3591      2325.6409      1674.3591      2325.6409      2.7625301e+08  0.25           15508200       21.801561      3372.1943      13488.715      0.53610401   
  59003000   297.49147      11.08735      -33255154       1.9356192      885.87879     -33254268       651.23786      651.23786      651.23786      1674.3811      2325.6189      1674.3811      2325.6189      1674.3811      2325.6189      2.7619698e+08  0.25           15508250       21.816098      3439.5756      13758.354      0.52120375   
  59003200   303.48945     -10.203747     -33255174       1.9351131      903.73977     -33254270       651.29462      651.29462      651.29462      1674.3527      2325.6473      1674.3527      2325.6473      1674.3527      2325.6473      2.7626921e+08  0.25           15508300       21.830762      3409.692       13638.772      0.50630694   
  59003400   293.34057      10.235939     -33255193       1.9355913      873.51812     -33254319       651.24099      651.24099      651.24099      1674.3795      2325.6205      1674.3795      2325.6205      1674.3795      2325.6205      2.7620095e+08  0.25           15508350       21.845397      3416.4746      13665.923      0.49140979   
  59003600   308.96974     -7.6610329     -33254845       1.9351611      920.05911     -33253925       651.28924      651.28924      651.28924      1674.3554      2325.6446      1674.3554      2325.6446      1674.3554      2325.6446      2.7626235e+08  0.25           15508400       21.860613      3286.0834      13144.265      0.47652566   
  59003800   298.02599      4.2195528     -33254866       1.9354376      887.4705      -33253978       651.25823      651.25823      651.25823      1674.3709      2325.6291      1674.3709      2325.6291      1674.3709      2325.6291      2.7622289e+08  0.25           15508450       21.875507      3356.9731      13427.971      0.46163429   
  59004000   303.10022      4.1364256     -33254886       1.9354324      902.58068     -33253983       651.25881      651.25881      651.25881      1674.3706      2325.6294      1674.3706      2325.6294      1674.3706      2325.6294      2.7622363e+08  0.25           15508500       21.890338      3371.3214      13485.232      0.44674163   
  59004200   297.32347     -6.1545285     -33254904       1.9351878      885.37851     -33254018       651.28624      651.28624      651.28624      1674.3569      2325.6431      1674.3569      2325.6431      1674.3569      2325.6431      2.7625854e+08  0.25           15508550       21.905229      3357.63        13430.512      0.43185024   
  59004400   303.39881      7.9515717     -33254923       1.935519       903.46983     -33254019       651.24909      651.24909      651.24909      1674.3755      2325.6245      1674.3755      2325.6245      1674.3755      2325.6245      2.7621127e+08  0.25           15508600       21.919952      3396.2138      13584.898      0.41695564   
  59004600   297.22663     -2.35197       -33254943       1.9352759      885.09016     -33254058       651.27636      651.27636      651.27636      1674.3618      2325.6382      1674.3618      2325.6382      1674.3618      2325.6382      2.7624597e+08  0.25           15508650       21.934872      3351.2242      13404.908      0.40206489   
  59004800   304.26061     -0.35916531    -33254963       1.9353223      906.03613     -33254057       651.27116      651.27116      651.27116      1674.3644      2325.6356      1674.3644      2325.6356      1674.3644      2325.6356      2.7623935e+08  0.25           15508700       21.949761      3358.0492      13432.179      0.38717357   
  59005000   298.81587      6.0385449     -33254981       1.9354725      889.82265     -33254092       651.25431      651.25431      651.25431      1674.3728      2325.6272      1674.3728      2325.6272      1674.3728      2325.6272      2.7621791e+08  0.25           15508750       21.965011      3278.816       13115.211      0.37228835   
  59005200   299.64864     -4.0297349     -33255001       1.9352358      892.30249     -33254109       651.28086      651.28086      651.28086      1674.3596      2325.6404      1674.3596      2325.6404      1674.3596      2325.6404      2.7625169e+08  0.25           15508800       21.979888      3360.8436      13443.391      0.35739658   
  59005400   296.0834       1.0886208     -33255021       1.9353577      881.68582     -33254139       651.26719      651.26719      651.26719      1674.3664      2325.6336      1674.3664      2325.6336      1674.3664      2325.6336      2.762343e+08   0.25           15508850       21.994683      3379.5564      13518.269      0.34250355   
  59005600   304.76003      5.7872422     -33255040       1.9354704      907.52333     -33254132       651.25454      651.25454      651.25454      1674.3727      2325.6273      1674.3727      2325.6273      1674.3727      2325.6273      2.762182e+08   0.25           15508900       22.009429      3390.6873      13562.709      0.32760993   
  59005800   297.56375     -2.3625409     -33255059       1.9352819      886.09403     -33254173       651.27569      651.27569      651.27569      1674.3622      2325.6378      1674.3622      2325.6378      1674.3622      2325.6378      2.7624511e+08  0.25           15508950       22.02423       3378.0369      13512.16       0.3127173    
  59006000   298.57759     -1.4888818     -33255079       1.9353053      889.11307     -33254189       651.27307      651.27307      651.27307      1674.3635      2325.6365      1674.3635      2325.6365      1674.3635      2325.6365      2.7624177e+08  0.25           15509000       22.039028      3378.9028      13515.602      0.29782473   
  59006200   299.6128       5.8941402     -33255096       1.9354811      892.19575     -33254204       651.25335      651.25335      651.25335      1674.3733      2325.6267      1674.3733      2325.6267      1674.3733      2325.6267      2.7621669e+08  0.25           15509050       22.05408       3321.9133      13287.687      0.28293555   
  59006400   298.30758      0.1150132     -33255115       1.9353465      888.30905     -33254227       651.26844      651.26844      651.26844      1674.3658      2325.6342      1674.3658      2325.6342      1674.3658      2325.6342      2.7623589e+08  0.25           15509100       22.06939       3265.7421      13062.922      0.2680493    
  59006600   296.4228      -3.0785953     -33255133       1.935271       882.69647     -33254250       651.27691      651.27691      651.27691      1674.3615      2325.6385      1674.3615      2325.6385      1674.3615      2325.6385      2.7624667e+08  0.25           15509150       22.084359      3340.1997      13360.818      0.25315856   
  59006800   309.36853      5.7005053     -33255152       1.9354757      921.24667     -33254230       651.25396      651.25396      651.25396      1674.373       2325.627       1674.373       2325.627       1674.373       2325.627       2.7621746e+08  0.25           15509200       22.099154      3379.6917      13518.766      0.23826583   
  59007000   299.38003      0.75627287    -33255171       1.9353575      891.5026      -33254280       651.26721      651.26721      651.26721      1674.3664      2325.6336      1674.3664      2325.6336      1674.3664      2325.6336      2.7623432e+08  0.25           15509250       22.114047      3357.071       13428.261      0.22337424   
  59007200   298.38762     -4.1600169     -33255190       1.9352402      888.54737     -33254301       651.28037      651.28037      651.28037      1674.3598      2325.6402      1674.3598      2325.6402      1674.3598      2325.6402      2.7625107e+08  0.25           15509300       22.128779      3394.1228      13576.526      0.20848111   
  59007400   295.76397      4.7608723     -33255209       1.9354481      880.7346      -33254329       651.25705      651.25705      651.25705      1674.3715      2325.6285      1674.3715      2325.6285      1674.3715      2325.6285      2.762214e+08   0.25           15509350       22.143567      3381.1683      13524.677      0.1935887    
  59007600   309.69721     -1.4473809     -33255598       1.9353045      922.22541     -33254676       651.27316      651.27316      651.27316      1674.3634      2325.6366      1674.3634      2325.6366      1674.3634      2325.6366      2.7624189e+08  0.25           15509400       22.158835      3274.7406      13098.963      0.1787003    
  59007800   299.67517     -8.6161672     -33255617       1.9351359      892.3815      -33254724       651.29206      651.29206      651.29206      1674.354       2325.646       1674.354       2325.646       1674.354       2325.646       2.7626595e+08  0.25           15509450       22.173851      3329.7507      13318.962      0.16380953   
  59008000   295.79712      1.6075413     -33255639       1.9353744      880.83333     -33254758       651.26531      651.26531      651.26531      1674.3673      2325.6327      1674.3673      2325.6327      1674.3673      2325.6327      2.762319e+08   0.25           15509500       22.1887        3367.1943      13468.797      0.14891746   
  59008200   302.98022      13.502894     -33257549       1.9356558      902.22335     -33256647       651.23375      651.23375      651.23375      1674.3831      2325.6169      1674.3831      2325.6169      1674.3831      2325.6169      2.7619175e+08  0.25           15509550       22.203761      3319.9257      13279.69       0.13402674   
  59008400   295.81167     -13.497621     -33255674       1.9350204      880.87664     -33254793       651.30503      651.30503      651.30503      1674.3475      2325.6525      1674.3475      2325.6525      1674.3475      2325.6525      2.7628245e+08  0.25           15509600       22.218667      3354.4361      13417.788      0.11913495   
  59008600   303.64626     -1.3369899     -33255698       1.9353033      904.20672     -33254794       651.27329      651.27329      651.27329      1674.3634      2325.6366      1674.3634      2325.6366      1674.3634      2325.6366      2.7624206e+08  0.25           15509650       22.233501      3370.5807      13482.345      0.10424281   
  59008800   306.04939      15.408373     -33257607       1.9356964      911.36283     -33256696       651.2292       651.2292       651.2292       1674.3854      2325.6146      1674.3854      2325.6146      1674.3854      2325.6146      2.7618596e+08  0.25           15509700       22.248219      3397.2517      13588.986      0.089350283  
  59009000   297.59111     -2.8921141     -33257632       1.9352693      886.17551     -33256746       651.27711      651.27711      651.27711      1674.3614      2325.6386      1674.3614      2325.6386      1674.3614      2325.6386      2.7624692e+08  0.25           15509750       22.263506      3270.6308      13082.514      0.074459893  
  59009200   304.59155     -8.3863542     -33257650       1.9351396      907.02162     -33256743       651.29165      651.29165      651.29165      1674.3542      2325.6458      1674.3542      2325.6458      1674.3542      2325.6458      2.7626542e+08  0.25           15509800       22.278431      3350.0573      13400.264      0.059568003  
  59009400   294.82824     -7.037168      -33257669       1.9351693      877.94815     -33256791       651.28832      651.28832      651.28832      1674.3558      2325.6442      1674.3558      2325.6442      1674.3558      2325.6442      2.7626118e+08  0.25           15509850       22.293257      3372.4436      13489.737      0.04467587   
  59009600   305.42854     -6.0558874     -33257689       1.9351904      909.51403     -33256779       651.28595      651.28595      651.28595      1674.357       2325.643       1674.357       2325.643       1674.357       2325.643       2.7625817e+08  0.25           15509900       22.308134      3360.8764      13443.51       0.029783894  
  59009800   297.74097     -5.1243416     -33257707       1.935211       886.62178     -33256821       651.28365      651.28365      651.28365      1674.3582      2325.6418      1674.3582      2325.6418      1674.3582      2325.6418      2.7625524e+08  0.25           15509950       22.323165      3326.5932      13306.349      0.014892039  
  59010000   302.96724     -3.6458329     -33257726       1.9352446      902.18471     -33256824       651.27987      651.27987      651.27987      1674.3601      2325.6399      1674.3601      2325.6399      1674.3601      2325.6399      2.7625043e+08  0.25           15510000       22.338057      3357.5441      13430.195      0            
Loop time of 22.3381 on 4 procs for 300000 steps with 1000 atoms

Performance: 290.088 ns/day, 0.083 hours/ns, 13429.978 timesteps/s
99.4% CPU use with 4 MPI tasks x 1 OpenMP threads

MPI task timing breakdown:
Section |  min time  |  avg time  |  max time  |%varavg| %total
---------------------------------------------------------------
Pair    | 9.2251     | 10.017     | 10.894     |  18.8 | 44.84
Neigh   | 0.005161   | 0.0058894  | 0.0065876  |   0.7 |  0.03
Comm    | 6.6405     | 7.4824     | 8.2466     |  20.8 | 33.50
Output  | 0.04638    | 0.050478   | 0.062349   |   3.1 |  0.23
Modify  | 3.888      | 3.9733     | 4.0438     |   2.9 | 17.79
Other   |            | 0.8091     |            |       |  3.62

Nlocal:            250 ave         277 max         224 min
Histogram: 1 0 0 0 1 1 0 0 0 1
Nghost:            765 ave         787 max         756 min
Histogram: 2 1 0 0 0 0 0 0 0 1
Neighs:        1715.75 ave        1932 max        1564 min
Histogram: 1 0 0 2 0 0 0 0 0 1

Total # of neighbors = 6863
Ave neighs/atom = 6.863
Neighbor list builds = 36
Dangerous builds = 0

# run_style
run_style verlet

# write restart
write_restart ${write_res}
write_restart ./pgnpmf/5050/equpmf58.res
System init for write_restart ...
Generated 0 of 1 mixed pair_coeff terms from geometric mixing rule

Total wall time: 0:01:09
