LAMMPS (23 Jun 2022 - Update 1)
OMP_NUM_THREADS environment is not set. Defaulting to 1 thread. (src/comm.cpp:98)
  using 1 OpenMP thread(s) per MPI task
# Read restart
read_restart ${read_res}
read_restart ./pgnpmf/5050/equpmf70.res
Reading restart file ...
  restart file = 23 Jun 2022, LAMMPS = 23 Jun 2022
  restoring atom style atomic from restart
  orthogonal box = (1674.7835 1674.7835 1674.7835) to (2325.2165 2325.2165 2325.2165)
  1 by 2 by 2 MPI processor grid
  restoring pair style table from restart
  1000 atoms
  read_restart CPU = 0.007 seconds

# Settings

pair_style table spline 9941

pair_coeff 1 1 ./pgnpmf/N20.txt DE_GNP 75.6
pair_coeff 2 2 ./pgnpmf/N100.txt DE_GNP 115.92
WARNING: 3 of 9941 force values in table DE_GNP are inconsistent with -dE/dr.
WARNING:  Should only be flagged at inflection points (src/pair_table.cpp:463)
pair_coeff 1 2 ./pgnpmf/mixed_potential.txt DE_GNP 95.66
WARNING: 1562 of 9941 force values in table DE_GNP are inconsistent with -dE/dr.
WARNING:  Should only be flagged at inflection points (src/pair_table.cpp:463)

#Neigh_list Calc Frequency

neigh_modify delay 0 every 1 check yes

# Saving Frequency (50 frames)

variable ts_save equal ${steps_equ}
variable ts_save equal 5000

# Dump
#dump 1 all custom ${ts_save} ./pgnpmf/${folder}/equilibration/trajectory/trajectory_${usic}_${trial}.equ.custom type x y z ix iy iz
#dump_modify 1 first no sort id
dump 2 all cfg 50000 ./pgnpmf/${folder}/equilibration/trajectory/dumpgen.tens_*.cfg mass type xs ys zs fx fy fz
dump 2 all cfg 50000 ./pgnpmf/5050/equilibration/trajectory/dumpgen.tens_*.cfg mass type xs ys zs fx fy fz
dump_modify 2 element N20 N100

# thermo_style
thermo_style custom step temp press pe density ke etotal lx ly lz xlo xhi ylo yhi zlo zhi vol dt time cpu tpcpu spcpu cpuremain

# run info
timestep ${ts}
timestep 0.25
thermo 200

# fix

fix 1 all momentum 1000 linear 1 1 1 angular
variable T equal ${temp}
variable T equal 300
fix 2 all nvt temp ${T} 370000 100.0
fix 2 all nvt temp 300 370000 100.0

run 100000
Generated 0 of 1 mixed pair_coeff terms from geometric mixing rule
Unused restart file global fix info:
  fix style: npt, fix ID: 5
Neighbor list info ...
  update every 1 steps, delay 0 steps, check yes
  max neighbors/atom: 2000, page size: 100000
  master list distance cutoff = 117.92
  ghost atom cutoff = 117.92
  binsize = 58.96, bins = 12 12 12
  1 neighbor lists, perpetual/occasional/extra = 1 0 0
  (1) pair table, perpetual
      attributes: half, newton on
      pair build: half/bin/atomonly/newton
      stencil: half/bin/3d
      bin: standard
Per MPI rank memory allocation (min/avg/max) = 3.084 | 3.085 | 3.086 Mbytes
   Step          Temp          Press          PotEng        Density         KinEng         TotEng           Lx             Ly             Lz            Xlo            Xhi            Ylo            Yhi            Zlo            Zhi           Volume           Dt            Time           CPU           T/CPU          S/CPU         CPULeft    
  71010000   312.7606      -5.275976      -33415001       1.9428134      931.34765     -33414070       650.43302      650.43302      650.43302      1674.7835      2325.2165      1674.7835      2325.2165      1674.7835      2325.2165      2.7517422e+08  0.25           18510000       0              0              0              0            
  71010200   339.59419     -5.1462353     -33415015       1.9428134      1011.2535     -33414003       650.43302      650.43302      650.43302      1674.7835      2325.2165      1674.7835      2325.2165      1674.7835      2325.2165      2.7517422e+08  0.25           18510050       0.016553319    3020.3582      12080.813      8.2614759    
  71010400   392.75352     -4.9867504     -33415029       1.9428134      1169.5529     -33413859       650.43302      650.43302      650.43302      1674.7835      2325.2165      1674.7835      2325.2165      1674.7835      2325.2165      2.7517422e+08  0.25           18510100       0.031089498    3439.5747      13758.181      7.7421465    
  71010600   473.36791     -4.8206662     -33415044       1.9428134      1409.6088     -33413634       650.43302      650.43302      650.43302      1674.7835      2325.2165      1674.7835      2325.2165      1674.7835      2325.2165      2.7517422e+08  0.25           18510150       0.045277588    3524.2184      14096.68       7.5014977    
  71010800   582.80597     -4.6424043     -33415060       1.9428134      1735.4967     -33413324       650.43302      650.43302      650.43302      1674.7835      2325.2165      1674.7835      2325.2165      1674.7835      2325.2165      2.7517422e+08  0.25           18510200       0.059717947    3462.4538      13850.015      7.4054215    
  71011000   727.54445     -4.4334481     -33415077       1.9428134      2166.5031     -33412910       650.43302      650.43302      650.43302      1674.7835      2325.2165      1674.7835      2325.2165      1674.7835      2325.2165      2.7517422e+08  0.25           18510250       0.074174452    3458.6674      13834.684      7.3435661    
  71011200   917.26601     -4.3160139     -33415095       1.9428134      2731.4615     -33412363       650.43302      650.43302      650.43302      1674.7835      2325.2165      1674.7835      2325.2165      1674.7835      2325.2165      2.7517422e+08  0.25           18510300       0.088450952    3502.2501      14008.873      7.2827285    
  71011400   1164.654      -4.4106891     -33415114       1.9428134      3468.1406     -33411646       650.43302      650.43302      650.43302      1674.7835      2325.2165      1674.7835      2325.2165      1674.7835      2325.2165      2.7517422e+08  0.25           18510350       0.10271874     3504.4761      14018.039      7.2345218    
  71011600   1486.1433     -4.6604263     -33415135       1.9428134      4425.4811     -33410709       650.43302      650.43302      650.43302      1674.7835      2325.2165      1674.7835      2325.2165      1674.7835      2325.2165      2.7517422e+08  0.25           18510400       0.11752746     3376.3389      13505.336      7.2281229    
  71011800   1902.2592     -4.8548127     -33415159       1.9428134      5664.6031     -33409494       650.43302      650.43302      650.43302      1674.7835      2325.2165      1674.7835      2325.2165      1674.7835      2325.2165      2.7517422e+08  0.25           18510450       0.13199855     3455.2593      13821.04       7.201402     
  71012000   2437.1662     -4.8525274     -33415186       1.9428134      7257.4647     -33407928       650.43302      650.43302      650.43302      1674.7835      2325.2165      1674.7835      2325.2165      1674.7835      2325.2165      2.7517422e+08  0.25           18510500       0.14651976     3443.2544      13773.056      7.1795885    
  71012200   3118.0768     -4.86485       -33415215       1.9428134      9285.1002     -33405930       650.43302      650.43302      650.43302      1674.7835      2325.2165      1674.7835      2325.2165      1674.7835      2325.2165      2.7517422e+08  0.25           18510550       0.16110324     3428.5355      13714.17       7.1618839    
  71012400   3973.2519     -4.9212558     -33415611       1.9428134      11831.666     -33403779       650.43302      650.43302      650.43302      1674.7835      2325.2165      1674.7835      2325.2165      1674.7835      2325.2165      2.7517422e+08  0.25           18510600       0.17580011     3402.0477      13608.173      7.1493072    
  71012600   5029.4294     -4.424531      -33415636       1.9428134      14976.782     -33400659       650.43302      650.43302      650.43302      1674.7835      2325.2165      1674.7835      2325.2165      1674.7835      2325.2165      2.7517422e+08  0.25           18510650       0.19066258     3364.1154      13456.342      7.1426273    
  71012800   6305.6016     -4.0669473     -33415655       1.9428134      18777.005     -33396878       650.43302      650.43302      650.43302      1674.7835      2325.2165      1674.7835      2325.2165      1674.7835      2325.2165      2.7517422e+08  0.25           18510700       0.2054121      3389.9705      13560.069      7.1308288    
  71013000   7806.7159     -3.4352648     -33421160       1.9428134      23247.067     -33397912       650.43302      650.43302      650.43302      1674.7835      2325.2165      1674.7835      2325.2165      1674.7835      2325.2165      2.7517422e+08  0.25           18510750       0.22072946     3264.3368      13057.155      7.1370015    
  71013200   9504.5455     -2.97023       -33430450       1.9428134      28302.913     -33402147       650.43302      650.43302      650.43302      1674.7835      2325.2165      1674.7835      2325.2165      1674.7835      2325.2165      2.7517422e+08  0.25           18510800       0.23612138     3248.4764      12991.764      7.1428225    
  71013400   11325.582     -1.7090303     -33428562       1.9428134      33725.648     -33394837       650.43302      650.43302      650.43302      1674.7835      2325.2165      1674.7835      2325.2165      1674.7835      2325.2165      2.7517422e+08  0.25           18510850       0.25132602     3288.4549      13156.05       7.140687     
  71013600   13145.835     -0.16460353    -33428561       1.9428134      39146.052     -33389415       650.43302      650.43302      650.43302      1674.7835      2325.2165      1674.7835      2325.2165      1674.7835      2325.2165      2.7517422e+08  0.25           18510900       0.26626639     3346.6037      13386.39       7.130094     
  71013800   14785.32       1.1217587     -33428541       1.9428134      44028.158     -33384512       650.43302      650.43302      650.43302      1674.7835      2325.2165      1674.7835      2325.2165      1674.7835      2325.2165      2.7517422e+08  0.25           18510950       0.2812481      3337.4455      13349.911      7.1200766    
  71014000   16047.92       2.2100283     -33428505       1.9428134      47787.966     -33380717       650.43302      650.43302      650.43302      1674.7835      2325.2165      1674.7835      2325.2165      1674.7835      2325.2165      2.7517422e+08  0.25           18511000       0.29603308     3381.815       13527.231      7.1048503    
  71014200   16794.255      2.8947848     -33428454       1.9428134      50010.425     -33378444       650.43302      650.43302      650.43302      1674.7835      2325.2165      1674.7835      2325.2165      1674.7835      2325.2165      2.7517422e+08  0.25           18511050       0.31119778     3297.095       13188.365      7.0983319    
  71014400   17053.068      3.853855      -33428391       1.9428134      50781.126     -33377610       650.43302      650.43302      650.43302      1674.7835      2325.2165      1674.7835      2325.2165      1674.7835      2325.2165      2.7517422e+08  0.25           18511100       0.32626217     3319.1215      13276.514      7.0888407    
  71014600   17067.541      4.4830495     -33433426       1.9428134      50824.223     -33382602       650.43302      650.43302      650.43302      1674.7835      2325.2165      1674.7835      2325.2165      1674.7835      2325.2165      2.7517422e+08  0.25           18511150       0.34162794     3253.9108      13015.529      7.0851293    
  71014800   17189.142      5.0693132     -33435225       1.9428134      51186.329     -33384039       650.43302      650.43302      650.43302      1674.7835      2325.2165      1674.7835      2325.2165      1674.7835      2325.2165      2.7517422e+08  0.25           18511200       0.35671456     3314.2701      13257.189      7.074888     
  71015000   17701.056      5.1444598     -33436633       1.9428134      52710.721     -33383922       650.43302      650.43302      650.43302      1674.7835      2325.2165      1674.7835      2325.2165      1674.7835      2325.2165      2.7517422e+08  0.25           18511250       0.37164372     3349.1402      13396.494      7.0612784    
  71015200   18705.913      7.0799345     -33436506       1.9428134      55703.016     -33380803       650.43302      650.43302      650.43302      1674.7835      2325.2165      1674.7835      2325.2165      1674.7835      2325.2165      2.7517422e+08  0.25           18511300       0.38655375     3353.4615      13413.868      7.0472159    
  71015400   20050.589      7.4207189     -33438242       1.9428134      59707.229     -33378535       650.43302      650.43302      650.43302      1674.7835      2325.2165      1674.7835      2325.2165      1674.7835      2325.2165      2.7517422e+08  0.25           18511350       0.40129688     3391.3901      13565.643      7.030168     
  71015600   21442.537      7.2702088     -33441859       1.9428134      63852.215     -33378006       650.43302      650.43302      650.43302      1674.7835      2325.2165      1674.7835      2325.2165      1674.7835      2325.2165      2.7517422e+08  0.25           18511400       0.41693251     3197.8108      12791.097      7.0283354    
  71015800   22588.549      8.7565553     -33441672       1.9428134      67264.843     -33374407       650.43302      650.43302      650.43302      1674.7835      2325.2165      1674.7835      2325.2165      1674.7835      2325.2165      2.7517422e+08  0.25           18511450       0.43193488     3332.8287      13331.432      7.0152577    
  71016000   23308.326      10.231169     -33422913       1.9428134      69408.216     -33353505       650.43302      650.43302      650.43302      1674.7835      2325.2165      1674.7835      2325.2165      1674.7835      2325.2165      2.7517422e+08  0.25           18511500       0.44706622     3304.3974      13217.576      7.0040766    
  71016200   23620.618      10.155551     -33422680       1.9428134      70338.167     -33352342       650.43302      650.43302      650.43302      1674.7835      2325.2165      1674.7835      2325.2165      1674.7835      2325.2165      2.7517422e+08  0.25           18511550       0.46231472     3279.0121      13115.929      6.994415     
  71016400   23729.45       11.368799     -33422409       1.9428134      70662.25      -33351747       650.43302      650.43302      650.43302      1674.7835      2325.2165      1674.7835      2325.2165      1674.7835      2325.2165      2.7517422e+08  0.25           18511600       0.47741862     3310.4136      13241.661      6.982284     
  71016600   23942.559      14.340116     -33422483       1.9428134      71296.851     -33351186       650.43302      650.43302      650.43302      1674.7835      2325.2165      1674.7835      2325.2165      1674.7835      2325.2165      2.7517422e+08  0.25           18511650       0.49306229     3196.1666      12784.791      6.9776127    
  71016800   24507.467      15.369211     -33422162       1.9428134      72979.053     -33349183       650.43302      650.43302      650.43302      1674.7835      2325.2165      1674.7835      2325.2165      1674.7835      2325.2165      2.7517422e+08  0.25           18511700       0.50878329     3180.4692      12721.848      6.9733616    
  71017000   25503.133      17.275626     -33424078       1.9428134      75943.975     -33348134       650.43302      650.43302      650.43302      1674.7835      2325.2165      1674.7835      2325.2165      1674.7835      2325.2165      2.7517422e+08  0.25           18511750       0.52439057     3203.6412      12814.635      6.9669332    
  71017200   26800.665      21.888545     -33421437       1.9428134      79807.804     -33341629       650.43302      650.43302      650.43302      1674.7835      2325.2165      1674.7835      2325.2165      1674.7835      2325.2165      2.7517422e+08  0.25           18511800       0.53970167     3265.5876      13062.331      6.9561867    
  71017400   28132.429      24.070284     -33421039       1.9428134      83773.569     -33337266       650.43302      650.43302      650.43302      1674.7835      2325.2165      1674.7835      2325.2165      1674.7835      2325.2165      2.7517422e+08  0.25           18511850       0.55486364     3297.7341      13190.859      6.9433248    
  71017600   29210.399      26.660453     -33420587       1.9428134      86983.579     -33333603       650.43302      650.43302      650.43302      1674.7835      2325.2165      1674.7835      2325.2165      1674.7835      2325.2165      2.7517422e+08  0.25           18511900       0.57044961     3208.0014      12832.022      6.9354959    
  71017800   29882.309      28.405297     -33420461       1.9428134      88984.413     -33331477       650.43302      650.43302      650.43302      1674.7835      2325.2165      1674.7835      2325.2165      1674.7835      2325.2165      2.7517422e+08  0.25           18511950       0.58565847     3287.571       13150.317      6.9228108    
  71018000   30185.56       28.681967     -33419938       1.9428134      89887.444     -33330050       650.43302      650.43302      650.43302      1674.7835      2325.2165      1674.7835      2325.2165      1674.7835      2325.2165      2.7517422e+08  0.25           18512000       0.60092714     3274.6758      13098.714      6.9106898    
  71018200   30332.03       29.884111     -33419378       1.9428134      90323.606     -33329055       650.43302      650.43302      650.43302      1674.7835      2325.2165      1674.7835      2325.2165      1674.7835      2325.2165      2.7517422e+08  0.25           18512050       0.61690984     3128.3949      12513.583      6.9064076    
  71018400   30605.246      31.855972     -33418781       1.9428134      91137.195     -33327644       650.43302      650.43302      650.43302      1674.7835      2325.2165      1674.7835      2325.2165      1674.7835      2325.2165      2.7517422e+08  0.25           18512100       0.63279451     3147.6568      12590.63       6.9005001    
  71018600   31224.245      34.618962     -33418879       1.9428134      92980.471     -33325898       650.43302      650.43302      650.43302      1674.7835      2325.2165      1674.7835      2325.2165      1674.7835      2325.2165      2.7517422e+08  0.25           18512150       0.64844171     3195.4826      12781.876      6.891606     
  71018800   32247.182      38.939076     -33417838       1.9428134      96026.601     -33321812       650.43302      650.43302      650.43302      1674.7835      2325.2165      1674.7835      2325.2165      1674.7835      2325.2165      2.7517422e+08  0.25           18512200       0.66390724     3232.9962      12931.946      6.880519     
  71019000   33532.374      42.257271     -33416760       1.9428134      99853.683     -33316906       650.43302      650.43302      650.43302      1674.7835      2325.2165      1674.7835      2325.2165      1674.7835      2325.2165      2.7517422e+08  0.25           18512250       0.67928657     3251.0687      13004.358      6.868368     
  71019200   34813.703      44.416043     -33415999       1.9428134      103669.26     -33312330       650.43302      650.43302      650.43302      1674.7835      2325.2165      1674.7835      2325.2165      1674.7835      2325.2165      2.7517422e+08  0.25           18512300       0.69452514     3281.2035      13124.864      6.854683     
  71019400   35838.653      47.716707     -33415202       1.9428134      106721.39     -33308480       650.43302      650.43302      650.43302      1674.7835      2325.2165      1674.7835      2325.2165      1674.7835      2325.2165      2.7517422e+08  0.25           18512350       0.71044672     3140.3834      12561.443      6.8475212    
  71019600   36474.648      49.185437     -33421744       1.9428134      108615.27     -33313129       650.43302      650.43302      650.43302      1674.7835      2325.2165      1674.7835      2325.2165      1674.7835      2325.2165      2.7517422e+08  0.25           18512400       0.72601283     3212.1125      12848.446      6.8366443    
  71019800   36777.063      52.748865     -33415403       1.9428134      109515.81     -33305887       650.43302      650.43302      650.43302      1674.7835      2325.2165      1674.7835      2325.2165      1674.7835      2325.2165      2.7517422e+08  0.25           18512450       0.74152329     3223.6271      12894.564      6.8250626    
  71020000   36952.373      54.257645     -33414874       1.9428134      110037.86     -33304837       650.43302      650.43302      650.43302      1674.7835      2325.2165      1674.7835      2325.2165      1674.7835      2325.2165      2.7517422e+08  0.25           18512500       0.75720215     3189.0039      12755.829      6.8148432    
  71020200   37279.171      57.688617     -33406583       1.9428134      111011.01     -33295572       650.43302      650.43302      650.43302      1674.7835      2325.2165      1674.7835      2325.2165      1674.7835      2325.2165      2.7517422e+08  0.25           18512550       0.77294579     3175.8804      12703.702      6.8049754    
  71020400   37949.543      59.677098     -33413021       1.9428134      113007.26     -33300013       650.43302      650.43302      650.43302      1674.7835      2325.2165      1674.7835      2325.2165      1674.7835      2325.2165      2.7517422e+08  0.25           18512600       0.78846556     3221.7062      12886.854      6.7929548    
  71020600   38995.979      61.487989     -33412057       1.9428134      116123.37     -33295934       650.43302      650.43302      650.43302      1674.7835      2325.2165      1674.7835      2325.2165      1674.7835      2325.2165      2.7517422e+08  0.25           18512650       0.80404834     3208.6715      12834.59       6.7813342    
  71020800   40268.601      65.058125     -33411071       1.9428134      119913.02     -33291158       650.43302      650.43302      650.43302      1674.7835      2325.2165      1674.7835      2325.2165      1674.7835      2325.2165      2.7517422e+08  0.25           18512700       0.82078896     2986.7272      11946.894      6.7791302    
  71021000   41510.219      69.075338     -33409691       1.9428134      123610.34     -33286080       650.43302      650.43302      650.43302      1674.7835      2325.2165      1674.7835      2325.2165      1674.7835      2325.2165      2.7517422e+08  0.25           18512750       0.83670301     3141.8892      12567.561      6.769709     
  71021200   42485.36       72.998045     -33406763       1.9428134      126514.15     -33280249       650.43302      650.43302      650.43302      1674.7835      2325.2165      1674.7835      2325.2165      1674.7835      2325.2165      2.7517422e+08  0.25           18512800       0.85234533     3196.4484      12785.852      6.757901     
  71021400   43081.106      75.742305     -33413450       1.9428134      128288.18     -33285162       650.43302      650.43302      650.43302      1674.7835      2325.2165      1674.7835      2325.2165      1674.7835      2325.2165      2.7517422e+08  0.25           18512850       0.86828358     3137.1167      12548.514      6.7482579    
  71021600   43374.685      79.988714     -33414283       1.9428134      129162.41     -33285120       650.43302      650.43302      650.43302      1674.7835      2325.2165      1674.7835      2325.2165      1674.7835      2325.2165      2.7517422e+08  0.25           18512900       0.88425965     3129.6808      12518.709      6.7386866    
  71021800   43584.471      82.770832     -33413226       1.9428134      129787.11     -33283439       650.43302      650.43302      650.43302      1674.7835      2325.2165      1674.7835      2325.2165      1674.7835      2325.2165      2.7517422e+08  0.25           18512950       0.9007013      3041.0692      12164.229      6.7323786    
  71022000   43963.449      84.368194     -33406325       1.9428134      130915.64     -33275409       650.43302      650.43302      650.43302      1674.7835      2325.2165      1674.7835      2325.2165      1674.7835      2325.2165      2.7517422e+08  0.25           18513000       0.91739796     2994.6064      11978.403      6.7276036    
  71022200   44681.52       87.304485     -33405268       1.9428134      133053.94     -33272214       650.43302      650.43302      650.43302      1674.7835      2325.2165      1674.7835      2325.2165      1674.7835      2325.2165      2.7517422e+08  0.25           18513050       0.93417741     2979.8189      11919.297      6.7230328    
  71022400   45747.449      91.277634     -33409315       1.9428134      136228.09     -33273087       650.43302      650.43302      650.43302      1674.7835      2325.2165      1674.7835      2325.2165      1674.7835      2325.2165      2.7517422e+08  0.25           18513100       0.95000051     3159.9005      12639.628      6.7113129    
  71022600   47006.958      95.292225     -33410142       1.9428134      139978.69     -33270164       650.43302      650.43302      650.43302      1674.7835      2325.2165      1674.7835      2325.2165      1674.7835      2325.2165      2.7517422e+08  0.25           18513150       0.96533242     3261.2321      13044.954      6.6960521    
  71022800   48207.351      97.225409     -33409433       1.9428134      143553.26     -33265880       650.43302      650.43302      650.43302      1674.7835      2325.2165      1674.7835      2325.2165      1674.7835      2325.2165      2.7517422e+08  0.25           18513200       0.98063703     3266.9733      13067.933      6.6806053    
  71023000   49126.452      100.64534     -33408342       1.9428134      146290.18     -33262052       650.43302      650.43302      650.43302      1674.7835      2325.2165      1674.7835      2325.2165      1674.7835      2325.2165      2.7517422e+08  0.25           18513250       0.99642697     3166.5892      12666.357      6.6684106    
  71023200   49684.89       103.46542     -33406883       1.9428134      147953.12     -33258930       650.43302      650.43302      650.43302      1674.7835      2325.2165      1674.7835      2325.2165      1674.7835      2325.2165      2.7517422e+08  0.25           18513300       1.0116594      3282.4762      13129.891      6.6524424    
  71023400   49965.82       108.08077     -33409573       1.9428134      148789.68     -33260784       650.43302      650.43302      650.43302      1674.7835      2325.2165      1674.7835      2325.2165      1674.7835      2325.2165      2.7517422e+08  0.25           18513350       1.0269621      3267.4173      13069.639      6.6369483    
  71023600   50193.091      111.05729     -33415855       1.9428134      149466.45     -33266388       650.43302      650.43302      650.43302      1674.7835      2325.2165      1674.7835      2325.2165      1674.7835      2325.2165      2.7517422e+08  0.25           18513400       1.0419203      3342.6352      13370.636      6.6192717    
  71023800   50607.261      113.00589     -33422120       1.9428134      150699.78     -33271420       650.43302      650.43302      650.43302      1674.7835      2325.2165      1674.7835      2325.2165      1674.7835      2325.2165      2.7517422e+08  0.25           18513450       1.057597       3189.4348      12757.706      6.6061633    
  71024000   51366.84       117.08761     -33413629       1.9428134      152961.68     -33260668       650.43302      650.43302      650.43302      1674.7835      2325.2165      1674.7835      2325.2165      1674.7835      2325.2165      2.7517422e+08  0.25           18513500       1.072822       3284.0162      13136.065      6.5902074    
  71024200   52462.559      121.95088     -33410609       1.9428134      156224.54     -33254385       650.43302      650.43302      650.43302      1674.7835      2325.2165      1674.7835      2325.2165      1674.7835      2325.2165      2.7517422e+08  0.25           18513550       1.0876979      3361.2175      13444.87       6.5721598    
  71024400   53721.701      127.59928     -33401355       1.9428134      159974.05     -33241381       650.43302      650.43302      650.43302      1674.7835      2325.2165      1674.7835      2325.2165      1674.7835      2325.2165      2.7517422e+08  0.25           18513600       1.1026944      3334.1033      13336.457      6.5549181    
  71024600   54888.298      130.46277     -33407557       1.9428134      163447.98     -33244109       650.43302      650.43302      650.43302      1674.7835      2325.2165      1674.7835      2325.2165      1674.7835      2325.2165      2.7517422e+08  0.25           18513650       1.118257       3212.8537      12851.419      6.5410491    
  71024800   55762.385      134.31717     -33408256       1.9428134      166050.86     -33242205       650.43302      650.43302      650.43302      1674.7835      2325.2165      1674.7835      2325.2165      1674.7835      2325.2165      2.7517422e+08  0.25           18513700       1.1335478      3269.9298      13079.606      6.5255719    
  71025000   56272.955      138.22971     -33408552       1.9428134      167571.25     -33240980       650.43302      650.43302      650.43302      1674.7835      2325.2165      1674.7835      2325.2165      1674.7835      2325.2165      2.7517422e+08  0.25           18513750       1.1483433      3379.4198      13517.67       6.5072909    
  71025200   56533.223      140.77536     -33414668       1.9428134      168346.28     -33246322       650.43302      650.43302      650.43302      1674.7835      2325.2165      1674.7835      2325.2165      1674.7835      2325.2165      2.7517422e+08  0.25           18513800       1.1630614      3397.1732      13588.841      6.4886698    
  71025400   56774.233      143.73808     -33413015       1.9428134      169063.97     -33243951       650.43302      650.43302      650.43302      1674.7835      2325.2165      1674.7835      2325.2165      1674.7835      2325.2165      2.7517422e+08  0.25           18513850       1.1778247      3386.7776      13547.064      6.4703992    
  71025600   57232.362      146.45751     -33413591       1.9428134      170428.2      -33243163       650.43302      650.43302      650.43302      1674.7835      2325.2165      1674.7835      2325.2165      1674.7835      2325.2165      2.7517422e+08  0.25           18513900       1.1922572      3464.3572      13857.307      6.4504298    
  71025800   58046.84       148.88206     -33419632       1.9428134      172853.58     -33246779       650.43302      650.43302      650.43302      1674.7835      2325.2165      1674.7835      2325.2165      1674.7835      2325.2165      2.7517422e+08  0.25           18513950       1.2065109      3507.885       14031.584      6.4296457    
  71026000   59172.075      155.12453     -33412766       1.9428134      176204.33     -33236562       650.43302      650.43302      650.43302      1674.7835      2325.2165      1674.7835      2325.2165      1674.7835      2325.2165      2.7517422e+08  0.25           18514000       1.221958       3236.8562      12947.507      6.4152901    
  71026200   60426.731      159.70937     -33409448       1.9428134      179940.48     -33229507       650.43302      650.43302      650.43302      1674.7835      2325.2165      1674.7835      2325.2165      1674.7835      2325.2165      2.7517422e+08  0.25           18514050       1.236366       3470.3025      13881.238      6.395535     
  71026400   61557.823      163.58646     -33409865       1.9428134      183308.68     -33226556       650.43302      650.43302      650.43302      1674.7835      2325.2165      1674.7835      2325.2165      1674.7835      2325.2165      2.7517422e+08  0.25           18514100       1.2506149      3509.0573      14036.253      6.3750957    
  71026600   62386.836      168.93822     -33406464       1.9428134      185777.34     -33220687       650.43302      650.43302      650.43302      1674.7835      2325.2165      1674.7835      2325.2165      1674.7835      2325.2165      2.7517422e+08  0.25           18514150       1.2650442      3465.1605      13860.572      6.355714     
  71026800   62864.964      173.41021     -33411920       1.9428134      187201.13     -33224719       650.43302      650.43302      650.43302      1674.7835      2325.2165      1674.7835      2325.2165      1674.7835      2325.2165      2.7517422e+08  0.25           18514200       1.2798479      3377.5605      13510.432      6.3383024    
  71027000   63122.646      177.39283     -33408449       1.9428134      187968.46     -33220480       650.43302      650.43302      650.43302      1674.7835      2325.2165      1674.7835      2325.2165      1674.7835      2325.2165      2.7517422e+08  0.25           18514250       1.2944887      3415.1121      13660.399      6.3201593    
  71027200   63392.746      181.72752     -33406840       1.9428134      188772.77     -33218067       650.43302      650.43302      650.43302      1674.7835      2325.2165      1674.7835      2325.2165      1674.7835      2325.2165      2.7517422e+08  0.25           18514300       1.3090779      3427.1885      13708.808      6.3018479    
  71027400   63904.652      185.67539     -33408640       1.9428134      190297.14     -33218343       650.43302      650.43302      650.43302      1674.7835      2325.2165      1674.7835      2325.2165      1674.7835      2325.2165      2.7517422e+08  0.25           18514350       1.3235872      3446.0709      13784.273      6.2832434    
  71027600   64762.163      191.27524     -33406990       1.9428134      192850.66     -33214139       650.43302      650.43302      650.43302      1674.7835      2325.2165      1674.7835      2325.2165      1674.7835      2325.2165      2.7517422e+08  0.25           18514400       1.3385008      3352.6327      13410.532      6.2666251    
  71027800   65907.694      196.09184     -33405308       1.9428134      196261.86     -33209047       650.43302      650.43302      650.43302      1674.7835      2325.2165      1674.7835      2325.2165      1674.7835      2325.2165      2.7517422e+08  0.25           18514450       1.3527612      3506.2241      14024.923      6.2470282    
  71028000   67141.931      199.6366      -33410969       1.9428134      199937.21     -33211032       650.43302      650.43302      650.43302      1674.7835      2325.2165      1674.7835      2325.2165      1674.7835      2325.2165      2.7517422e+08  0.25           18514500       1.3670323      3503.5851      14014.292      6.227599     
  71028200   68238.637      203.95662     -33416620       1.9428134      203203.01     -33213417       650.43302      650.43302      650.43302      1674.7835      2325.2165      1674.7835      2325.2165      1674.7835      2325.2165      2.7517422e+08  0.25           18514550       1.3817577      3395.4907      13581.972      6.2103251    
  71028400   69025.408      209.1471      -33412985       1.9428134      205545.88     -33207439       650.43302      650.43302      650.43302      1674.7835      2325.2165      1674.7835      2325.2165      1674.7835      2325.2165      2.7517422e+08  0.25           18514600       1.3961257      3479.9487      13919.807      6.1915212    
  71028600   69481.49       214.98865     -33410865       1.9428134      206904.01     -33203961       650.43302      650.43302      650.43302      1674.7835      2325.2165      1674.7835      2325.2165      1674.7835      2325.2165      2.7517422e+08  0.25           18514650       1.4107406      3421.1668      13684.671      6.1738935    
  71028800   69741.004      220.26932     -33416473       1.9428134      207676.8      -33208796       650.43302      650.43302      650.43302      1674.7835      2325.2165      1674.7835      2325.2165      1674.7835      2325.2165      2.7517422e+08  0.25           18514700       1.4254877      3390.5102      13562.056      6.1569005    
  71029000   70044.558      225.91168     -33406974       1.9428134      208580.73     -33198393       650.43302      650.43302      650.43302      1674.7835      2325.2165      1674.7835      2325.2165      1674.7835      2325.2165      2.7517422e+08  0.25           18514750       1.4402633      3383.9408      13535.738      6.1400771    
  71029200   70594.159      229.45077     -33412586       1.9428134      210217.35     -33202369       650.43302      650.43302      650.43302      1674.7835      2325.2165      1674.7835      2325.2165      1674.7835      2325.2165      2.7517422e+08  0.25           18514800       1.4543796      3542.0262      14168.08       6.1205212    
  71029400   71483.352      233.44824     -33411188       1.9428134      212865.22     -33198323       650.43302      650.43302      650.43302      1674.7835      2325.2165      1674.7835      2325.2165      1674.7835      2325.2165      2.7517422e+08  0.25           18514850       1.4686109      3513.3696      14053.507      6.1015553    
  71029600   72635.833      240.39665     -33400503       1.9428134      216297.11     -33184206       650.43302      650.43302      650.43302      1674.7835      2325.2165      1674.7835      2325.2165      1674.7835      2325.2165      2.7517422e+08  0.25           18514900       1.4829951      3476.0393      13904.128      6.0833133    
  71029800   73854.927      247.38489     -33392444       1.9428134      219927.36     -33172516       650.43302      650.43302      650.43302      1674.7835      2325.2165      1674.7835      2325.2165      1674.7835      2325.2165      2.7517422e+08  0.25           18514950       1.4968421      3610.8889      14443.576      6.0629732    
  71030000   74910.277      252.95474     -33392179       1.9428134      223070.01     -33169109       650.43302      650.43302      650.43302      1674.7835      2325.2165      1674.7835      2325.2165      1674.7835      2325.2165      2.7517422e+08  0.25           18515000       1.5115003      3411.057       13644.217      6.0460079    
  71030200   75655.257      258.49979     -33386597       1.9428134      225288.44     -33161309       650.43302      650.43302      650.43302      1674.7835      2325.2165      1674.7835      2325.2165      1674.7835      2325.2165      2.7517422e+08  0.25           18515050       1.5256738      3527.7281      14110.98       6.0271725    
  71030400   76084.085      262.17644     -33384796       1.9428134      226565.41     -33158231       650.43302      650.43302      650.43302      1674.7835      2325.2165      1674.7835      2325.2165      1674.7835      2325.2165      2.7517422e+08  0.25           18515100       1.5404873      3375.2816      13501.086      6.0109274    
  71030600   76351.044      266.56609     -33382634       1.9428134      227360.37     -33155274       650.43302      650.43302      650.43302      1674.7835      2325.2165      1674.7835      2325.2165      1674.7835      2325.2165      2.7517422e+08  0.25           18515150       1.554803       3492.6545      13970.625      5.9927911    
  71030800   76682.356      271.95324     -33380476       1.9428134      228346.96     -33152129       650.43302      650.43302      650.43302      1674.7835      2325.2165      1674.7835      2325.2165      1674.7835      2325.2165      2.7517422e+08  0.25           18515200       1.5691092      3495.0187      13980.05       5.9746911    
  71031000   77270.014      277.24479     -33376417       1.9428134      230096.91     -33146320       650.43302      650.43302      650.43302      1674.7835      2325.2165      1674.7835      2325.2165      1674.7835      2325.2165      2.7517422e+08  0.25           18515250       1.583556       3460.9518      13843.826      5.9571932    
  71031200   78196.71       283.1798      -33372746       1.9428134      232856.45     -33139889       650.43302      650.43302      650.43302      1674.7835      2325.2165      1674.7835      2325.2165      1674.7835      2325.2165      2.7517422e+08  0.25           18515300       1.5975431      3574.7421      14298.986      5.9380435    
  71031400   79363.201      288.76606     -33370959       1.9428134      236330.06     -33134629       650.43302      650.43302      650.43302      1674.7835      2325.2165      1674.7835      2325.2165      1674.7835      2325.2165      2.7517422e+08  0.25           18515350       1.6121088      3432.7216      13730.878      5.9211159    
  71031600   80568.37       293.82739     -33368811       1.9428134      239918.85     -33128892       650.43302      650.43302      650.43302      1674.7835      2325.2165      1674.7835      2325.2165      1674.7835      2325.2165      2.7517422e+08  0.25           18515400       1.6266832      3430.6645      13722.67       5.9042635    
  71031800   81591.536      301.06332     -33353815       1.9428134      242965.66     -33110850       650.43302      650.43302      650.43302      1674.7835      2325.2165      1674.7835      2325.2165      1674.7835      2325.2165      2.7517422e+08  0.25           18515450       1.6410056      3491.0436      13964.148      5.8865489    
  71032000   82296.984      304.44792     -33339204       1.9428134      245066.37     -33094138       650.43302      650.43302      650.43302      1674.7835      2325.2165      1674.7835      2325.2165      1674.7835      2325.2165      2.7517422e+08  0.25           18515500       1.6550693      3555.2418      14220.983      5.8679788    
  71032200   82690.502      306.94922     -33344434       1.9428134      246238.19     -33098196       650.43302      650.43302      650.43302      1674.7835      2325.2165      1674.7835      2325.2165      1674.7835      2325.2165      2.7517422e+08  0.25           18515550       1.6693307      3505.9669      14023.842      5.8501827    
  71032400   82955.707      314.1551      -33335312       1.9428134      247027.93     -33088284       650.43302      650.43302      650.43302      1674.7835      2325.2165      1674.7835      2325.2165      1674.7835      2325.2165      2.7517422e+08  0.25           18515600       1.6835807      3508.7771      14035.113      5.8324103    
  71032600   83307.914      319.99818     -33333561       1.9428134      248076.74     -33085485       650.43302      650.43302      650.43302      1674.7835      2325.2165      1674.7835      2325.2165      1674.7835      2325.2165      2.7517422e+08  0.25           18515650       1.697652       3553.3087      14213.229      5.8140886    
  71032800   83935.108      324.32307     -33324431       1.9428134      249944.42     -33074486       650.43302      650.43302      650.43302      1674.7835      2325.2165      1674.7835      2325.2165      1674.7835      2325.2165      2.7517422e+08  0.25           18515700       1.7131654      3223.0367      12892.14       5.8007236    
  71033000   84892.471      330.16236     -33323049       1.9428134      252795.28     -33070253       650.43302      650.43302      650.43302      1674.7835      2325.2165      1674.7835      2325.2165      1674.7835      2325.2165      2.7517422e+08  0.25           18515750       1.7286099      3237.3858      12949.549      5.7870912    
  71033200   86081.805      336.15674     -33326429       1.9428134      256336.92     -33070092       650.43302      650.43302      650.43302      1674.7835      2325.2165      1674.7835      2325.2165      1674.7835      2325.2165      2.7517422e+08  0.25           18515800       1.7440142      3245.7863      12983.083      5.7732953    
  71033400   87273.897      341.28267     -33326936       1.9428134      259886.76     -33067049       650.43302      650.43302      650.43302      1674.7835      2325.2165      1674.7835      2325.2165      1674.7835      2325.2165      2.7517422e+08  0.25           18515850       1.7600296      3122.014       12487.96       5.7614716    
  71033600   88256.2        347.05047     -33325172       1.9428134      262811.89     -33062360       650.43302      650.43302      650.43302      1674.7835      2325.2165      1674.7835      2325.2165      1674.7835      2325.2165      2.7517422e+08  0.25           18515900       1.7760111      3128.6558      12514.655      5.749466     
  71033800   88911.245      351.68431     -33334195       1.9428134      264762.5      -33069432       650.43302      650.43302      650.43302      1674.7835      2325.2165      1674.7835      2325.2165      1674.7835      2325.2165      2.7517422e+08  0.25           18515950       1.791938       3139.3283      12557.315      5.73722      
  71034000   89278.137      355.84269     -33345637       1.9428134      265855.05     -33079782       650.43302      650.43302      650.43302      1674.7835      2325.2165      1674.7835      2325.2165      1674.7835      2325.2165      2.7517422e+08  0.25           18516000       1.8082559      3064.1292      12256.331      5.7261518    
  71034200   89535.037      362.00011     -33343828       1.9428134      266620.05     -33077208       650.43302      650.43302      650.43302      1674.7835      2325.2165      1674.7835      2325.2165      1674.7835      2325.2165      2.7517422e+08  0.25           18516050       1.8248567      3011.9079      12047.799      5.7158798    
  71034400   89912.26       365.7841      -33341998       1.9428134      267743.36     -33074254       650.43302      650.43302      650.43302      1674.7835      2325.2165      1674.7835      2325.2165      1674.7835      2325.2165      2.7517422e+08  0.25           18516100       1.8407004      3155.7861      12623.145      5.7031606    
  71034600   90583.027      370.9964      -33336181       1.9428134      269740.79     -33066440       650.43302      650.43302      650.43302      1674.7835      2325.2165      1674.7835      2325.2165      1674.7835      2325.2165      2.7517422e+08  0.25           18516150       1.8567143      3122.3136      12489.247      5.6909113    
  71034800   91581.342      376.93533     -33328810       1.9428134      272713.6      -33056096       650.43302      650.43302      650.43302      1674.7835      2325.2165      1674.7835      2325.2165      1674.7835      2325.2165      2.7517422e+08  0.25           18516200       1.8726069      3146.1029      12584.319      5.6782345    
  71035000   92768.551      382.88373     -33325535       1.9428134      276248.9      -33049286       650.43302      650.43302      650.43302      1674.7835      2325.2165      1674.7835      2325.2165      1674.7835      2325.2165      2.7517422e+08  0.25           18516250       1.8884372      3158.4988      12634.055      5.6653182    
  71035200   93942.599      389.75755     -33323925       1.9428134      279745.02     -33044180       650.43302      650.43302      650.43302      1674.7835      2325.2165      1674.7835      2325.2165      1674.7835      2325.2165      2.7517422e+08  0.25           18516300       1.90422        3168.0322      12672.183      5.6522145    
  71035400   94883.216      395.54935     -33321513       1.9428134      282546.01     -33038967       650.43302      650.43302      650.43302      1674.7835      2325.2165      1674.7835      2325.2165      1674.7835      2325.2165      2.7517422e+08  0.25           18516350       1.920183       3132.2068      12528.836      5.6395989    
  71035600   95499.927      401.79988     -33311675       1.9428134      284382.48     -33027293       650.43302      650.43302      650.43302      1674.7835      2325.2165      1674.7835      2325.2165      1674.7835      2325.2165      2.7517422e+08  0.25           18516400       1.9355293      3258.1576      13032.545      5.6251384    
  71035800   95849.892      407.76434     -33307260       1.9428134      285424.61     -33021835       650.43302      650.43302      650.43302      1674.7835      2325.2165      1674.7835      2325.2165      1674.7835      2325.2165      2.7517422e+08  0.25           18516450       1.9510196      3227.8187      12911.316      5.6110783    
  71036000   96120.331      414.93353     -33312068       1.9428134      286229.93     -33025839       650.43302      650.43302      650.43302      1674.7835      2325.2165      1674.7835      2325.2165      1674.7835      2325.2165      2.7517422e+08  0.25           18516500       1.9669678      3135.1497      12540.601      5.598299     
  71036200   96535.575      420.05211     -33311691       1.9428134      287466.46     -33024225       650.43302      650.43302      650.43302      1674.7835      2325.2165      1674.7835      2325.2165      1674.7835      2325.2165      2.7517422e+08  0.25           18516550       1.9829981      3119.0864      12476.344      5.5857031    
  71036400   97255.826      427.67033     -33311262       1.9428134      289611.24     -33021651       650.43302      650.43302      650.43302      1674.7835      2325.2165      1674.7835      2325.2165      1674.7835      2325.2165      2.7517422e+08  0.25           18516600       1.9985893      3206.9422      12827.759      5.5718308    
  71036600   98286.932      433.21718     -33301872       1.9428134      292681.7      -33009190       650.43302      650.43302      650.43302      1674.7835      2325.2165      1674.7835      2325.2165      1674.7835      2325.2165      2.7517422e+08  0.25           18516650       2.0145653      3129.3194      12517.246      5.5589999    
  71036800   99474.427      441.56071     -33301303       1.9428134      296217.86     -33005085       650.43302      650.43302      650.43302      1674.7835      2325.2165      1674.7835      2325.2165      1674.7835      2325.2165      2.7517422e+08  0.25           18516700       2.0302111      3196.1186      12784.375      5.5452101    
  71037000   100604.42      449.19091     -33307685       1.9428134      299582.77     -33008102       650.43302      650.43302      650.43302      1674.7835      2325.2165      1674.7835      2325.2165      1674.7835      2325.2165      2.7517422e+08  0.25           18516750       2.0449518      3391.855       13567.5        5.5289515    
  71037200   101493.48      456.46564     -33305455       1.9428134      302230.24     -33003225       650.43302      650.43302      650.43302      1674.7835      2325.2165      1674.7835      2325.2165      1674.7835      2325.2165      2.7517422e+08  0.25           18516800       2.0603907      3238.6725      12954.672      5.5145817    
  71037400   102074.04      461.5798      -33305045       1.9428134      303959.07     -33001086       650.43302      650.43302      650.43302      1674.7835      2325.2165      1674.7835      2325.2165      1674.7835      2325.2165      2.7517422e+08  0.25           18516850       2.075467       3316.4565      13265.764      5.499237     
  71037600   102435.03      468.99693     -33298170       1.9428134      305034.03     -32993136       650.43302      650.43302      650.43302      1674.7835      2325.2165      1674.7835      2325.2165      1674.7835      2325.2165      2.7517422e+08  0.25           18516900       2.090564       3311.895       13247.641      5.48395      
  71037800   102762.04      475.72124     -33303158       1.9428134      306007.8      -32997150       650.43302      650.43302      650.43302      1674.7835      2325.2165      1674.7835      2325.2165      1674.7835      2325.2165      2.7517422e+08  0.25           18516950       2.1064004      3157.3004      12629.241      5.4705859    
  71038000   103258.29      484.75391     -33296226       1.9428134      307485.57     -32988740       650.43302      650.43302      650.43302      1674.7835      2325.2165      1674.7835      2325.2165      1674.7835      2325.2165      2.7517422e+08  0.25           18517000       2.1221962      3165.3876      12661.598      5.4570823    
  71038200   104040.61      492.06882     -33293419       1.9428134      309815.16     -32983604       650.43302      650.43302      650.43302      1674.7835      2325.2165      1674.7835      2325.2165      1674.7835      2325.2165      2.7517422e+08  0.25           18517050       2.1379265      3178.6246      12714.452      5.4433789    
  71038400   105080.65      501.46394     -33275829       1.9428134      312912.24     -32962917       650.43302      650.43302      650.43302      1674.7835      2325.2165      1674.7835      2325.2165      1674.7835      2325.2165      2.7517422e+08  0.25           18517100       2.1531506      3284.2355      13136.924      5.4283716    
  71038600   106225.27      512.87429     -33264850       1.9428134      316320.71     -32948529       650.43302      650.43302      650.43302      1674.7835      2325.2165      1674.7835      2325.2165      1674.7835      2325.2165      2.7517422e+08  0.25           18517150       2.168428       3272.8189      13091.29       5.4134938    
  71038800   107289.87      522.82234     -33261996       1.9428134      319490.9      -32942505       650.43302      650.43302      650.43302      1674.7835      2325.2165      1674.7835      2325.2165      1674.7835      2325.2165      2.7517422e+08  0.25           18517200       2.1838638      3239.2151      12956.772      5.3990028    
  71039000   108123.94      530.47483     -33261052       1.9428134      321974.62     -32939077       650.43302      650.43302      650.43302      1674.7835      2325.2165      1674.7835      2325.2165      1674.7835      2325.2165      2.7517422e+08  0.25           18517250       2.1991477      3271.4454      13085.901      5.3841258    
  71039200   108695.35      537.44341     -33257847       1.9428134      323676.2      -32934171       650.43302      650.43302      650.43302      1674.7835      2325.2165      1674.7835      2325.2165      1674.7835      2325.2165      2.7517422e+08  0.25           18517300       2.2145282      3250.8732      13003.456      5.3694778    
  71039400   109095.5       546.40936     -33257299       1.9428134      324867.78     -32932432       650.43302      650.43302      650.43302      1674.7835      2325.2165      1674.7835      2325.2165      1674.7835      2325.2165      2.7517422e+08  0.25           18517350       2.2296044      3316.4592      13265.372      5.3540909    
  71039600   109489.76      552.52661     -33254506       1.9428134      326041.82     -32928464       650.43302      650.43302      650.43302      1674.7835      2325.2165      1674.7835      2325.2165      1674.7835      2325.2165      2.7517422e+08  0.25           18517400       2.2441437      3438.9594      13756.377      5.3374286    
  71039800   110050.24      560.70076     -33255533       1.9428134      327710.82     -32927822       650.43302      650.43302      650.43302      1674.7835      2325.2165      1674.7835      2325.2165      1674.7835      2325.2165      2.7517422e+08  0.25           18517450       2.2589379      3379.7152      13518.857      5.3213963    
  71040000   110856.57      569.72713     -33260172       1.9428134      330111.93     -32930060       650.43302      650.43302      650.43302      1674.7835      2325.2165      1674.7835      2325.2165      1674.7835      2325.2165      2.7517422e+08  0.25           18517500       2.2739748      3325.0579      13300.148      5.3059477    
  71040200   111875.6       579.56323     -33259714       1.9428134      333146.44     -32926567       650.43302      650.43302      650.43302      1674.7835      2325.2165      1674.7835      2325.2165      1674.7835      2325.2165      2.7517422e+08  0.25           18517550       2.2888571      3359.7522      13439.063      5.2901463    
  71040400   112973.24      589.72429     -33257044       1.9428134      336415.03     -32920629       650.43302      650.43302      650.43302      1674.7835      2325.2165      1674.7835      2325.2165      1674.7835      2325.2165      2.7517422e+08  0.25           18517600       2.3038721      3330.0246      13320.077      5.27466      
  71040600   113973.84      598.38813     -33252147       1.9428134      339394.62     -32912752       650.43302      650.43302      650.43302      1674.7835      2325.2165      1674.7835      2325.2165      1674.7835      2325.2165      2.7517422e+08  0.25           18517650       2.3189695      3311.8362      13247.373      5.2593676    
  71040800   114756.19      606.09521     -33249531       1.9428134      341724.33     -32907807       650.43302      650.43302      650.43302      1674.7835      2325.2165      1674.7835      2325.2165      1674.7835      2325.2165      2.7517422e+08  0.25           18517700       2.3338849      3352.2197      13408.837      5.2436691    
  71041000   115310.15      611.20041     -33256213       1.9428134      343373.93     -32912839       650.43302      650.43302      650.43302      1674.7835      2325.2165      1674.7835      2325.2165      1674.7835      2325.2165      2.7517422e+08  0.25           18517750       2.348981       3312.1337      13248.564      5.2283822    
  71041200   115740.39      621.22611     -33251386       1.9428134      344655.13     -32906731       650.43302      650.43302      650.43302      1674.7835      2325.2165      1674.7835      2325.2165      1674.7835      2325.2165      2.7517422e+08  0.25           18517800       2.3640136      3326.0382      13304.087      5.2129592    
  71041400   116204.17      631.4069      -33246600       1.9428134      346036.17     -32900564       650.43302      650.43302      650.43302      1674.7835      2325.2165      1674.7835      2325.2165      1674.7835      2325.2165      2.7517422e+08  0.25           18517850       2.3790749      3319.8263      13279.413      5.1976022    
  71041600   116831.2       637.6607      -33266216       1.9428134      347903.37     -32918312       650.43302      650.43302      650.43302      1674.7835      2325.2165      1674.7835      2325.2165      1674.7835      2325.2165      2.7517422e+08  0.25           18517900       2.3944716      3247.4529      12989.77       5.1829753    
  71041800   117687.45      643.69343     -33293235       1.9428134      350453.13     -32942782       650.43302      650.43302      650.43302      1674.7835      2325.2165      1674.7835      2325.2165      1674.7835      2325.2165      2.7517422e+08  0.25           18517950       2.4097882      3264.4523      13057.783      5.1681671    
  71042000   118701.41      650.27632     -33294529       1.9428134      353472.53     -32941057       650.43302      650.43302      650.43302      1674.7835      2325.2165      1674.7835      2325.2165      1674.7835      2325.2165      2.7517422e+08  0.25           18518000       2.4253559      3211.7456      12846.996      5.1538865    
  71042200   119734.46      660.08537     -33289745       1.9428134      356548.79     -32933196       650.43302      650.43302      650.43302      1674.7835      2325.2165      1674.7835      2325.2165      1674.7835      2325.2165      2.7517422e+08  0.25           18518050       2.4405251      3296.1773      13184.776      5.1387504    
  71042400   120647.03      670.69291     -33279824       1.9428134      359266.24     -32920558       650.43302      650.43302      650.43302      1674.7835      2325.2165      1674.7835      2325.2165      1674.7835      2325.2165      2.7517422e+08  0.25           18518100       2.4558089      3271.42        13085.54       5.1238537    
  71042600   121365.99      679.65199     -33269486       1.9428134      361407.19     -32908079       650.43302      650.43302      650.43302      1674.7835      2325.2165      1674.7835      2325.2165      1674.7835      2325.2165      2.7517422e+08  0.25           18518150       2.471537       3178.9878      12716.036      5.1098701    
  71042800   121921.65      690.47233     -33260976       1.9428134      363061.86     -32897914       650.43302      650.43302      650.43302      1674.7835      2325.2165      1674.7835      2325.2165      1674.7835      2325.2165      2.7517422e+08  0.25           18518200       2.4869245      3249.4406      12997.738      5.0951674    
  71043000   122432.03      697.70645     -33258620       1.9428134      364581.69     -32894039       650.43302      650.43302      650.43302      1674.7835      2325.2165      1674.7835      2325.2165      1674.7835      2325.2165      2.7517422e+08  0.25           18518250       2.5025095      3208.204       12832.751      5.0808577    
  71043200   123058.18      706.02042     -33263582       1.9428134      366446.24     -32897136       650.43302      650.43302      650.43302      1674.7835      2325.2165      1674.7835      2325.2165      1674.7835      2325.2165      2.7517422e+08  0.25           18518300       2.5188393      3061.9082      12247.706      5.0680305    
  71043400   123898.39      714.64774     -33260340       1.9428134      368948.25     -32891392       650.43302      650.43302      650.43302      1674.7835      2325.2165      1674.7835      2325.2165      1674.7835      2325.2165      2.7517422e+08  0.25           18518350       2.5341958      3255.9151      13023.66       5.0532218    
  71043600   124957.64      724.9147      -33250008       1.9428134      372102.52     -32877905       650.43302      650.43302      650.43302      1674.7835      2325.2165      1674.7835      2325.2165      1674.7835      2325.2165      2.7517422e+08  0.25           18518400       2.5491666      3339.8686      13359.155      5.0376439    
  71043800   126112.94      734.28139     -33249248       1.9428134      375542.81     -32873705       650.43302      650.43302      650.43302      1674.7835      2325.2165      1674.7835      2325.2165      1674.7835      2325.2165      2.7517422e+08  0.25           18518450       2.5645562      3248.9258      12995.965      5.0228932    
  71044000   127185.94      745.24484     -33242338       1.9428134      378738.02     -32863600       650.43302      650.43302      650.43302      1674.7835      2325.2165      1674.7835      2325.2165      1674.7835      2325.2165      2.7517422e+08  0.25           18518500       2.5794067      3366.8898      13467.632      5.0070881    
  71044200   128140.25      754.03571     -33241035       1.9428134      381579.78     -32859455       650.43302      650.43302      650.43302      1674.7835      2325.2165      1674.7835      2325.2165      1674.7835      2325.2165      2.7517422e+08  0.25           18518550       2.5943252      3351.5562      13406.23       4.9914255    
  71044400   129177.4       763.19244     -33232275       1.9428134      384668.25     -32847607       650.43302      650.43302      650.43302      1674.7835      2325.2165      1674.7835      2325.2165      1674.7835      2325.2165      2.7517422e+08  0.25           18518600       2.6093486      3328.1366      13312.463      4.9759717    
  71044600   130830.89      772.38153     -33227395       1.9428134      389592.06     -32837803       650.43302      650.43302      650.43302      1674.7835      2325.2165      1674.7835      2325.2165      1674.7835      2325.2165      2.7517422e+08  0.25           18518650       2.6245742      3282.8503      13131.435      4.9609147    
  71044800   133337.29      783.70991     -33221682       1.9428134      397055.68     -32824626       650.43302      650.43302      650.43302      1674.7835      2325.2165      1674.7835      2325.2165      1674.7835      2325.2165      2.7517422e+08  0.25           18518700       2.639522       3346.1209      13384.534      4.9453155    
  71045000   135218.77      792.80095     -33218493       1.9428134      402658.4      -32815835       650.43302      650.43302      650.43302      1674.7835      2325.2165      1674.7835      2325.2165      1674.7835      2325.2165      2.7517422e+08  0.25           18518750       2.654433       3353.2197      13412.898      4.9296655    
  71045200   134981.01      802.02226     -33218281       1.9428134      401950.4      -32816331       650.43302      650.43302      650.43302      1674.7835      2325.2165      1674.7835      2325.2165      1674.7835      2325.2165      2.7517422e+08  0.25           18518800       2.6691552      3396.1956      13584.58       4.913677     
  71045400   132223.31      811.84827     -33210846       1.9428134      393738.44     -32817108       650.43302      650.43302      650.43302      1674.7835      2325.2165      1674.7835      2325.2165      1674.7835      2325.2165      2.7517422e+08  0.25           18518850       2.6841484      3334.8881      13339.637      4.898196     
  71045600   127172.62      820.23256     -33206511       1.9428134      378698.35     -32827813       650.43302      650.43302      650.43302      1674.7835      2325.2165      1674.7835      2325.2165      1674.7835      2325.2165      2.7517422e+08  0.25           18518900       2.6992123      3319.1555      13276.593      4.8828495    
  71045800   123247.57      825.03027     -33202626       1.9428134      367010.21     -32835616       650.43302      650.43302      650.43302      1674.7835      2325.2165      1674.7835      2325.2165      1674.7835      2325.2165      2.7517422e+08  0.25           18518950       2.7145314      3263.9174      13055.754      4.8679627    
  71046000   123553.93      836.29773     -33195031       1.9428134      367922.5      -32827108       650.43302      650.43302      650.43302      1674.7835      2325.2165      1674.7835      2325.2165      1674.7835      2325.2165      2.7517422e+08  0.25           18519000       2.7296064      3316.7617      13267.075      4.8526376    
  71046200   128113.48      848.78264     -33186882       1.9428134      381500.08     -32805382       650.43302      650.43302      650.43302      1674.7835      2325.2165      1674.7835      2325.2165      1674.7835      2325.2165      2.7517422e+08  0.25           18519050       2.7447071      3311.0934      13244.388      4.8373609    
  71046400   130864.78      856.42097     -33192042       1.9428134      389692.98     -32802349       650.43302      650.43302      650.43302      1674.7835      2325.2165      1674.7835      2325.2165      1674.7835      2325.2165      2.7517422e+08  0.25           18519100       2.7593367      3417.6385      13670.524      4.8212635    
  71046600   132653.51      864.35002     -33197991       1.9428134      395019.51     -32802972       650.43302      650.43302      650.43302      1674.7835      2325.2165      1674.7835      2325.2165      1674.7835      2325.2165      2.7517422e+08  0.25           18519150       2.7743062      3340.2215      13360.891      4.8057692    
  71046800   134884.37      872.18553     -33200195       1.9428134      401662.61     -32798532       650.43302      650.43302      650.43302      1674.7835      2325.2165      1674.7835      2325.2165      1674.7835      2325.2165      2.7517422e+08  0.25           18519200       2.7890416      3393.1862      13572.716      4.7898799    
  71047000   137158.21      883.85849     -33196247       1.9428134      408433.73     -32787814       650.43302      650.43302      650.43302      1674.7835      2325.2165      1674.7835      2325.2165      1674.7835      2325.2165      2.7517422e+08  0.25           18519250       2.8038702      3371.8668      13487.525      4.7741612    
  71047200   138876.75      894.68451     -33185714       1.9428134      413551.25     -32772163       650.43302      650.43302      650.43302      1674.7835      2325.2165      1674.7835      2325.2165      1674.7835      2325.2165      2.7517422e+08  0.25           18519300       2.8195103      3196.9095      12787.639      4.7598223    
  71047400   139861.69      902.56486     -33182647       1.9428134      416484.23     -32766163       650.43302      650.43302      650.43302      1674.7835      2325.2165      1674.7835      2325.2165      1674.7835      2325.2165      2.7517422e+08  0.25           18519350       2.8345253      3329.9805      13319.805      4.7444236    
  71047600   140268.02      910.52787     -33177798       1.9428134      417694.21     -32760104       650.43302      650.43302      650.43302      1674.7835      2325.2165      1674.7835      2325.2165      1674.7835      2325.2165      2.7517422e+08  0.25           18519400       2.8493801      3365.931       13463.789      4.7287625    
  71047800   140430.36      918.58355     -33177218       1.9428134      418177.63     -32759040       650.43302      650.43302      650.43302      1674.7835      2325.2165      1674.7835      2325.2165      1674.7835      2325.2165      2.7517422e+08  0.25           18519450       2.8644736      3312.6999      13250.799      4.7135026    
  71048000   140819.49      928.21454     -33179581       1.9428134      419336.38     -32760244       650.43302      650.43302      650.43302      1674.7835      2325.2165      1674.7835      2325.2165      1674.7835      2325.2165      2.7517422e+08  0.25           18519500       2.879481       3331.6617      13326.597      4.6981046    
  71048200   142090.78      937.6871      -33167673       1.9428134      423122.07     -32744551       650.43302      650.43302      650.43302      1674.7835      2325.2165      1674.7835      2325.2165      1674.7835      2325.2165      2.7517422e+08  0.25           18519550       2.8944636      3337.2257      13348.999      4.6826701    
  71048400   144653.18      946.78301     -33161356       1.9428134      430752.47     -32730603       650.43302      650.43302      650.43302      1674.7835      2325.2165      1674.7835      2325.2165      1674.7835      2325.2165      2.7517422e+08  0.25           18519600       2.9102861      3160.0521      12640.146      4.6685877    
  71048600   147446.6       954.88572     -33164746       1.9428134      439070.8      -32725675       650.43302      650.43302      650.43302      1674.7835      2325.2165      1674.7835      2325.2165      1674.7835      2325.2165      2.7517422e+08  0.25           18519650       2.9259941      3183.0902      12732.399      4.6543056    
  71048800   148672.48      962.0552      -33164256       1.9428134      442721.27     -32721535       650.43302      650.43302      650.43302      1674.7835      2325.2165      1674.7835      2325.2165      1674.7835      2325.2165      2.7517422e+08  0.25           18519700       2.9407725      3383.3279      13533.272      4.6385417    
  71049000   147668.61      968.34187     -33163853       1.9428134      439731.91     -32724121       650.43302      650.43302      650.43302      1674.7835      2325.2165      1674.7835      2325.2165      1674.7835      2325.2165      2.7517422e+08  0.25           18519750       2.9557091      3347.4802      13389.971      4.6230357    
  71049200   144030.45      973.48863     -33161643       1.9428134      428898.1      -32732745       650.43302      650.43302      650.43302      1674.7835      2325.2165      1674.7835      2325.2165      1674.7835      2325.2165      2.7517422e+08  0.25           18519800       2.9705754      3363.2293      13452.851      4.6074273    
  71049400   138634.94      978.15913     -33159559       1.9428134      412831.18     -32746728       650.43302      650.43302      650.43302      1674.7835      2325.2165      1674.7835      2325.2165      1674.7835      2325.2165      2.7517422e+08  0.25           18519850       2.9855393      3341.4327      13365.771      4.5919753    
  71049600   135983.03      982.3008      -33166515       1.9428134      404934.24     -32761580       650.43302      650.43302      650.43302      1674.7835      2325.2165      1674.7835      2325.2165      1674.7835      2325.2165      2.7517422e+08  0.25           18519900       3.000909       3253.1279      13012.573      4.5771482    
  71049800   138350.05      990.98479     -33157289       1.9428134      411982.81     -32745306       650.43302      650.43302      650.43302      1674.7835      2325.2165      1674.7835      2325.2165      1674.7835      2325.2165      2.7517422e+08  0.25           18519950       3.0163854      3230.7         12922.488      4.5624769    
  71050000   143795.8       1002.4893     -33148149       1.9428134      428199.35     -32719950       650.43302      650.43302      650.43302      1674.7835      2325.2165      1674.7835      2325.2165      1674.7835      2325.2165      2.7517422e+08  0.25           18520000       3.0343183      2788.1814      11152.982      4.5514811    
  71050200   146510.43      1006.7995     -33146790       1.9428134      436283.03     -32710507       650.43302      650.43302      650.43302      1674.7835      2325.2165      1674.7835      2325.2165      1674.7835      2325.2165      2.7517422e+08  0.25           18520050       3.0494516      3304.0329      13216.008      4.5362523    
  71050400   148355.19      1014.6415     -33141315       1.9428134      441776.43     -32699538       650.43302      650.43302      650.43302      1674.7835      2325.2165      1674.7835      2325.2165      1674.7835      2325.2165      2.7517422e+08  0.25           18520100       3.0648234      3252.7036      13010.815      4.5213766    
  71050600   150336.98      1020.9129     -33133227       1.9428134      447677.86     -32685549       650.43302      650.43302      650.43302      1674.7835      2325.2165      1674.7835      2325.2165      1674.7835      2325.2165      2.7517422e+08  0.25           18520150       3.080025       3289.1073      13156.457      4.5062471    
  71050800   152251.02      1028.0958     -33131583       1.9428134      453377.54     -32678205       650.43302      650.43302      650.43302      1674.7835      2325.2165      1674.7835      2325.2165      1674.7835      2325.2165      2.7517422e+08  0.25           18520200       3.0953109      3271.0086      13084.043      4.4912387    
  71051000   153675.14      1036.2074     -33127676       1.9428134      457618.33     -32670058       650.43302      650.43302      650.43302      1674.7835      2325.2165      1674.7835      2325.2165      1674.7835      2325.2165      2.7517422e+08  0.25           18520250       3.110731       3242.5093      12969.961      4.4764215    
  71051200   154404.25      1041.3756     -33138858       1.9428134      459789.5      -32679068       650.43302      650.43302      650.43302      1674.7835      2325.2165      1674.7835      2325.2165      1674.7835      2325.2165      2.7517422e+08  0.25           18520300       3.1265024      3170.2849      12681.201      4.4620992    
  71051400   154489.2       1048.7514     -33127885       1.9428134      460042.46     -32667843       650.43302      650.43302      650.43302      1674.7835      2325.2165      1674.7835      2325.2165      1674.7835      2325.2165      2.7517422e+08  0.25           18520350       3.1414281      3349.952       13399.782      4.4465659    
  71051600   154210.71      1051.8897     -33138677       1.9428134      459213.15     -32679464       650.43302      650.43302      650.43302      1674.7835      2325.2165      1674.7835      2325.2165      1674.7835      2325.2165      2.7517422e+08  0.25           18520400       3.1561307      3400.7528      13603.061      4.4307253    
  71051800   154070.12      1058.9754     -33123726       1.9428134      458794.52     -32664931       650.43302      650.43302      650.43302      1674.7835      2325.2165      1674.7835      2325.2165      1674.7835      2325.2165      2.7517422e+08  0.25           18520450       3.1706425      3445.471       13781.879      4.4146299    
  71052000   154837         1066.1478     -33109128       1.9428134      461078.15     -32648050       650.43302      650.43302      650.43302      1674.7835      2325.2165      1674.7835      2325.2165      1674.7835      2325.2165      2.7517422e+08  0.25           18520500       3.1848542      3518.2326      14072.869      4.3981354    
  71052200   157051.5       1073.1162     -33115450       1.9428134      467672.54     -32647778       650.43302      650.43302      650.43302      1674.7835      2325.2165      1674.7835      2325.2165      1674.7835      2325.2165      2.7517422e+08  0.25           18520550       3.1986911      3613.5251      14454.114      4.3811491    
  71052400   159900.32      1080.3531     -33110150       1.9428134      476155.84     -32633994       650.43302      650.43302      650.43302      1674.7835      2325.2165      1674.7835      2325.2165      1674.7835      2325.2165      2.7517422e+08  0.25           18520600       3.212588       3597.9237      14391.786      4.3642736    
  71052600   161786.05      1086.8848     -33106311       1.9428134      481771.24     -32624540       650.43302      650.43302      650.43302      1674.7835      2325.2165      1674.7835      2325.2165      1674.7835      2325.2165      2.7517422e+08  0.25           18520650       3.2263496      3633.3359      14533.387      4.3472436    
  71052800   161918.49      1092.377      -33102390       1.9428134      482165.61     -32620224       650.43302      650.43302      650.43302      1674.7835      2325.2165      1674.7835      2325.2165      1674.7835      2325.2165      2.7517422e+08  0.25           18520700       3.2395719      3781.4503      15125.791      4.3295243    
  71053000   160270.14      1097.1186     -33086527       1.9428134      477257.12     -32609270       650.43302      650.43302      650.43302      1674.7835      2325.2165      1674.7835      2325.2165      1674.7835      2325.2165      2.7517422e+08  0.25           18520750       3.2527492      3794.4533      15177.884      4.3117863    
  71053200   157077.49      1103.0283     -33084401       1.9428134      467749.95     -32616651       650.43302      650.43302      650.43302      1674.7835      2325.2165      1674.7835      2325.2165      1674.7835      2325.2165      2.7517422e+08  0.25           18520800       3.2661638      3727.258       14908.695      4.2944036    
  71053400   153537.94      1108.445      -33067486       1.9428134      457209.78     -32610276       650.43302      650.43302      650.43302      1674.7835      2325.2165      1674.7835      2325.2165      1674.7835      2325.2165      2.7517422e+08  0.25           18520850       3.2790856      3869.4228      15478.05       4.2764137    
  71053600   152302.24      1113.597      -33056251       1.9428134      453530.06     -32602721       650.43302      650.43302      650.43302      1674.7835      2325.2165      1674.7835      2325.2165      1674.7835      2325.2165      2.7517422e+08  0.25           18520900       3.2922864      3787.6748      15150.683      4.2588318    
  71053800   156089.6       1121.4286     -33054080       1.9428134      464808.16     -32589272       650.43302      650.43302      650.43302      1674.7835      2325.2165      1674.7835      2325.2165      1674.7835      2325.2165      2.7517422e+08  0.25           18520950       3.3051869      3875.798       15496.755      4.2409114    
  71054000   162054.43      1130.6071     -33061105       1.9428134      482570.43     -32578535       650.43302      650.43302      650.43302      1674.7835      2325.2165      1674.7835      2325.2165      1674.7835      2325.2165      2.7517422e+08  0.25           18521000       3.3189945      3621.1784      14490.366      4.2241774    
  71054200   164681.08      1138.9173     -33058778       1.9428134      490392.13     -32568386       650.43302      650.43302      650.43302      1674.7835      2325.2165      1674.7835      2325.2165      1674.7835      2325.2165      2.7517422e+08  0.25           18521050       3.3324372      3719.4961      14877.957      4.2070161    
  71054400   165514.45      1142.8541     -33061892       1.9428134      492873.77     -32569019       650.43302      650.43302      650.43302      1674.7835      2325.2165      1674.7835      2325.2165      1674.7835      2325.2165      2.7517422e+08  0.25           18521100       3.3457449      3757.2427      15028.964      4.1897191    
  71054600   165646.37      1148.3651     -33059112       1.9428134      493266.61     -32565845       650.43302      650.43302      650.43302      1674.7835      2325.2165      1674.7835      2325.2165      1674.7835      2325.2165      2.7517422e+08  0.25           18521150       3.358716       3854.6911      15418.832      4.1720399    
  71054800   165634.38      1155.3636     -33063683       1.9428134      493230.91     -32570452       650.43302      650.43302      650.43302      1674.7835      2325.2165      1674.7835      2325.2165      1674.7835      2325.2165      2.7517422e+08  0.25           18521200       3.3721678      3716.8716      14867.373      4.1549956    
[...]
  71999400   314.44641      4.3337653     -33372922       1.9421099      936.36772     -33371985       650.51155      650.51155      650.51155      1674.7442      2325.2558      1674.7442      2325.2558      1674.7442      2325.2558      2.752739e+08   0.25           18757350       24.658661      3045.9839      12183.908      0.90318531   
  71999600   295.04704     -2.9470988     -33372940       1.9419419      878.59969     -33372061       650.5303       650.5303       650.5303       1674.7348      2325.2652      1674.7348      2325.2652      1674.7348      2325.2652      2.7529771e+08  0.25           18757400       24.675707      2933.1478      11732.59       0.88614427   
  71999800   307.20624      5.0172436     -33372958       1.9421231      914.80773     -33372043       650.51007      650.51007      650.51007      1674.745       2325.255       1674.745       2325.255       1674.745       2325.255       2.7527203e+08  0.25           18757450       24.69231       3011.5237      12046.121      0.86908761   
  72000000   292.40021     -1.9495069     -33372976       1.9419636      870.7179      -33372105       650.52788      650.52788      650.52788      1674.7361      2325.2639      1674.7361      2325.2639      1674.7361      2325.2639      2.7529464e+08  0.25           18757500       24.70896       3003.0376      12012.26       0.85203318   
  72000200   305.96811      1.2096051     -33372994       1.942036       911.1208      -33372083       650.51981      650.51981      650.51981      1674.7401      2325.2599      1674.7401      2325.2599      1674.7401      2325.2599      2.7528438e+08  0.25           18757550       24.724353      3248.2162      12992.82       0.83493688   
  72000400   301.23828      4.9855362     -33373011       1.9421229      897.03615     -33372114       650.5101       650.5101       650.5101       1674.7449      2325.2551      1674.7449      2325.2551      1674.7449      2325.2551      2.7527206e+08  0.25           18757600       24.739311      3342.6115      13370.436      0.81782855   
  72000600   298.29312     -6.2164938     -33373028       1.9418659      888.26598     -33372140       650.5388       650.5388       650.5388       1674.7306      2325.2694      1674.7306      2325.2694      1674.7306      2325.2694      2.7530849e+08  0.25           18757650       24.755275      3132.1945      12528.639      0.8007557    
  72000800   286.61641      4.5902251     -33373046       1.9421131      853.49474     -33372192       650.51119      650.51119      650.51119      1674.7444      2325.2556      1674.7444      2325.2556      1674.7444      2325.2556      2.7527344e+08  0.25           18757700       24.770598      3263.0088      13052.128      0.78366411   
  72001000   311.35816      9.3834145     -33373062       1.9422213      927.17144     -33372135       650.49912      650.49912      650.49912      1674.7504      2325.2496      1674.7504      2325.2496      1674.7504      2325.2496      2.7525812e+08  0.25           18757750       24.785718      3306.7884      13227.148      0.76656869   
  72001200   298.33443     -10.922541     -33373079       1.9417522      888.38899     -33372191       650.55149      650.55149      650.55149      1674.7243      2325.2757      1674.7243      2325.2757      1674.7243      2325.2757      2.7532461e+08  0.25           18757800       24.800744      3327.5726      13310.302      0.74947311   
  72001400   300.5662      -2.4422651     -33373100       1.9419441      895.03481     -33372205       650.53006      650.53006      650.53006      1674.735       2325.265       1674.735       2325.265       1674.735       2325.265       2.752974e+08   0.25           18757850       24.815565      3373.5749      13494.315      0.73237434   
  72001600   291.49588      15.129219     -33373113       1.9423463      868.02495     -33372245       650.48516      650.48516      650.48516      1674.7574      2325.2426      1674.7574      2325.2426      1674.7574      2325.2426      2.752404e+08   0.25           18757900       24.830987      3242.1021      12968.176      0.71529601   
  72001800   309.6894      -1.5445948     -33373137       1.9419621      922.20217     -33372215       650.52805      650.52805      650.52805      1674.736       2325.264       1674.736       2325.264       1674.736       2325.264       2.7529485e+08  0.25           18757950       24.846143      3299.1491      13196.864      0.69821244   
  72002000   300.39986     -9.5026955     -33373154       1.9417804      894.53948     -33372260       650.54834      650.54834      650.54834      1674.7258      2325.2742      1674.7258      2325.2742      1674.7258      2325.2742      2.7532061e+08  0.25           18758000       24.861935      3166.1805      12664.636      0.68114897   
  72002200   296.32664      9.4626129     -33373174       1.9422168      882.41014     -33372291       650.49961      650.49961      650.49961      1674.7502      2325.2498      1674.7502      2325.2498      1674.7502      2325.2498      2.7525874e+08  0.25           18758050       24.877485      3215.4552      12861.846      0.66408076   
  72002400   294.84804     -0.077837725   -33373196       1.9419981      878.00713     -33372318       650.52403      650.52403      650.52403      1674.738       2325.262       1674.738       2325.262       1674.738       2325.262       2.7528975e+08  0.25           18758100       24.892688      3288.822       13155.253      0.64700563   
  72002600   308.50174     -2.7856372     -33373216       1.9419353      918.66551     -33372297       650.53105      650.53105      650.53105      1674.7345      2325.2655      1674.7345      2325.2655      1674.7345      2325.2655      2.7529866e+08  0.25           18758150       24.908022      3260.6636      13042.661      0.62993637   
  72002800   300.07638      6.7888865     -33373234       1.9421529      893.57621     -33372341       650.50675      650.50675      650.50675      1674.7466      2325.2534      1674.7466      2325.2534      1674.7466      2325.2534      2.7526781e+08  0.25           18758200       24.923591      3211.4533      12845.75       0.61287526   
  72003000   295.78642     -5.3889046     -33373254       1.9418732      880.80146     -33372373       650.53798      650.53798      650.53798      1674.731       2325.269       1674.731       2325.269       1674.731       2325.269       2.7530745e+08  0.25           18758250       24.9388        3287.5993      13150.546      0.59580756   
  72003200   299.93203      7.4839418     -33373272       1.9421666      893.14638     -33372379       650.50522      650.50522      650.50522      1674.7474      2325.2526      1674.7474      2325.2526      1674.7474      2325.2526      2.7526586e+08  0.25           18758300       24.95465       3154.6159      12618.457      0.57875728   
  72003400   306.849       -5.0539193     -33373291       1.9418809      913.74392     -33372378       650.53712      650.53712      650.53712      1674.7314      2325.2686      1674.7314      2325.2686      1674.7314      2325.2686      2.7530636e+08  0.25           18758350       24.970616      3131.6187      12526.388      0.56171125   
  72003600   298.57591      5.6467764     -33373310       1.942128       889.10808     -33372420       650.50953      650.50953      650.50953      1674.7452      2325.2548      1674.7452      2325.2548      1674.7452      2325.2548      2.7527134e+08  0.25           18758400       24.986138      3221.2383      12885.016      0.54465701   
  72003800   296.68167     -1.3402616     -33373329       1.9419705      883.46735     -33372445       650.52712      650.52712      650.52712      1674.7364      2325.2636      1674.7364      2325.2636      1674.7364      2325.2636      2.7529366e+08  0.25           18758450       25.001943      3163.5188      12654.045      0.52761084   
  72004000   300.20809      0.72637496    -33373347       1.9420191      893.96842     -33372453       650.52169      650.52169      650.52169      1674.7392      2325.2608      1674.7392      2325.2608      1674.7392      2325.2608      2.7528677e+08  0.25           18758500       25.017004      3319.9175      13279.692      0.51055114   
  72004200   300.93295      3.6773012     -33373366       1.9420867      896.12695     -33372469       650.51414      650.51414      650.51414      1674.7429      2325.2571      1674.7429      2325.2571      1674.7429      2325.2571      2.7527719e+08  0.25           18758550       25.032455      3235.9222      12943.623      0.49350189   
  72004400   298.4362      -3.4344378     -33373384       1.9419229      888.69204     -33372495       650.53242      650.53242      650.53242      1674.7338      2325.2662      1674.7338      2325.2662      1674.7338      2325.2662      2.753004e+08   0.25           18758600       25.047656      3289.4254      13157.806      0.47645001   
  72004600   299.76464      5.9327798     -33373402       1.9421362      892.64792     -33372509       650.50861      650.50861      650.50861      1674.7457      2325.2543      1674.7457      2325.2543      1674.7457      2325.2543      2.7527017e+08  0.25           18758650       25.062986      3261.502       13046.048      0.45940304   
  72004800   300.96874      3.8983761     -33373421       1.9420897      896.23351     -33372524       650.51381      650.51381      650.51381      1674.7431      2325.2569      1674.7431      2325.2569      1674.7431      2325.2569      2.7527677e+08  0.25           18758700       25.077963      3337.5059      13350          0.44235224   
  72005000   299.7515       4.6508147     -33373070       1.9421053      892.60879     -33372178       650.51207      650.51207      650.51207      1674.744       2325.256       1674.744       2325.256       1674.744       2325.256       2.7527456e+08  0.25           18758750       25.092703      3393.1715      13572.643      0.42530008   
  72005200   300.34538      0.98884943    -33372720       1.9420203      894.37727     -33371826       650.52155      650.52155      650.52155      1674.7392      2325.2608      1674.7392      2325.2608      1674.7392      2325.2608      2.7528659e+08  0.25           18758800       25.106796      3547.6567      14190.789      0.40824062   
  72005400   296.53396      4.1794288     -33372738       1.9420968      883.0275      -33371855       650.51302      650.51302      650.51302      1674.7435      2325.2565      1674.7435      2325.2565      1674.7435      2325.2565      2.7527576e+08  0.25           18758850       25.121033      3512.0291      14048.118      0.39118741   
  72005600   297.23754      0.71423594    -33372757       1.9420199      885.12265     -33371871       650.5216       650.5216       650.5216       1674.7392      2325.2608      1674.7392      2325.2608      1674.7392      2325.2608      2.7528666e+08  0.25           18758900       25.135071      3561.9548      14247.836      0.37413504   
  72005800   302.97297     -2.7556966     -33372775       1.9419427      902.20176     -33371873       650.53022      650.53022      650.53022      1674.7349      2325.2651      1674.7349      2325.2651      1674.7349      2325.2651      2.752976e+08   0.25           18758950       25.149082      3568.6017      14274.386      0.35708638   
  72006000   293.9824       0.51439731    -33372794       1.9420204      875.42938     -33371918       650.52154      650.52154      650.52154      1674.7392      2325.2608      1674.7392      2325.2608      1674.7392      2325.2608      2.7528658e+08  0.25           18759000       25.163889      3376.6312      13506.544      0.34005258   
  72006200   312.02226      6.2894107     -33372811       1.9421543      929.149       -33371882       650.50659      650.50659      650.50659      1674.7467      2325.2533      1674.7467      2325.2533      1674.7467      2325.2533      2.7526761e+08  0.25           18759050       25.177904      3567.7128      14270.837      0.32301162   
  72006400   293.75127      7.8725558     -33380207       1.9422016      874.74113     -33379332       650.50131      650.50131      650.50131      1674.7493      2325.2507      1674.7493      2325.2507      1674.7493      2325.2507      2.752609e+08   0.25           18759100       25.19181       3595.4573      14381.822      0.30597343   
  72006600   308.37747     -8.0494883     -33372847       1.9418219      918.29543     -33371929       650.5437       650.5437       650.5437       1674.7281      2325.2719      1674.7281      2325.2719      1674.7281      2325.2719      2.7531472e+08  0.25           18759150       25.205823      3568.3078      14273.239      0.28894067   
  72006800   291.58662      2.7945168     -33372867       1.942068       868.29516     -33371999       650.51623      650.51623      650.51623      1674.7419      2325.2581      1674.7419      2325.2581      1674.7419      2325.2581      2.7527984e+08  0.25           18759200       25.219854      3563.336       14253.307      0.2719122    
  72007000   308.63419      12.332358     -33380260       1.9422936      919.05991     -33379341       650.49105      650.49105      650.49105      1674.7545      2325.2455      1674.7545      2325.2455      1674.7545      2325.2455      2.7524787e+08  0.25           18759250       25.234054      3521.1441      14084.608      0.25488946   
  72007200   289.74798     -7.248838      -33372902       1.9418292      862.82        -33372040       650.5429       650.5429       650.5429       1674.7286      2325.2714      1674.7286      2325.2714      1674.7286      2325.2714      2.753137e+08   0.25           18759300       25.248117      3555.6228      14222.512      0.23786922   
  72007400   307.60003     -6.4009787     -33372921       1.9418451      915.98036     -33372005       650.54112      650.54112      650.54112      1674.7294      2325.2706      1674.7294      2325.2706      1674.7294      2325.2706      2.7531144e+08  0.25           18759350       25.262811      3402.6501      13610.597      0.22085848   
  72007600   288.18701      10.64633      -33380315       1.9422433      858.1717      -33379457       650.49665      650.49665      650.49665      1674.7517      2325.2483      1674.7517      2325.2483      1674.7517      2325.2483      2.7525499e+08  0.25           18759400       25.277238      3465.625       13862.452      0.20384871   
  72007800   304.9856      -5.118622      -33380336       1.9418802      908.19505     -33379427       650.53719      650.53719      650.53719      1674.7314      2325.2686      1674.7314      2325.2686      1674.7314      2325.2686      2.7530646e+08  0.25           18759450       25.291595      3482.8204      13931.315      0.18684188   
  72008000   289.96689     -4.4859536     -33378459       1.9418877      863.4719      -33377595       650.53636      650.53636      650.53636      1674.7318      2325.2682      1674.7318      2325.2682      1674.7318      2325.2682      2.753054e+08   0.25           18759500       25.305975      3476.8268      13907.313      0.16983877   
  72008200   312.72569      0.2531464     -33380372       1.9419984      931.24371     -33379440       650.524        650.524        650.524        1674.738       2325.262       1674.738       2325.262       1674.738       2325.262       2.7528971e+08  0.25           18759550       25.320395      3467.4336      13869.723      0.15283942   
  72008400   302.51536      1.2701267     -33378494       1.9420161      900.83908     -33377594       650.52202      650.52202      650.52202      1674.739       2325.261       1674.739       2325.261       1674.739       2325.261       2.7528719e+08  0.25           18759600       25.335322      3349.7554      13398.936      0.13584624   
  72008600   297.24028      1.9363367     -33378511       1.9420318      885.1308      -33377626       650.52027      650.52027      650.52027      1674.7399      2325.2601      1674.7399      2325.2601      1674.7399      2325.2601      2.7528498e+08  0.25           18759650       25.349822      3448.3101      13793.313      0.11885383   
  72008800   306.69031      2.6454348     -33378529       1.9420491      913.27138     -33377616       650.51834      650.51834      650.51834      1674.7408      2325.2592      1674.7408      2325.2592      1674.7408      2325.2592      2.7528252e+08  0.25           18759700       25.365098      3272.9912      13091.992      0.10186787   
  72009000   295.8772       0.8511984     -33378547       1.9420093      881.07179     -33377666       650.52278      650.52278      650.52278      1674.7386      2325.2614      1674.7386      2325.2614      1674.7386      2325.2614      2.7528816e+08  0.25           18759750       25.379712      3421.4208      13685.67       0.084881987  
  72009200   304.17879     -0.73094805    -33378565       1.9419725      905.7925      -33377659       650.5269       650.5269       650.5269       1674.7366      2325.2634      1674.7366      2325.2634      1674.7366      2325.2634      2.7529338e+08  0.25           18759800       25.394294      3428.895       13715.583      0.067899187  
  72009400   294.47466      4.4156505     -33378582       1.9420874      876.89526     -33377705       650.51406      650.51406      650.51406      1674.743       2325.257       1674.743       2325.257       1674.743       2325.257       2.7527708e+08  0.25           18759850       25.408985      3403.3769      13613.526      0.050919814  
  72009600   305.15007     -3.4509588     -33378600       1.9419053      908.68481     -33377691       650.53439      650.53439      650.53439      1674.7328      2325.2672      1674.7328      2325.2672      1674.7328      2325.2672      2.753029e+08   0.25           18759900       25.423645      3410.7494      13642.99       0.033943454  
  72009800   294.73989      5.9041445     -33378617       1.9421153      877.68508     -33377739       650.51094      650.51094      650.51094      1674.7445      2325.2555      1674.7445      2325.2555      1674.7445      2325.2555      2.7527313e+08  0.25           18759950       25.438114      3455.575       13822.329      0.016970057  
  72010000   303.07412      1.571298      -33386013       1.9420244      902.50298     -33385111       650.5211       650.5211       650.5211       1674.7395      2325.2605      1674.7395      2325.2605      1674.7395      2325.2605      2.7528602e+08  0.25           18760000       25.453026      3353.0702      13412.242      0            
Loop time of 25.4531 on 4 procs for 300000 steps with 1000 atoms

Performance: 254.586 ns/day, 0.094 hours/ns, 11786.397 timesteps/s
99.4% CPU use with 4 MPI tasks x 1 OpenMP threads

MPI task timing breakdown:
Section |  min time  |  avg time  |  max time  |%varavg| %total
---------------------------------------------------------------
Pair    | 10.264     | 11.073     | 11.58      |  15.8 | 43.50
Neigh   | 0.0056506  | 0.0063221  | 0.0067279  |   0.5 |  0.02
Comm    | 7.9548     | 8.5153     | 9.2656     |  17.5 | 33.46
Output  | 0.070034   | 0.082957   | 0.12103    |   7.6 |  0.33
Modify  | 4.7343     | 4.8088     | 4.8939     |   2.9 | 18.89
Other   |            | 0.9669     |            |       |  3.80

Nlocal:            250 ave         269 max         231 min
Histogram: 1 0 0 1 0 0 1 0 0 1
Nghost:         767.25 ave         785 max         747 min
Histogram: 1 0 0 0 0 1 1 0 0 1
Neighs:        1709.25 ave        1859 max        1616 min
Histogram: 1 1 0 0 1 0 0 0 0 1

Total # of neighbors = 6837
Ave neighs/atom = 6.837
Neighbor list builds = 36
Dangerous builds = 0

# run_style
run_style verlet

# write restart
write_restart ${write_res}
write_restart ./pgnpmf/5050/equpmf71.res
System init for write_restart ...
Generated 0 of 1 mixed pair_coeff terms from geometric mixing rule

Total wall time: 0:01:17
