LAMMPS (23 Jun 2022 - Update 1)
OMP_NUM_THREADS environment is not set. Defaulting to 1 thread. (src/comm.cpp:98)
  using 1 OpenMP thread(s) per MPI task
# Read restart
read_restart ${read_res}
read_restart ./pgnpmf/5050/equpmf34.res
Reading restart file ...
  restart file = 23 Jun 2022, LAMMPS = 23 Jun 2022
  restoring atom style atomic from restart
  orthogonal box = (1673.9344 1673.9344 1673.9344) to (2326.0656 2326.0656 2326.0656)
  1 by 2 by 2 MPI processor grid
  restoring pair style table from restart
  1000 atoms
  read_restart CPU = 0.005 seconds

# Settings

pair_style table spline 9941

pair_coeff 1 1 ./pgnpmf/N20.txt DE_GNP 75.6
pair_coeff 2 2 ./pgnpmf/N100.txt DE_GNP 115.92
WARNING: 3 of 9941 force values in table DE_GNP are inconsistent with -dE/dr.
WARNING:  Should only be flagged at inflection points (src/pair_table.cpp:463)
pair_coeff 1 2 ./pgnpmf/mixed_potential.txt DE_GNP 95.66
WARNING: 1562 of 9941 force values in table DE_GNP are inconsistent with -dE/dr.
WARNING:  Should only be flagged at inflection points (src/pair_table.cpp:463)

#Neigh_list Calc Frequency

neigh_modify delay 0 every 1 check yes

# Saving Frequency (50 frames)

variable ts_save equal ${steps_equ}
variable ts_save equal 5000

# Dump
#dump 1 all custom ${ts_save} ./pgnpmf/${folder}/equilibration/trajectory/trajectory_${usic}_${trial}.equ.custom type x y z ix iy iz
#dump_modify 1 first no sort id
dump 2 all cfg 50000 ./pgnpmf/${folder}/equilibration/trajectory/dumpgen.tens_*.cfg mass type xs ys zs fx fy fz
dump 2 all cfg 50000 ./pgnpmf/5050/equilibration/trajectory/dumpgen.tens_*.cfg mass type xs ys zs fx fy fz
dump_modify 2 element N20 N100

# thermo_style
thermo_style custom step temp press pe density ke etotal lx ly lz xlo xhi ylo yhi zlo zhi vol dt time cpu tpcpu spcpu cpuremain

# run info
timestep ${ts}
timestep 0.25
thermo 200

# fix

fix 1 all momentum 1000 linear 1 1 1 angular
variable T equal ${temp}
variable T equal 300
fix 2 all nvt temp ${T} 370000 100.0
fix 2 all nvt temp 300 370000 100.0

run 100000
Generated 0 of 1 mixed pair_coeff terms from geometric mixing rule
Unused restart file global fix info:
  fix style: npt, fix ID: 5
Neighbor list info ...
  update every 1 steps, delay 0 steps, check yes
  max neighbors/atom: 2000, page size: 100000
  master list distance cutoff = 117.92
  ghost atom cutoff = 117.92
  binsize = 58.96, bins = 12 12 12
  1 neighbor lists, perpetual/occasional/extra = 1 0 0
  (1) pair table, perpetual
      attributes: half, newton on
      pair build: half/bin/atomonly/newton
      stencil: half/bin/3d
      bin: standard
Per MPI rank memory allocation (min/avg/max) = 3.084 | 3.085 | 3.087 Mbytes
   Step          Temp          Press          PotEng        Density         KinEng         TotEng           Lx             Ly             Lz            Xlo            Xhi            Ylo            Yhi            Zlo            Zhi           Volume           Dt            Time           CPU           T/CPU          S/CPU         CPULeft    
  35010000   295.49732     -1.7448172     -33363373       1.9276753      879.94057     -33362493       652.13121      652.13121      652.13121      1673.9344      2326.0656      1673.9344      2326.0656      1673.9344      2326.0656      2.7733517e+08  0.25           9510000        0              0              0              0            
  35010200   326.72484     -1.9334687     -33363399       1.9276753      972.93077     -33362427       652.13121      652.13121      652.13121      1673.9344      2326.0656      1673.9344      2326.0656      1673.9344      2326.0656      2.7733517e+08  0.25           9510050        0.014762087    3386.8214      13546.424      7.3676886    
  35010400   383.97815     -2.0847078     -33363427       1.9276753      1143.4214     -33362284       652.13121      652.13121      652.13121      1673.9344      2326.0656      1673.9344      2326.0656      1673.9344      2326.0656      2.7733517e+08  0.25           9510100        0.02878774     3564.8873      14259.654      7.1688039    
  35010600   469.24086     -2.1838973     -33363458       1.9276753      1397.3191     -33362060       652.13121      652.13121      652.13121      1673.9344      2326.0656      1673.9344      2326.0656      1673.9344      2326.0656      2.7733517e+08  0.25           9510150        0.044868539    3109.3642      12437.319      7.4336428    
  35010800   584.76242     -2.2278992     -33363491       1.9276753      1741.3226     -33361750       652.13121      652.13121      652.13121      1673.9344      2326.0656      1673.9344      2326.0656      1673.9344      2326.0656      2.7733517e+08  0.25           9510200        0.05892978     3555.8646      14223.655      7.307587     
  35011000   737.71118     -2.184479      -33363529       1.9276753      2196.7779     -33361332       652.13121      652.13121      652.13121      1673.9344      2326.0656      1673.9344      2326.0656      1673.9344      2326.0656      2.7733517e+08  0.25           9510250        0.072982311    3558.0716      14232.291      7.2254803    
  35011200   938.77676     -2.0052586     -33363569       1.9276753      2795.5169     -33360774       652.13121      652.13121      652.13121      1673.9344      2326.0656      1673.9344      2326.0656      1673.9344      2326.0656      2.7733517e+08  0.25           9510300        0.087164685    3525.4884      14101.907      7.1767601    
  35011400   1201.5875     -1.7348617     -33363615       1.9276753      3578.1223     -33360037       652.13121      652.13121      652.13121      1673.9344      2326.0656      1673.9344      2326.0656      1673.9344      2326.0656      2.7733517e+08  0.25           9510350        0.10130539     3535.8743      14143.511      7.1349694    
  35011600   1543.7594     -1.9544989     -33371044       1.9276753      4597.052      -33366447       652.13121      652.13121      652.13121      1673.9344      2326.0656      1673.9344      2326.0656      1673.9344      2326.0656      2.7733517e+08  0.25           9510400        0.11524436     3587.0775      14348.189      7.0876984    
  35011800   1986.6243     -1.6974282     -33371103       1.9276753      5915.8281     -33365187       652.13121      652.13121      652.13121      1673.9344      2326.0656      1673.9344      2326.0656      1673.9344      2326.0656      2.7733517e+08  0.25           9510450        0.12968452     3462.6108      13850.495      7.0751488    
  35012000   2554.0931     -1.3609676     -33371165       1.9276753      7605.6532     -33363559       652.13121      652.13121      652.13121      1673.9344      2326.0656      1673.9344      2326.0656      1673.9344      2326.0656      2.7733517e+08  0.25           9510500        0.14419217     3442.7143      13770.999      7.0662962    
  35012200   3274.6478     -1.2327801     -33373126       1.9276753      9751.342      -33363375       652.13121      652.13121      652.13121      1673.9344      2326.0656      1673.9344      2326.0656      1673.9344      2326.0656      2.7733517e+08  0.25           9510550        0.15823298     3565.1094      14259.974      7.0342809    
  35012400   4177.8798     -1.3965583     -33373199       1.9276753      12441.013     -33360758       652.13121      652.13121      652.13121      1673.9344      2326.0656      1673.9344      2326.0656      1673.9344      2326.0656      2.7733517e+08  0.25           9510600        0.17232235     3548.7735      14195.365      7.0078651    
  35012600   5290.453      -1.8647261     -33373282       1.9276753      15754.066     -33357528       652.13121      652.13121      652.13121      1673.9344      2326.0656      1673.9344      2326.0656      1673.9344      2326.0656      2.7733517e+08  0.25           9510650        0.18632081     3571.8133      14287.379      6.9799418    
  35012800   6627.8673     -2.0061148     -33373374       1.9276753      19736.657     -33353638       652.13121      652.13121      652.13121      1673.9344      2326.0656      1673.9344      2326.0656      1673.9344      2326.0656      2.7733517e+08  0.25           9510700        0.20067567     3483.0768      13932.176      6.9664006    
  35013000   8182.3063     -1.9053795     -33373099       1.9276753      24365.511     -33348733       652.13121      652.13121      652.13121      1673.9344      2326.0656      1673.9344      2326.0656      1673.9344      2326.0656      2.7733517e+08  0.25           9510750        0.21514331     3456.0247      13824.125      6.9563742    
  35013200   9911.9781     -1.2841322     -33373184       1.9276753      29516.178     -33343668       652.13121      652.13121      652.13121      1673.9344      2326.0656      1673.9344      2326.0656      1673.9344      2326.0656      2.7733517e+08  0.25           9510800        0.23069033     3216.0626      12864.245      6.9784481    
  35013400   11730.131     -0.84353475    -33371368       1.9276753      34930.329     -33336438       652.13121      652.13121      652.13121      1673.9344      2326.0656      1673.9344      2326.0656      1673.9344      2326.0656      2.7733517e+08  0.25           9510850        0.245056       3480.5058      13922.043      6.9625388    
  35013600   13496.201     -0.72918858    -33369551       1.9276753      40189.383     -33329362       652.13121      652.13121      652.13121      1673.9344      2326.0656      1673.9344      2326.0656      1673.9344      2326.0656      2.7733517e+08  0.25           9510900        0.26024453     3291.9637      13167.839      6.9688325    
  35013800   15022.874     -0.7085428     -33371154       1.9276753      44735.552     -33326418       652.13121      652.13121      652.13121      1673.9344      2326.0656      1673.9344      2326.0656      1673.9344      2326.0656      2.7733517e+08  0.25           9510950        0.27530103     3320.8172      13283.299      6.9695224    
  35014000   16115.971      0.46528032    -33371585       1.9276753      47990.61      -33323594       652.13121      652.13121      652.13121      1673.9344      2326.0656      1673.9344      2326.0656      1673.9344      2326.0656      2.7733517e+08  0.25           9511000        0.29043257     3304.3642      13217.434      6.9704374    
  35014200   16676.484      1.6383992     -33371997       1.9276753      49659.72      -33322337       652.13121      652.13121      652.13121      1673.9344      2326.0656      1673.9344      2326.0656      1673.9344      2326.0656      2.7733517e+08  0.25           9511050        0.30555536     3306.2722      13225.044      6.9696256    
  35014400   16811.927      1.9660455     -33373559       1.9276753      50063.048     -33323496       652.13121      652.13121      652.13121      1673.9344      2326.0656      1673.9344      2326.0656      1673.9344      2326.0656      2.7733517e+08  0.25           9511100        0.32074231     3292.2983      13169.246      6.9689089    
  35014600   16822.129      3.4883612     -33368096       1.9276753      50093.427     -33318003       652.13121      652.13121      652.13121      1673.9344      2326.0656      1673.9344      2326.0656      1673.9344      2326.0656      2.7733517e+08  0.25           9511150        0.33683433     3107.1322      12428.438      6.9857015    
  35014800   17052.873      5.8406627     -33368098       1.9276753      50780.543     -33317317       652.13121      652.13121      652.13121      1673.9344      2326.0656      1673.9344      2326.0656      1673.9344      2326.0656      2.7733517e+08  0.25           9511200        0.35216103     3262.2357      13049.037      6.9845768    
  35015000   17736.727      7.9347289     -33368081       1.9276753      52816.943     -33315264       652.13121      652.13121      652.13121      1673.9344      2326.0656      1673.9344      2326.0656      1673.9344      2326.0656      2.7733517e+08  0.25           9511250        0.3675599      3247.0286      12988.07       6.9836845    
  35015200   18885.641      9.2140198     -33368033       1.9276753      56238.214     -33311795       652.13121      652.13121      652.13121      1673.9344      2326.0656      1673.9344      2326.0656      1673.9344      2326.0656      2.7733517e+08  0.25           9511300        0.38311424     3214.5241      12857.98       6.9845166    
  35015400   20287.28       10.538024     -33375341       1.9276753      60412.057     -33314929       652.13121      652.13121      652.13121      1673.9344      2326.0656      1673.9344      2326.0656      1673.9344      2326.0656      2.7733517e+08  0.25           9511350        0.39845853     3258.5834      13034.533      6.9804407    
  35015600   21628.27       11.132609     -33384158       1.9276753      64405.296     -33319752       652.13121      652.13121      652.13121      1673.9344      2326.0656      1673.9344      2326.0656      1673.9344      2326.0656      2.7733517e+08  0.25           9511400        0.41351017     3321.8647      13287.453      6.9706451    
  35015800   22640.55       12.748986     -33384045       1.9276753      67419.692     -33316626       652.13121      652.13121      652.13121      1673.9344      2326.0656      1673.9344      2326.0656      1673.9344      2326.0656      2.7733517e+08  0.25           9511450        0.42878905     3272.4783      13089.882      6.9641654    
  35016000   23204.228      14.064485     -33383904       1.9276753      69098.23      -33314806       652.13121      652.13121      652.13121      1673.9344      2326.0656      1673.9344      2326.0656      1673.9344      2326.0656      2.7733517e+08  0.25           9511500        0.44425626     3232.648       12930.533      6.9600538    
  35016200   23407.84       13.806008     -33383732       1.9276753      69704.551     -33314027       652.13121      652.13121      652.13121      1673.9344      2326.0656      1673.9344      2326.0656      1673.9344      2326.0656      2.7733517e+08  0.25           9511550        0.4594866      3282.9359      13131.791      6.951624     
  35016400   23514.234      14.119591     -33383532       1.9276753      70021.374     -33313511       652.13121      652.13121      652.13121      1673.9344      2326.0656      1673.9344      2326.0656      1673.9344      2326.0656      2.7733517e+08  0.25           9511600        0.47504138     3214.4474      12857.674      6.9475167    
  35016600   23829.699      15.262835     -33390330       1.9276753      70960.775     -33319369       652.13121      652.13121      652.13121      1673.9344      2326.0656      1673.9344      2326.0656      1673.9344      2326.0656      2.7733517e+08  0.25           9511650        0.49037865     3260.02        13040.11       6.9396391    
  35016800   24543.247      17.109429     -33390440       1.9276753      73085.599     -33317354       652.13121      652.13121      652.13121      1673.9344      2326.0656      1673.9344      2326.0656      1673.9344      2326.0656      2.7733517e+08  0.25           9511700        0.50575267     3252.2352      13009.157      6.9318167    
  35017000   25667.055      18.532108     -33390515       1.9276753      76432.108     -33314083       652.13121      652.13121      652.13121      1673.9344      2326.0656      1673.9344      2326.0656      1673.9344      2326.0656      2.7733517e+08  0.25           9511750        0.52097245     3285.2131      13140.578      6.9215244    
  35017200   27012.267      19.485898     -33388665       1.9276753      80437.918     -33308227       652.13121      652.13121      652.13121      1673.9344      2326.0656      1673.9344      2326.0656      1673.9344      2326.0656      2.7733517e+08  0.25           9511800        0.53640375     3240.1719      12960.828      6.9136781    
  35017400   28287.034      21.845508     -33388674       1.9276753      84233.957     -33304440       652.13121      652.13121      652.13121      1673.9344      2326.0656      1673.9344      2326.0656      1673.9344      2326.0656      2.7733517e+08  0.25           9511850        0.55151569     3308.5753      13234.256      6.9014345    
  35017600   29238.149      24.161684     -33388266       1.9276753      87066.216     -33301200       652.13121      652.13121      652.13121      1673.9344      2326.0656      1673.9344      2326.0656      1673.9344      2326.0656      2.7733517e+08  0.25           9511900        0.56624203     3395.3503      13581.291      6.8843431    
  35017800   29777.387      25.29089      -33388206       1.9276753      88671.974     -33299534       652.13121      652.13121      652.13121      1673.9344      2326.0656      1673.9344      2326.0656      1673.9344      2326.0656      2.7733517e+08  0.25           9511950        0.58171418     3231.6152      12926.006      6.8761955    
  35018000   29997.044      27.32882      -33387736       1.9276753      89326.076     -33298410       652.13121      652.13121      652.13121      1673.9344      2326.0656      1673.9344      2326.0656      1673.9344      2326.0656      2.7733517e+08  0.25           9512000        0.59632296     3422.585       13690.891      6.8577424    
  35018200   30153.891      30.034229     -33389138       1.9276753      89793.137     -33299345       652.13121      652.13121      652.13121      1673.9344      2326.0656      1673.9344      2326.0656      1673.9344      2326.0656      2.7733517e+08  0.25           9512050        0.61115653     3370.7486      13483.099      6.841998     
  35018400   30523.716      31.070678     -33388613       1.9276753      90894.415     -33297719       652.13121      652.13121      652.13121      1673.9344      2326.0656      1673.9344      2326.0656      1673.9344      2326.0656      2.7733517e+08  0.25           9512100        0.62578578     3417.7929      13670.765      6.8240755    
  35018600   31284.416      33.554668     -33388067       1.9276753      93159.647     -33294907       652.13121      652.13121      652.13121      1673.9344      2326.0656      1673.9344      2326.0656      1673.9344      2326.0656      2.7733517e+08  0.25           9512150        0.64096286     3294.445       13178.175      6.8121182    
  35018800   32423.316      33.938529     -33389760       1.9276753      96551.099     -33293209       652.13121      652.13121      652.13121      1673.9344      2326.0656      1673.9344      2326.0656      1673.9344      2326.0656      2.7733517e+08  0.25           9512200        0.65542259     3457.8484      13831.453      6.7925865    
  35019000   33742.143      36.549713     -33389152       1.9276753      100478.34     -33288674       652.13121      652.13121      652.13121      1673.9344      2326.0656      1673.9344      2326.0656      1673.9344      2326.0656      2.7733517e+08  0.25           9512250        0.67059996     3294.4062      13177.377      6.7805368    
  35019200   34966.215      39.522378     -33388517       1.9276753      104123.42     -33284393       652.13121      652.13121      652.13121      1673.9344      2326.0656      1673.9344      2326.0656      1673.9344      2326.0656      2.7733517e+08  0.25           9512300        0.68560923     3331.232       13325.077      6.7666912    
  35019400   35866.394      43.096808     -33389745       1.9276753      106804        -33282941       652.13121      652.13121      652.13121      1673.9344      2326.0656      1673.9344      2326.0656      1673.9344      2326.0656      2.7733517e+08  0.25           9512350        0.70038083     3384.9076      13539.633      6.7505028    
  35019600   36367.906      46.068465     -33387155       1.9276753      108297.41     -33278858       652.13121      652.13121      652.13121      1673.9344      2326.0656      1673.9344      2326.0656      1673.9344      2326.0656      2.7733517e+08  0.25           9512400        0.71533314     3343.9886      13376.048      6.7360771    
  35019800   36588.065      48.894958     -33378691       1.9276753      108953.01     -33269738       652.13121      652.13121      652.13121      1673.9344      2326.0656      1673.9344      2326.0656      1673.9344      2326.0656      2.7733517e+08  0.25           9512450        0.72980671     3454.5586      13818.209      6.7172223    
  35020000   36784.64       50.41518      -33385351       1.9276753      109538.38     -33275812       652.13121      652.13121      652.13121      1673.9344      2326.0656      1673.9344      2326.0656      1673.9344      2326.0656      2.7733517e+08  0.25           9512500        0.74462447     3374.3025      13497.155      6.7016426    
  35020200   37215.386      53.779116     -33382731       1.9276753      110821.07     -33271910       652.13121      652.13121      652.13121      1673.9344      2326.0656      1673.9344      2326.0656      1673.9344      2326.0656      2.7733517e+08  0.25           9512550        0.75947486     3366.9304      13467.616      6.6863803    
  35020400   38021.164      55.88172      -33383874       1.9276753      113220.53     -33270653       652.13121      652.13121      652.13121      1673.9344      2326.0656      1673.9344      2326.0656      1673.9344      2326.0656      2.7733517e+08  0.25           9512600        0.77427843     3377.5872      13510.534      6.6707256    
  35020600   39175.344      57.986219     -33383114       1.9276753      116657.48     -33266456       652.13121      652.13121      652.13121      1673.9344      2326.0656      1673.9344      2326.0656      1673.9344      2326.0656      2.7733517e+08  0.25           9512650        0.78871008     3464.5955      13858.335      6.6519712    
  35020800   40479.268      61.736538     -33383875       1.9276753      120540.35     -33263335       652.13121      652.13121      652.13121      1673.9344      2326.0656      1673.9344      2326.0656      1673.9344      2326.0656      2.7733517e+08  0.25           9512700        0.80301062     3496.3419      13985.344      6.6322934    
  35021000   41660.349      64.850386     -33384990       1.9276753      124057.4      -33260933       652.13121      652.13121      652.13121      1673.9344      2326.0656      1673.9344      2326.0656      1673.9344      2326.0656      2.7733517e+08  0.25           9512750        0.81735896     3484.7574      13939.097      6.6131952    
  35021200   42506.397      67.651487     -33383821       1.9276753      126576.79     -33257244       652.13121      652.13121      652.13121      1673.9344      2326.0656      1673.9344      2326.0656      1673.9344      2326.0656      2.7733517e+08  0.25           9512800        0.83219453     3370.2876      13481.14       6.5981318    
  35021400   42971.367      69.68785      -33384913       1.9276753      127961.39     -33256952       652.13121      652.13121      652.13121      1673.9344      2326.0656      1673.9344      2326.0656      1673.9344      2326.0656      2.7733517e+08  0.25           9512850        0.84696125     3385.9744      13543.777      6.5825423    
  35021600   43190.396      70.537033     -33391495       1.9276753      128613.63     -33262881       652.13121      652.13121      652.13121      1673.9344      2326.0656      1673.9344      2326.0656      1673.9344      2326.0656      2.7733517e+08  0.25           9512900        0.86133472     3478.6345      13914.666      6.5639823    
  35021800   43412.454      74.777252     -33387278       1.9276753      129274.88     -33258004       652.13121      652.13121      652.13121      1673.9344      2326.0656      1673.9344      2326.0656      1673.9344      2326.0656      2.7733517e+08  0.25           9512950        0.87608174     3390.4946      13561.954      6.5483581    
  35022000   43887.478      78.290599     -33388386       1.9276753      130689.41     -33257696       652.13121      652.13121      652.13121      1673.9344      2326.0656      1673.9344      2326.0656      1673.9344      2326.0656      2.7733517e+08  0.25           9513000        0.89080884     3395.138       13580.411      6.5326158    
  35022200   44740.843      80.862239     -33387969       1.9276753      133230.59     -33254738       652.13121      652.13121      652.13121      1673.9344      2326.0656      1673.9344      2326.0656      1673.9344      2326.0656      2.7733517e+08  0.25           9513050        0.90533352     3442.4026      13769.54       6.5154518    
  35022400   45919.043      83.560281     -33385658       1.9276753      136739.07     -33248919       652.13121      652.13121      652.13121      1673.9344      2326.0656      1673.9344      2326.0656      1673.9344      2326.0656      2.7733517e+08  0.25           9513100        0.92174332     3046.9345      12187.788      6.5116912    
  35022600   47211.494      87.376897     -33377492       1.9276753      140587.77     -33236904       652.13121      652.13121      652.13121      1673.9344      2326.0656      1673.9344      2326.0656      1673.9344      2326.0656      2.7733517e+08  0.25           9513150        0.93721043     3232.6919      12930.582      6.5009867    
  35022800   48352.186      92.971873     -33369689       1.9276753      143984.55     -33225704       652.13121      652.13121      652.13121      1673.9344      2326.0656      1673.9344      2326.0656      1673.9344      2326.0656      2.7733517e+08  0.25           9513200        0.9515002      3498.9966      13996.029      6.4821132    
  35023000   49148.199      95.600382     -33360353       1.9276753      146354.94     -33213998       652.13121      652.13121      652.13121      1673.9344      2326.0656      1673.9344      2326.0656      1673.9344      2326.0656      2.7733517e+08  0.25           9513250        0.96651699     3329.6048      13318.638      6.4682462    
  35023200   49573.26       97.895593     -33357663       1.9276753      147620.7      -33210042       652.13121      652.13121      652.13121      1673.9344      2326.0656      1673.9344      2326.0656      1673.9344      2326.0656      2.7733517e+08  0.25           9513300        0.98101244     3449.319       13797.186      6.4509186    
  35023400   49772.46       99.888817     -33366128       1.9276753      148213.89     -33217914       652.13121      652.13121      652.13121      1673.9344      2326.0656      1673.9344      2326.0656      1673.9344      2326.0656      2.7733517e+08  0.25           9513350        0.99525338     3511.0646      14044.504      6.4320253    
  35023600   50010.534      102.64429     -33365323       1.9276753      148922.83     -33216401       652.13121      652.13121      652.13121      1673.9344      2326.0656      1673.9344      2326.0656      1673.9344      2326.0656      2.7733517e+08  0.25           9513400        1.0096124      3482.1102      13928.423      6.4140235    
  35023800   50522.75       105.24886     -33364875       1.9276753      150448.12     -33214427       652.13121      652.13121      652.13121      1673.9344      2326.0656      1673.9344      2326.0656      1673.9344      2326.0656      2.7733517e+08  0.25           9513450        1.0242893      3406.688       13626.622      6.3981137    
  35024000   51419.494      107.4356      -33371791       1.9276753      153118.47     -33218672       652.13121      652.13121      652.13121      1673.9344      2326.0656      1673.9344      2326.0656      1673.9344      2326.0656      2.7733517e+08  0.25           9513500        1.0393856      3312.1286      13248.589      6.384811     
  35024200   52629.122      110.78164     -33372846       1.9276753      156720.54     -33216126       652.13121      652.13121      652.13121      1673.9344      2326.0656      1673.9344      2326.0656      1673.9344      2326.0656      2.7733517e+08  0.25           9513550        1.053949       3433.2409      13732.9        6.3682417    
  35024400   53923.567      115.12488     -33369723       1.9276753      160575.18     -33209148       652.13121      652.13121      652.13121      1673.9344      2326.0656      1673.9344      2326.0656      1673.9344      2326.0656      2.7733517e+08  0.25           9513600        1.0686247      3406.9923      13628.102      6.3523936    
  35024600   55042.576      119.15829     -33372282       1.9276753      163907.39     -33208375       652.13121      652.13121      652.13121      1673.9344      2326.0656      1673.9344      2326.0656      1673.9344      2326.0656      2.7733517e+08  0.25           9513650        1.0829589      3488.1568      13952.581      6.3345811    
  35024800   55798.372      122.81996     -33373301       1.9276753      166158.02     -33207143       652.13121      652.13121      652.13121      1673.9344      2326.0656      1673.9344      2326.0656      1673.9344      2326.0656      2.7733517e+08  0.25           9513700        1.0978379      3360.4501      13441.731      6.3199993    
  35025000   56177.827      125.41757     -33370508       1.9276753      167287.98     -33203220       652.13121      652.13121      652.13121      1673.9344      2326.0656      1673.9344      2326.0656      1673.9344      2326.0656      2.7733517e+08  0.25           9513750        1.1123347      3449.0458      13796.212      6.3032437    
  35025200   56348.547      129.9979      -33369571       1.9276753      167796.35     -33201775       652.13121      652.13121      652.13121      1673.9344      2326.0656      1673.9344      2326.0656      1673.9344      2326.0656      2.7733517e+08  0.25           9513800        1.1270509      3397.6308      13590.603      6.2877695    
  35025400   56591.184      131.77559     -33376370       1.9276753      168518.88     -33207851       652.13121      652.13121      652.13121      1673.9344      2326.0656      1673.9344      2326.0656      1673.9344      2326.0656      2.7733517e+08  0.25           9513850        1.1421737      3306.2081      13224.66       6.2745529    
  35025600   57146.196      134.9913      -33376573       1.9276753      170171.61     -33206401       652.13121      652.13121      652.13121      1673.9344      2326.0656      1673.9344      2326.0656      1673.9344      2326.0656      2.7733517e+08  0.25           9513900        1.1569873      3375.3059      13501.213      6.2596112    
  35025800   58098.934      138.97432     -33386761       1.9276753      173008.7      -33213752       652.13121      652.13121      652.13121      1673.9344      2326.0656      1673.9344      2326.0656      1673.9344      2326.0656      2.7733517e+08  0.25           9513950        1.1716814      3402.7573      13611.164      6.2440354    
  35026000   59350.465      143.70178     -33380280       1.9276753      176735.55     -33203545       652.13121      652.13121      652.13121      1673.9344      2326.0656      1673.9344      2326.0656      1673.9344      2326.0656      2.7733517e+08  0.25           9514000        1.1861542      3454.7618      13818.685      6.2273236    
  35026200   60651.419      147.18808     -33381513       1.9276753      180609.57     -33200904       652.13121      652.13121      652.13121      1673.9344      2326.0656      1673.9344      2326.0656      1673.9344      2326.0656      2.7733517e+08  0.25           9514050        1.2007336      3429.4451      13718.198      6.2112145    
  35026400   61734.518      151.48808     -33378196       1.9276753      183834.85     -33194361       652.13121      652.13121      652.13121      1673.9344      2326.0656      1673.9344      2326.0656      1673.9344      2326.0656      2.7733517e+08  0.25           9514100        1.2149744      3511.0809      14044.309      6.1934172    
  35026600   62431.827      155.35736     -33370101       1.9276753      185911.32     -33184189       652.13121      652.13121      652.13121      1673.9344      2326.0656      1673.9344      2326.0656      1673.9344      2326.0656      2.7733517e+08  0.25           9514150        1.229741       3385.9978      13543.553      6.1783522    
  35026800   62762.495      160.02521     -33370884       1.9276753      186895.99     -33183988       652.13121      652.13121      652.13121      1673.9344      2326.0656      1673.9344      2326.0656      1673.9344      2326.0656      2.7733517e+08  0.25           9514200        1.2449366      3290.4383      13162.037      6.1654124    
  35027000   62920.976      163.43515     -33376751       1.9276753      187367.92     -33189384       652.13121      652.13121      652.13121      1673.9344      2326.0656      1673.9344      2326.0656      1673.9344      2326.0656      2.7733517e+08  0.25           9514250        1.2594134      3453.828       13815.259      6.148912     
  35027200   63190.941      166.87227     -33375595       1.9276753      188171.83     -33187424       652.13121      652.13121      652.13121      1673.9344      2326.0656      1673.9344      2326.0656      1673.9344      2326.0656      2.7733517e+08  0.25           9514300        1.2738429      3465.1094      13860.467      6.1322319    
  35027400   63792.588      171.37167     -33381415       1.9276753      189963.43     -33191452       652.13121      652.13121      652.13121      1673.9344      2326.0656      1673.9344      2326.0656      1673.9344      2326.0656      2.7733517e+08  0.25           9514350        1.2887829      3346.722       13386.875      6.1180266    
  35027600   64799.276      175.57344     -33387588       1.9276753      192961.18     -33194627       652.13121      652.13121      652.13121      1673.9344      2326.0656      1673.9344      2326.0656      1673.9344      2326.0656      2.7733517e+08  0.25           9514400        1.3031677      3475.8915      13903.584      6.1012051    
  35027800   66078.374      177.97363     -33392568       1.9276753      196770.11     -33195798       652.13121      652.13121      652.13121      1673.9344      2326.0656      1673.9344      2326.0656      1673.9344      2326.0656      2.7733517e+08  0.25           9514450        1.3176936      3442.0903      13768.524      6.0850904    
  35028000   67373.161      182.7252      -33391303       1.9276753      200625.77     -33190678       652.13121      652.13121      652.13121      1673.9344      2326.0656      1673.9344      2326.0656      1673.9344      2326.0656      2.7733517e+08  0.25           9514500        1.3321049      3469.5307      13878.093      6.0684881    
  35028200   68421.498      187.53878     -33398563       1.9276753      203747.54     -33194816       652.13121      652.13121      652.13121      1673.9344      2326.0656      1673.9344      2326.0656      1673.9344      2326.0656      2.7733517e+08  0.25           9514550        1.3475339      3240.6724      12962.636      6.0565084    
  35028400   69067.703      192.94014     -33399147       1.9276753      205671.83     -33193475       652.13121      652.13121      652.13121      1673.9344      2326.0656      1673.9344      2326.0656      1673.9344      2326.0656      2.7733517e+08  0.25           9514600        1.3621389      3423.4589      13693.654      6.0408014    
  35028600   69353.455      196.29874     -33391945       1.9276753      206522.75     -33185422       652.13121      652.13121      652.13121      1673.9344      2326.0656      1673.9344      2326.0656      1673.9344      2326.0656      2.7733517e+08  0.25           9514650        1.3766728      3440.2044      13760.696      6.0248063    
  35028800   69508.411      198.84966     -33383217       1.9276753      206984.18     -33176232       652.13121      652.13121      652.13121      1673.9344      2326.0656      1673.9344      2326.0656      1673.9344      2326.0656      2.7733517e+08  0.25           9514700        1.3912828      3422.3442      13689.737      6.0091674    
  35029000   69806.811      202.93808     -33381479       1.9276753      207872.76     -33173606       652.13121      652.13121      652.13121      1673.9344      2326.0656      1673.9344      2326.0656      1673.9344      2326.0656      2.7733517e+08  0.25           9514750        1.4059165      3416.719       13666.8        5.9936553    
  35029200   70460.876      207.34059     -33387096       1.9276753      209820.46     -33177276       652.13121      652.13121      652.13121      1673.9344      2326.0656      1673.9344      2326.0656      1673.9344      2326.0656      2.7733517e+08  0.25           9514800        1.4207373      3373.6885      13494.472      5.9789473    
  35029400   71516.408      211.38415     -33394598       1.9276753      212963.65     -33181635       652.13121      652.13121      652.13121      1673.9344      2326.0656      1673.9344      2326.0656      1673.9344      2326.0656      2.7733517e+08  0.25           9514850        1.4357453      3331.549       13326.39       5.9650138    
  35029600   72818.539      216.67032     -33396226       1.9276753      216841.17     -33179385       652.13121      652.13121      652.13121      1673.9344      2326.0656      1673.9344      2326.0656      1673.9344      2326.0656      2.7733517e+08  0.25           9514900        1.4503299      3428.2758      13713.141      5.949322     
  35029800   74095.976      222.90501     -33385873       1.9276753      220645.16     -33165228       652.13121      652.13121      652.13121      1673.9344      2326.0656      1673.9344      2326.0656      1673.9344      2326.0656      2.7733517e+08  0.25           9514950        1.4646279      3496.9202      13987.698      5.9324945    
  35030000   75090.736      227.40931     -33384031       1.9276753      223607.39     -33160424       652.13121      652.13121      652.13121      1673.9344      2326.0656      1673.9344      2326.0656      1673.9344      2326.0656      2.7733517e+08  0.25           9515000        1.4795463      3351.5396      13406.034      5.9181971    
  35030200   75683.553      231.40297     -33382912       1.9276753      225372.7      -33157539       652.13121      652.13121      652.13121      1673.9344      2326.0656      1673.9344      2326.0656      1673.9344      2326.0656      2.7733517e+08  0.25           9515050        1.4940114      3456.6995      13827.032      5.9020932    
  35030400   75938.837      237.61501     -33381392       1.9276753      226132.89     -33155260       652.13121      652.13121      652.13121      1673.9344      2326.0656      1673.9344      2326.0656      1673.9344      2326.0656      2.7733517e+08  0.25           9515100        1.5083026      3498.6565      13994.503      5.8853467    
  35030600   76098.942      243.3503      -33377613       1.9276753      226609.65     -33151003       652.13121      652.13121      652.13121      1673.9344      2326.0656      1673.9344      2326.0656      1673.9344      2326.0656      2.7733517e+08  0.25           9515150        1.5223441      3560.8752      14243.626      5.8676844    
  35030800   76439.859      247.90842     -33375725       1.9276753      227624.85     -33148100       652.13121      652.13121      652.13121      1673.9344      2326.0656      1673.9344      2326.0656      1673.9344      2326.0656      2.7733517e+08  0.25           9515200        1.5368109      3456.0759      13824.202      5.8517138    
  35031000   77144.006      253.323       -33374537       1.9276753      229721.68     -33144816       652.13121      652.13121      652.13121      1673.9344      2326.0656      1673.9344      2326.0656      1673.9344      2326.0656      2.7733517e+08  0.25           9515250        1.5509866      3527.2774      14109.268      5.8346718    
  35031200   78235.833      260.05872     -33372962       1.9276753      232972.95     -33139989       652.13121      652.13121      652.13121      1673.9344      2326.0656      1673.9344      2326.0656      1673.9344      2326.0656      2.7733517e+08  0.25           9515300        1.5649102      3590.9938      14363.875      5.8167507    
  35031400   79548.276      265.54485     -33366265       1.9276753      236881.18     -33129384       652.13121      652.13121      652.13121      1673.9344      2326.0656      1673.9344      2326.0656      1673.9344      2326.0656      2.7733517e+08  0.25           9515350        1.57886        3584.3072      14337.212      5.798999     
  35031600   80802.221      269.41212     -33365032       1.9276753      240615.22     -33124416       652.13121      652.13121      652.13121      1673.9344      2326.0656      1673.9344      2326.0656      1673.9344      2326.0656      2.7733517e+08  0.25           9515400        1.5925998      3639.1013      14556.638      5.7805554    
  35031800   81750.884      272.40219     -33365671       1.9276753      243440.17     -33122231       652.13121      652.13121      652.13121      1673.9344      2326.0656      1673.9344      2326.0656      1673.9344      2326.0656      2.7733517e+08  0.25           9515450        1.6067282      3538.9288      14155.291      5.7635936    
  35032000   82296.962      277.80414     -33366300       1.9276753      245066.3      -33121234       652.13121      652.13121      652.13121      1673.9344      2326.0656      1673.9344      2326.0656      1673.9344      2326.0656      2.7733517e+08  0.25           9515500        1.620795       3554.496       14218.434      5.7464619    
  35032200   82533.067      282.30082     -33364653       1.9276753      245769.38     -33118883       652.13121      652.13121      652.13121      1673.9344      2326.0656      1673.9344      2326.0656      1673.9344      2326.0656      2.7733517e+08  0.25           9515550        1.6343173      3697.6204      14790.598      5.7274781    
  35032400   82702.206      286.85178     -33373797       1.9276753      246273.05     -33127524       652.13121      652.13121      652.13121      1673.9344      2326.0656      1673.9344      2326.0656      1673.9344      2326.0656      2.7733517e+08  0.25           9515600        1.6474609      3804.1224      15216.376      5.7072815    
  35032600   83083.672      292.3382      -33370257       1.9276753      247408.99     -33122848       652.13121      652.13121      652.13121      1673.9344      2326.0656      1673.9344      2326.0656      1673.9344      2326.0656      2.7733517e+08  0.25           9515650        1.6611348      3656.5999      14626.486      5.6890249    
  35032800   83846.513      296.32066     -33368608       1.9276753      249680.6      -33118928       652.13121      652.13121      652.13121      1673.9344      2326.0656      1673.9344      2326.0656      1673.9344      2326.0656      2.7733517e+08  0.25           9515700        1.6743403      3786.2774      15144.998      5.6692641    
  35033000   84976.014      303.09946     -33364310       1.9276753      253044.06     -33111266       652.13121      652.13121      652.13121      1673.9344      2326.0656      1673.9344      2326.0656      1673.9344      2326.0656      2.7733517e+08  0.25           9515750        1.6876728      3750.2648      15001.071      5.6500409    
  35033200   86282.017      308.47955     -33369994       1.9276753      256933.11     -33113061       652.13121      652.13121      652.13121      1673.9344      2326.0656      1673.9344      2326.0656      1673.9344      2326.0656      2.7733517e+08  0.25           9515800        1.7009721      3759.5831      15038.276      5.6308108    
  35033400   87499.302      313.12763     -33375679       1.9276753      260557.98     -33115121       652.13121      652.13121      652.13121      1673.9344      2326.0656      1673.9344      2326.0656      1673.9344      2326.0656      2.7733517e+08  0.25           9515850        1.7138651      3878.0989      15512.55       5.6103502    
  35033600   88399.049      317.27877     -33377035       1.9276753      263237.27     -33113798       652.13121      652.13121      652.13121      1673.9344      2326.0656      1673.9344      2326.0656      1673.9344      2326.0656      2.7733517e+08  0.25           9515900        1.726951       3820.8808      15283.5        5.5906439    
  35033800   88909.293      321.51482     -33384990       1.9276753      264756.69     -33120233       652.13121      652.13121      652.13121      1673.9344      2326.0656      1673.9344      2326.0656      1673.9344      2326.0656      2.7733517e+08  0.25           9515950        1.7405363      3680.4661      14718.168      5.5726578    
  35034000   89131.856      326.01386     -33387081       1.9276753      265419.45     -33121661       652.13121      652.13121      652.13121      1673.9344      2326.0656      1673.9344      2326.0656      1673.9344      2326.0656      2.7733517e+08  0.25           9516000        1.7539784      3719.65        14882.341      5.5542704    
  35034200   89317.254      328.16629     -33393909       1.9276753      265971.53     -33127937       652.13121      652.13121      652.13121      1673.9344      2326.0656      1673.9344      2326.0656      1673.9344      2326.0656      2.7733517e+08  0.25           9516050        1.7671828      3786.6195      15146.513      5.5352307    
  35034400   89740.457      332.00219     -33384845       1.9276753      267231.76     -33117613       652.13121      652.13121      652.13121      1673.9344      2326.0656      1673.9344      2326.0656      1673.9344      2326.0656      2.7733517e+08  0.25           9516100        1.7801424      3858.1408      15432.575      5.5155284    
  35034600   90543.861      338.94727     -33381613       1.9276753      269624.16     -33111989       652.13121      652.13121      652.13121      1673.9344      2326.0656      1673.9344      2326.0656      1673.9344      2326.0656      2.7733517e+08  0.25           9516150        1.7935014      3742.799       14971.136      5.4971599    
  35034800   91707.757      345.86876     -33376132       1.9276753      273090.04     -33103042       652.13121      652.13121      652.13121      1673.9344      2326.0656      1673.9344      2326.0656      1673.9344      2326.0656      2.7733517e+08  0.25           9516200        1.806928       3723.9332      14895.809      5.4790773    
  35035000   93020.219      351.05961     -33372544       1.9276753      276998.33     -33095546       652.13121      652.13121      652.13121      1673.9344      2326.0656      1673.9344      2326.0656      1673.9344      2326.0656      2.7733517e+08  0.25           9516250        1.8209123      3575.4494      14301.798      5.4627419    
  35035200   94206.589      355.2983      -33369321       1.9276753      280531.14     -33088789       652.13121      652.13121      652.13121      1673.9344      2326.0656      1673.9344      2326.0656      1673.9344      2326.0656      2.7733517e+08  0.25           9516300        1.8361777      3275.3814      13101.494      5.4502468    
  35035400   95051.335      362.50542     -33372726       1.9276753      283046.64     -33089679       652.13121      652.13121      652.13121      1673.9344      2326.0656      1673.9344      2326.0656      1673.9344      2326.0656      2.7733517e+08  0.25           9516350        1.8506673      3450.7549      13803.032      5.4354293    
  35035600   95511.282      368.10608     -33369131       1.9276753      284416.29     -33084714       652.13121      652.13121      652.13121      1673.9344      2326.0656      1673.9344      2326.0656      1673.9344      2326.0656      2.7733517e+08  0.25           9516400        1.8653061      3415.5777      13662.341      5.4210508    
  35035800   95715.149      373.40125     -33365159       1.9276753      285023.37     -33080135       652.13121      652.13121      652.13121      1673.9344      2326.0656      1673.9344      2326.0656      1673.9344      2326.0656      2.7733517e+08  0.25           9516450        1.8798209      3444.761       13779.031      5.4063114    
  35036000   95920.256      378.38835     -33361556       1.9276753      285634.14     -33075922       652.13121      652.13121      652.13121      1673.9344      2326.0656      1673.9344      2326.0656      1673.9344      2326.0656      2.7733517e+08  0.25           9516500        1.8948847      3319.218       13276.856      5.3931382    
  35036200   96387.657      383.42359     -33360221       1.9276753      287025.98     -33073195       652.13121      652.13121      652.13121      1673.9344      2326.0656      1673.9344      2326.0656      1673.9344      2326.0656      2.7733517e+08  0.25           9516550        1.9095602      3407.0403      13628.179      5.3788422    
  35036400   97245.793      389.28318     -33360398       1.9276753      289581.37     -33070816       652.13121      652.13121      652.13121      1673.9344      2326.0656      1673.9344      2326.0656      1673.9344      2326.0656      2.7733517e+08  0.25           9516600        1.9242972      3392.8261      13571.331      5.3647118    
  35036600   98438.965      395.84564     -33352817       1.9276753      293134.43     -33059683       652.13121      652.13121      652.13121      1673.9344      2326.0656      1673.9344      2326.0656      1673.9344      2326.0656      2.7733517e+08  0.25           9516650        1.9394525      3299.1672      13196.624      5.351727     
  35036800   99747.07       400.88347     -33359617       1.9276753      297029.74     -33062587       652.13121      652.13121      652.13121      1673.9344      2326.0656      1673.9344      2326.0656      1673.9344      2326.0656      2.7733517e+08  0.25           9516700        1.9541436      3403.4348      13613.784      5.3374413    
  35037000   100895.92      405.28214     -33370736       1.9276753      300450.81     -33070285       652.13121      652.13121      652.13121      1673.9344      2326.0656      1673.9344      2326.0656      1673.9344      2326.0656      2.7733517e+08  0.25           9516750        1.9693557      3286.847       13147.342      5.3245588    
  35037200   101690.06      409.18093     -33385256       1.9276753      302815.63     -33082441       652.13121      652.13121      652.13121      1673.9344      2326.0656      1673.9344      2326.0656      1673.9344      2326.0656      2.7733517e+08  0.25           9516800        1.9843014      3345.436       13381.769      5.3109289    
  35037400   102107.72      414.91572     -33385380       1.9276753      304059.37     -33081321       652.13121      652.13121      652.13121      1673.9344      2326.0656      1673.9344      2326.0656      1673.9344      2326.0656      2.7733517e+08  0.25           9516850        1.9992723      3339.826       13359.258      5.2973464    
  35037600   102303.48      420.31066     -33369219       1.9276753      304642.28     -33064576       652.13121      652.13121      652.13121      1673.9344      2326.0656      1673.9344      2326.0656      1673.9344      2326.0656      2.7733517e+08  0.25           9516900        2.0140439      3384.8627      13539.503      5.283221     
  35037800   102532.19      427.43795     -33369115       1.9276753      305323.36     -33063792       652.13121      652.13121      652.13121      1673.9344      2326.0656      1673.9344      2326.0656      1673.9344      2326.0656      2.7733517e+08  0.25           9516950        2.0286509      3423.0187      13692.119      5.2686587    
  35038000   103042.64      434.87766     -33372046       1.9276753      306843.37     -33065203       652.13121      652.13121      652.13121      1673.9344      2326.0656      1673.9344      2326.0656      1673.9344      2326.0656      2.7733517e+08  0.25           9517000        2.043259       3422.7502      13690.977      5.2540988    
  35038200   103956.33      440.07187     -33383088       1.9276753      309564.21     -33073524       652.13121      652.13121      652.13121      1673.9344      2326.0656      1673.9344      2326.0656      1673.9344      2326.0656      2.7733517e+08  0.25           9517050        2.057521       3505.8123      14023.225      5.2386572    
  35038400   105177.54      446.09794     -33381234       1.9276753      313200.75     -33068034       652.13121      652.13121      652.13121      1673.9344      2326.0656      1673.9344      2326.0656      1673.9344      2326.0656      2.7733517e+08  0.25           9517100        2.072668       3300.9833      13203.918      5.2254632    
  35038600   106466.17      454.25502     -33384453       1.9276753      317038.07     -33067415       652.13121      652.13121      652.13121      1673.9344      2326.0656      1673.9344      2326.0656      1673.9344      2326.0656      2.7733517e+08  0.25           9517150        2.0873614      3402.902       13611.559      5.2111095    
  35038800   107554.53      461.00087     -33378710       1.9276753      320279.01     -33058431       652.13121      652.13121      652.13121      1673.9344      2326.0656      1673.9344      2326.0656      1673.9344      2326.0656      2.7733517e+08  0.25           9517200        2.1021237      3387.0061      13548.123      5.196921     
  35039000   108285.1       465.91287     -33377874       1.9276753      322454.55     -33055419       652.13121      652.13121      652.13121      1673.9344      2326.0656      1673.9344      2326.0656      1673.9344      2326.0656      2.7733517e+08  0.25           9517250        2.1167557      3417.1744      13668.659      5.1824059    
  35039200   108667.94      471.91103     -33375100       1.9276753      323594.56     -33051506       652.13121      652.13121      652.13121      1673.9344      2326.0656      1673.9344      2326.0656      1673.9344      2326.0656      2.7733517e+08  0.25           9517300        2.1314549      3401.548       13606.148      5.1680524    
  35039400   108876.67      478.75438     -33376820       1.9276753      324216.14     -33052604       652.13121      652.13121      652.13121      1673.9344      2326.0656      1673.9344      2326.0656      1673.9344      2326.0656      2.7733517e+08  0.25           9517350        2.146417       3341.776       13367.137      5.154325     
  35039600   109162.06      485.68273     -33374327       1.9276753      325065.97     -33049261       652.13121      652.13121      652.13121      1673.9344      2326.0656      1673.9344      2326.0656      1673.9344      2326.0656      2.7733517e+08  0.25           9517400        2.1609749      3434.5615      13738.216      5.13962      
  35039800   109751.55      492.82354     -33368368       1.9276753      326821.36     -33041547       652.13121      652.13121      652.13121      1673.9344      2326.0656      1673.9344      2326.0656      1673.9344      2326.0656      2.7733517e+08  0.25           9517450        2.1754625      3451.2287      13804.98       5.124751     
  35040000   110712.03      498.35522     -33364235       1.9276753      329681.53     -33034553       652.13121      652.13121      652.13121      1673.9344      2326.0656      1673.9344      2326.0656      1673.9344      2326.0656      2.7733517e+08  0.25           9517500        2.1906509      3291.9743      13167.895      5.1115227    
  35040200   111934.27      504.16358     -33367426       1.9276753      333321.14     -33034105       652.13121      652.13121      652.13121      1673.9344      2326.0656      1673.9344      2326.0656      1673.9344      2326.0656      2.7733517e+08  0.25           9517550        2.2053951      3391.1647      13564.665      5.0972415    
  35040400   113169.63      510.31364     -33367334       1.9276753      336999.82     -33030334       652.13121      652.13121      652.13121      1673.9344      2326.0656      1673.9344      2326.0656      1673.9344      2326.0656      2.7733517e+08  0.25           9517600        2.2201302      3393.2753      13573.089      5.0829333    
  35040600   114180.49      518.06475     -33365277       1.9276753      340010.01     -33025267       652.13121      652.13121      652.13121      1673.9344      2326.0656      1673.9344      2326.0656      1673.9344      2326.0656      2.7733517e+08  0.25           9517650        2.2351448      3330.0763      13320.338      5.0692536    
  35040800   114857.24      525.12188     -33371705       1.9276753      342025.26     -33029679       652.13121      652.13121      652.13121      1673.9344      2326.0656      1673.9344      2326.0656      1673.9344      2326.0656      2.7733517e+08  0.25           9517700        2.2506242      3230.0946      12920.324      5.0566011    
  35041000   115246.94      529.25284     -33369183       1.9276753      343185.71     -33025997       652.13121      652.13121      652.13121      1673.9344      2326.0656      1673.9344      2326.0656      1673.9344      2326.0656      2.7733517e+08  0.25           9517750        2.2653934      3385.4443      13541.761      5.042331     
  35041200   115530.37      535.06049     -33366623       1.9276753      344029.71     -33022593       652.13121      652.13121      652.13121      1673.9344      2326.0656      1673.9344      2326.0656      1673.9344      2326.0656      2.7733517e+08  0.25           9517800        2.2802943      3355.5036      13422.026      5.0283448    
  35041400   115929.01      544.17393     -33358516       1.9276753      345216.78     -33013300       652.13121      652.13121      652.13121      1673.9344      2326.0656      1673.9344      2326.0656      1673.9344      2326.0656      2.7733517e+08  0.25           9517850        2.2947742      3453.0573      13812.27       5.0134274    
  35041600   116632.25      552.64348     -33341482       1.9276753      347310.92     -32994171       652.13121      652.13121      652.13121      1673.9344      2326.0656      1673.9344      2326.0656      1673.9344      2326.0656      2.7733517e+08  0.25           9517900        2.3094144      3415.2441      13660.972      4.9988626    
  35041800   117659.77      559.47891     -33352836       1.9276753      350370.71     -33002466       652.13121      652.13121      652.13121      1673.9344      2326.0656      1673.9344      2326.0656      1673.9344      2326.0656      2.7733517e+08  0.25           9517950        2.3240019      3427.5818      13710.334      4.9841837    
  35042000   118847.34      570.20474     -33331604       1.9276753      353907.07     -32977697       652.13121      652.13121      652.13121      1673.9344      2326.0656      1673.9344      2326.0656      1673.9344      2326.0656      2.7733517e+08  0.25           9518000        2.3392125      3287.1986      13148.756      4.9708301    
  35042200   119958.64      577.11845     -33328887       1.9276753      357216.35     -32971670       652.13121      652.13121      652.13121      1673.9344      2326.0656      1673.9344      2326.0656      1673.9344      2326.0656      2.7733517e+08  0.25           9518050        2.3536408      3465.4084      13861.686      4.955806     
  35042400   120828.4       584.28356     -33324611       1.9276753      359806.35     -32964804       652.13121      652.13121      652.13121      1673.9344      2326.0656      1673.9344      2326.0656      1673.9344      2326.0656      2.7733517e+08  0.25           9518100        2.3679848      3485.7846      13943.133      4.9406136    
  35042600   121440.01      593.08812     -33322945       1.9276753      361627.62     -32961317       652.13121      652.13121      652.13121      1673.9344      2326.0656      1673.9344      2326.0656      1673.9344      2326.0656      2.7733517e+08  0.25           9518150        2.3830544      3317.9269      13271.692      4.9269319    
  35042800   121918.83      599.34195     -33321702       1.9276753      363053.47     -32958648       652.13121      652.13121      652.13121      1673.9344      2326.0656      1673.9344      2326.0656      1673.9344      2326.0656      2.7733517e+08  0.25           9518200        2.3975369      3450.833       13803.305      4.9120442    
  35043000   122464.18      604.81494     -33322520       1.9276753      364677.42     -32957843       652.13121      652.13121      652.13121      1673.9344      2326.0656      1673.9344      2326.0656      1673.9344      2326.0656      2.7733517e+08  0.25           9518250        2.412039       3449.3761      13797.523      4.8971736    
  35043200   123292.01      613.7162      -33313928       1.9276753      367142.55     -32946786       652.13121      652.13121      652.13121      1673.9344      2326.0656      1673.9344      2326.0656      1673.9344      2326.0656      2.7733517e+08  0.25           9518300        2.4269828      3345.8911      13383.575      4.8832096    
  35043400   124500.95      623.10212     -33318571       1.9276753      370742.57     -32947828       652.13121      652.13121      652.13121      1673.9344      2326.0656      1673.9344      2326.0656      1673.9344      2326.0656      2.7733517e+08  0.25           9518350        2.4422508      3274.8178      13099.273      4.8698806    
  35043600   125985.38      630.94887     -33311677       1.9276753      375162.95     -32936514       652.13121      652.13121      652.13121      1673.9344      2326.0656      1673.9344      2326.0656      1673.9344      2326.0656      2.7733517e+08  0.25           9518400        2.4573757      3305.8052      13223.178      4.8562458    
  35043800   127456.68      639.21517     -33299699       1.9276753      379544.24     -32920155       652.13121      652.13121      652.13121      1673.9344      2326.0656      1673.9344      2326.0656      1673.9344      2326.0656      2.7733517e+08  0.25           9518450        2.4724176      3324.0599      13296.273      4.8424304    
  35044000   128674         647.11036     -33296657       1.9276753      383169.21     -32913488       652.13121      652.13121      652.13121      1673.9344      2326.0656      1673.9344      2326.0656      1673.9344      2326.0656      2.7733517e+08  0.25           9518500        2.4874334      3329.8257      13319.293      4.8285503    
  35044200   129722.36      654.73372     -33295175       1.9276753      386291.03     -32908884       652.13121      652.13121      652.13121      1673.9344      2326.0656      1673.9344      2326.0656      1673.9344      2326.0656      2.7733517e+08  0.25           9518550        2.5029141      3229.8064      12919.166      4.8155518    
  35044400   130914.17      659.93967     -33301851       1.9276753      389840.04     -32912011       652.13121      652.13121      652.13121      1673.9344      2326.0656      1673.9344      2326.0656      1673.9344      2326.0656      2.7733517e+08  0.25           9518600        2.517997       3314.9906      13259.924      4.8017656    
  35044600   131990.62      667.44564     -33301179       1.9276753      393045.54     -32908133       652.13121      652.13121      652.13121      1673.9344      2326.0656      1673.9344      2326.0656      1673.9344      2326.0656      2.7733517e+08  0.25           9518650        2.533703       3183.485       12733.765      4.7891427    
  35044800   132060.94      674.51327     -33301292       1.9276753      393254.93     -32908037       652.13121      652.13121      652.13121      1673.9344      2326.0656      1673.9344      2326.0656      1673.9344      2326.0656      2.7733517e+08  0.25           9518700        2.550014       3065.4092      12261.597      4.7776171    
  35045000   130725.42      682.14425     -33298460       1.9276753      389277.98     -32909182       652.13121      652.13121      652.13121      1673.9344      2326.0656      1673.9344      2326.0656      1673.9344      2326.0656      2.7733517e+08  0.25           9518750        2.5662364      3082.1787      12328.719      4.7658721    
  35045200   128496.77      689.53226     -33296450       1.9276753      382641.44     -32913809       652.13121      652.13121      652.13121      1673.9344      2326.0656      1673.9344      2326.0656      1673.9344      2326.0656      2.7733517e+08  0.25           9518800        2.582639       3048.2788      12193.179      4.7544081    
  35045400   126703.82      694.88532     -33294138       1.9276753      377302.35     -32916835       652.13121      652.13121      652.13121      1673.9344      2326.0656      1673.9344      2326.0656      1673.9344      2326.0656      2.7733517e+08  0.25           9518850        2.5988916      3076.4511      12305.89       4.7426141    
  35045600   126988.18      701.52216     -33284525       1.9276753      378149.11     -32906376       652.13121      652.13121      652.13121      1673.9344      2326.0656      1673.9344      2326.0656      1673.9344      2326.0656      2.7733517e+08  0.25           9518900        2.614979       3107.9971      12431.915      4.7304719    
  35045800   130439.77      710.53185     -33276876       1.9276753      388427.37     -32888449       652.13121      652.13121      652.13121      1673.9344      2326.0656      1673.9344      2326.0656      1673.9344      2326.0656      2.7733517e+08  0.25           9518950        2.6307497      3170.4685      12681.882      4.7177171    
  35046000   134201.86      720.32562     -33276613       1.9276753      399630.22     -32876983       652.13121      652.13121      652.13121      1673.9344      2326.0656      1673.9344      2326.0656      1673.9344      2326.0656      2.7733517e+08  0.25           9519000        2.647102       3057.6632      12230.615      4.7059631    
  35046200   135598.6       725.11511     -33284506       1.9276753      403789.48     -32880717       652.13121      652.13121      652.13121      1673.9344      2326.0656      1673.9344      2326.0656      1673.9344      2326.0656      2.7733517e+08  0.25           9519050        2.6629861      3147.7843      12591.127      4.6933334    
  35046400   135622.25      730.68277     -33273510       1.9276753      403859.91     -32869650       652.13121      652.13121      652.13121      1673.9344      2326.0656      1673.9344      2326.0656      1673.9344      2326.0656      2.7733517e+08  0.25           9519100        2.6789232      3137.3592      12549.432      4.6807601    
  35046600   135206.89      740.28608     -33260284       1.9276753      402623.03     -32857661       652.13121      652.13121      652.13121      1673.9344      2326.0656      1673.9344      2326.0656      1673.9344      2326.0656      2.7733517e+08  0.25           9519150        2.6952344      3065.3562      12261.505      4.6687981    
  35046800   135036.84      746.96092     -33250868       1.9276753      402116.64     -32848751       652.13121      652.13121      652.13121      1673.9344      2326.0656      1673.9344      2326.0656      1673.9344      2326.0656      2.7733517e+08  0.25           9519200        2.7109291      3185.7882      12743.144      4.6557301    
  35047000   135889         751.796       -33265135       1.9276753      404654.24     -32860481       652.13121      652.13121      652.13121      1673.9344      2326.0656      1673.9344      2326.0656      1673.9344      2326.0656      2.7733517e+08  0.25           9519250        2.7267767      3155.057       12620.18       4.6428941    
  35047200   138755.97      757.73112     -33279384       1.9276753      413191.6      -32866192       652.13121      652.13121      652.13121      1673.9344      2326.0656      1673.9344      2326.0656      1673.9344      2326.0656      2.7733517e+08  0.25           9519300        2.742802       3120.046       12480.158      4.6303259    
  35047400   142794.88      767.43536     -33276244       1.9276753      425218.78     -32851025       652.13121      652.13121      652.13121      1673.9344      2326.0656      1673.9344      2326.0656      1673.9344      2326.0656      2.7733517e+08  0.25           9519350        2.7585552      3173.9313      12695.832      4.6172657    
  35047600   144535.93      775.60753     -33272655       1.9276753      430403.33     -32842251       652.13121      652.13121      652.13121      1673.9344      2326.0656      1673.9344      2326.0656      1673.9344      2326.0656      2.7733517e+08  0.25           9519400        2.7742686      3182.0267      12727.848      4.6041098    
  35047800   143437.23      779.0711      -33270935       1.9276753      427131.57     -32843803       652.13121      652.13121      652.13121      1673.9344      2326.0656      1673.9344      2326.0656      1673.9344      2326.0656      2.7733517e+08  0.25           9519450        2.7900687      3164.5616      12658.523      4.591069     
  35048000   140851.8       787.13604     -33278089       1.9276753      419432.6      -32858657       652.13121      652.13121      652.13121      1673.9344      2326.0656      1673.9344      2326.0656      1673.9344      2326.0656      2.7733517e+08  0.25           9519500        2.8056866      3201.4726      12805.886      4.5777026    
  35048200   138496.75      791.33936     -33275602       1.9276753      412419.67     -32863182       652.13121      652.13121      652.13121      1673.9344      2326.0656      1673.9344      2326.0656      1673.9344      2326.0656      2.7733517e+08  0.25           9519550        2.8213058      3201.1635      12804.663      4.564315     
  35048400   137691.27      794.22449     -33279697       1.9276753      410021.09     -32869676       652.13121      652.13121      652.13121      1673.9344      2326.0656      1673.9344      2326.0656      1673.9344      2326.0656      2.7733517e+08  0.25           9519600        2.8378845      3015.9227      12063.616      4.5524433    
  35048600   139209.29      802.47865     -33279447       1.9276753      414541.5      -32864906       652.13121      652.13121      652.13121      1673.9344      2326.0656      1673.9344      2326.0656      1673.9344      2326.0656      2.7733517e+08  0.25           9519650        2.8536168      3178.1698      12712.65       4.5391766    
  35048800   144306.39      811.14646     -33279182       1.9276753      429719.8      -32849462       652.13121      652.13121      652.13121      1673.9344      2326.0656      1673.9344      2326.0656      1673.9344      2326.0656      2.7733517e+08  0.25           9519700        2.8692822      3191.735       12766.829      4.525779     
  35049000   149105.34      819.36059     -33276538       1.9276753      444010.25     -32832528       652.13121      652.13121      652.13121      1673.9344      2326.0656      1673.9344      2326.0656      1673.9344      2326.0656      2.7733517e+08  0.25           9519750        2.8850585      3169.3206      12677.353      4.5125312    
  35049200   148552.86      826.5069      -33274173       1.9276753      442365.05     -32831808       652.13121      652.13121      652.13121      1673.9344      2326.0656      1673.9344      2326.0656      1673.9344      2326.0656      2.7733517e+08  0.25           9519800        2.9010713      3122.4634      12489.971      4.4996247    
  35049400   146543.55      832.95108     -33258917       1.9276753      436381.67     -32822536       652.13121      652.13121      652.13121      1673.9344      2326.0656      1673.9344      2326.0656      1673.9344      2326.0656      2.7733517e+08  0.25           9519850        2.9172345      3093.4706      12373.794      4.4869177    
  35049600   144349.53      837.00942     -33258396       1.9276753      429848.24     -32828548       652.13121      652.13121      652.13121      1673.9344      2326.0656      1673.9344      2326.0656      1673.9344      2326.0656      2.7733517e+08  0.25           9519900        2.9331087      3149.766       12599.097      4.4737352    
  35049800   143202.97      843.53636     -33255960       1.9276753      426433.99     -32829526       652.13121      652.13121      652.13121      1673.9344      2326.0656      1673.9344      2326.0656      1673.9344      2326.0656      2.7733517e+08  0.25           9519950        2.9503451      2900.8472      11603.436      4.4625857    
  35050000   144156.22      851.73856     -33256930       1.9276753      429272.6      -32827658       652.13121      652.13121      652.13121      1673.9344      2326.0656      1673.9344      2326.0656      1673.9344      2326.0656      2.7733517e+08  0.25           9520000        2.9691434      2659.8035      10639.174      4.4537188    
  35050200   147268.73      862.40472     -33240806       1.9276753      438541.14     -32802264       652.13121      652.13121      652.13121      1673.9344      2326.0656      1673.9344      2326.0656      1673.9344      2326.0656      2.7733517e+08  0.25           9520050        2.9850591      3141.5363      12566.068      4.4404649    
  35050400   150551.55      869.45245     -33224005       1.9276753      448316.82     -32775688       652.13121      652.13121      652.13121      1673.9344      2326.0656      1673.9344      2326.0656      1673.9344      2326.0656      2.7733517e+08  0.25           9520100        3.0010065      3135.3484      12541.422      4.427231     
  35050600   152300.68      876.80646     -33223650       1.9276753      453525.41     -32770125       652.13121      652.13121      652.13121      1673.9344      2326.0656      1673.9344      2326.0656      1673.9344      2326.0656      2.7733517e+08  0.25           9520150        3.0171568      3095.8552      12383.471      4.4142678    
  35050800   152625.55      882.66256     -33221338       1.9276753      454492.81     -32766846       652.13121      652.13121      652.13121      1673.9344      2326.0656      1673.9344      2326.0656      1673.9344      2326.0656      2.7733517e+08  0.25           9520200        3.0332555      3105.8993      12423.556      4.4011977    
  35051000   152167.45      891.07652     -33222427       1.9276753      453128.68     -32769298       652.13121      652.13121      652.13121      1673.9344      2326.0656      1673.9344      2326.0656      1673.9344      2326.0656      2.7733517e+08  0.25           9520250        3.0494247      3092.1871      12368.716      4.388201     
  35051200   151632.95      897.92773     -33230857       1.9276753      451537.02     -32779320       652.13121      652.13121      652.13121      1673.9344      2326.0656      1673.9344      2326.0656      1673.9344      2326.0656      2.7733517e+08  0.25           9520300        3.0654202      3125.9999      12504.022      4.3749234    
  35051400   152046.21      904.80467     -33220746       1.9276753      452767.64     -32767978       652.13121      652.13121      652.13121      1673.9344      2326.0656      1673.9344      2326.0656      1673.9344      2326.0656      2.7733517e+08  0.25           9520350        3.0813189      3144.9047      12579.64       4.3614837    
  35051600   155069.33      912.73751     -33218336       1.9276753      461769.97     -32756566       652.13121      652.13121      652.13121      1673.9344      2326.0656      1673.9344      2326.0656      1673.9344      2326.0656      2.7733517e+08  0.25           9520400        3.0973554      3117.8416      12471.349      4.3482143    
  35051800   159575.18      923.09397     -33215868       1.9276753      475187.63     -32740680       652.13121      652.13121      652.13121      1673.9344      2326.0656      1673.9344      2326.0656      1673.9344      2326.0656      2.7733517e+08  0.25           9520450        3.1132768      3140.4928      12561.971      4.334757     
  35052000   161254.78      932.77612     -33212247       1.9276753      480189.21     -32732058       652.13121      652.13121      652.13121      1673.9344      2326.0656      1673.9344      2326.0656      1673.9344      2326.0656      2.7733517e+08  0.25           9520500        3.12921        3138.087       12552.244      4.3212936    
  35052200   159833.39      938.08974     -33208576       1.9276753      475956.53     -32732619       652.13121      652.13121      652.13121      1673.9344      2326.0656      1673.9344      2326.0656      1673.9344      2326.0656      2.7733517e+08  0.25           9520550        3.145407       3086.9908      12348.043      4.3081675    
  35052400   156648.67      943.97357     -33205642       1.9276753      466472.99     -32739169       652.13121      652.13121      652.13121      1673.9344      2326.0656      1673.9344      2326.0656      1673.9344      2326.0656      2.7733517e+08  0.25           9520600        3.1613017      3145.6963      12582.892      4.2946018    
  35052600   153346.4       949.46195     -33208442       1.9276753      456639.39     -32751803       652.13121      652.13121      652.13121      1673.9344      2326.0656      1673.9344      2326.0656      1673.9344      2326.0656      2.7733517e+08  0.25           9520650        3.1771218      3160.5605      12642.206      4.2809136    
  35052800   151579.31      958.2237      -33201795       1.9276753      451377.3      -32750418       652.13121      652.13121      652.13121      1673.9344      2326.0656      1673.9344      2326.0656      1673.9344      2326.0656      2.7733517e+08  0.25           9520700        3.1928483      3179.332       12717.381      4.2670806    
  35053000   154252.58      968.17247     -33186268       1.9276753      459337.84     -32726931       652.13121      652.13121      652.13121      1673.9344      2326.0656      1673.9344      2326.0656      1673.9344      2326.0656      2.7733517e+08  0.25           9520750        3.2085548      3183.4051      12733.61       4.2532036    
  35053200   161594.36      979.0257      -33181513       1.9276753      481200.42     -32700313       652.13121      652.13121      652.13121      1673.9344      2326.0656      1673.9344      2326.0656      1673.9344      2326.0656      2.7733517e+08  0.25           9520800        3.2244104      3153.4461      12613.744      4.2395058    
  35053400   164162.74      985.53242     -33171187       1.9276753      488848.62     -32682338       652.13121      652.13121      652.13121      1673.9344      2326.0656      1673.9344      2326.0656      1673.9344      2326.0656      2.7733517e+08  0.25           9520850        3.2402355      3159.5535      12638.215      4.2257479    
  35053600   163872.69      994.23198     -33168203       1.9276753      487984.88     -32680219       652.13121      652.13121      652.13121      1673.9344      2326.0656      1673.9344      2326.0656      1673.9344      2326.0656      2.7733517e+08  0.25           9520900        3.2554262      3291.4995      13166.014      4.2111505    
  35053800   162361.03      1000.6366     -33172592       1.9276753      483483.42     -32689109       652.13121      652.13121      652.13121      1673.9344      2326.0656      1673.9344      2326.0656      1673.9344      2326.0656      2.7733517e+08  0.25           9520950        3.2705587      3304.1524      13216.438      4.1964733    
  35054000   160686.57      1006.7508     -33169612       1.9276753      478497.15     -32691115       652.13121      652.13121      652.13121      1673.9344      2326.0656      1673.9344      2326.0656      1673.9344      2326.0656      2.7733517e+08  0.25           9521000        3.2856405      3315.2333      13260.994      4.1817273    
  35054200   160040.68      1016.5152     -33168515       1.9276753      476573.81     -32691942       652.13121      652.13121      652.13121      1673.9344      2326.0656      1673.9344      2326.0656      1673.9344      2326.0656      2.7733517e+08  0.25           9521050        3.300608       3340.5264      13362.107      4.1668341    
  35054400   161682.47      1023.5467     -33172171       1.9276753      481462.8      -32690708       652.13121      652.13121      652.13121      1673.9344      2326.0656      1673.9344      2326.0656      1673.9344      2326.0656      2.7733517e+08  0.25           9521100        3.3154062      3378.8112      13515.328      4.1517278    
  35054600   165707.75      1034.1515     -33162708       1.9276753      493449.39     -32669259       652.13121      652.13121      652.13121      1673.9344      2326.0656      1673.9344      2326.0656      1673.9344      2326.0656      2.7733517e+08  0.25           9521150        3.3305735      3296.5065      13185.917      4.1370835    
  35054800   169012.92      1044.4194     -33148657       1.9276753      503291.63     -32645365       652.13121      652.13121      652.13121      1673.9344      2326.0656      1673.9344      2326.0656      1673.9344      2326.0656      2.7733517e+08  0.25           9521200        3.345938       3254.32        13017.252      4.1226767    
[...]
  35999400   294.6377       1.7730738     -33186633       1.9259195      877.38076     -33185756       652.32933      652.32933      652.32933      1673.8353      2326.1647      1673.8353      2326.1647      1673.8353      2326.1647      2.7758802e+08  0.25           9757350        24.948932      2611.2764      10445.087      0.91381724   
  35999600   298.3663       1.7817184     -33186666       1.9259198      888.48388     -33185778       652.32929      652.32929      652.32929      1673.8354      2326.1646      1673.8354      2326.1646      1673.8354      2326.1646      2.7758796e+08  0.25           9757400        24.968057      2614.4432      10457.835      0.89664302   
  35999800   300.93756      0.86568472    -33186700       1.9258985      896.14068     -33185804       652.33169      652.33169      652.33169      1673.8342      2326.1658      1673.8342      2326.1658      1673.8342      2326.1658      2.7759104e+08  0.25           9757450        24.987042      2633.6511      10534.432      0.87946121   
  36000000   296.17734      2.8137653     -33186733       1.925945       881.96554     -33185851       652.32644      652.32644      652.32644      1673.8368      2326.1632      1673.8368      2326.1632      1673.8368      2326.1632      2.7758434e+08  0.25           9757500        25.008258      2356.6622      9426.8254      0.86235382   
  36000200   306.36979      3.8041653     -33186767       1.925969       912.31693     -33185854       652.32374      652.32374      652.32374      1673.8381      2326.1619      1673.8381      2326.1619      1673.8381      2326.1619      2.7758088e+08  0.25           9757550        25.027872      2549.2435      10196.861      0.84518667   
  36000400   295.34382     -1.9591558     -33186432       1.9258308      879.48347     -33185553       652.33934      652.33934      652.33934      1673.8303      2326.1697      1673.8303      2326.1697      1673.8303      2326.1697      2.776008e+08   0.25           9757600        25.046856      2633.7755      10535.053      0.82799534   
  36000600   307.7305       3.2755214     -33186466       1.925955       916.36889     -33185549       652.32531      652.32531      652.32531      1673.8373      2326.1627      1673.8373      2326.1627      1673.8373      2326.1627      2.7758289e+08  0.25           9757650        25.065857      2631.5215      10526.124      0.81080206   
  36000800   295.26235      1.1801554     -33186500       1.9259071      879.24087     -33185620       652.33073      652.33073      652.33073      1673.8346      2326.1654      1673.8346      2326.1654      1673.8346      2326.1654      2.775898e+08   0.25           9757700        25.085497      2545.7594      10183.022      0.79362654   
  36001000   307.39929     -1.9534436     -33186533       1.9258349      915.38259     -33185618       652.33888      652.33888      652.33888      1673.8306      2326.1694      1673.8306      2326.1694      1673.8306      2326.1694      2.7760021e+08  0.25           9757750        25.105224      2534.6454      10138.608      0.7764503    
  36001200   297.1522       4.5317678     -33186566       1.9259895      884.8685      -33185681       652.32142      652.32142      652.32142      1673.8393      2326.1607      1673.8393      2326.1607      1673.8393      2326.1607      2.7757792e+08  0.25           9757800        25.12464       2575.2179      10300.781      0.75926117   
  36001400   302.04037      0.78060879    -33186600       1.9259034      899.42464     -33185700       652.33114      652.33114      652.33114      1673.8344      2326.1656      1673.8344      2326.1656      1673.8344      2326.1656      2.7759033e+08  0.25           9757850        25.143332      2674.8368      10699.497      0.74204763   
  36001600   300.58654     -4.8630647     -33186632       1.9257729      895.09539     -33185737       652.34588      652.34588      652.34588      1673.8271      2326.1729      1673.8271      2326.1729      1673.8271      2326.1729      2.7760915e+08  0.25           9757900        25.161375      2771.1225      11084.428      0.72481336   
  36001800   294.98318      7.8014343     -33186665       1.9260723      878.40955     -33185786       652.31207      652.31207      652.31207      1673.844       2326.156       1673.844       2326.156       1673.844       2326.156       2.7756599e+08  0.25           9757950        25.179787      2715.745       10863.058      0.70758832   
  36002000   304.48202      5.7797044     -33186698       1.9260258      906.69545     -33185791       652.31733      652.31733      652.31733      1673.8413      2326.1587      1673.8413      2326.1587      1673.8413      2326.1587      2.7757269e+08  0.25           9758000        25.197949      2752.9529      11011.761      0.69035484   
  36002200   291.44187     -10.218829     -33186729       1.9256515      867.86412     -33185861       652.35959      652.35959      652.35959      1673.8202      2326.1798      1673.8202      2326.1798      1673.8202      2326.1798      2.7762665e+08  0.25           9758050        25.216631      2676.3707      10705.518      0.67313396   
  36002400   306.2716      -2.912606      -33186764       1.9258229      912.02453     -33185852       652.34023      652.34023      652.34023      1673.8299      2326.1701      1673.8299      2326.1701      1673.8299      2326.1701      2.7760194e+08  0.25           9758100        25.234372      2818.3188      11273.202      0.65588662   
  36002600   290.55808      12.226317     -33186793       1.9261785      865.23233     -33185928       652.30009      652.30009      652.30009      1673.85        2326.15        1673.85        2326.15        1673.85        2326.15        2.7755069e+08  0.25           9758150        25.252217      2801.9413      11207.693      0.63864123   
  36002800   306.47947      5.5369215     -33186829       1.9260215      912.64352     -33185916       652.31781      652.31781      652.31781      1673.8411      2326.1589      1673.8411      2326.1589      1673.8411      2326.1589      2.7757331e+08  0.25           9758200        25.269818      2840.5978      11362.573      0.62138905   
  36003000   291.69313     -8.0570213     -33186860       1.9257036      868.61232     -33185991       652.35371      652.35371      652.35371      1673.8231      2326.1769      1673.8231      2326.1769      1673.8231      2326.1769      2.7761914e+08  0.25           9758250        25.287695      2796.9559      11187.76       0.60414296   
  36003200   305.19623     -3.3232713     -33186893       1.925815       908.82226     -33185984       652.34113      652.34113      652.34113      1673.8294      2326.1706      1673.8294      2326.1706      1673.8294      2326.1706      2.7760308e+08  0.25           9758300        25.305823      2758.2086      11032.862      0.58690182   
  36003400   293.31725      7.9353404     -33186924       1.9260804      873.44868     -33186050       652.31116      652.31116      652.31116      1673.8444      2326.1556      1673.8444      2326.1556      1673.8444      2326.1556      2.7756482e+08  0.25           9758350        25.323501      2828.3021      11313.233      0.56964938   
  36003600   305.26072      3.9954975     -33186956       1.9259899      909.01431     -33186047       652.32138      652.32138      652.32138      1673.8393      2326.1607      1673.8393      2326.1607      1673.8393      2326.1607      2.7757787e+08  0.25           9758400        25.341098      2841.4         11365.559      0.55239458   
  36003800   302.25655     -4.8583852     -33186988       1.9257853      900.0684      -33186088       652.34448      652.34448      652.34448      1673.8278      2326.1722      1673.8278      2326.1722      1673.8278      2326.1722      2.7760735e+08  0.25           9758450        25.35891       2807.1964      11228.803      0.53514383   
  36004000   297.13897      0.71907487    -33187020       1.9259203      884.82912     -33186136       652.32924      652.32924      652.32924      1673.8354      2326.1646      1673.8354      2326.1646      1673.8354      2326.1646      2.775879e+08   0.25           9758500        25.376709      2809.1109      11236.461      0.51789207   
  36004200   302.37231      5.7880558     -33187052       1.9260442      900.4131      -33186151       652.31525      652.31525      652.31525      1673.8424      2326.1576      1673.8424      2326.1576      1673.8424      2326.1576      2.7757005e+08  0.25           9758550        25.394491      2811.787       11247.062      0.50063924   
  36004400   296.52613     -2.2770213     -33187084       1.9258598      883.00419     -33186201       652.33607      652.33607      652.33607      1673.832       2326.168       1673.832       2326.168       1673.832       2326.168       2.7759662e+08  0.25           9758600        25.41251       2774.8911      11099.576      0.48339019   
  36004600   312.75215     -0.40612339    -33187117       1.925909       931.32249     -33186185       652.33051      652.33051      652.33051      1673.8347      2326.1653      1673.8347      2326.1653      1673.8347      2326.1653      2.7758953e+08  0.25           9758650        25.430199      2826.5707      11306.26       0.46613405   
  36004800   297.57434      5.1800835     -33187148       1.9260458      886.12556     -33186262       652.31507      652.31507      652.31507      1673.8425      2326.1575      1673.8425      2326.1575      1673.8425      2326.1575      2.7756981e+08  0.25           9758700        25.447576      2877.4095      11509.697      0.44887181   
  36005000   300.71179     -0.99449565    -33187181       1.9259059      895.46837     -33186286       652.33086      652.33086      652.33086      1673.8346      2326.1654      1673.8346      2326.1654      1673.8346      2326.1654      2.7758998e+08  0.25           9758750        25.464655      2927.5554      11710.268      0.43160437   
  36005200   297.39644     -1.6409818     -33187213       1.9258959      885.59582     -33186327       652.33199      652.33199      652.33199      1673.834       2326.166       1673.834       2326.166       1673.834       2326.166       2.7759141e+08  0.25           9758800        25.481329      2998.6522      11994.647      0.4143306    
  36005400   318.49283      4.4863062     -33187245       1.9260446      948.41727     -33186297       652.3152       652.3152       652.3152       1673.8424      2326.1576      1673.8424      2326.1576      1673.8424      2326.1576      2.7756998e+08  0.25           9758850        25.498612      2893.0325      11572.096      0.39706712   
  36005600   296.93254      2.2516281     -33187278       1.9259971      884.21439     -33186394       652.32057      652.32057      652.32057      1673.8397      2326.1603      1673.8397      2326.1603      1673.8397      2326.1603      2.7757683e+08  0.25           9758900        25.515538      2954.0401      11816.227      0.3797983    
  36005800   301.67533     -2.8910401     -33187310       1.9258811      898.33763     -33186411       652.33366      652.33366      652.33366      1673.8332      2326.1668      1673.8332      2326.1668      1673.8332      2326.1668      2.7759354e+08  0.25           9758950        25.531797      3075.2395      12301.058      0.36252048   
  36006000   291.63839      0.14941484    -33187342       1.9259575      868.44931     -33186473       652.32503      652.32503      652.32503      1673.8375      2326.1625      1673.8375      2326.1625      1673.8375      2326.1625      2.7758253e+08  0.25           9759000        25.547163      3254.026       13016.052      0.34523196   
  36006200   321.31104      5.2289454     -33187373       1.9260816      956.80942     -33186416       652.31102      652.31102      652.31102      1673.8445      2326.1555      1673.8445      2326.1555      1673.8445      2326.1555      2.7756465e+08  0.25           9759050        25.562259      3312.0286      13248.106      0.32794259   
  36006400   300.55914      3.1934994     -33187406       1.9260399      895.01378     -33186511       652.31573      652.31573      652.31573      1673.8421      2326.1579      1673.8421      2326.1579      1673.8421      2326.1579      2.7757066e+08  0.25           9759100        25.577656      3247.4192      12989.671      0.31065982   
  36006600   297.81203      0.11863405    -33180060       1.9259622      886.83336     -33179173       652.3245       652.3245       652.3245       1673.8378      2326.1622      1673.8378      2326.1622      1673.8378      2326.1622      2.7758185e+08  0.25           9759150        25.592955      3268.1548      13072.647      0.29337847   
  36006800   293.48296      8.4258852     -33180091       1.9261618      873.94214     -33179217       652.30197      652.30197      652.30197      1673.849       2326.151       1673.849       2326.151       1673.849       2326.151       2.7755309e+08  0.25           9759200        25.608971      3121.9536      12487.718      0.27610753   
  36007000   305.15555      11.568292     -33180122       1.9262399      908.70113     -33179213       652.29316      652.29316      652.29316      1673.8534      2326.1466      1673.8534      2326.1466      1673.8534      2326.1466      2.7754185e+08  0.25           9759250        25.624273      3267.4649      13069.975      0.25883106   
  36007200   297.09417      6.9243207     -33180157       1.9261357      884.6957      -33179272       652.30492      652.30492      652.30492      1673.8475      2326.1525      1673.8475      2326.1525      1673.8475      2326.1525      2.7755686e+08  0.25           9759300        25.639659      3249.792       12999.188      0.24155804   
  36007400   303.44794     -0.20385154    -33180191       1.9259731      903.61616     -33179287       652.32327      652.32327      652.32327      1673.8384      2326.1616      1673.8384      2326.1616      1673.8384      2326.1616      2.7758029e+08  0.25           9759350        25.654661      3332.9392      13331.751      0.22428421   
  36007600   288.8921      -3.9584346     -33180223       1.925889       860.27135     -33179363       652.33277      652.33277      652.33277      1673.8336      2326.1664      1673.8336      2326.1664      1673.8336      2326.1664      2.7759241e+08  0.25           9759400        25.669786      3305.7956      13223.165      0.20701442   
  36007800   309.65122     -2.6748993     -33180256       1.9259208      922.08844     -33179334       652.32918      652.32918      652.32918      1673.8354      2326.1646      1673.8354      2326.1646      1673.8354      2326.1646      2.7758783e+08  0.25           9759450        25.684959      3295.243       13180.93       0.18974787   
  36008000   291.37668      2.7249688     -33180289       1.9260475      867.66999     -33179421       652.31487      652.31487      652.31487      1673.8426      2326.1574      1673.8426      2326.1574      1673.8426      2326.1574      2.7756956e+08  0.25           9759500        25.700301      3259.0352      13036.135      0.17248526   
  36008200   309.6817       8.6047267     -33180319       1.9261842      922.17921     -33179397       652.29944      652.29944      652.29944      1673.8503      2326.1497      1673.8503      2326.1497      1673.8503      2326.1497      2.7754987e+08  0.25           9759550        25.71634       3117.323       12469.307      0.15522943   
  36008400   296.99487      9.3508214     -33180351       1.9262025      884.40001     -33179467       652.29737      652.29737      652.29737      1673.8513      2326.1487      1673.8513      2326.1487      1673.8513      2326.1487      2.7754722e+08  0.25           9759600        25.7316        3276.5702      13106.356      0.13797106   
  36008600   302.099        3.9094436     -33180385       1.9260782      899.59923     -33179485       652.31141      652.31141      652.31141      1673.8443      2326.1557      1673.8443      2326.1557      1673.8443      2326.1557      2.7756514e+08  0.25           9759650        25.747359      3172.7771      12691.073      0.1207177    
  36008800   295.06353     -2.2887428     -33180416       1.925937       878.64881     -33179537       652.32735      652.32735      652.32735      1673.8363      2326.1637      1673.8363      2326.1637      1673.8363      2326.1637      2.775855e+08   0.25           9759700        25.762421      3319.7597      13279.034      0.10346355   
  36009000   305.36415     -4.9010542     -33180446       1.9258783      909.3223      -33179537       652.33397      652.33397      652.33397      1673.833       2326.167       1673.833       2326.167       1673.833       2326.167       2.7759395e+08  0.25           9759750        25.777759      3259.8171      13039.233      0.086213248  
  36009200   301.22666     -3.9736808     -33180477       1.9259013      897.00154     -33179580       652.33137      652.33137      652.33137      1673.8343      2326.1657      1673.8343      2326.1657      1673.8343      2326.1657      2.7759063e+08  0.25           9759800        25.792824      3318.9876      13276.009      0.068964775  
  36009400   299.31447     -1.8181568     -33180508       1.9259524      891.30738     -33179617       652.32561      652.32561      652.32561      1673.8372      2326.1628      1673.8372      2326.1628      1673.8372      2326.1628      2.7758327e+08  0.25           9759850        25.808885      3113.0238      12452.054      0.051721217  
  36009600   290.91803     -0.23107563    -33180539       1.9259901      866.30423     -33179672       652.32135      652.32135      652.32135      1673.8393      2326.1607      1673.8393      2326.1607      1673.8393      2326.1607      2.7757784e+08  0.25           9759900        25.82469       3163.6974      12654.813      0.034478894  
  36009800   311.22823      0.11196126    -33180569       1.9259986      926.78453     -33179642       652.32039      652.32039      652.32039      1673.8398      2326.1602      1673.8398      2326.1602      1673.8398      2326.1602      2.7757661e+08  0.25           9759950        25.841525      2969.8994      11879.594      0.017239178  
  36010000   295.96721     -1.0983002     -33180600       1.9259716      881.3398      -33179718       652.32344      652.32344      652.32344      1673.8383      2326.1617      1673.8383      2326.1617      1673.8383      2326.1617      2.775805e+08   0.25           9760000        25.858873      2882.1693      11528.687      0            
Loop time of 25.8589 on 4 procs for 300000 steps with 1000 atoms

Performance: 250.591 ns/day, 0.096 hours/ns, 11601.426 timesteps/s
99.3% CPU use with 4 MPI tasks x 1 OpenMP threads

MPI task timing breakdown:
Section |  min time  |  avg time  |  max time  |%varavg| %total
---------------------------------------------------------------
Pair    | 10.661     | 11.501     | 12.217     |  19.4 | 44.47
Neigh   | 0.0060266  | 0.0067396  | 0.0072035  |   0.6 |  0.03
Comm    | 7.8396     | 8.6055     | 9.3865     |  22.3 | 33.28
Output  | 0.069155   | 0.077474   | 0.10134    |   5.0 |  0.30
Modify  | 4.614      | 4.7016     | 4.8164     |   3.7 | 18.18
Other   |            | 0.9671     |            |       |  3.74

Nlocal:            250 ave         271 max         229 min
Histogram: 1 1 0 0 0 0 0 0 1 1
Nghost:         770.25 ave         797 max         755 min
Histogram: 2 0 0 1 0 0 0 0 0 1
Neighs:           1700 ave        1852 max        1586 min
Histogram: 2 0 0 0 0 0 1 0 0 1

Total # of neighbors = 6800
Ave neighs/atom = 6.8
Neighbor list builds = 37
Dangerous builds = 2

# run_style
run_style verlet

# write restart
write_restart ${write_res}
write_restart ./pgnpmf/5050/equpmf35.res
System init for write_restart ...
Generated 0 of 1 mixed pair_coeff terms from geometric mixing rule

Total wall time: 0:01:17
