LAMMPS (23 Jun 2022 - Update 1)
OMP_NUM_THREADS environment is not set. Defaulting to 1 thread. (src/comm.cpp:98)
  using 1 OpenMP thread(s) per MPI task

# Init #
dimension   3
boundary    p p p
units       real
atom_style  atomic

# Atom Definition #
read_data ${input_data}
read_data ./pgnpmf/73/dat73.dat
Reading data file ...
  orthogonal box = (-100 -100 -100) to (4100 4100 4100)
  1 by 1 by 1 MPI processor grid
  reading atoms ...
  1000 atoms
  read_data CPU = 0.008 seconds

# Settings #
pair_style table spline 9941

pair_coeff 1 1 ./pgnpmf/N20.txt DE_GNP 75.6
pair_coeff 2 2 ./pgnpmf/N100.txt DE_GNP 115.92
WARNING: 3 of 9941 force values in table DE_GNP are inconsistent with -dE/dr.
WARNING:  Should only be flagged at inflection points (src/pair_table.cpp:463)
pair_coeff 1 2 ./pgnpmf/mixed_potential.txt DE_GNP 95.66
WARNING: 1562 of 9941 force values in table DE_GNP are inconsistent with -dE/dr.
WARNING:  Should only be flagged at inflection points (src/pair_table.cpp:463)

# Neighbor list calc frequency #
neigh_modify delay 0 every 1 check yes

# Saving frequency #
variable ts_save equal floor(${steps_gen}*0.01)
variable ts_save equal floor(5000*0.01)

# Dump #
dump 1 all custom 5000 ./pgnpmf/${folder}/generation/trajectory/trajectory_${usic}_${trial}.gen.custom type x y z ix iy iz
dump 1 all custom 5000 ./pgnpmf/73/generation/trajectory/trajectory_${usic}_${trial}.gen.custom type x y z ix iy iz
dump 1 all custom 5000 ./pgnpmf/73/generation/trajectory/trajectory_1_${trial}.gen.custom type x y z ix iy iz
dump 1 all custom 5000 ./pgnpmf/73/generation/trajectory/trajectory_1_1.gen.custom type x y z ix iy iz
dump_modify 1 first no sort id
dump 2 all cfg 5000 ./pgnpmf/${folder}/generation/trajectory/dumpgen.tens_*.cfg mass type xs ys zs fx fy fz
dump 2 all cfg 5000 ./pgnpmf/73/generation/trajectory/dumpgen.tens_*.cfg mass type xs ys zs fx fy fz
dump_modify 2 element N20 N100

# Fix #
fix 1 all momentum 1000 linear 1 1 1 angular

variable T equal ${Temp}
variable T equal 300

# Velocity #
velocity all create ${T} ${Vseed} mom yes rot yes dist gaussian
velocity all create 300 ${Vseed} mom yes rot yes dist gaussian
velocity all create 300 57138 mom yes rot yes dist gaussian

fix 2 all nvt temp ${T} 370000 100.0 #iso 1.0 1.0 1000.0
fix 2 all nvt temp 300 370000 100.0 
run ${steps_gen}
run 5000
Generated 0 of 1 mixed pair_coeff terms from geometric mixing rule
Neighbor list info ...
  update every 1 steps, delay 0 steps, check yes
  max neighbors/atom: 2000, page size: 100000
  master list distance cutoff = 117.92
  ghost atom cutoff = 117.92
  binsize = 58.96, bins = 72 72 72
  1 neighbor lists, perpetual/occasional/extra = 1 0 0
  (1) pair table, perpetual
      attributes: half, newton on
      pair build: half/bin/atomonly/newton
      stencil: half/bin/3d
      bin: standard
Per MPI rank memory allocation (min/avg/max) = 7.485 | 7.485 | 7.485 Mbytes
   Step          Temp          E_pair         E_mol          TotEng         Press     
         0   300            0              0              893.34877      0.00055119596
      5000   357461.68      0              0              1064459.8      0.65677144   
Loop time of 0.102946 on 1 procs for 5000 steps with 1000 atoms

Performance: 4196.368 ns/day, 0.006 hours/ns, 48569.075 timesteps/s
98.2% CPU use with 1 MPI tasks x 1 OpenMP threads

MPI task timing breakdown:
Section |  min time  |  avg time  |  max time  |%varavg| %total
---------------------------------------------------------------
Pair    | 0.013078   | 0.013078   | 0.013078   |   0.0 | 12.70
Neigh   | 0.005949   | 0.005949   | 0.005949   |   0.0 |  5.78
Comm    | 0.005307   | 0.005307   | 0.005307   |   0.0 |  5.16
Output  | 0.0040036  | 0.0040036  | 0.0040036  |   0.0 |  3.89
Modify  | 0.062163   | 0.062163   | 0.062163   |   0.0 | 60.38
Other   |            | 0.01245    |            |       | 12.09

Nlocal:           1000 ave        1000 max        1000 min
Histogram: 1 0 0 0 0 0 0 0 0 0
Nghost:            103 ave         103 max         103 min
Histogram: 1 0 0 0 0 0 0 0 0 0
Neighs:              0 ave           0 max           0 min
Histogram: 1 0 0 0 0 0 0 0 0 0

Total # of neighbors = 0
Ave neighs/atom = 0
Neighbor list builds = 14
Dangerous builds = 0

fix 3 all nvt temp 370000 370000 100.0
run 400000
Generated 0 of 1 mixed pair_coeff terms from geometric mixing rule
WARNING: One or more atoms are time integrated more than once (src/modify.cpp:292)
Per MPI rank memory allocation (min/avg/max) = 7.485 | 7.485 | 7.485 Mbytes
   Step          Temp          E_pair         E_mol          TotEng         Press     
      5000   357461.68      0              0              1064459.8      0.65677144   
    405000   369118.12     -60897.56       0              1038273.2      0.69387841   
Loop time of 14.807 on 1 procs for 400000 steps with 1000 atoms

Performance: 2334.028 ns/day, 0.010 hours/ns, 27014.216 timesteps/s
98.9% CPU use with 1 MPI tasks x 1 OpenMP threads

MPI task timing breakdown:
Section |  min time  |  avg time  |  max time  |%varavg| %total
---------------------------------------------------------------
Pair    | 1.5223     | 1.5223     | 1.5223     |   0.0 | 10.28
Neigh   | 1.2721     | 1.2721     | 1.2721     |   0.0 |  8.59
Comm    | 0.57663    | 0.57663    | 0.57663    |   0.0 |  3.89
Output  | 0.40543    | 0.40543    | 0.40543    |   0.0 |  2.74
Modify  | 9.9939     | 9.9939     | 9.9939     |   0.0 | 67.49
Other   |            | 1.037      |            |       |  7.00

Nlocal:           1000 ave        1000 max        1000 min
Histogram: 1 0 0 0 0 0 0 0 0 0
Nghost:            180 ave         180 max         180 min
Histogram: 1 0 0 0 0 0 0 0 0 0
Neighs:             20 ave          20 max          20 min
Histogram: 1 0 0 0 0 0 0 0 0 0

Total # of neighbors = 20
Ave neighs/atom = 0.02
Neighbor list builds = 3022
Dangerous builds = 0

fix 4 all nvt temp 370000 ${T} 100.0
fix 4 all nvt temp 370000 300 100.0
run ${steps_gen}
run 5000
Generated 0 of 1 mixed pair_coeff terms from geometric mixing rule
WARNING: One or more atoms are time integrated more than once (src/modify.cpp:292)
Per MPI rank memory allocation (min/avg/max) = 7.486 | 7.486 | 7.486 Mbytes
   Step          Temp          E_pair         E_mol          TotEng         Press     
    405000   369118.12     -60897.56       0              1038273.2      0.69387841   
    410000   32950.03      -82947.533      0              15172.03       0.061693767  
Loop time of 0.247611 on 1 procs for 5000 steps with 1000 atoms

Performance: 1744.672 ns/day, 0.014 hours/ns, 20192.965 timesteps/s
99.0% CPU use with 1 MPI tasks x 1 OpenMP threads

MPI task timing breakdown:
Section |  min time  |  avg time  |  max time  |%varavg| %total
---------------------------------------------------------------
Pair    | 0.017106   | 0.017106   | 0.017106   |   0.0 |  6.91
Neigh   | 0.020722   | 0.020722   | 0.020722   |   0.0 |  8.37
Comm    | 0.0070209  | 0.0070209  | 0.0070209  |   0.0 |  2.84
Output  | 0.0055953  | 0.0055953  | 0.0055953  |   0.0 |  2.26
Modify  | 0.18424    | 0.18424    | 0.18424    |   0.0 | 74.41
Other   |            | 0.01293    |            |       |  5.22

Nlocal:           1000 ave        1000 max        1000 min
Histogram: 1 0 0 0 0 0 0 0 0 0
Nghost:            180 ave         180 max         180 min
Histogram: 1 0 0 0 0 0 0 0 0 0
Neighs:             22 ave          22 max          22 min
Histogram: 1 0 0 0 0 0 0 0 0 0

Total # of neighbors = 22
Ave neighs/atom = 0.022
Neighbor list builds = 50
Dangerous builds = 0


# Thermo #
thermo_style custom step temp press pe ke etotal epair lx ly lz xlo xhi ylo yhi zlo zhi vol density dt time

# Run stle #
run_style verlet

# Run #
timestep ${ts}
timestep 1
thermo ${ts_save}
thermo 50
# run ${steps_gen}

# write restart #
write_restart ${write_restart}
write_restart ./pgnpmf/73/genpmf.res
System init for write_restart ...
Generated 0 of 1 mixed pair_coeff terms from geometric mixing rule
WARNING: One or more atoms are time integrated more than once (src/modify.cpp:292)


Total wall time: 0:00:15
