LAMMPS (23 Jun 2022 - Update 1)
# Read restart
read_restart ${read_res}
read_restart ./pgnpmf/73/equpmf24.res
Reading restart file ...
  restart file = 23 Jun 2022, LAMMPS = 23 Jun 2022
  restoring atom style atomic from restart
  orthogonal box = (1700.8792 1700.8792 1700.8792) to (2299.1208 2299.1208 2299.1208)
  2 by 1 by 2 MPI processor grid
  restoring pair style table from restart
  1000 atoms
  read_restart CPU = 0.007 seconds

# Settings

pair_style table spline 9941

pair_coeff 1 1 ./pgnpmf/N20.txt DE_GNP 75.6
pair_coeff 2 2 ./pgnpmf/N100.txt DE_GNP 115.92
WARNING: 3 of 9941 force values in table DE_GNP are inconsistent with -dE/dr.
WARNING:  Should only be flagged at inflection points (../pair_table.cpp:463)
pair_coeff 1 2 ./pgnpmf/mixed_potential.txt DE_GNP 95.66
WARNING: 1562 of 9941 force values in table DE_GNP are inconsistent with -dE/dr.
WARNING:  Should only be flagged at inflection points (../pair_table.cpp:463)

#Neigh_list Calc Frequency

neigh_modify delay 0 every 1 check yes

# Saving Frequency (50 frames)

variable ts_save equal ${steps_equ}
variable ts_save equal 5000

# Dump
#dump 1 all custom ${ts_save} ./pgnpmf/${folder}/equilibration/trajectory/trajectory_${usic}_${trial}.equ.custom type x y z ix iy iz
#dump_modify 1 first no sort id
dump 2 all cfg 50000 ./pgnpmf/${folder}/equilibration/trajectory/dumpgen.tens_*.cfg mass type xs ys zs fx fy fz
dump 2 all cfg 50000 ./pgnpmf/73/equilibration/trajectory/dumpgen.tens_*.cfg mass type xs ys zs fx fy fz
dump_modify 2 element N20 N100

# thermo_style
thermo_style custom step temp press pe density ke etotal lx ly lz xlo xhi ylo yhi zlo zhi vol dt time cpu tpcpu spcpu cpuremain

# run info
timestep ${ts}
timestep 0.5
thermo 200

# fix

fix 1 all momentum 1000 linear 1 1 1 angular
variable T equal ${temp}
variable T equal 300
fix 2 all nvt temp ${T} 370000 100.0
fix 2 all nvt temp 300 370000 100.0

run 100000
Generated 0 of 1 mixed pair_coeff terms from geometric mixing rule
Unused restart file global fix info:
  fix style: npt, fix ID: 5
Neighbor list info ...
  update every 1 steps, delay 0 steps, check yes
  max neighbors/atom: 2000, page size: 100000
  master list distance cutoff = 117.92
  ghost atom cutoff = 117.92
  binsize = 58.96, bins = 11 11 11
  1 neighbor lists, perpetual/occasional/extra = 1 0 0
  (1) pair table, perpetual
      attributes: half, newton on
      pair build: half/bin/atomonly/newton
      stencil: half/bin/3d
      bin: standard
Per MPI rank memory allocation (min/avg/max) = 3.09 | 3.09 | 3.09 Mbytes
   Step          Temp          Press          PotEng        Density         KinEng         TotEng           Lx             Ly             Lz            Xlo            Xhi            Ylo            Yhi            Zlo            Zhi           Volume           Dt            Time           CPU           T/CPU          S/CPU         CPULeft    
  17210000   305.80621      2.8700399     -21754372       2.1864082      910.63867     -21753462       598.2416       598.2416       598.2416       1700.8792      2299.1208      1700.8792      2299.1208      1700.8792      2299.1208      2.1410649e+08  0.5            8810000        0              0              0              0            
  17210200   363.07354      2.9455976     -21754379       2.1864082      1081.171      -21753298       598.2416       598.2416       598.2416       1700.8792      2299.1208      1700.8792      2299.1208      1700.8792      2299.1208      2.1410649e+08  0.5            8810100        0.011627638    8599.7323      17198.139      5.8033495    
  17210400   507.63593      3.1062036     -21754385       2.1864082      1511.6531     -21752873       598.2416       598.2416       598.2416       1700.8792      2299.1208      1700.8792      2299.1208      1700.8792      2299.1208      2.1410649e+08  0.5            8810200        0.022705014    9027.4787      18055.153      5.6540522    
  17210600   755.77228      3.5537528     -21754020       2.1864082      2250.5608     -21751769       598.2416       598.2416       598.2416       1700.8792      2299.1208      1700.8792      2299.1208      1700.8792      2299.1208      2.1410649e+08  0.5            8810300        0.033606879    9172.7618      18345.561      5.5678691    
  17210800   1156.2167      4.2703602     -21754014       2.1864082      3443.016      -21750571       598.2416       598.2416       598.2416       1700.8792      2299.1208      1700.8792      2299.1208      1700.8792      2299.1208      2.1410649e+08  0.5            8810400        0.044676242    9033.9835      18068.071      5.5400825    
  17211000   1779.0782      4.7444444     -21753991       2.1864082      5297.7911     -21748693       598.2416       598.2416       598.2416       1700.8792      2299.1208      1700.8792      2299.1208      1700.8792      2299.1208      2.1410649e+08  0.5            8810500        0.055763081    9019.6628      18039.277      5.5207399    
  17211200   2701.3342      6.0380113     -21753568       2.1864082      8044.1119     -21745524       598.2416       598.2416       598.2416       1700.8792      2299.1208      1700.8792      2299.1208      1700.8792      2299.1208      2.1410649e+08  0.5            8810600        0.066719822    9126.8498      18253.713      5.4934216    
  17211400   3963.4045      7.1377608     -21753465       2.1864082      11802.342     -21741662       598.2416       598.2416       598.2416       1700.8792      2299.1208      1700.8792      2299.1208      1700.8792      2299.1208      2.1410649e+08  0.5            8810700        0.077452664    9317.1785      18634.39       5.4550171    
  17211600   5483.572       8.5131858     -21751396       2.1864082      16329.141     -21735067       598.2416       598.2416       598.2416       1700.8792      2299.1208      1700.8792      2299.1208      1700.8792      2299.1208      2.1410649e+08  0.5            8810800        0.088055462    9431.4585      18862.837      5.4155302    
  17211800   6969.1962      9.5091        -21751134       2.1864082      20753.076     -21730381       598.2416       598.2416       598.2416       1700.8792      2299.1208      1700.8792      2299.1208      1700.8792      2299.1208      2.1410649e+08  0.5            8810900        0.099092959    9059.9923      18120.076      5.406176     
  17212000   7984.4677      11.766004     -21743761       2.1864082      23776.381     -21719984       598.2416       598.2416       598.2416       1700.8792      2299.1208      1700.8792      2299.1208      1700.8792      2299.1208      2.1410649e+08  0.5            8811000        0.10995844     9203.4565      18406.744      5.3880632    
  17212200   8416.8482      12.985155     -21743286       2.1864082      25063.937     -21718222       598.2416       598.2416       598.2416       1700.8792      2299.1208      1700.8792      2299.1208      1700.8792      2299.1208      2.1410649e+08  0.5            8811100        0.12083229     9196.4627      18393.019      5.3716273    
  17212400   8851.5938      15.609339     -21742721       2.1864082      26358.535     -21716362       598.2416       598.2416       598.2416       1700.8792      2299.1208      1700.8792      2299.1208      1700.8792      2299.1208      2.1410649e+08  0.5            8811200        0.13142074     9444.2627      18888.554      5.3445164    
  17212600   9755.4226      20.401629     -21742048       2.1864082      29049.983     -21712998       598.2416       598.2416       598.2416       1700.8792      2299.1208      1700.8792      2299.1208      1700.8792      2299.1208      2.1410649e+08  0.5            8811300        0.14257706     8963.4979      17926.893      5.3412301    
  17212800   10779.821      21.794717     -21744814       2.1864082      32100.466     -21712714       598.2416       598.2416       598.2416       1700.8792      2299.1208      1700.8792      2299.1208      1700.8792      2299.1208      2.1410649e+08  0.5            8811400        0.15324248     9376.1442      18752.39       5.3197668    
  17213000   11485.52       25.643231     -21743858       2.1864082      34201.916     -21709656       598.2416       598.2416       598.2416       1700.8792      2299.1208      1700.8792      2299.1208      1700.8792      2299.1208      2.1410649e+08  0.5            8811500        0.16402365     9275.4415      18550.83       5.3034913    
  17213200   11987.565      30.979615     -21742429       2.1864082      35696.921     -21706732       598.2416       598.2416       598.2416       1700.8792      2299.1208      1700.8792      2299.1208      1700.8792      2299.1208      2.1410649e+08  0.5            8811600        0.17543916     8760.0308      17520.132      5.307087     
  17213400   12680.629      37.665081     -21741247       2.1864082      37760.746     -21703487       598.2416       598.2416       598.2416       1700.8792      2299.1208      1700.8792      2299.1208      1700.8792      2299.1208      2.1410649e+08  0.5            8811700        0.18663361     8932.9278      17865.821      5.3026452    
  17213600   13601.811      43.21165      -21739930       2.1864082      40503.872     -21699426       598.2416       598.2416       598.2416       1700.8792      2299.1208      1700.8792      2299.1208      1700.8792      2299.1208      2.1410649e+08  0.5            8811800        0.19754004     9168.9275      18337.83       5.289734     
  17213800   14433.477      48.392992     -21740005       2.1864082      42980.431     -21697025       598.2416       598.2416       598.2416       1700.8792      2299.1208      1700.8792      2299.1208      1700.8792      2299.1208      2.1410649e+08  0.5            8811900        0.2081365      9437.1086      18874.258      5.2691864    
  17214000   15052.428      51.903912     -21742225       2.1864082      44823.561     -21697401       598.2416       598.2416       598.2416       1700.8792      2299.1208      1700.8792      2299.1208      1700.8792      2299.1208      2.1410649e+08  0.5            8812000        0.21923626     9009.1876      18018.333      5.2617162    
  17214200   15679.986      55.38067      -21740549       2.1864082      46692.319     -21693857       598.2416       598.2416       598.2416       1700.8792      2299.1208      1700.8792      2299.1208      1700.8792      2299.1208      2.1410649e+08  0.5            8812100        0.22998253     9305.5812      18611.142      5.2458344    
  17214400   16490.017      62.070937     -21738776       2.1864082      49104.453     -21689671       598.2416       598.2416       598.2416       1700.8792      2299.1208      1700.8792      2299.1208      1700.8792      2299.1208      2.1410649e+08  0.5            8812200        0.24079125     9251.8004      18503.707      5.2317759    
  17214600   17343.551      69.295675     -21736897       2.1864082      51646.133     -21685251       598.2416       598.2416       598.2416       1700.8792      2299.1208      1700.8792      2299.1208      1700.8792      2299.1208      2.1410649e+08  0.5            8812300        0.2518515      9041.3175      18082.57       5.2232222    
  17214800   18063.041      76.049587     -21731511       2.1864082      53788.652     -21677722       598.2416       598.2416       598.2416       1700.8792      2299.1208      1700.8792      2299.1208      1700.8792      2299.1208      2.1410649e+08  0.5            8812400        0.26256243     9336.2975      18672.579      5.2075255    
  17215000   18705.729      82.413203     -21734600       2.1864082      55702.466     -21678897       598.2416       598.2416       598.2416       1700.8792      2299.1208      1700.8792      2299.1208      1700.8792      2299.1208      2.1410649e+08  0.5            8812500        0.27334624     9273.2129      18546.439      5.1936135    
  17215200   19437.197      90.845556     -21734048       2.1864082      57880.655     -21676167       598.2416       598.2416       598.2416       1700.8792      2299.1208      1700.8792      2299.1208      1700.8792      2299.1208      2.1410649e+08  0.5            8812600        0.28434941     9088.2652      18176.545      5.1839421    
  17215400   20256.355      96.633992     -21731901       2.1864082      60319.967     -21671581       598.2416       598.2416       598.2416       1700.8792      2299.1208      1700.8792      2299.1208      1700.8792      2299.1208      2.1410649e+08  0.5            8812700        0.29522374     9195.9756      18391.931      5.171915     
  17215600   21038.14       103.64816     -21727465       2.1864082      62647.99      -21664817       598.2416       598.2416       598.2416       1700.8792      2299.1208      1700.8792      2299.1208      1700.8792      2299.1208      2.1410649e+08  0.5            8812800        0.30617903     9127.9528      18255.892      5.1613359    
  17215800   21734.55       110.73778     -21728674       2.1864082      64721.779     -21663953       598.2416       598.2416       598.2416       1700.8792      2299.1208      1700.8792      2299.1208      1700.8792      2299.1208      2.1410649e+08  0.5            8812900        0.31698938     9250.4619      18501.015      5.1483731    
  17216000   22436.64       121.67497     -21723561       2.1864082      66812.484     -21656748       598.2416       598.2416       598.2416       1700.8792      2299.1208      1700.8792      2299.1208      1700.8792      2299.1208      2.1410649e+08  0.5            8813000        0.32784519     9211.641       18423.301      5.1362691    
  17216200   23203.609      128.53487     -21723362       2.1864082      69096.385     -21654265       598.2416       598.2416       598.2416       1700.8792      2299.1208      1700.8792      2299.1208      1700.8792      2299.1208      2.1410649e+08  0.5            8813100        0.33883796     9096.8659      18193.727      5.1263187    
  17216400   23991.821      137.52488     -21721301       2.1864082      71443.545     -21649857       598.2416       598.2416       598.2416       1700.8792      2299.1208      1700.8792      2299.1208      1700.8792      2299.1208      2.1410649e+08  0.5            8813200        0.34968872     9215.98        18431.743      5.1142259    
  17216600   24739.319      142.68764     -21717433       2.1864082      73669.468     -21643764       598.2416       598.2416       598.2416       1700.8792      2299.1208      1700.8792      2299.1208      1700.8792      2299.1208      2.1410649e+08  0.5            8813300        0.36056804     9191.7518      18383.634      5.1026101    
  17216800   25440.597      147.19974     -21715533       2.1864082      75757.755     -21639775       598.2416       598.2416       598.2416       1700.8792      2299.1208      1700.8792      2299.1208      1700.8792      2299.1208      2.1410649e+08  0.5            8813400        0.37142285     9212.5134      18425.051      5.0907025    
  17217000   26172.636      155.0176      -21711844       2.1864082      77937.641     -21633907       598.2416       598.2416       598.2416       1700.8792      2299.1208      1700.8792      2299.1208      1700.8792      2299.1208      2.1410649e+08  0.5            8813500        0.38249326     9033.0361      18066.085      5.0817216    
  17217200   26951.726      161.72772     -21710156       2.1864082      80257.639     -21629899       598.2416       598.2416       598.2416       1700.8792      2299.1208      1700.8792      2299.1208      1700.8792      2299.1208      2.1410649e+08  0.5            8813600        0.39373018     8899.2611      17798.498      5.0747684    
  17217400   27716.112      170.1361      -21706687       2.1864082      82533.848     -21624153       598.2416       598.2416       598.2416       1700.8792      2299.1208      1700.8792      2299.1208      1700.8792      2299.1208      2.1410649e+08  0.5            8813700        0.40465032     9157.406       18314.817      5.0636201    
  17217600   28425.522      177.99336     -21705580       2.1864082      84646.35      -21620934       598.2416       598.2416       598.2416       1700.8792      2299.1208      1700.8792      2299.1208      1700.8792      2299.1208      2.1410649e+08  0.5            8813800        0.41554175     9181.5561      18363.134      5.0521343    
  17217800   29126.525      183.89944     -21706067       2.1864082      86733.817     -21619333       598.2416       598.2416       598.2416       1700.8792      2299.1208      1700.8792      2299.1208      1700.8792      2299.1208      2.1410649e+08  0.5            8813900        0.42652128     9107.7949      18215.583      5.0417226    
  17218000   29877.992      186.92307     -21704706       2.1864082      88971.559     -21615735       598.2416       598.2416       598.2416       1700.8792      2299.1208      1700.8792      2299.1208      1700.8792      2299.1208      2.1410649e+08  0.5            8814000        0.4374775      9127.2563      18254.406      5.0310134    
  17218200   30660.089      193.26158     -21708138       2.1864082      91300.51      -21616838       598.2416       598.2416       598.2416       1700.8792      2299.1208      1700.8792      2299.1208      1700.8792      2299.1208      2.1410649e+08  0.5            8814100        0.44834876     9198.5641      18397.255      5.0193394    
  17218400   31397.162      200.47667     -21708748       2.1864082      93495.388     -21615252       598.2416       598.2416       598.2416       1700.8792      2299.1208      1700.8792      2299.1208      1700.8792      2299.1208      2.1410649e+08  0.5            8814200        0.45904673     9347.6071      18695.157      5.0058148    
  17218600   32081.752      206.35576     -21707072       2.1864082      95533.98      -21611538       598.2416       598.2416       598.2416       1700.8792      2299.1208      1700.8792      2299.1208      1700.8792      2299.1208      2.1410649e+08  0.5            8814300        0.4701776      8983.947       17967.901      4.9970239    
  17218800   32801.409      219.79994     -21700246       2.1864082      97676.995     -21602569       598.2416       598.2416       598.2416       1700.8792      2299.1208      1700.8792      2299.1208      1700.8792      2299.1208      2.1410649e+08  0.5            8814400        0.48098972     9248.9689      18497.94       4.9848212    
  17219000   33577.829      223.29952     -21695407       2.1864082      99989.042     -21595417       598.2416       598.2416       598.2416       1700.8792      2299.1208      1700.8792      2299.1208      1700.8792      2299.1208      2.1410649e+08  0.5            8814500        0.49209035     9008.4287      18016.882      4.9755995    
  17219200   34347.317      228.55579     -21698430       2.1864082      102280.45     -21596150       598.2416       598.2416       598.2416       1700.8792      2299.1208      1700.8792      2299.1208      1700.8792      2299.1208      2.1410649e+08  0.5            8814600        0.50333622     8892.1675      17784.191      4.9677289    
  17219400   35053.487      235.92957     -21700043       2.1864082      104383.3      -21595660       598.2416       598.2416       598.2416       1700.8792      2299.1208      1700.8792      2299.1208      1700.8792      2299.1208      2.1410649e+08  0.5            8814700        0.5141846      9217.9942      18436.053      4.9558827    
  17219600   35745.055      243.58163     -21698676       2.1864082      106442.67     -21592233       598.2416       598.2416       598.2416       1700.8792      2299.1208      1700.8792      2299.1208      1700.8792      2299.1208      2.1410649e+08  0.5            8814800        0.52501716     9231.4018      18462.88       4.9439295    
  17219800   36502.384      251.08756     -21698340       2.1864082      108697.87     -21589642       598.2416       598.2416       598.2416       1700.8792      2299.1208      1700.8792      2299.1208      1700.8792      2299.1208      2.1410649e+08  0.5            8814900        0.53584819     9232.7604      18465.541      4.9320073    
  17220000   37282.87       258.60039     -21697055       2.1864082      111022.02     -21586033       598.2416       598.2416       598.2416       1700.8792      2299.1208      1700.8792      2299.1208      1700.8792      2299.1208      2.1410649e+08  0.5            8815000        0.54689945     9048.71        18097.361      4.9221122    
  17220200   38025.064      269.25743     -21694170       2.1864082      113232.15     -21580938       598.2416       598.2416       598.2416       1700.8792      2299.1208      1700.8792      2299.1208      1700.8792      2299.1208      2.1410649e+08  0.5            8815100        0.55791023     9082.0203      18164.163      4.9118144    
  17220400   38726.011      276.72689     -21696423       2.1864082      115319.45     -21581104       598.2416       598.2416       598.2416       1700.8792      2299.1208      1700.8792      2299.1208      1700.8792      2299.1208      2.1410649e+08  0.5            8815200        0.56888559     9111.3284      18222.561      4.9011846    
  17220600   39461.784      283.72226     -21696336       2.1864082      117510.45     -21578825       598.2416       598.2416       598.2416       1700.8792      2299.1208      1700.8792      2299.1208      1700.8792      2299.1208      2.1410649e+08  0.5            8815300        0.58008011     8932.8744      17865.754      4.8923908    
  17220800   40238.251      292.10208     -21692387       2.1864082      119822.64     -21572564       598.2416       598.2416       598.2416       1700.8792      2299.1208      1700.8792      2299.1208      1700.8792      2299.1208      2.1410649e+08  0.5            8815400        0.59138122     8848.7329      17697.417      4.8843871    
  17221000   40995.523      305.5573      -21689549       2.1864082      122077.67     -21567471       598.2416       598.2416       598.2416       1700.8792      2299.1208      1700.8792      2299.1208      1700.8792      2299.1208      2.1410649e+08  0.5            8815500        0.6025197      8977.8937      17955.77       4.8749483    
  17221200   41715.075      311.52779     -21694427       2.1864082      124220.37     -21570207       598.2416       598.2416       598.2416       1700.8792      2299.1208      1700.8792      2299.1208      1700.8792      2299.1208      2.1410649e+08  0.5            8815600        0.61374278     8910.2108      17820.526      4.8661181    
  17221400   42444.471      318.42043     -21697991       2.1864082      126392.39     -21571598       598.2416       598.2416       598.2416       1700.8792      2299.1208      1700.8792      2299.1208      1700.8792      2299.1208      2.1410649e+08  0.5            8815700        0.62447226     9320.1292      18640.288      4.8533687    
  17221600   43214.529      331.38842     -21694820       2.1864082      128685.49     -21566134       598.2416       598.2416       598.2416       1700.8792      2299.1208      1700.8792      2299.1208      1700.8792      2299.1208      2.1410649e+08  0.5            8815800        0.63528778     9245.9913      18491.931      4.8413451    
  17221800   43963.565      339.84809     -21692390       2.1864082      130915.99     -21561474       598.2416       598.2416       598.2416       1700.8792      2299.1208      1700.8792      2299.1208      1700.8792      2299.1208      2.1410649e+08  0.5            8815900        0.64620979     9155.7501      18311.517      4.8301585    
  17222000   44688.845      350.57608     -21685478       2.1864082      133075.75     -21552403       598.2416       598.2416       598.2416       1700.8792      2299.1208      1700.8792      2299.1208      1700.8792      2299.1208      2.1410649e+08  0.5            8816000        0.65705047     9224.5442      18448.927      4.8183846    
  17222200   45424.955      360.01188     -21684668       2.1864082      135267.76     -21549400       598.2416       598.2416       598.2416       1700.8792      2299.1208      1700.8792      2299.1208      1700.8792      2299.1208      2.1410649e+08  0.5            8816100        0.6680111      9123.5906      18247.311      4.8075028    
  17222400   46182.073      369.18986     -21690124       2.1864082      137522.33     -21552602       598.2416       598.2416       598.2416       1700.8792      2299.1208      1700.8792      2299.1208      1700.8792      2299.1208      2.1410649e+08  0.5            8816200        0.67914117     8984.6017      17969.161      4.7978177    
  17222600   46939.168      378.92193     -21691315       2.1864082      139776.83     -21551538       598.2416       598.2416       598.2416       1700.8792      2299.1208      1700.8792      2299.1208      1700.8792      2299.1208      2.1410649e+08  0.5            8816300        0.69021287     9032.0864      18064.197      4.7876802    
  17222800   47667.086      386.1745      -21695752       2.1864082      141944.44     -21553807       598.2416       598.2416       598.2416       1700.8792      2299.1208      1700.8792      2299.1208      1700.8792      2299.1208      2.1410649e+08  0.5            8816400        0.70139023     8946.6621      17893.377      4.7782338    
  17223000   48411.793      395.7472      -21695906       2.1864082      144162.05     -21551744       598.2416       598.2416       598.2416       1700.8792      2299.1208      1700.8792      2299.1208      1700.8792      2299.1208      2.1410649e+08  0.5            8816500        0.71251114     8992.0683      17984.149      4.7683565    
  17223200   49157.755      404.22438     -21691916       2.1864082      146383.4      -21545533       598.2416       598.2416       598.2416       1700.8792      2299.1208      1700.8792      2299.1208      1700.8792      2299.1208      2.1410649e+08  0.5            8816600        0.72336178     9216.0726      18432.099      4.7566639    
  17223400   49918.173      407.9381      -21690241       2.1864082      148647.79     -21541593       598.2416       598.2416       598.2416       1700.8792      2299.1208      1700.8792      2299.1208      1700.8792      2299.1208      2.1410649e+08  0.5            8816700        0.73410587     9307.4408      18614.901      4.744308     
  17223600   50686.207      414.02345     -21695288       2.1864082      150934.87     -21544353       598.2416       598.2416       598.2416       1700.8792      2299.1208      1700.8792      2299.1208      1700.8792      2299.1208      2.1410649e+08  0.5            8816800        0.74539005     8861.9077      17723.781      4.7354314    
  17223800   51436.467      419.34082     -21694110       2.1864082      153169.02     -21540941       598.2416       598.2416       598.2416       1700.8792      2299.1208      1700.8792      2299.1208      1700.8792      2299.1208      2.1410649e+08  0.5            8816900        0.7562997      9166.2759      18332.564      4.7241443    
  17224000   52204.895      429.42308     -21692617       2.1864082      155457.26     -21537160       598.2416       598.2416       598.2416       1700.8792      2299.1208      1700.8792      2299.1208      1700.8792      2299.1208      2.1410649e+08  0.5            8817000        0.76734014     9057.5657      18115.097      4.7136724    
  17224200   53038.7        435.96416     -21697837       2.1864082      157940.19     -21539897       598.2416       598.2416       598.2416       1700.8792      2299.1208      1700.8792      2299.1208      1700.8792      2299.1208      2.1410649e+08  0.5            8817100        0.77812571     9271.6429      18543.315      4.701644     
  17224400   53951.801      446.60819     -21693461       2.1864082      160659.25     -21532802       598.2416       598.2416       598.2416       1700.8792      2299.1208      1700.8792      2299.1208      1700.8792      2299.1208      2.1410649e+08  0.5            8817200        0.78941591     8857.2414      17714.439      4.6926503    
  17224600   55086.753      454.95378     -21682491       2.1864082      164038.94     -21518452       598.2416       598.2416       598.2416       1700.8792      2299.1208      1700.8792      2299.1208      1700.8792      2299.1208      2.1410649e+08  0.5            8817300        0.80056685     8967.8747      17935.782      4.6827788    
  17224800   56610.821      465.48381     -21692137       2.1864082      168577.36     -21523559       598.2416       598.2416       598.2416       1700.8792      2299.1208      1700.8792      2299.1208      1700.8792      2299.1208      2.1410649e+08  0.5            8817400        0.81271459     8231.9805      16464.08       4.6786104    
  17225000   57191.471      469.98551     -21691183       2.1864082      170306.44     -21520877       598.2416       598.2416       598.2416       1700.8792      2299.1208      1700.8792      2299.1208      1700.8792      2299.1208      2.1410649e+08  0.5            8817500        0.82378274     9034.9311      18069.715      4.6681127    
  17225200   55183.125      475.22999     -21694374       2.1864082      164325.92     -21530048       598.2416       598.2416       598.2416       1700.8792      2299.1208      1700.8792      2299.1208      1700.8792      2299.1208      2.1410649e+08  0.5            8817600        0.83470265     9157.6081      18315.3        4.6567723    
  17225400   54360.146      480.01818     -21699319       2.1864082      161875.23     -21537443       598.2416       598.2416       598.2416       1700.8792      2299.1208      1700.8792      2299.1208      1700.8792      2299.1208      2.1410649e+08  0.5            8817700        0.84535351     9388.9         18777.532      4.6439661    
  17225600   57778.919      491.47309     -21700469       2.1864082      172055.75     -21528413       598.2416       598.2416       598.2416       1700.8792      2299.1208      1700.8792      2299.1208      1700.8792      2299.1208      2.1410649e+08  0.5            8817800        0.85657003     8915.3703      17830.844      4.6342743    
  17225800   58683.77       498.00715     -21706850       2.1864082      174750.25     -21532099       598.2416       598.2416       598.2416       1700.8792      2299.1208      1700.8792      2299.1208      1700.8792      2299.1208      2.1410649e+08  0.5            8817900        0.86740501     9229.3902      18458.874      4.6225103    
  17226000   59287.526      501.95418     -21709149       2.1864082      176548.13     -21532601       598.2416       598.2416       598.2416       1700.8792      2299.1208      1700.8792      2299.1208      1700.8792      2299.1208      2.1410649e+08  0.5            8818000        0.8782213      9245.3177      18490.572      4.6106716    
  17226200   60792.195      512.20971     -21712526       2.1864082      181028.78     -21531497       598.2416       598.2416       598.2416       1700.8792      2299.1208      1700.8792      2299.1208      1700.8792      2299.1208      2.1410649e+08  0.5            8818100        0.88956145     8818.2519      17636.507      4.6015682    
  17226400   62523.029      521.57068     -21707065       2.1864082      186182.9      -21520882       598.2416       598.2416       598.2416       1700.8792      2299.1208      1700.8792      2299.1208      1700.8792      2299.1208      2.1410649e+08  0.5            8818200        0.90073243     8951.7757      17903.553      4.591548     
  17226600   63237.739      527.50024     -21704244       2.1864082      188311.19     -21515933       598.2416       598.2416       598.2416       1700.8792      2299.1208      1700.8792      2299.1208      1700.8792      2299.1208      2.1410649e+08  0.5            8818300        0.91154726     9246.5324      18493.034      4.579711     
  17226800   62461.405      533.29473     -21698670       2.1864082      185999.4      -21512671       598.2416       598.2416       598.2416       1700.8792      2299.1208      1700.8792      2299.1208      1700.8792      2299.1208      2.1410649e+08  0.5            8818400        0.92254343     9094.073       18188.199      4.568796     
  17227000   61279.316      542.77795     -21681394       2.1864082      182479.34     -21498914       598.2416       598.2416       598.2416       1700.8792      2299.1208      1700.8792      2299.1208      1700.8792      2299.1208      2.1410649e+08  0.5            8818500        0.9333567      9247.8955      18495.692      4.5569865    
  17227200   63554.847      553.25687     -21664931       2.1864082      189255.48     -21475675       598.2416       598.2416       598.2416       1700.8792      2299.1208      1700.8792      2299.1208      1700.8792      2299.1208      2.1410649e+08  0.5            8818600        0.94432833     9114.4285      18228.897      4.545962     
  17227400   65390.283      561.28127     -21668671       2.1864082      194721.1      -21473950       598.2416       598.2416       598.2416       1700.8792      2299.1208      1700.8792      2299.1208      1700.8792      2299.1208      2.1410649e+08  0.5            8818700        0.95527571     9134.6449      18269.288      4.5348236    
  17227600   65106.455      570.55345     -21674330       2.1864082      193875.91     -21480454       598.2416       598.2416       598.2416       1700.8792      2299.1208      1700.8792      2299.1208      1700.8792      2299.1208      2.1410649e+08  0.5            8818800        0.96634377     9034.9385      18069.802      4.5242551    
  17227800   65693.714      579.92503     -21672334       2.1864082      195624.66     -21476709       598.2416       598.2416       598.2416       1700.8792      2299.1208      1700.8792      2299.1208      1700.8792      2299.1208      2.1410649e+08  0.5            8818900        0.97730019     9127.0689      18254.248      4.5131595    
  17228000   69611.251      588.66965     -21671891       2.1864082      207290.42     -21464600       598.2416       598.2416       598.2416       1700.8792      2299.1208      1700.8792      2299.1208      1700.8792      2299.1208      2.1410649e+08  0.5            8819000        0.98837788     9027.1821      18054.444      4.5026186    
  17228200   68563.146      598.9276      -21669871       2.1864082      204169.34     -21465702       598.2416       598.2416       598.2416       1700.8792      2299.1208      1700.8792      2299.1208      1700.8792      2299.1208      2.1410649e+08  0.5            8819100        0.99983775     8726.1154      17452.136      4.4937849    
  17228400   66432.312      604.52213     -21669416       2.1864082      197824.08     -21471592       598.2416       598.2416       598.2416       1700.8792      2299.1208      1700.8792      2299.1208      1700.8792      2299.1208      2.1410649e+08  0.5            8819200        1.0106551      9244.4254      18488.841      4.4820441    
  17228600   67538.66       614.34241     -21668235       2.1864082      201118.6      -21467117       598.2416       598.2416       598.2416       1700.8792      2299.1208      1700.8792      2299.1208      1700.8792      2299.1208      2.1410649e+08  0.5            8819300        1.0215384      9188.382       18376.786      4.4706117    
  17228800   68980.961      622.19338     -21666696       2.1864082      205413.52     -21461283       598.2416       598.2416       598.2416       1700.8792      2299.1208      1700.8792      2299.1208      1700.8792      2299.1208      2.1410649e+08  0.5            8819400        1.032325       9270.749       18541.565      4.4587733    
  17229000   69728.624      634.3172      -21666705       2.1864082      207639.94     -21459065       598.2416       598.2416       598.2416       1700.8792      2299.1208      1700.8792      2299.1208      1700.8792      2299.1208      2.1410649e+08  0.5            8819500        1.0432518      9151.7968      18303.491      4.4475553    
  17229200   71647.42       639.5636      -21661169       2.1864082      213353.78     -21447815       598.2416       598.2416       598.2416       1700.8792      2299.1208      1700.8792      2299.1208      1700.8792      2299.1208      2.1410649e+08  0.5            8819600        1.0541039      9214.8624      18429.767      4.4360282    
  17229400   72983.112      648.56741     -21661404       2.1864082      217331.24     -21444072       598.2416       598.2416       598.2416       1700.8792      2299.1208      1700.8792      2299.1208      1700.8792      2299.1208      2.1410649e+08  0.5            8819700        1.0649092      9254.7159      18509.485      4.424321     
  17229600   73079.287      655.24831     -21654570       2.1864082      217617.64     -21436952       598.2416       598.2416       598.2416       1700.8792      2299.1208      1700.8792      2299.1208      1700.8792      2299.1208      2.1410649e+08  0.5            8819800        1.0759339      9070.4947      18141.026      4.4135324    
  17229800   73944.303      667.66484     -21650522       2.1864082      220193.51     -21430329       598.2416       598.2416       598.2416       1700.8792      2299.1208      1700.8792      2299.1208      1700.8792      2299.1208      2.1410649e+08  0.5            8819900        1.0867804      9219.6209      18439.187      4.4020169    
  17230000   75696.874      677.9635      -21640111       2.1864082      225412.36     -21414699       598.2416       598.2416       598.2416       1700.8792      2299.1208      1700.8792      2299.1208      1700.8792      2299.1208      2.1410649e+08  0.5            8820000        1.0979544      8949.269       17898.468      4.3918254    
  17230200   75493.922      688.88731     -21631550       2.1864082      224808.01     -21406742       598.2416       598.2416       598.2416       1700.8792      2299.1208      1700.8792      2299.1208      1700.8792      2299.1208      2.1410649e+08  0.5            8820100        1.1088858      9148.0595      18296.179      4.380655     
  17230400   74155.272      701.39875     -21629124       2.1864082      220821.74     -21408302       598.2416       598.2416       598.2416       1700.8792      2299.1208      1700.8792      2299.1208      1700.8792      2299.1208      2.1410649e+08  0.5            8820200        1.1200398      8965.359       17930.694      4.3703586    
  17230600   75972.954      710.93499     -21629333       2.1864082      226234.48     -21403099       598.2416       598.2416       598.2416       1700.8792      2299.1208      1700.8792      2299.1208      1700.8792      2299.1208      2.1410649e+08  0.5            8820300        1.131032       9097.3442      18194.669      4.3594219    
  17230800   78872.099      721.64373     -21632986       2.1864082      234867.64     -21398118       598.2416       598.2416       598.2416       1700.8792      2299.1208      1700.8792      2299.1208      1700.8792      2299.1208      2.1410649e+08  0.5            8820400        1.1420239      9097.5801      18195.213      4.3484829    
  17231000   77947.011      732.16944     -21618453       2.1864082      232112.89     -21386341       598.2416       598.2416       598.2416       1700.8792      2299.1208      1700.8792      2299.1208      1700.8792      2299.1208      2.1410649e+08  0.5            8820500        1.1530366      9080.4929      18160.94       4.337621     
  17231200   76765.456      743.42011     -21615771       2.1864082      228594.42     -21387176       598.2416       598.2416       598.2416       1700.8792      2299.1208      1700.8792      2299.1208      1700.8792      2299.1208      2.1410649e+08  0.5            8820600        1.1639227      9186.0558      18372.137      4.3262852    
  17231400   80871.696      756.13932     -21611202       2.1864082      240822.1      -21370380       598.2416       598.2416       598.2416       1700.8792      2299.1208      1700.8792      2299.1208      1700.8792      2299.1208      2.1410649e+08  0.5            8820700        1.174909       9102.1685      18204.407      4.3153266    
  17231600   81920.967      767.34198     -21601882       2.1864082      243946.65     -21357935       598.2416       598.2416       598.2416       1700.8792      2299.1208      1700.8792      2299.1208      1700.8792      2299.1208      2.1410649e+08  0.5            8820800        1.1857845      9195.0066      18390.01       4.303965     
  17231800   79439.36       774.02805     -21597680       2.1864082      236556.85     -21361123       598.2416       598.2416       598.2416       1700.8792      2299.1208      1700.8792      2299.1208      1700.8792      2299.1208      2.1410649e+08  0.5            8820900        1.196606       9240.8955      18481.75       4.2924188    
  17232000   79224.541      787.32441     -21590928       2.1864082      235917.15     -21355011       598.2416       598.2416       598.2416       1700.8792      2299.1208      1700.8792      2299.1208      1700.8792      2299.1208      2.1410649e+08  0.5            8821000        1.2077835      8946.4876      17892.948      4.2821482    
  17232200   84338.291      798.26156     -21585748       2.1864082      251145.03     -21334603       598.2416       598.2416       598.2416       1700.8792      2299.1208      1700.8792      2299.1208      1700.8792      2299.1208      2.1410649e+08  0.5            8821100        1.2186671      9188.2047      18376.499      4.2708304    
  17232400   83701.733      806.55561     -21584799       2.1864082      249249.47     -21335549       598.2416       598.2416       598.2416       1700.8792      2299.1208      1700.8792      2299.1208      1700.8792      2299.1208      2.1410649e+08  0.5            8821200        1.2294108      9307.7639      18615.443      4.2590364    
  17232600   81981.937      812.5468      -21580938       2.1864082      244128.21     -21336809       598.2416       598.2416       598.2416       1700.8792      2299.1208      1700.8792      2299.1208      1700.8792      2299.1208      2.1410649e+08  0.5            8821300        1.2401468      9314.4743      18628.881      4.2472347    
  17232800   84434.561      823.50706     -21581943       2.1864082      251431.71     -21330512       598.2416       598.2416       598.2416       1700.8792      2299.1208      1700.8792      2299.1208      1700.8792      2299.1208      2.1410649e+08  0.5            8821400        1.2511434      9093.6579      18187.364      4.236334     
  17233000   87979.992      833.5334      -21580199       2.1864082      261989.39     -21318209       598.2416       598.2416       598.2416       1700.8792      2299.1208      1700.8792      2299.1208      1700.8792      2299.1208      2.1410649e+08  0.5            8821500        1.2619533      9250.8213      18501.636      4.2248062    
  17233200   85969.874      841.47691     -21579908       2.1864082      256003.61     -21323904       598.2416       598.2416       598.2416       1700.8792      2299.1208      1700.8792      2299.1208      1700.8792      2299.1208      2.1410649e+08  0.5            8821600        1.272814       9207.4537      18415.002      4.2134593    
  17233400   84625.023      848.12355     -21569729       2.1864082      251998.87     -21317730       598.2416       598.2416       598.2416       1700.8792      2299.1208      1700.8792      2299.1208      1700.8792      2299.1208      2.1410649e+08  0.5            8821700        1.2839989      8940.6581      17881.302      4.2031818    
  17233600   88900.962      859.42715     -21578466       2.1864082      264731.88     -21313734       598.2416       598.2416       598.2416       1700.8792      2299.1208      1700.8792      2299.1208      1700.8792      2299.1208      2.1410649e+08  0.5            8821800        1.2952564      8882.9898      17765.926      4.1931242    
  17233800   91269.023      869.93014     -21584094       2.1864082      271783.56     -21312310       598.2416       598.2416       598.2416       1700.8792      2299.1208      1700.8792      2299.1208      1700.8792      2299.1208      2.1410649e+08  0.5            8821900        1.3063633      9003.388       18006.815      4.1825638    
  17234000   88319.796      875.10023     -21586103       2.1864082      263001.27     -21323102       598.2416       598.2416       598.2416       1700.8792      2299.1208      1700.8792      2299.1208      1700.8792      2299.1208      2.1410649e+08  0.5            8822000        1.3173121      9133.4327      18266.83       4.171494     
  17234200   87252.59       880.50655     -21591289       2.1864082      259823.31     -21331466       598.2416       598.2416       598.2416       1700.8792      2299.1208      1700.8792      2299.1208      1700.8792      2299.1208      2.1410649e+08  0.5            8822100        1.3283378      9069.723       18139.486      4.1606671    
  17234400   91423.437      888.38743     -21589389       2.1864082      272243.38     -21317146       598.2416       598.2416       598.2416       1700.8792      2299.1208      1700.8792      2299.1208      1700.8792      2299.1208      2.1410649e+08  0.5            8822200        1.3391874      9216.9509      18433.92       4.1492909    
  17234600   92824.271      893.98994     -21590417       2.1864082      276414.83     -21314002       598.2416       598.2416       598.2416       1700.8792      2299.1208      1700.8792      2299.1208      1700.8792      2299.1208      2.1410649e+08  0.5            8822300        1.3500944      9168.339       18336.631      4.1380999    
  17234800   91166.764      902.44936     -21579020       2.1864082      271479.06     -21307540       598.2416       598.2416       598.2416       1700.8792      2299.1208      1700.8792      2299.1208      1700.8792      2299.1208      2.1410649e+08  0.5            8822400        1.3608637      9285.7124      18571.444      4.1264955    
  17235000   91173.8        909.49724     -21581014       2.1864082      271500.01     -21309514       598.2416       598.2416       598.2416       1700.8792      2299.1208      1700.8792      2299.1208      1700.8792      2299.1208      2.1410649e+08  0.5            8822500        1.3716385      9280.9242      18561.829      4.114921     
  17235200   95175.304      924.46458     -21572937       2.1864082      283415.8      -21289521       598.2416       598.2416       598.2416       1700.8792      2299.1208      1700.8792      2299.1208      1700.8792      2299.1208      2.1410649e+08  0.5            8822600        1.3825088      9199.3553      18398.755      4.1036426    
  17235400   97139.85       933.09224     -21570646       2.1864082      289265.89     -21281380       598.2416       598.2416       598.2416       1700.8792      2299.1208      1700.8792      2299.1208      1700.8792      2299.1208      2.1410649e+08  0.5            8822700        1.3940058      8697.9038      17395.72       4.0942117    
  17235600   94896.174      939.13153     -21570246       2.1864082      282584.6      -21287661       598.2416       598.2416       598.2416       1700.8792      2299.1208      1700.8792      2299.1208      1700.8792      2299.1208      2.1410649e+08  0.5            8822800        1.4050616      9045.031       18090.093      4.0834658    
  17235800   94150.126      947.50468     -21573868       2.1864082      280363        -21293505       598.2416       598.2416       598.2416       1700.8792      2299.1208      1700.8792      2299.1208      1700.8792      2299.1208      2.1410649e+08  0.5            8822900        1.4161204      9042.628       18085.336      4.0727234    
  17236000   96257.537      957.25944     -21582109       2.1864082      286638.51     -21295470       598.2416       598.2416       598.2416       1700.8792      2299.1208      1700.8792      2299.1208      1700.8792      2299.1208      2.1410649e+08  0.5            8823000        1.4270356      9161.4833      18322.767      4.0615685    
  17236200   99153.557      966.09465     -21573795       2.1864082      295262.36     -21278533       598.2416       598.2416       598.2416       1700.8792      2299.1208      1700.8792      2299.1208      1700.8792      2299.1208      2.1410649e+08  0.5            8823100        1.4380879      9047.9183      18096.017      4.0508022    
  17236400   98696.872      972.97462     -21578847       2.1864082      293902.43     -21284944       598.2416       598.2416       598.2416       1700.8792      2299.1208      1700.8792      2299.1208      1700.8792      2299.1208      2.1410649e+08  0.5            8823200        1.4488907      9256.8113      18513.566      4.0393368    
  17236600   93603.552      972.15337     -21584306       2.1864082      278735.39     -21305570       598.2416       598.2416       598.2416       1700.8792      2299.1208      1700.8792      2299.1208      1700.8792      2299.1208      2.1410649e+08  0.5            8823300        1.4597486      9209.94        18419.873      4.0280331    
  17236800   93843.176      977.8846      -21588837       2.1864082      279448.95     -21309388       598.2416       598.2416       598.2416       1700.8792      2299.1208      1700.8792      2299.1208      1700.8792      2299.1208      2.1410649e+08  0.5            8823400        1.4703425      9439.3801      18878.91       4.0160149    
  17237000   99746.638      989.5053      -21590157       2.1864082      297028.46     -21293129       598.2416       598.2416       598.2416       1700.8792      2299.1208      1700.8792      2299.1208      1700.8792      2299.1208      2.1410649e+08  0.5            8823500        1.481103       9293.213       18586.322      4.0044686    
  17237200   101678.16      992.99884     -21592593       2.1864082      302780.19     -21289812       598.2416       598.2416       598.2416       1700.8792      2299.1208      1700.8792      2299.1208      1700.8792      2299.1208      2.1410649e+08  0.5            8823600        1.4925156      8762.2936      17524.546      3.9946789    
  17237400   102082.83      1004.0135     -21587568       2.1864082      303985.23     -21283582       598.2416       598.2416       598.2416       1700.8792      2299.1208      1700.8792      2299.1208      1700.8792      2299.1208      2.1410649e+08  0.5            8823700        1.5035817      9036.5656      18073.273      3.9839474    
  17237600   101971.77      1008.5192     -21585452       2.1864082      303654.52     -21281797       598.2416       598.2416       598.2416       1700.8792      2299.1208      1700.8792      2299.1208      1700.8792      2299.1208      2.1410649e+08  0.5            8823800        1.5142357      9386.2245      18772.303      3.9721302    
  17237800   103717.75      1013.4695     -21579972       2.1864082      308853.76     -21271118       598.2416       598.2416       598.2416       1700.8792      2299.1208      1700.8792      2299.1208      1700.8792      2299.1208      2.1410649e+08  0.5            8823900        1.5246995      9556.7594      19113.707      3.9598353    
  17238000   106637.05      1021.11       -21573962       2.1864082      317546.93     -21256415       598.2416       598.2416       598.2416       1700.8792      2299.1208      1700.8792      2299.1208      1700.8792      2299.1208      2.1410649e+08  0.5            8824000        1.5354597      9293.4488      18586.666      3.9483298    
  17238200   105421.36      1026.5993     -21573786       2.1864082      313926.81     -21259859       598.2416       598.2416       598.2416       1700.8792      2299.1208      1700.8792      2299.1208      1700.8792      2299.1208      2.1410649e+08  0.5            8824100        1.5461798      9328.2816      18656.692      3.9367318    
  17238400   100286.75      1031.2277     -21571978       2.1864082      298636.81     -21273341       598.2416       598.2416       598.2416       1700.8792      2299.1208      1700.8792      2299.1208      1700.8792      2299.1208      2.1410649e+08  0.5            8824200        1.5572069      9068.5576      18137.041      3.9259205    
  17238600   102442.57      1039.3619     -21570471       2.1864082      305056.49     -21265414       598.2416       598.2416       598.2416       1700.8792      2299.1208      1700.8792      2299.1208      1700.8792      2299.1208      2.1410649e+08  0.5            8824300        1.5683971      8936.3844      17872.775      3.9155134    
  17238800   107748.72      1047.6299     -21576878       2.1864082      320857.29     -21256021       598.2416       598.2416       598.2416       1700.8792      2299.1208      1700.8792      2299.1208      1700.8792      2299.1208      2.1410649e+08  0.5            8824400        1.579269       9198.0547      18396.153      3.9043083    
  17239000   107550.36      1059.2636     -21573504       2.1864082      320266.61     -21253237       598.2416       598.2416       598.2416       1700.8792      2299.1208      1700.8792      2299.1208      1700.8792      2299.1208      2.1410649e+08  0.5            8824500        1.590136       9202.1675      18404.304      3.8930961    
  17239200   107306.72      1064.2728     -21565212       2.1864082      319541.1      -21245671       598.2416       598.2416       598.2416       1700.8792      2299.1208      1700.8792      2299.1208      1700.8792      2299.1208      2.1410649e+08  0.5            8824600        1.6017802      8587.9252      17175.833      3.8837731    
  17239400   110282.08      1075.8197     -21564833       2.1864082      328401.21     -21236432       598.2416       598.2416       598.2416       1700.8792      2299.1208      1700.8792      2299.1208      1700.8792      2299.1208      2.1410649e+08  0.5            8824700        1.6127096      9149.6599      18299.378      3.8727016    
  17239600   113373.63      1089.3189     -21554116       2.1864082      337607.31     -21216508       598.2416       598.2416       598.2416       1700.8792      2299.1208      1700.8792      2299.1208      1700.8792      2299.1208      2.1410649e+08  0.5            8824800        1.6234551      9306.2108      18612.413      3.861195     
  17239800   109666.16      1097.762      -21553799       2.1864082      326567.09     -21227232       598.2416       598.2416       598.2416       1700.8792      2299.1208      1700.8792      2299.1208      1700.8792      2299.1208      2.1410649e+08  0.5            8824900        1.6344698      9078.7617      18157.54       3.8503325    
  17240000   102997.39      1099.9315     -21552410       2.1864082      306708.64     -21245701       598.2416       598.2416       598.2416       1700.8792      2299.1208      1700.8792      2299.1208      1700.8792      2299.1208      2.1410649e+08  0.5            8825000        1.6453625      9180.4932      18360.941      3.8391835    
  17240200   108285.24      1107.3267     -21564588       2.1864082      322454.94     -21242133       598.2416       598.2416       598.2416       1700.8792      2299.1208      1700.8792      2299.1208      1700.8792      2299.1208      2.1410649e+08  0.5            8825100        1.6563747      9080.8112      18161.695      3.8283139    
  17240400   111414.97      1120.6426     -21562386       2.1864082      331774.74     -21230612       598.2416       598.2416       598.2416       1700.8792      2299.1208      1700.8792      2299.1208      1700.8792      2299.1208      2.1410649e+08  0.5            8825200        1.6678796      8691.9509      17383.841      3.8185707    
  17240600   114323.34      1135.2617     -21559385       2.1864082      340435.38     -21218950       598.2416       598.2416       598.2416       1700.8792      2299.1208      1700.8792      2299.1208      1700.8792      2299.1208      2.1410649e+08  0.5            8825300        1.6789399      9041.3575      18082.733      3.8077959    
  17240800   115647.64      1142.9652     -21543435       2.1864082      344378.91     -21199057       598.2416       598.2416       598.2416       1700.8792      2299.1208      1700.8792      2299.1208      1700.8792      2299.1208      2.1410649e+08  0.5            8825400        1.6898796      9141.0335      18282.107      3.7967464    
  17241000   114763.95      1149.2771     -21545106       2.1864082      341747.44     -21203358       598.2416       598.2416       598.2416       1700.8792      2299.1208      1700.8792      2299.1208      1700.8792      2299.1208      2.1410649e+08  0.5            8825500        1.7010823      8926.4004      17852.861      3.7862839    
  17241200   114260.69      1160.6413     -21540546       2.1864082      340248.82     -21200298       598.2416       598.2416       598.2416       1700.8792      2299.1208      1700.8792      2299.1208      1700.8792      2299.1208      2.1410649e+08  0.5            8825600        1.7123068      8909.0987      17818.074      3.7758601    
  17241400   118171.63      1172.1046     -21546856       2.1864082      351894.93     -21194961       598.2416       598.2416       598.2416       1700.8792      2299.1208      1700.8792      2299.1208      1700.8792      2299.1208      2.1410649e+08  0.5            8825700        1.72298        9369.2166      18738.375      3.7642217    
  17241600   120049.76      1179.884      -21540524       2.1864082      357487.7      -21183036       598.2416       598.2416       598.2416       1700.8792      2299.1208      1700.8792      2299.1208      1700.8792      2299.1208      2.1410649e+08  0.5            8825800        1.7338407      9207.5597      18415.16       3.7530009    
  17241800   116124.21      1189.155      -21529506       2.1864082      345798.08     -21183708       598.2416       598.2416       598.2416       1700.8792      2299.1208      1700.8792      2299.1208      1700.8792      2299.1208      2.1410649e+08  0.5            8825900        1.7448471      9085.6147      18171.229      3.7420974    
  17242000   111169.37      1195.087      -21525413       2.1864082      331043.39     -21194369       598.2416       598.2416       598.2416       1700.8792      2299.1208      1700.8792      2299.1208      1700.8792      2299.1208      2.1410649e+08  0.5            8826000        1.7557115      9204.3663      18408.66       3.730891     
  17242200   118090.88      1207.3861     -21524502       2.1864082      351654.48     -21172847       598.2416       598.2416       598.2416       1700.8792      2299.1208      1700.8792      2299.1208      1700.8792      2299.1208      2.1410649e+08  0.5            8826100        1.7670997      8781.0197      17562.049      3.7207916    
  17242400   121382.64      1216.0743     -21522562       2.1864082      361456.77     -21161105       598.2416       598.2416       598.2416       1700.8792      2299.1208      1700.8792      2299.1208      1700.8792      2299.1208      2.1410649e+08  0.5            8826200        1.7781397      9057.9718      18116.039      3.7099495    
  17242600   120935.13      1221.9291     -21515827       2.1864082      360124.16     -21155703       598.2416       598.2416       598.2416       1700.8792      2299.1208      1700.8792      2299.1208      1700.8792      2299.1208      2.1410649e+08  0.5            8826300        1.789159       9074.9454      18149.909      3.6990626    
  17242800   120334.36      1231.9736     -21514120       2.1864082      358335.16     -21155785       598.2416       598.2416       598.2416       1700.8792      2299.1208      1700.8792      2299.1208      1700.8792      2299.1208      2.1410649e+08  0.5            8826400        1.8004765      8835.9291      17671.839      3.6887849    
  17243000   123369.21      1245.9228     -21510172       2.1864082      367372.43     -21142800       598.2416       598.2416       598.2416       1700.8792      2299.1208      1700.8792      2299.1208      1700.8792      2299.1208      2.1410649e+08  0.5            8826500        1.811271       9263.9908      18527.987      3.6774327    
  17243200   127280.79      1258.1081     -21503967       2.1864082      379020.46     -21124947       598.2416       598.2416       598.2416       1700.8792      2299.1208      1700.8792      2299.1208      1700.8792      2299.1208      2.1410649e+08  0.5            8826600        1.8224497      8945.5208      17891.08       3.6668604    
  17243400   123614.69      1262.7594     -21507152       2.1864082      368103.44     -21139048       598.2416       598.2416       598.2416       1700.8792      2299.1208      1700.8792      2299.1208      1700.8792      2299.1208      2.1410649e+08  0.5            8826700        1.8337736      8830.9477      17661.856      3.6565701    
  17243600   116726.82      1266.4576     -21515900       2.1864082      347592.53     -21168307       598.2416       598.2416       598.2416       1700.8792      2299.1208      1700.8792      2299.1208      1700.8792      2299.1208      2.1410649e+08  0.5            8826800        1.8447481      9111.9909      18224.013      3.6455772    
  17243800   121909.58      1276.2104     -21515695       2.1864082      363025.91     -21152669       598.2416       598.2416       598.2416       1700.8792      2299.1208      1700.8792      2299.1208      1700.8792      2299.1208      2.1410649e+08  0.5            8826900        1.855685       9143.3278      18286.622      3.6345109    
  17244000   125196.6       1286.9881     -21512778       2.1864082      372814.1      -21139964       598.2416       598.2416       598.2416       1700.8792      2299.1208      1700.8792      2299.1208      1700.8792      2299.1208      2.1410649e+08  0.5            8827000        1.8668291      8973.3734      17946.65       3.6238485    
  17244200   127203.29      1300.786      -21502599       2.1864082      378789.66     -21123810       598.2416       598.2416       598.2416       1700.8792      2299.1208      1700.8792      2299.1208      1700.8792      2299.1208      2.1410649e+08  0.5            8827100        1.8776477      9243.3538      18486.81       3.6125537    
  17244400   128865.45      1309.3509     -21496482       2.1864082      383739.29     -21112743       598.2416       598.2416       598.2416       1700.8792      2299.1208      1700.8792      2299.1208      1700.8792      2299.1208      2.1410649e+08  0.5            8827200        1.8885305      9188.8548      18377.659      3.6013872    
  17244600   129047.31      1326.3761     -21495826       2.1864082      384280.86     -21111545       598.2416       598.2416       598.2416       1700.8792      2299.1208      1700.8792      2299.1208      1700.8792      2299.1208      2.1410649e+08  0.5            8827300        1.8997171      8939.2347      17878.455      3.5907983    
  17244800   128122.28      1338.1021     -21498606       2.1864082      381526.27     -21117080       598.2416       598.2416       598.2416       1700.8792      2299.1208      1700.8792      2299.1208      1700.8792      2299.1208      2.1410649e+08  0.5            8827400        1.9105975      9190.8546      18381.768      3.5796286    
  17245000   129075.8       1349.0918     -21502433       2.1864082      384365.69     -21118067       598.2416       598.2416       598.2416       1700.8792      2299.1208      1700.8792      2299.1208      1700.8792      2299.1208      2.1410649e+08  0.5            8827500        1.9216047      9084.9733      18169.957      3.5686978    
  17245200   133030.93      1361.8752     -21484346       2.1864082      396143.39     -21088203       598.2416       598.2416       598.2416       1700.8792      2299.1208      1700.8792      2299.1208      1700.8792      2299.1208      2.1410649e+08  0.5            8827600        1.9330714      8720.8243      17441.633      3.5586122    
  17245400   133675.63      1377.9546     -21471459       2.1864082      398063.19     -21073396       598.2416       598.2416       598.2416       1700.8792      2299.1208      1700.8792      2299.1208      1700.8792      2299.1208      2.1410649e+08  0.5            8827700        1.9442541      8942.4386      17884.792      3.5479926    
  17245600   128220.75      1390.9868     -21475083       2.1864082      381819.49     -21093263       598.2416       598.2416       598.2416       1700.8792      2299.1208      1700.8792      2299.1208      1700.8792      2299.1208      2.1410649e+08  0.5            8827800        1.955435       8943.8214      17887.649      3.5373635    
  17245800   124916.17      1396.4324     -21472547       2.1864082      371979.03     -21100568       598.2416       598.2416       598.2416       1700.8792      2299.1208      1700.8792      2299.1208      1700.8792      2299.1208      2.1410649e+08  0.5            8827900        1.9668497      8760.6148      17521.263      3.5271473    
  17246000   133444.7       1413.5007     -21472656       2.1864082      397375.52     -21075281       598.2416       598.2416       598.2416       1700.8792      2299.1208      1700.8792      2299.1208      1700.8792      2299.1208      2.1410649e+08  0.5            8828000        1.977983       8982.0983      17964.166      3.5164176    
  17246200   135036.47      1427.1315     -21472774       2.1864082      402115.56     -21070659       598.2416       598.2416       598.2416       1700.8792      2299.1208      1700.8792      2299.1208      1700.8792      2299.1208      2.1410649e+08  0.5            8828100        1.9892673      8861.8528      17723.723      3.5059496    
  17246400   134396.12      1439.8209     -21470422       2.1864082      400208.7      -21070213       598.2416       598.2416       598.2416       1700.8792      2299.1208      1700.8792      2299.1208      1700.8792      2299.1208      2.1410649e+08  0.5            8828200        2.0006626      8775.4754      17550.94       3.4956667    
  17246600   135246.56      1454.4369     -21465327       2.1864082      402741.17     -21062586       598.2416       598.2416       598.2416       1700.8792      2299.1208      1700.8792      2299.1208      1700.8792      2299.1208      2.1410649e+08  0.5            8828300        2.0120166      8807.5308      17615.031      3.4852998    
  17246800   140002.66      1469.794      -21452056       2.1864082      416904.01     -21035152       598.2416       598.2416       598.2416       1700.8792      2299.1208      1700.8792      2299.1208      1700.8792      2299.1208      2.1410649e+08  0.5            8828400        2.0229821      9119.5411      18239.145      3.474255     
  17247000   140816.95      1481.7698     -21480135       2.1864082      419328.82     -21060806       598.2416       598.2416       598.2416       1700.8792      2299.1208      1700.8792      2299.1208      1700.8792      2299.1208      2.1410649e+08  0.5            8828500        2.0342287      8891.5737      17783.114      3.4636899    
  17247200   132308.87      1486.6958     -21470761       2.1864082      393993.23     -21076768       598.2416       598.2416       598.2416       1700.8792      2299.1208      1700.8792      2299.1208      1700.8792      2299.1208      2.1410649e+08  0.5            8828600        2.0454933      8877.3215      17754.632      3.4531478    
  17247400   130607.28      1503.2295     -21466596       2.1864082      388926.16     -21077670       598.2416       598.2416       598.2416       1700.8792      2299.1208      1700.8792      2299.1208      1700.8792      2299.1208      2.1410649e+08  0.5            8828700        2.0563132      9242.3005      18484.686      3.4418535    
  17247600   137609.52      1519.2417     -21465947       2.1864082      409777.65     -21056169       598.2416       598.2416       598.2416       1700.8792      2299.1208      1700.8792      2299.1208      1700.8792      2299.1208      2.1410649e+08  0.5            8828800        2.0670339      9327.7352      18655.47       3.4303997    
  17247800   139806.53      1531.0125     -21469079       2.1864082      416319.98     -21052759       598.2416       598.2416       598.2416       1700.8792      2299.1208      1700.8792      2299.1208      1700.8792      2299.1208      2.1410649e+08  0.5            8828900        2.0780515      9076.3589      18152.698      3.4194423    
  17248000   141989.75      1547.8634     -21456941       2.1864082      422821.23     -21034120       598.2416       598.2416       598.2416       1700.8792      2299.1208      1700.8792      2299.1208      1700.8792      2299.1208      2.1410649e+08  0.5            8829000        2.0890104      9124.9868      18249.96       3.4083885    
  17248200   143045.19      1557.6152     -21438997       2.1864082      425964.16     -21013033       598.2416       598.2416       598.2416       1700.8792      2299.1208      1700.8792      2299.1208      1700.8792      2299.1208      2.1410649e+08  0.5            8829100        2.1003966      8782.6053      17565.232      3.3980268    
  17248400   142430.91      1567.8015     -21432429       2.1864082      424134.93     -21008294       598.2416       598.2416       598.2416       1700.8792      2299.1208      1700.8792      2299.1208      1700.8792      2299.1208      2.1410649e+08  0.5            8829200        2.1116824      8860.693       17721.339      3.3874935    
  17248600   141672.02      1577.4792     -21425923       2.1864082      421875.07     -21004048       598.2416       598.2416       598.2416       1700.8792      2299.1208      1700.8792      2299.1208      1700.8792      2299.1208      2.1410649e+08  0.5            8829300        2.1225419      9208.5466      18417.185      3.3762741    
  17248800   144453.72      1591.7738     -21423650       2.1864082      430158.51     -20993491       598.2416       598.2416       598.2416       1700.8792      2299.1208      1700.8792      2299.1208      1700.8792      2299.1208      2.1410649e+08  0.5            8829400        2.1333664      9238.325       18476.65       3.3650033    
  17249000   148127.5       1603.36       -21422223       2.1864082      441098.42     -20981125       598.2416       598.2416       598.2416       1700.8792      2299.1208      1700.8792      2299.1208      1700.8792      2299.1208      2.1410649e+08  0.5            8829500        2.1443338      9117.8582      18235.663      3.3539609    
  17249200   146019.71      1612.5313     -21416054       2.1864082      434821.75     -20981232       598.2416       598.2416       598.2416       1700.8792      2299.1208      1700.8792      2299.1208      1700.8792      2299.1208      2.1410649e+08  0.5            8829600        2.1550003      9375.157       18750.314      3.3424523    
  17249400   138548.37      1618.852      -21413647       2.1864082      412573.4      -21001073       598.2416       598.2416       598.2416       1700.8792      2299.1208      1700.8792      2299.1208      1700.8792      2299.1208      2.1410649e+08  0.5            8829700        2.1658664      9202.911       18405.885      3.3312593    
  17249600   141815.17      1633.4654     -21419246       2.1864082      422301.36     -20996945       598.2416       598.2416       598.2416       1700.8792      2299.1208      1700.8792      2299.1208      1700.8792      2299.1208      2.1410649e+08  0.5            8829800        2.1769719      9004.587       18009.211      3.3204345    
  17249800   149184.41      1645.6513     -21418971       2.1864082      444245.69     -20974726       598.2416       598.2416       598.2416       1700.8792      2299.1208      1700.8792      2299.1208      1700.8792      2299.1208      2.1410649e+08  0.5            8829900        2.1876298      9382.7114      18765.453      3.3089301    
  17250000   148682.36      1658.2329     -21413614       2.1864082      442750.69     -20970863       598.2416       598.2416       598.2416       1700.8792      2299.1208      1700.8792      2299.1208      1700.8792      2299.1208      2.1410649e+08  0.5            8830000        2.2007432      7625.7304      15251.348      3.3011178    
  17250200   147066.38      1662.5542     -21411420       2.1864082      437938.57     -20973482       598.2416       598.2416       598.2416       1700.8792      2299.1208      1700.8792      2299.1208      1700.8792      2299.1208      2.1410649e+08  0.5            8830100        2.211935       8935.1859      17870.429      3.2903936    
  17250400   149414.95      1673.3934     -21400415       2.1864082      444932.2      -20955483       598.2416       598.2416       598.2416       1700.8792      2299.1208      1700.8792      2299.1208      1700.8792      2299.1208      2.1410649e+08  0.5            8830200        2.2228738      9141.7697      18283.546      3.2792918    
  17250600   155956.31      1687.3917     -21407198       2.1864082      464411.25     -20942786       598.2416       598.2416       598.2416       1700.8792      2299.1208      1700.8792      2299.1208      1700.8792      2299.1208      2.1410649e+08  0.5            8830300        2.2337017      9235.3508      18470.707      3.2680293    
  17250800   153288.3       1692.8152     -21407228       2.1864082      456466.37     -20950762       598.2416       598.2416       598.2416       1700.8792      2299.1208      1700.8792      2299.1208      1700.8792      2299.1208      2.1410649e+08  0.5            8830400        2.2447662      9037.9753      18075.991      3.2571143    
  17251000   144185.49      1694.8629     -21409698       2.1864082      429359.75     -20980338       598.2416       598.2416       598.2416       1700.8792      2299.1208      1700.8792      2299.1208      1700.8792      2299.1208      2.1410649e+08  0.5            8830500        2.2557672      9090.1009      18180.203      3.2461066    
  17251200   147135.91      1705.6738     -21410224       2.1864082      438145.62     -20972079       598.2416       598.2416       598.2416       1700.8792      2299.1208      1700.8792      2299.1208      1700.8792      2299.1208      2.1410649e+08  0.5            8830600        2.2669526      8940.1945      17880.429      3.235362     
  17251400   151285.94      1717.9513     -21416975       2.1864082      450503.71     -20966471       598.2416       598.2416       598.2416       1700.8792      2299.1208      1700.8792      2299.1208      1700.8792      2299.1208      2.1410649e+08  0.5            8830700        2.278272       8834.3609      17668.662      3.2248032    
  17251600   154754.88      1726.0402     -21408927       2.1864082      460833.6      -20948093       598.2416       598.2416       598.2416       1700.8792      2299.1208      1700.8792      2299.1208      1700.8792      2299.1208      2.1410649e+08  0.5            8830800        2.289457       8940.5446      17881.1        3.2140479    
  17251800   157129.23      1733.9129     -21390053       2.1864082      467904        -20922149       598.2416       598.2416       598.2416       1700.8792      2299.1208      1700.8792      2299.1208      1700.8792      2299.1208      2.1410649e+08  0.5            8830900        2.3007617      8845.8689      17691.717      3.2034555    
  17252000   155925.19      1742.1873     -21384119       2.1864082      464318.59     -20919801       598.2416       598.2416       598.2416       1700.8792      2299.1208      1700.8792      2299.1208      1700.8792      2299.1208      2.1410649e+08  0.5            8831000        2.3119614      8928.821       17857.567      3.1927112    
  17252200   151682         1748.4034     -21381435       2.1864082      451683.11     -20929752       598.2416       598.2416       598.2416       1700.8792      2299.1208      1700.8792      2299.1208      1700.8792      2299.1208      2.1410649e+08  0.5            8831100        2.3230985      8979.0586      17958.174      3.1818767    
  17252400   153661.73      1763.4828     -21379047       2.1864082      457578.38     -20921468       598.2416       598.2416       598.2416       1700.8792      2299.1208      1700.8792      2299.1208      1700.8792      2299.1208      2.1410649e+08  0.5            8831200        2.334088       9099.5197      18199.121      3.1708389    
  17252600   161521.21      1778.717      -21386744       2.1864082      480982.59     -20905762       598.2416       598.2416       598.2416       1700.8792      2299.1208      1700.8792      2299.1208      1700.8792      2299.1208      2.1410649e+08  0.5            8831300        2.3453397      8887.523       17774.976      3.1601552    
  17252800   160312.41      1785.8683     -21392151       2.1864082      477382.98     -20914768       598.2416       598.2416       598.2416       1700.8792      2299.1208      1700.8792      2299.1208      1700.8792      2299.1208      2.1410649e+08  0.5            8831400        2.3565256      8939.8948      17879.676      3.1493778    
  17253000   155370.92      1793.779      -21385904       2.1864082      462668.07     -20923236       598.2416       598.2416       598.2416       1700.8792      2299.1208      1700.8792      2299.1208      1700.8792      2299.1208      2.1410649e+08  0.5            8831500        2.3676239      9010.406       18020.927      3.1384806    
  17253200   155982.41      1800.1747     -21391233       2.1864082      464488.99     -20926744       598.2416       598.2416       598.2416       1700.8792      2299.1208      1700.8792      2299.1208      1700.8792      2299.1208      2.1410649e+08  0.5            8831600        2.3789203      8852.3409      17704.801      3.1278419    
  17253400   165919.17      1818.2732     -21405407       2.1864082      494078.97     -20911329       598.2416       598.2416       598.2416       1700.8792      2299.1208      1700.8792      2299.1208      1700.8792      2299.1208      2.1410649e+08  0.5            8831700        2.3899388      9075.6677      18151.189      3.1168349    
  17253600   163704.86      1826.6701     -21402505       2.1864082      487485.13     -20915020       598.2416       598.2416       598.2416       1700.8792      2299.1208      1700.8792      2299.1208      1700.8792      2299.1208      2.1410649e+08  0.5            8831800        2.4009015      9121.798       18243.564      3.1057558    
  17253800   157327.45      1827.7723     -21377342       2.1864082      468494.28     -20908848       598.2416       598.2416       598.2416       1700.8792      2299.1208      1700.8792      2299.1208      1700.8792      2299.1208      2.1410649e+08  0.5            8831900        2.4120159      8997.4048      17994.916      3.0948719    
  17254000   159646.87      1845.181      -21369876       2.1864082      475401.11     -20894475       598.2416       598.2416       598.2416       1700.8792      2299.1208      1700.8792      2299.1208      1700.8792      2299.1208      2.1410649e+08  0.5            8832000        2.4230202      9087.3031      18174.585      3.0838463    
  17254200   169192.96      1862.5431     -21366603       2.1864082      503827.75     -20862775       598.2416       598.2416       598.2416       1700.8792      2299.1208      1700.8792      2299.1208      1700.8792      2299.1208      2.1410649e+08  0.5            8832100        2.4342777      8882.9969      17766.017      3.0731401    
  17254400   165817.25      1865.9531     -21376596       2.1864082      493775.47     -20882821       598.2416       598.2416       598.2416       1700.8792      2299.1208      1700.8792      2299.1208      1700.8792      2299.1208      2.1410649e+08  0.5            8832200        2.4452661      9100.5002      18200.946      3.0620922    
  17254600   161436.31      1871.5794     -21366464       2.1864082      480729.77     -20885734       598.2416       598.2416       598.2416       1700.8792      2299.1208      1700.8792      2299.1208      1700.8792      2299.1208      2.1410649e+08  0.5            8832300        2.4561898      9154.3638      18308.758      3.0509645    
  17254800   164490.49      1885.6974     -21367103       2.1864082      489824.59     -20877279       598.2416       598.2416       598.2416       1700.8792      2299.1208      1700.8792      2299.1208      1700.8792      2299.1208      2.1410649e+08  0.5            8832400        2.4671628      9113.298       18226.531      3.0398993    
[...]
  17899400   311.09152     -5.1063034     -21728629       2.1872129      926.37741     -21727702       598.16822      598.16822      598.16822      1700.9159      2299.0841      1700.9159      2299.0841      1700.9159      2299.0841      2.1402772e+08  0.5            9154700        19.76899       7234.4321      14468.872      0.72408886   
  17899600   291.28953     -1.8945763     -21726739       2.1872889      867.41047     -21725872       598.1613       598.1613       598.1613       1700.9194      2299.0806      1700.9194      2299.0806      1700.9194      2299.0806      2.1402028e+08  0.5            9154800        19.782737      7274.0086      14548.06       0.71042987   
  17899800   304.67064      8.8020525     -21726744       2.1875374      907.25714     -21725837       598.13865      598.13865      598.13865      1700.9307      2299.0693      1700.9307      2299.0693      1700.9307      2299.0693      2.1399597e+08  0.5            9154900        19.795986      7548.2004      15096.381      0.69675319   
  17900000   284.94597      7.4805202     -21726751       2.1875124      848.52045     -21725902       598.14093      598.14093      598.14093      1700.9295      2299.0705      1700.9295      2299.0705      1700.9295      2299.0705      2.1399842e+08  0.5            9155000        19.811514      6440.0072      12880.007      0.68315571   
  17900200   306.67005     -0.27325797    -21726758       2.1873373      913.21103     -21725844       598.15689      598.15689      598.15689      1700.9216      2299.0784      1700.9216      2299.0784      1700.9216      2299.0784      2.1401555e+08  0.5            9155100        19.825041      7392.4019      14784.796      0.66948802   
  17900400   295.94767     -3.7014407     -21726764       2.1872557      881.28162     -21725883       598.16433      598.16433      598.16433      1700.9178      2299.0822      1700.9178      2299.0822      1700.9178      2299.0822      2.1402353e+08  0.5            9155200        19.838458      7453.0038      14906.061      0.65581687   
  17900600   308.28401     -2.2592721     -21726771       2.1872815      918.01715     -21725853       598.16198      598.16198      598.16198      1700.919       2299.081       1700.919       2299.081       1700.919       2299.081       2.1402101e+08  0.5            9155300        19.851979      7395.8305      14791.592      0.64214944   
  17900800   299.10266      0.93031989    -21726779       2.1873463      890.67666     -21725888       598.15606      598.15606      598.15606      1700.922       2299.078       1700.922       2299.078       1700.922       2299.078       2.1401466e+08  0.5            9155400        19.865465      7415.2181      14830.459      0.62848108   
  17901000   301.31236      0.6169443     -21726787       2.1873323      897.25674     -21725890       598.15734      598.15734      598.15734      1700.9213      2299.0787      1700.9213      2299.0787      1700.9213      2299.0787      2.1401603e+08  0.5            9155500        19.879296      7230.2262      14460.454      0.61482365   
  17901200   297.06509     -5.9129969     -21726796       2.1871771      884.60911     -21725912       598.17149      598.17149      598.17149      1700.9143      2299.0857      1700.9143      2299.0857      1700.9143      2299.0857      2.1403122e+08  0.5            9155600        19.892915      7342.6189      14685.237      0.60115959   
  17901400   300.40035     -11.385232     -21726805       2.1870484      894.54094     -21725910       598.18323      598.18323      598.18323      1700.9084      2299.0916      1700.9084      2299.0916      1700.9084      2299.0916      2.1404382e+08  0.5            9155700        19.906518      7351.6833      14703.349      0.58749509   
  17901600   305.76805      4.7417496     -21726817       2.1874089      910.52503     -21725906       598.15036      598.15036      598.15036      1700.9248      2299.0752      1700.9248      2299.0752      1700.9248      2299.0752      2.1400854e+08  0.5            9155800        19.919743      7561.1542      15122.347      0.57381982   
  17901800   297.35368      5.7304245     -21726825       2.1874231      885.46848     -21725940       598.14907      598.14907      598.14907      1700.9255      2299.0745      1700.9255      2299.0745      1700.9255      2299.0745      2.1400716e+08  0.5            9155900        19.932924      7586.493       15172.953      0.56014392   
  17902000   307.57987     -6.3039633     -21726833       2.1871415      915.92034     -21725917       598.17474      598.17474      598.17474      1700.9126      2299.0874      1700.9126      2299.0874      1700.9126      2299.0874      2.1403471e+08  0.5            9156000        19.946708      7255.0966      14510.246      0.5464852    
  17902200   293.16372      4.1922819     -21726841       2.1873665      872.9915      -21725968       598.15423      598.15423      598.15423      1700.9229      2299.0771      1700.9229      2299.0771      1700.9229      2299.0771      2.1401269e+08  0.5            9156100        19.96031       7351.8903      14703.7        0.53282147   
  17902400   305.71206      2.1706956     -21724952       2.1873076      910.35832     -21724042       598.15959      598.15959      598.15959      1700.9202      2299.0798      1700.9202      2299.0798      1700.9202      2299.0798      2.1401845e+08  0.5            9156200        19.973856      7381.907       14763.838      0.51915638   
  17902600   285.61676      2.4359026     -21724959       2.1873114      850.51795     -21724109       598.15925      598.15925      598.15925      1700.9204      2299.0796      1700.9204      2299.0796      1700.9204      2299.0796      2.1401808e+08  0.5            9156300        19.987445      7359.2025      14718.406      0.5054925    
  17902800   306.05724     -0.93141982    -21724965       2.187234       911.3862      -21724054       598.1663       598.1663       598.1663       1700.9168      2299.0832      1700.9168      2299.0832      1700.9168      2299.0832      2.1402565e+08  0.5            9156400        20.001027      7362.5932      14725.22       0.49182858   
  17903000   294.21078      3.9569781     -21724972       2.1873366      876.10947     -21724096       598.15695      598.15695      598.15695      1700.9215      2299.0785      1700.9215      2299.0785      1700.9215      2299.0785      2.1401561e+08  0.5            9156500        20.014614      7360.2197      14720.422      0.47816488   
  17903200   308.24379     -3.3661352     -21724978       2.1871628      917.89739     -21724060       598.1728       598.1728       598.1728       1700.9136      2299.0864      1700.9136      2299.0864      1700.9136      2299.0864      2.1403263e+08  0.5            9156600        20.028235      7341.4189      14682.832      0.46450208   
  17903400   310.15059      7.0388735     -21724983       2.1873857      923.57549     -21724059       598.15248      598.15248      598.15248      1700.9238      2299.0762      1700.9238      2299.0762      1700.9238      2299.0762      2.1401081e+08  0.5            9156700        20.041886      7325.6177      14651.23       0.45084001   
  17903600   292.17429     -3.8824874     -21724988       2.1871258      870.04513     -21724118       598.17617      598.17617      598.17617      1700.9119      2299.0881      1700.9119      2299.0881      1700.9119      2299.0881      2.1403624e+08  0.5            9156800        20.055321      7443.2685      14886.545      0.43717325   
  17903800   310.25502     -4.0693591     -21724992       2.1871078      923.88648     -21724068       598.17781      598.17781      598.17781      1700.9111      2299.0889      1700.9111      2299.0889      1700.9111      2299.0889      2.1403801e+08  0.5            9156900        20.068934      7345.6614      14691.343      0.42351056   
  17904000   288.02306      0.012979197   -21724997       2.1871943      857.68348     -21724140       598.16992      598.16992      598.16992      1700.915       2299.085       1700.915       2299.085       1700.915       2299.085       2.1402954e+08  0.5            9157000        20.082333      7463.3471      14926.622      0.40984357   
  17904200   303.23822      3.0883568     -21725004       2.1872635      902.99164     -21724101       598.16361      598.16361      598.16361      1700.9182      2299.0818      1700.9182      2299.0818      1700.9182      2299.0818      2.1402276e+08  0.5            9157100        20.095879      7382.1937      14764.433      0.39617984   
  17904400   294.62787      6.7839073     -21725011       2.1873471      877.35148     -21724134       598.156        598.156        598.156        1700.922       2299.078       1700.922       2299.078       1700.922       2299.078       2.1401459e+08  0.5            9157200        20.109347      7424.804       14849.534      0.3825148    
  17904600   295.23183      7.4431078     -21725020       2.187358       879.14998     -21724141       598.155        598.155        598.155        1700.9225      2299.0775      1700.9225      2299.0775      1700.9225      2299.0775      2.1401352e+08  0.5            9157300        20.122791      7438.616       14877.304      0.36884956   
  17904800   301.37168     -3.7483162     -21725030       2.1870999      897.4334      -21724133       598.17853      598.17853      598.17853      1700.9107      2299.0893      1700.9107      2299.0893      1700.9107      2299.0893      2.1403877e+08  0.5            9157400        20.136104      7511.2857      15022.609      0.35518233   
  17905000   297.14658     -3.6624494     -21725038       2.1870981      884.85177     -21724153       598.17869      598.17869      598.17869      1700.9107      2299.0893      1700.9107      2299.0893      1700.9107      2299.0893      2.1403895e+08  0.5            9157500        20.149461      7486.5076      14972.979      0.34151633   
  17905200   309.82574      10.775055     -21725043       2.1874184      922.60814     -21724120       598.14949      598.14949      598.14949      1700.9253      2299.0747      1700.9253      2299.0747      1700.9253      2299.0747      2.1400761e+08  0.5            9157600        20.163125      7318.9709      14637.976      0.32785572   
  17905400   298.2811      -4.4526878     -21725052       2.1870721      888.23017     -21724164       598.18107      598.18107      598.18107      1700.9095      2299.0905      1700.9095      2299.0905      1700.9095      2299.0905      2.140415e+08   0.5            9157700        20.176979      7217.7282      14435.382      0.31419808   
  17905600   303.54257     -1.9698197     -21725061       2.1871258      903.89795     -21724157       598.17617      598.17617      598.17617      1700.9119      2299.0881      1700.9119      2299.0881      1700.9119      2299.0881      2.1403624e+08  0.5            9157800        20.190427      7436.3773      14872.778      0.30053412   
  17905800   293.93175      14.838614     -21725436       2.1875037      875.27856     -21724560       598.14172      598.14172      598.14172      1700.9291      2299.0709      1700.9291      2299.0709      1700.9291      2299.0709      2.1399926e+08  0.5            9157900        20.203779      7489.2965      14978.619      0.2868691    
  17906000   303.96292     -14.053276     -21725445       2.1868563      905.14967     -21724540       598.20074      598.20074      598.20074      1700.8996      2299.1004      1700.8996      2299.1004      1700.8996      2299.1004      2.1406262e+08  0.5            9158000        20.217411      7335.6119      14671.17       0.27320829   
  17906200   295.45215      13.091677     -21725454       2.1874613      879.80604     -21724574       598.14558      598.14558      598.14558      1700.9272      2299.0728      1700.9272      2299.0728      1700.9272      2299.0728      2.1400341e+08  0.5            9158100        20.230979      7370.3596      14740.752      0.25954668   
  17906400   312.21679     -5.1905674     -21725463       2.1870497      929.72828     -21724533       598.1831       598.1831       598.1831       1700.9084      2299.0916      1700.9084      2299.0916      1700.9084      2299.0916      2.1404369e+08  0.5            9158200        20.244552      7367.4952      14734.998      0.24588527   
  17906600   292.41034      2.8241553     -21725469       2.1872238      870.74806     -21724598       598.16724      598.16724      598.16724      1700.9164      2299.0836      1700.9164      2299.0836      1700.9164      2299.0836      2.1402665e+08  0.5            9158300        20.258434      7203.8511      14407.697      0.23222752   
  17906800   304.83779     -1.8747403     -21725474       2.1871122      907.75488     -21724567       598.17741      598.17741      598.17741      1700.9113      2299.0887      1700.9113      2299.0887      1700.9113      2299.0887      2.1403758e+08  0.5            9158400        20.272229      7249.0442      14498.104      0.21856852   
  17907000   282.5588       6.9224742     -21727373       2.18731        841.41187     -21726532       598.15938      598.15938      598.15938      1700.9203      2299.0797      1700.9203      2299.0797      1700.9203      2299.0797      2.1401822e+08  0.5            9158500        20.285686      7431.0552      14862.112      0.20490594   
  17907200   303.58272      9.0321122     -21727376       2.1873573      904.0175      -21726472       598.15506      598.15506      598.15506      1700.9225      2299.0775      1700.9225      2299.0775      1700.9225      2299.0775      2.1401359e+08  0.5            9158600        20.299155      7424.3856      14848.787      0.19124374   
  17907400   296.23745     -2.9647175     -21727381       2.1870962      882.14455     -21726499       598.17887      598.17887      598.17887      1700.9106      2299.0894      1700.9106      2299.0894      1700.9106      2299.0894      2.1403914e+08  0.5            9158700        20.312494      7496.8167      14993.623      0.17758066   
  17907600   299.59716     -3.385344      -21727384       2.1871006      892.14919     -21726491       598.17846      598.17846      598.17846      1700.9108      2299.0892      1700.9108      2299.0892      1700.9108      2299.0892      2.140387e+08   0.5            9158800        20.326298      7244.3085      14488.654      0.16392177   
  17907800   301.4806       2.1075528     -21727386       2.187237       897.75775     -21726488       598.16603      598.16603      598.16603      1700.917       2299.083       1700.917       2299.083       1700.917       2299.083       2.1402536e+08  0.5            9158900        20.340092      7249.5493      14499.026      0.15026261   
  17908000   298.00322     -0.90387471    -21729283       2.1871815      887.40271     -21728395       598.17109      598.17109      598.17109      1700.9145      2299.0855      1700.9145      2299.0855      1700.9145      2299.0855      2.140308e+08   0.5            9159000        20.35386       7263.1885      14526.354      0.1366031    
  17908200   302.76993     -2.5078936     -21729285       2.1871532      901.59714     -21728383       598.17367      598.17367      598.17367      1700.9132      2299.0868      1700.9132      2299.0868      1700.9132      2299.0868      2.1403356e+08  0.5            9159100        20.368056      7043.883       14087.829      0.12294603   
  17908400   294.34729     -2.6133133     -21729288       2.1871628      876.51597     -21728411       598.17279      598.17279      598.17279      1700.9136      2299.0864      1700.9136      2299.0864      1700.9136      2299.0864      2.1403262e+08  0.5            9159200        20.382163      7088.6914      14177.358      0.10928775   
  17908600   304.04783     -3.3422962     -21729291       2.1871585      905.40253     -21728385       598.17319      598.17319      598.17319      1700.9134      2299.0866      1700.9134      2299.0866      1700.9134      2299.0866      2.1403305e+08  0.5            9159300        20.396091      7179.9503      14359.943      0.095628032  
  17908800   293.9447      -4.1707406     -21729293       2.1871458      875.31712     -21728418       598.17434      598.17434      598.17434      1700.9128      2299.0872      1700.9128      2299.0872      1700.9128      2299.0872      2.1403428e+08  0.5            9159400        20.409936      7222.9269      14445.815      0.081967622  
  17909000   311.08563     -2.6039664     -21729296       2.187184       926.35988     -21728370       598.17086      598.17086      598.17086      1700.9146      2299.0854      1700.9146      2299.0854      1700.9146      2299.0854      2.1403055e+08  0.5            9159500        20.423783      7221.7115      14443.423      0.068306973  
  17909200   295.08597      3.9186208     -21729299       2.1873373      878.71562     -21728420       598.15689      598.15689      598.15689      1700.9216      2299.0784      1700.9216      2299.0784      1700.9216      2299.0784      2.1401555e+08  0.5            9159600        20.437681      7195.1883      14390.392      0.054646212  
  17909400   313.74273      5.8172547     -21729303       2.1873855      934.27228     -21728368       598.15249      598.15249      598.15249      1700.9238      2299.0762      1700.9238      2299.0762      1700.9238      2299.0762      2.1401083e+08  0.5            9159700        20.451548      7211.4878      14422.991      0.04098507   
  17909600   289.37969     -1.5570429     -21729307       2.1872228      861.72331     -21728446       598.16732      598.16732      598.16732      1700.9163      2299.0837      1700.9163      2299.0837      1700.9163      2299.0837      2.1402675e+08  0.5            9159800        20.465571      7131.306       14262.568      0.027323862  
  17909800   308.23223     -4.9359646     -21729312       2.1871534      917.86294     -21728394       598.17365      598.17365      598.17365      1700.9132      2299.0868      1700.9132      2299.0868      1700.9132      2299.0868      2.1403355e+08  0.5            9159900        20.479693      7080.9238      14161.898      0.013662238  
  17910000   284.89944     -0.20723439    -21729318       2.1872717      848.38187     -21728469       598.16287      598.16287      598.16287      1700.9186      2299.0814      1700.9186      2299.0814      1700.9186      2299.0814      2.1402196e+08  0.5            9160000        20.493736      7121.2107      14242.353      0            
Loop time of 20.4938 on 4 procs for 300000 steps with 1000 atoms

Performance: 632.388 ns/day, 0.038 hours/ns, 14638.600 timesteps/s
99.5% CPU use with 4 MPI tasks x no OpenMP threads

MPI task timing breakdown:
Section |  min time  |  avg time  |  max time  |%varavg| %total
---------------------------------------------------------------
Pair    | 10.171     | 10.997     | 12.127     |  22.1 | 53.66
Neigh   | 0.0094544  | 0.010104   | 0.010846   |   0.5 |  0.05
Comm    | 3.917      | 5.0285     | 5.8961     |  32.7 | 24.54
Output  | 0.043339   | 0.052291   | 0.07581    |   5.9 |  0.26
Modify  | 3.5972     | 3.6987     | 3.7837     |   3.6 | 18.05
Other   |            | 0.7076     |            |       |  3.45

Nlocal:            250 ave         266 max         237 min
Histogram: 1 1 0 0 0 0 1 0 0 1
Nghost:         846.75 ave         866 max         832 min
Histogram: 2 0 0 0 0 0 1 0 0 1
Neighs:           1704 ave        1791 max        1656 min
Histogram: 1 1 1 0 0 0 0 0 0 1

Total # of neighbors = 6816
Ave neighs/atom = 6.816
Neighbor list builds = 56
Dangerous builds = 0

# run_style
run_style verlet

# write restart
write_restart ${write_res}
write_restart ./pgnpmf/73/equpmf25.res
System init for write_restart ...
Generated 0 of 1 mixed pair_coeff terms from geometric mixing rule

Total wall time: 0:00:43
