LAMMPS (23 Jun 2022 - Update 1)
OMP_NUM_THREADS environment is not set. Defaulting to 1 thread. (src/comm.cpp:98)
  using 1 OpenMP thread(s) per MPI task
# Read restart
read_restart ${read_res}
read_restart ./pgnpmf/trial2/73/equpmf71.res
Reading restart file ...
  restart file = 23 Jun 2022, LAMMPS = 23 Jun 2022
  restoring atom style atomic from restart
  orthogonal box = (1701.4874 1701.4874 1701.4874) to (2298.5126 2298.5126 2298.5126)
  1 by 2 by 2 MPI processor grid
  restoring pair style table from restart
  1000 atoms
  read_restart CPU = 0.018 seconds

# Settings

pair_style table spline 9941

pair_coeff 1 1 ./pgnpmf/N20.txt DE_GNP 75.6
pair_coeff 2 2 ./pgnpmf/N100.txt DE_GNP 115.92
WARNING: 3 of 9941 force values in table DE_GNP are inconsistent with -dE/dr.
WARNING:  Should only be flagged at inflection points (src/pair_table.cpp:463)
pair_coeff 1 2 ./pgnpmf/mixed_potential.txt DE_GNP 95.66
WARNING: 1562 of 9941 force values in table DE_GNP are inconsistent with -dE/dr.
WARNING:  Should only be flagged at inflection points (src/pair_table.cpp:463)

#Neigh_list Calc Frequency

neigh_modify delay 0 every 1 check yes

# computes
compute vor all voronoi/atom

# Saving Frequency (50 frames)
variable ts_save equal ${steps_equ}
variable ts_save equal 5000

# Dump
dump 1 all custom 100000 ./pgnpmf/${folder}/voronoi/voronoi_${usic}_${trial}.custom type x y z ix iy iz c_vor[1] c_vor[2]
dump 1 all custom 100000 ./pgnpmf/trial2/73/voronoi/voronoi_${usic}_${trial}.custom type x y z ix iy iz c_vor[1] c_vor[2]
dump 1 all custom 100000 ./pgnpmf/trial2/73/voronoi/voronoi_1_${trial}.custom type x y z ix iy iz c_vor[1] c_vor[2]
dump 1 all custom 100000 ./pgnpmf/trial2/73/voronoi/voronoi_1_1.custom type x y z ix iy iz c_vor[1] c_vor[2]
dump_modify 1 first no sort id
#dump 2 all cfg 50000 ./pgnpmf/${folder}/equilibration/trajectory/dumpgen.tens_*.cfg mass type xs ys zs fx fy fz
#dump_modify 2 element N20 N100

# thermo_style
thermo_style custom step temp press pe density ke etotal lx ly lz xlo xhi ylo yhi zlo zhi vol dt time cpu tpcpu spcpu cpuremain

# run info
timestep ${ts}
timestep 0.5
thermo 200

# fix

fix 1 all momentum 1000 linear 1 1 1 angular
variable T equal ${temp}
variable T equal 300
fix 2 all nvt temp ${T} ${T} 100.0
fix 2 all nvt temp 300 ${T} 100.0
fix 2 all nvt temp 300 300 100.0

run 100000
Generated 0 of 1 mixed pair_coeff terms from geometric mixing rule
Unused restart file global fix info:
  fix style: npt, fix ID: 5
Neighbor list info ...
  update every 1 steps, delay 0 steps, check yes
  max neighbors/atom: 2000, page size: 100000
  master list distance cutoff = 117.92
  ghost atom cutoff = 117.92
  binsize = 58.96, bins = 11 11 11
  1 neighbor lists, perpetual/occasional/extra = 1 0 0
  (1) pair table, perpetual
      attributes: half, newton on
      pair build: half/bin/atomonly/newton
      stencil: half/bin/3d
      bin: standard
Per MPI rank memory allocation (min/avg/max) = 3.1 | 3.104 | 3.106 Mbytes
   Step          Temp          Press          PotEng        Density         KinEng         TotEng           Lx             Ly             Lz            Xlo            Xhi            Ylo            Yhi            Zlo            Zhi           Volume           Dt            Time           CPU           T/CPU          S/CPU         CPULeft    
  50110000   298.88008     -5.0713471     -21868650       2.1998005      890.01383     -21867760       597.0251       597.0251       597.0251       1701.4874      2298.5126      1701.4874      2298.5126      1701.4874      2298.5126      2.1280302e+08  0.5            25260000       0              0              0              0            
  50110200   301.31146     -5.6996544     -21868656       2.1998005      897.25406     -21867758       597.0251       597.0251       597.0251       1701.4874      2298.5126      1701.4874      2298.5126      1701.4874      2298.5126      2.1280302e+08  0.5            25260100       0.01837441     5442.0519      10883.398      9.1704758    
  50110400   300.5315      -6.290039      -21868662       2.1998005      894.93148     -21867767       597.0251       597.0251       597.0251       1701.4874      2298.5126      1701.4874      2298.5126      1701.4874      2298.5126      2.1280302e+08  0.5            25260200       0.035480506    5845.9611      11692.08       8.8353103    
  50110600   292.09251     -6.8125697     -21868670       2.1998005      869.80161     -21867800       597.0251       597.0251       597.0251       1701.4874      2298.5126      1701.4874      2298.5126      1701.4874      2298.5126      2.1280302e+08  0.5            25260300       0.050805132    6525.5154      13051.201      8.4170692    
  50110800   293.79773     -7.3258489     -21868678       2.1998005      874.87948     -21867803       597.0251       597.0251       597.0251       1701.4874      2298.5126      1701.4874      2298.5126      1701.4874      2298.5126      2.1280302e+08  0.5            25260400       0.064884793    7102.4755      14204.943      8.0459721    
  50111000   309.31428     -7.7254962     -21868685       2.1998005      921.08511     -21867764       597.0251       597.0251       597.0251       1701.4874      2298.5126      1701.4874      2298.5126      1701.4874      2298.5126      2.1280302e+08  0.5            25260500       0.079027547    7070.7761      14141.555      7.8239298    
  50111200   311.04188     -7.9337376     -21868692       2.1998005      926.22959     -21867765       597.0251       597.0251       597.0251       1701.4874      2298.5126      1701.4874      2298.5126      1701.4874      2298.5126      2.1280302e+08  0.5            25260600       0.09311704     7097.428       14194.831      7.6668137    
  50111400   292.70825     -7.8171137     -21866804       2.1998005      871.63519     -21865932       597.0251       597.0251       597.0251       1701.4874      2298.5126      1701.4874      2298.5126      1701.4874      2298.5126      2.1280302e+08  0.5            25260700       0.10721142     7095.0477      14190.116      7.5508927    
  50111600   296.54424     -8.0412299     -21866812       2.1998005      883.05812     -21865929       597.0251       597.0251       597.0251       1701.4874      2298.5126      1701.4874      2298.5126      1701.4874      2298.5126      2.1280302e+08  0.5            25260800       0.12129352     7101.2459      14202.508      7.4596735    
  50111800   305.4608      -8.2473061     -21866821       2.1998005      909.61009     -21865912       597.0251       597.0251       597.0251       1701.4874      2298.5126      1701.4874      2298.5126      1701.4874      2298.5126      2.1280302e+08  0.5            25260900       0.13538419     7096.9284      14193.873      7.386067     
  50112000   303.96456     -8.3151548     -21866830       2.1998005      905.15455     -21865925       597.0251       597.0251       597.0251       1701.4874      2298.5126      1701.4874      2298.5126      1701.4874      2298.5126      2.1280302e+08  0.5            25261000       0.14948862     7089.9539      14179.875      7.3250401    
  50112200   288.3116      -8.2645586     -21866837       2.1998005      858.54271     -21865978       597.0251       597.0251       597.0251       1701.4874      2298.5126      1701.4874      2298.5126      1701.4874      2298.5126      2.1280302e+08  0.5            25261100       0.16358916     7091.9607      14183.941      7.2723679    
  50112400   292.60194     -8.2645237     -21866842       2.1998005      871.31862     -21865971       597.0251       597.0251       597.0251       1701.4874      2298.5126      1701.4874      2298.5126      1701.4874      2298.5126      2.1280302e+08  0.5            25261200       0.17767683     7098.3863      14196.773      7.225604     
  50112600   303.73121     -8.2207136     -21866849       2.1998005      904.45967     -21865944       597.0251       597.0251       597.0251       1701.4874      2298.5126      1701.4874      2298.5126      1701.4874      2298.5126      2.1280302e+08  0.5            25261300       0.19181394     7073.565       14147.117      7.1857199    
  50112800   304.64642     -7.9375089     -21866856       2.1998005      907.18503     -21865949       597.0251       597.0251       597.0251       1701.4874      2298.5126      1701.4874      2298.5126      1701.4874      2298.5126      2.1280302e+08  0.5            25261400       0.20589496     7101.7603      14203.542      7.1475641    
  50113000   299.92934     -7.5252187     -21866865       2.1998005      893.13837     -21865972       597.0251       597.0251       597.0251       1701.4874      2298.5126      1701.4874      2298.5126      1701.4874      2298.5126      2.1280302e+08  0.5            25261500       0.22121537     6527.1829      13054.275      7.1527058    
  50113200   296.31248     -7.2341739     -21866874       2.1998005      882.36796     -21865991       597.0251       597.0251       597.0251       1701.4874      2298.5126      1701.4874      2298.5126      1701.4874      2298.5126      2.1280302e+08  0.5            25261600       0.23533033     7084.7275      14169.494      7.1188071    
  50113400   296.1085      -7.2004775     -21866883       2.1998005      881.76055     -21866001       597.0251       597.0251       597.0251       1701.4874      2298.5126      1701.4874      2298.5126      1701.4874      2298.5126      2.1280302e+08  0.5            25261700       0.24946543     7074.5874      14149.167      7.0878136    
  50113600   298.1827      -7.2642223     -21866894       2.1998005      887.93718     -21866006       597.0251       597.0251       597.0251       1701.4874      2298.5126      1701.4874      2298.5126      1701.4874      2298.5126      2.1280302e+08  0.5            25261800       0.26354968     7100.1452      14200.376      7.057327     
  50113800   303.21684     -7.2661113     -21866905       2.1998005      902.92796     -21866002       597.0251       597.0251       597.0251       1701.4874      2298.5126      1701.4874      2298.5126      1701.4874      2298.5126      2.1280302e+08  0.5            25261900       0.27761373     7110.3633      14220.679      7.0280594    
  50114000   301.84696     -7.1374086     -21866916       2.1998005      898.84871     -21866018       597.0251       597.0251       597.0251       1701.4874      2298.5126      1701.4874      2298.5126      1701.4874      2298.5126      2.1280302e+08  0.5            25262000       0.29168833     7104.9659      14210.002      7.0005661    
  50114200   293.94231     -6.9406078     -21866928       2.1998005      875.30999     -21866053       597.0251       597.0251       597.0251       1701.4874      2298.5126      1701.4874      2298.5126      1701.4874      2298.5126      2.1280302e+08  0.5            25262100       0.30574347     7114.8465      14229.625      6.9739089    
  50114400   294.20551     -6.729615      -21866940       2.1998005      876.09378     -21866064       597.0251       597.0251       597.0251       1701.4874      2298.5126      1701.4874      2298.5126      1701.4874      2298.5126      2.1280302e+08  0.5            25262200       0.31980601     7111.0681      14222.156      6.9485565    
  50114600   309.85452     -6.6794381     -21866952       2.1998005      922.69386     -21866029       597.0251       597.0251       597.0251       1701.4874      2298.5126      1701.4874      2298.5126      1701.4874      2298.5126      2.1280302e+08  0.5            25262300       0.3338819      7104.3364      14208.72       6.9244617    
  50114800   318.75339     -6.9524934     -21866963       2.1998005      949.19318     -21866014       597.0251       597.0251       597.0251       1701.4874      2298.5126      1701.4874      2298.5126      1701.4874      2298.5126      2.1280302e+08  0.5            25262400       0.34797662     7094.8745      14189.72       6.9015766    
  50115000   299.68184     -7.4148866     -21866974       2.1998005      892.40135     -21866082       597.0251       597.0251       597.0251       1701.4874      2298.5126      1701.4874      2298.5126      1701.4874      2298.5126      2.1280302e+08  0.5            25262500       0.36206573     7097.6603      14195.317      6.8792874    
  50115200   297.82152     -7.8153508     -21866984       2.1998005      886.86163     -21866097       597.0251       597.0251       597.0251       1701.4874      2298.5126      1701.4874      2298.5126      1701.4874      2298.5126      2.1280302e+08  0.5            25262600       0.37612539     7112.5996      14225.202      6.85709      
  50115400   300.79946     -8.5283417     -21869256       2.1998005      895.72944     -21868360       597.0251       597.0251       597.0251       1701.4874      2298.5126      1701.4874      2298.5126      1701.4874      2298.5126      2.1280302e+08  0.5            25262700       0.39021021     7099.807       14199.545      6.8359409    
  50115600   301.91126     -8.5073143     -21869265       2.1998005      899.04017     -21868366       597.0251       597.0251       597.0251       1701.4874      2298.5126      1701.4874      2298.5126      1701.4874      2298.5126      2.1280302e+08  0.5            25262800       0.40428077     7107.0609      14214.233      6.8150509    
  50115800   294.12794     -8.3801824     -21869273       2.1998005      875.86277     -21868397       597.0251       597.0251       597.0251       1701.4874      2298.5126      1701.4874      2298.5126      1701.4874      2298.5126      2.1280302e+08  0.5            25262900       0.41834006     7112.7216      14225.385      6.7944515    
  50116000   289.61139     -8.3615705     -21869280       2.1998005      862.41327     -21868417       597.0251       597.0251       597.0251       1701.4874      2298.5126      1701.4874      2298.5126      1701.4874      2298.5126      2.1280302e+08  0.5            25263000       0.43240202     7111.3786      14222.771      6.7743293    
  50116200   305.96272     -8.4176816     -21869288       2.1998005      911.10473     -21868377       597.0251       597.0251       597.0251       1701.4874      2298.5126      1701.4874      2298.5126      1701.4874      2298.5126      2.1280302e+08  0.5            25263100       0.44648066     7102.9583      14205.946      6.75485      
  50116400   315.89413     -8.476563      -21869296       2.1998005      940.67878     -21868356       597.0251       597.0251       597.0251       1701.4874      2298.5126      1701.4874      2298.5126      1701.4874      2298.5126      2.1280302e+08  0.5            25263200       0.4606046      7080.1829      14160.346      6.7363707    
  50116600   303.32914     -8.7574146     -21869305       2.1998005      903.26238     -21868402       597.0251       597.0251       597.0251       1701.4874      2298.5126      1701.4874      2298.5126      1701.4874      2298.5126      2.1280302e+08  0.5            25263300       0.47469832     7095.3694      14190.73       6.7177287    
  50116800   300.2286      -8.9804716     -21868945       2.1998005      894.02951     -21868051       597.0251       597.0251       597.0251       1701.4874      2298.5126      1701.4874      2298.5126      1701.4874      2298.5126      2.1280302e+08  0.5            25263400       0.48877049     7106.2246      14212.467      6.6990571    
  50117000   299.00266     -9.2955702     -21868954       2.1998005      890.37885     -21868063       597.0251       597.0251       597.0251       1701.4874      2298.5126      1701.4874      2298.5126      1701.4874      2298.5126      2.1280302e+08  0.5            25263500       0.50312114     6968.2721      13936.463      6.6843531    
  50117200   297.61541     -9.3606688     -21868961       2.1998005      886.24787     -21868075       597.0251       597.0251       597.0251       1701.4874      2298.5126      1701.4874      2298.5126      1701.4874      2298.5126      2.1280302e+08  0.5            25263600       0.51721154     7097.0507      14194.149      6.6663088    
  50117400   296.1002      -9.2007943     -21868968       2.1998005      881.73583     -21868087       597.0251       597.0251       597.0251       1701.4874      2298.5126      1701.4874      2298.5126      1701.4874      2298.5126      2.1280302e+08  0.5            25263700       0.53127594     7110.1656      14220.348      6.6481534    
  50117600   298.27675     -8.8790444     -21868976       2.1998005      888.21723     -21868088       597.0251       597.0251       597.0251       1701.4874      2298.5126      1701.4874      2298.5126      1701.4874      2298.5126      2.1280302e+08  0.5            25263800       0.54537834     7091.0213      14182.044      6.6306762    
  50117800   305.22769     -8.3175945     -21867090       2.1998005      908.91594     -21866181       597.0251       597.0251       597.0251       1701.4874      2298.5126      1701.4874      2298.5126      1701.4874      2298.5126      2.1280302e+08  0.5            25263900       0.55949714     7082.7459      14165.459      6.6135667    
  50118000   303.96418     -8.214771      -21867099       2.1998005      905.15343     -21866194       597.0251       597.0251       597.0251       1701.4874      2298.5126      1701.4874      2298.5126      1701.4874      2298.5126      2.1280302e+08  0.5            25264000       0.57361026     7085.5869      14171.195      6.596541     
  50118200   292.02333     -7.9337001     -21865214       2.1998005      869.59561     -21864344       597.0251       597.0251       597.0251       1701.4874      2298.5126      1701.4874      2298.5126      1701.4874      2298.5126      2.1280302e+08  0.5            25264100       0.58769443     7100.1976      14200.415      6.5793321    
  50118400   294.10839     -7.8320397     -21865222       2.1998005      875.80456     -21864346       597.0251       597.0251       597.0251       1701.4874      2298.5126      1701.4874      2298.5126      1701.4874      2298.5126      2.1280302e+08  0.5            25264200       0.60179495     7091.9345      14183.837      6.562452     
  50118600   311.06564     -7.6271083     -21864862       2.1998005      926.30034     -21863935       597.0251       597.0251       597.0251       1701.4874      2298.5126      1701.4874      2298.5126      1701.4874      2298.5126      2.1280302e+08  0.5            25264300       0.61586717     7106.2044      14212.455      6.5453993    
  50118800   319.04449     -7.5602253     -21864871       2.1998005      950.06001     -21863921       597.0251       597.0251       597.0251       1701.4874      2298.5126      1701.4874      2298.5126      1701.4874      2298.5126      2.1280302e+08  0.5            25264400       0.62995211     7099.7692      14199.463      6.5286152    
  50119000   295.18865     -7.2190143     -21864881       2.1998005      879.02138     -21864002       597.0251       597.0251       597.0251       1701.4874      2298.5126      1701.4874      2298.5126      1701.4874      2298.5126      2.1280302e+08  0.5            25264500       0.64404214     7097.2084      14194.466      6.5120014    
  50119200   296.09427     -6.6873836     -21864891       2.1998005      881.71819     -21864009       597.0251       597.0251       597.0251       1701.4874      2298.5126      1701.4874      2298.5126      1701.4874      2298.5126      2.1280302e+08  0.5            25264600       0.65815409     7086.205       14172.362      6.4957145    
  50119400   304.82935     -6.0699376     -21863007       2.1998005      907.72975     -21862099       597.0251       597.0251       597.0251       1701.4874      2298.5126      1701.4874      2298.5126      1701.4874      2298.5126      2.1280302e+08  0.5            25264700       0.6722408      7098.8685      14197.761      6.4792764    
  50119600   306.26044     -5.9808048     -21863018       2.1998005      911.99129     -21862106       597.0251       597.0251       597.0251       1701.4874      2298.5126      1701.4874      2298.5126      1701.4874      2298.5126      2.1280302e+08  0.5            25264800       0.6863374      7093.9248      14187.839      6.4630292    
  50119800   293.87093     -6.0598654     -21863030       2.1998005      875.09746     -21862155       597.0251       597.0251       597.0251       1701.4874      2298.5126      1701.4874      2298.5126      1701.4874      2298.5126      2.1280302e+08  0.5            25264900       0.70042076     7100.5833      14201.226      6.4467471    
  50120000   294.21142     -6.1583887     -21863042       2.1998005      876.11137     -21862166       597.0251       597.0251       597.0251       1701.4874      2298.5126      1701.4874      2298.5126      1701.4874      2298.5126      2.1280302e+08  0.5            25265000       0.71452043     7092.3696      14184.702      6.4307017    
  50120200   305.24286     -6.2353871     -21863055       2.1998005      908.9611      -21862146       597.0251       597.0251       597.0251       1701.4874      2298.5126      1701.4874      2298.5126      1701.4874      2298.5126      2.1280302e+08  0.5            25265100       0.72860567     7099.6053      14199.25       6.4146047    
  50120400   311.51087     -6.0980108     -21862699       2.1998005      927.62619     -21861771       597.0251       597.0251       597.0251       1701.4874      2298.5126      1701.4874      2298.5126      1701.4874      2298.5126      2.1280302e+08  0.5            25265200       0.74276436     7062.8327      14125.62       6.3992176    
  50120600   294.47534     -6.267122      -21862709       2.1998005      876.89728     -21861832       597.0251       597.0251       597.0251       1701.4874      2298.5126      1701.4874      2298.5126      1701.4874      2298.5126      2.1280302e+08  0.5            25265300       0.75691171     7068.4441      14136.89       6.3837814    
  50120800   292.50162     -6.6321528     -21862719       2.1998005      871.01987     -21861848       597.0251       597.0251       597.0251       1701.4874      2298.5126      1701.4874      2298.5126      1701.4874      2298.5126      2.1280302e+08  0.5            25265400       0.7710596      7068.1823      14136.356      6.3683976    
  50121000   304.81727     -7.0209692     -21862361       2.1998005      907.69379     -21861453       597.0251       597.0251       597.0251       1701.4874      2298.5126      1701.4874      2298.5126      1701.4874      2298.5126      2.1280302e+08  0.5            25265500       0.78518837     7077.785       14155.54       6.3529037    
  50121200   311.32114     -7.6442734     -21862373       2.1998005      927.0612      -21861446       597.0251       597.0251       597.0251       1701.4874      2298.5126      1701.4874      2298.5126      1701.4874      2298.5126      2.1280302e+08  0.5            25265600       0.79929005     7091.3064      14182.656      6.3372443    
  50121400   295.29684     -8.2074647     -21862386       2.1998005      879.34355     -21861507       597.0251       597.0251       597.0251       1701.4874      2298.5126      1701.4874      2298.5126      1701.4874      2298.5126      2.1280302e+08  0.5            25265700       0.81336781     7103.4417      14206.9        6.3214525    
  50121600   295.92481     -8.6114503     -21862399       2.1998005      881.21355     -21861518       597.0251       597.0251       597.0251       1701.4874      2298.5126      1701.4874      2298.5126      1701.4874      2298.5126      2.1280302e+08  0.5            25265800       0.82743581     7108.3451      14216.721      6.3056458    
  50121800   304.07371     -8.7443527     -21862413       2.1998005      905.47959     -21861508       597.0251       597.0251       597.0251       1701.4874      2298.5126      1701.4874      2298.5126      1701.4874      2298.5126      2.1280302e+08  0.5            25265900       0.84260423     6592.6206      13185.159      6.2981247    
  50122000   303.52738     -8.7477405     -21862426       2.1998005      903.85271     -21861522       597.0251       597.0251       597.0251       1701.4874      2298.5126      1701.4874      2298.5126      1701.4874      2298.5126      2.1280302e+08  0.5            25266000       0.85679399     7047.3385      14094.737      6.2831704    
  50122200   287.68432     -8.8592738     -21862436       2.1998005      856.67477     -21861580       597.0251       597.0251       597.0251       1701.4874      2298.5126      1701.4874      2298.5126      1701.4874      2298.5126      2.1280302e+08  0.5            25266100       0.87091646     7080.9003      14161.811      6.2677571    
  50122400   293.4194      -9.1029652     -21862447       2.1998005      873.75286     -21861573       597.0251       597.0251       597.0251       1701.4874      2298.5126      1701.4874      2298.5126      1701.4874      2298.5126      2.1280302e+08  0.5            25266200       0.88543089     6889.7038      13779.356      6.2551554    
  50122600   304.8998      -9.4079652     -21862457       2.1998005      907.93954     -21861550       597.0251       597.0251       597.0251       1701.4874      2298.5126      1701.4874      2298.5126      1701.4874      2298.5126      2.1280302e+08  0.5            25266300       0.89951765     7098.8473      14197.694      6.2395255    
  50122800   305.67762     -9.944874      -21862837       2.1998005      910.25575     -21861927       597.0251       597.0251       597.0251       1701.4874      2298.5126      1701.4874      2298.5126      1701.4874      2298.5126      2.1280302e+08  0.5            25266400       0.9135966      7102.812       14205.618      6.2238906    
  50123000   301.27076     -10.33765      -21862848       2.1998005      897.13287     -21861951       597.0251       597.0251       597.0251       1701.4874      2298.5126      1701.4874      2298.5126      1701.4874      2298.5126      2.1280302e+08  0.5            25266500       0.92772206     7079.4275      14158.88       6.2086147    
  50123200   300.21123     -10.698465     -21862860       2.1998005      893.97777     -21861966       597.0251       597.0251       597.0251       1701.4874      2298.5126      1701.4874      2298.5126      1701.4874      2298.5126      2.1280302e+08  0.5            25266600       0.94187586     7065.2604      14130.535      6.19356      
  50123400   301.6366      -10.81751      -21862504       2.1998005      898.22228     -21861606       597.0251       597.0251       597.0251       1701.4874      2298.5126      1701.4874      2298.5126      1701.4874      2298.5126      2.1280302e+08  0.5            25266700       0.95600293     7078.5771      14157.155      6.1783601    
  50123600   302.08865     -10.992892     -21862517       2.1998005      899.56842     -21861617       597.0251       597.0251       597.0251       1701.4874      2298.5126      1701.4874      2298.5126      1701.4874      2298.5126      2.1280302e+08  0.5            25266800       0.9700795      7103.9922      14208.016      6.1628705    
  50123800   301.87144     -10.916319     -21862529       2.1998005      898.92159     -21861630       597.0251       597.0251       597.0251       1701.4874      2298.5126      1701.4874      2298.5126      1701.4874      2298.5126      2.1280302e+08  0.5            25266900       0.98415717     7103.4841      14206.957      6.1474284    
  50124000   302.34621     -10.896703     -21862908       2.1998005      900.3354      -21862007       597.0251       597.0251       597.0251       1701.4874      2298.5126      1701.4874      2298.5126      1701.4874      2298.5126      2.1280302e+08  0.5            25267000       0.99824767     7096.9923      14194.005      6.1321043    
  50124200   301.04219     -10.730074     -21862918       2.1998005      896.45223     -21862021       597.0251       597.0251       597.0251       1701.4874      2298.5126      1701.4874      2298.5126      1701.4874      2298.5126      2.1280302e+08  0.5            25267100       1.0123239      7104.18        14208.268      6.1167293    
  50124400   296.93199     -10.614209     -21862927       2.1998005      884.21276     -21862043       597.0251       597.0251       597.0251       1701.4874      2298.5126      1701.4874      2298.5126      1701.4874      2298.5126      2.1280302e+08  0.5            25267200       1.0263886      7110.0033      14220.104      6.1013208    
  50124600   290.80015     -10.481508     -21862937       2.1998005      865.95318     -21862071       597.0251       597.0251       597.0251       1701.4874      2298.5126      1701.4874      2298.5126      1701.4874      2298.5126      2.1280302e+08  0.5            25267300       1.0407297      6972.9313      13945.784      6.087568     
  50124800   289.4388      -10.296624     -21862947       2.1998005      861.89933     -21862085       597.0251       597.0251       597.0251       1701.4874      2298.5126      1701.4874      2298.5126      1701.4874      2298.5126      2.1280302e+08  0.5            25267400       1.05482        7097.0558      14194.131      6.072354     
  50125000   307.15166     -10.108271     -21862957       2.1998005      914.64518     -21862043       597.0251       597.0251       597.0251       1701.4874      2298.5126      1701.4874      2298.5126      1701.4874      2298.5126      2.1280302e+08  0.5            25267500       1.068915       7094.7753      14189.557      6.0571961    
  50125200   313.26801     -9.9728247     -21862968       2.1998005      932.85863     -21862035       597.0251       597.0251       597.0251       1701.4874      2298.5126      1701.4874      2298.5126      1701.4874      2298.5126      2.1280302e+08  0.5            25267600       1.0830078      7095.8195      14191.641      6.0420542    
  50125400   299.40567     -9.8567493     -21862979       2.1998005      891.57895     -21862087       597.0251       597.0251       597.0251       1701.4874      2298.5126      1701.4874      2298.5126      1701.4874      2298.5126      2.1280302e+08  0.5            25267700       1.0970632      7114.7119      14229.396      6.0267345    
  50125600   298.77273     -9.6704216     -21862990       2.1998005      889.69416     -21862101       597.0251       597.0251       597.0251       1701.4874      2298.5126      1701.4874      2298.5126      1701.4874      2298.5126      2.1280302e+08  0.5            25267800       1.1111582      7094.7039      14189.439      6.0116612    
  50125800   302.06226     -9.5854239     -21863371       2.1998005      899.48982     -21862471       597.0251       597.0251       597.0251       1701.4874      2298.5126      1701.4874      2298.5126      1701.4874      2298.5126      2.1280302e+08  0.5            25267900       1.1252352      7103.7813      14207.582      5.9965168    
  50126000   299.42192     -9.2216588     -21863383       2.1998005      891.62736     -21862491       597.0251       597.0251       597.0251       1701.4874      2298.5126      1701.4874      2298.5126      1701.4874      2298.5126      2.1280302e+08  0.5            25268000       1.1393597      7079.8886      14159.797      5.9816485    
  50126200   287.44712     -8.7953894     -21863395       2.1998005      855.96844     -21862539       597.0251       597.0251       597.0251       1701.4874      2298.5126      1701.4874      2298.5126      1701.4874      2298.5126      2.1280302e+08  0.5            25268100       1.1534698      7087.1587      14174.291      5.9667238    
  50126400   293.43952     -8.3301035     -21863407       2.1998005      873.81278     -21862533       597.0251       597.0251       597.0251       1701.4874      2298.5126      1701.4874      2298.5126      1701.4874      2298.5126      2.1280302e+08  0.5            25268200       1.1675893      7082.3822      14164.756      5.9518674    
  50126600   316.19254     -7.7373484     -21863419       2.1998005      941.56739     -21862478       597.0251       597.0251       597.0251       1701.4874      2298.5126      1701.4874      2298.5126      1701.4874      2298.5126      2.1280302e+08  0.5            25268300       1.1817249      7074.3516      14148.71       5.9371093    
  50126800   312.47753     -7.0822519     -21863431       2.1998005      930.50473     -21862501       597.0251       597.0251       597.0251       1701.4874      2298.5126      1701.4874      2298.5126      1701.4874      2298.5126      2.1280302e+08  0.5            25268400       1.1958632      7072.9821      14145.953      5.9223794    
  50127000   303.10638     -6.532804      -21863441       2.1998005      902.59904     -21862539       597.0251       597.0251       597.0251       1701.4874      2298.5126      1701.4874      2298.5126      1701.4874      2298.5126      2.1280302e+08  0.5            25268500       1.2099957      7075.8629      14151.717      5.9076355    
  50127200   296.6751      -6.196108      -21863450       2.1998005      883.4478      -21862567       597.0251       597.0251       597.0251       1701.4874      2298.5126      1701.4874      2298.5126      1701.4874      2298.5126      2.1280302e+08  0.5            25268600       1.2241057      7087.1627      14174.324      5.8927976    
  50127400   297.04172     -6.0683932     -21863460       2.1998005      884.53951     -21862575       597.0251       597.0251       597.0251       1701.4874      2298.5126      1701.4874      2298.5126      1701.4874      2298.5126      2.1280302e+08  0.5            25268700       1.2382388      7075.6206      14151.269      5.8780848    
  50127600   304.04625     -6.1768432     -21863471       2.1998005      905.39783     -21862565       597.0251       597.0251       597.0251       1701.4874      2298.5126      1701.4874      2298.5126      1701.4874      2298.5126      2.1280302e+08  0.5            25268800       1.2523546      7084.2391      14168.48       5.8633057    
  50127800   308.84452     -6.2141331     -21863115       2.1998005      919.68624     -21862195       597.0251       597.0251       597.0251       1701.4874      2298.5126      1701.4874      2298.5126      1701.4874      2298.5126      2.1280302e+08  0.5            25268900       1.2664629      7088.0764      14176.16       5.848506     
  50128000   296.07125     -6.4309021     -21863128       2.1998005      881.64962     -21862247       597.0251       597.0251       597.0251       1701.4874      2298.5126      1701.4874      2298.5126      1701.4874      2298.5126      2.1280302e+08  0.5            25269000       1.2805557      7095.7651      14191.527      5.8336514    
  50128200   294.12513     -6.5171502     -21863142       2.1998005      875.85442     -21862266       597.0251       597.0251       597.0251       1701.4874      2298.5126      1701.4874      2298.5126      1701.4874      2298.5126      2.1280302e+08  0.5            25269100       1.2946421      7099.0444      14198.052      5.8187848    
  50128400   303.99135     -6.6487751     -21863156       2.1998005      905.23433     -21862251       597.0251       597.0251       597.0251       1701.4874      2298.5126      1701.4874      2298.5126      1701.4874      2298.5126      2.1280302e+08  0.5            25269200       1.3087364      7095.0779      14190.168      5.8039701    
  50128600   311.61487     -6.9004839     -21863172       2.1998005      927.93587     -21862244       597.0251       597.0251       597.0251       1701.4874      2298.5126      1701.4874      2298.5126      1701.4874      2298.5126      2.1280302e+08  0.5            25269300       1.3228307      7095.0864      14190.228      5.7891704    
  50128800   295.99487     -7.1883157     -21863188       2.1998005      881.42219     -21862307       597.0251       597.0251       597.0251       1701.4874      2298.5126      1701.4874      2298.5126      1701.4874      2298.5126      2.1280302e+08  0.5            25269400       1.3369271      7094.0149      14187.96       5.7743955    
  50129000   294.70884     -7.3893946     -21863205       2.1998005      877.5926      -21862327       597.0251       597.0251       597.0251       1701.4874      2298.5126      1701.4874      2298.5126      1701.4874      2298.5126      2.1280302e+08  0.5            25269500       1.3510436      7083.8758      14167.761      5.7597206    
  50129200   303.92248     -7.5649334     -21863221       2.1998005      905.02924     -21862315       597.0251       597.0251       597.0251       1701.4874      2298.5126      1701.4874      2298.5126      1701.4874      2298.5126      2.1280302e+08  0.5            25269600       1.3651613      7083.3228      14166.673      5.7450619    
  50129400   307.30601     -7.7044862     -21863235       2.1998005      915.10482     -21862320       597.0251       597.0251       597.0251       1701.4874      2298.5126      1701.4874      2298.5126      1701.4874      2298.5126      2.1280302e+08  0.5            25269700       1.3792358      7105.0507      14210.113      5.7302348    
  50129600   292.04912     -7.7871392     -21863249       2.1998005      869.67241     -21862379       597.0251       597.0251       597.0251       1701.4874      2298.5126      1701.4874      2298.5126      1701.4874      2298.5126      2.1280302e+08  0.5            25269800       1.3933322      7094.0073      14188.005      5.7155134    
  50129800   294.26204     -7.8017462     -21863260       2.1998005      876.26209     -21862384       597.0251       597.0251       597.0251       1701.4874      2298.5126      1701.4874      2298.5126      1701.4874      2298.5126      2.1280302e+08  0.5            25269900       1.4074145      7101.1138      14202.213      5.7007472    
  50130000   305.2242      -7.6380595     -21862902       2.1998005      908.90556     -21861993       597.0251       597.0251       597.0251       1701.4874      2298.5126      1701.4874      2298.5126      1701.4874      2298.5126      2.1280302e+08  0.5            25270000       1.4215275      7085.6777      14171.356      5.6861175    
  50130200   306.97871     -7.3906237     -21861017       2.1998005      914.13018     -21860103       597.0251       597.0251       597.0251       1701.4874      2298.5126      1701.4874      2298.5126      1701.4874      2298.5126      2.1280302e+08  0.5            25270100       1.435623       7094.4416      14188.885      5.6714292    
  50130400   287.34878     -7.319922      -21861028       2.1998005      855.67561     -21860173       597.0251       597.0251       597.0251       1701.4874      2298.5126      1701.4874      2298.5126      1701.4874      2298.5126      2.1280302e+08  0.5            25270200       1.4497407      7083.2957      14166.595      5.656839     
  50130600   295.02969     -7.2228978     -21861040       2.1998005      878.54805     -21860161       597.0251       597.0251       597.0251       1701.4874      2298.5126      1701.4874      2298.5126      1701.4874      2298.5126      2.1280302e+08  0.5            25270300       1.4641013      6963.4683      13926.917      5.6431945    
  50130800   308.80816     -7.2705526     -21861051       2.1998005      919.57796     -21860132       597.0251       597.0251       597.0251       1701.4874      2298.5126      1701.4874      2298.5126      1701.4874      2298.5126      2.1280302e+08  0.5            25270400       1.4781914      7097.2326      14194.453      5.6285055    
  50131000   305.08562     -7.582541      -21861063       2.1998005      908.49287     -21860154       597.0251       597.0251       597.0251       1701.4874      2298.5126      1701.4874      2298.5126      1701.4874      2298.5126      2.1280302e+08  0.5            25270500       1.4923067      7084.488       14168.997      5.6139231    
  50131200   292.52173     -7.8348348     -21860704       2.1998005      871.07975     -21859833       597.0251       597.0251       597.0251       1701.4874      2298.5126      1701.4874      2298.5126      1701.4874      2298.5126      2.1280302e+08  0.5            25270600       1.5063914      7099.9108      14199.803      5.5992357    
  50131400   297.49266     -8.3625114     -21860714       2.1998005      885.88233     -21859828       597.0251       597.0251       597.0251       1701.4874      2298.5126      1701.4874      2298.5126      1701.4874      2298.5126      2.1280302e+08  0.5            25270700       1.5204716      7102.1653      14204.366      5.5845429    
  50131600   304.08897     -9.0029815     -21860723       2.1998005      905.52502     -21859818       597.0251       597.0251       597.0251       1701.4874      2298.5126      1701.4874      2298.5126      1701.4874      2298.5126      2.1280302e+08  0.5            25270800       1.5345215      7117.5167      14235.041      5.5697515    
  50131800   302.28024     -9.640141      -21860732       2.1998005      900.13893     -21859832       597.0251       597.0251       597.0251       1701.4874      2298.5126      1701.4874      2298.5126      1701.4874      2298.5126      2.1280302e+08  0.5            25270900       1.548651       7077.3547      14154.69       5.5552597    
  50132000   287.79269     -10.01943      -21860740       2.1998005      856.9975      -21859883       597.0251       597.0251       597.0251       1701.4874      2298.5126      1701.4874      2298.5126      1701.4874      2298.5126      2.1280302e+08  0.5            25271000       1.5627591      7088.1418      14176.304      5.5406981    
  50132200   291.27016     -10.124285     -21860749       2.1998005      867.35279     -21859882       597.0251       597.0251       597.0251       1701.4874      2298.5126      1701.4874      2298.5126      1701.4874      2298.5126      2.1280302e+08  0.5            25271100       1.5768221      7110.8527      14221.647      5.5259872    
  50132400   311.97693     -10.684393     -21868137       2.1998005      929.01404     -21867208       597.0251       597.0251       597.0251       1701.4874      2298.5126      1701.4874      2298.5126      1701.4874      2298.5126      2.1280302e+08  0.5            25271200       1.5908939      7106.4271      14212.897      5.5113177    
  50132600   311.35396     -10.597028     -21868147       2.1998005      927.15894     -21867220       597.0251       597.0251       597.0251       1701.4874      2298.5126      1701.4874      2298.5126      1701.4874      2298.5126      2.1280302e+08  0.5            25271300       1.6049694      7104.5211      14209.059      5.4966717    
  50132800   301.69808     -10.581553     -21868158       2.1998005      898.40536     -21867260       597.0251       597.0251       597.0251       1701.4874      2298.5126      1701.4874      2298.5126      1701.4874      2298.5126      2.1280302e+08  0.5            25271400       1.6190389      7107.5706      14215.121      5.4820154    
  50133000   295.23568     -10.538417     -21868170       2.1998005      879.16145     -21867291       597.0251       597.0251       597.0251       1701.4874      2298.5126      1701.4874      2298.5126      1701.4874      2298.5126      2.1280302e+08  0.5            25271500       1.6331246      7099.4375      14198.84       5.4674238    
  50133200   297.84609     -10.312862     -21868181       2.1998005      886.93481     -21867294       597.0251       597.0251       597.0251       1701.4874      2298.5126      1701.4874      2298.5126      1701.4874      2298.5126      2.1280302e+08  0.5            25271600       1.6471946      7107.316       14214.654      5.4527885    
  50133400   307.5753      -10.075187     -21868191       2.1998005      915.90671     -21867275       597.0251       597.0251       597.0251       1701.4874      2298.5126      1701.4874      2298.5126      1701.4874      2298.5126      2.1280302e+08  0.5            25271700       1.6612842      7097.4054      14194.822      5.4382274    
  50133600   310.95956     -9.9416563     -21868201       2.1998005      925.98446     -21867275       597.0251       597.0251       597.0251       1701.4874      2298.5126      1701.4874      2298.5126      1701.4874      2298.5126      2.1280302e+08  0.5            25271800       1.6753415      7113.7538      14227.515      5.4235694    
  50133800   295.10411     -9.7365021     -21868212       2.1998005      878.76965     -21867333       597.0251       597.0251       597.0251       1701.4874      2298.5126      1701.4874      2298.5126      1701.4874      2298.5126      2.1280302e+08  0.5            25271900       1.6894198      7103.1551      14206.315      5.4089886    
  50134000   294.81617     -9.3329861     -21868223       2.1998005      877.91221     -21867345       597.0251       597.0251       597.0251       1701.4874      2298.5126      1701.4874      2298.5126      1701.4874      2298.5126      2.1280302e+08  0.5            25272000       1.7035246      7089.7473      14179.433      5.3945011    
  50134200   304.72133     -8.9686408     -21868234       2.1998005      907.40809     -21867327       597.0251       597.0251       597.0251       1701.4874      2298.5126      1701.4874      2298.5126      1701.4874      2298.5126      2.1280302e+08  0.5            25272100       1.717597       7106.0923      14212.25       5.3799175    
  50134400   309.86258     -8.9316663     -21868244       2.1998005      922.71785     -21867322       597.0251       597.0251       597.0251       1701.4874      2298.5126      1701.4874      2298.5126      1701.4874      2298.5126      2.1280302e+08  0.5            25272200       1.7316757      7102.9613      14205.957      5.3653616    
  50134600   292.35701     -9.1719632     -21868253       2.1998005      870.58924     -21867383       597.0251       597.0251       597.0251       1701.4874      2298.5126      1701.4874      2298.5126      1701.4874      2298.5126      2.1280302e+08  0.5            25272300       1.7457637      7098.2316      14196.373      5.3508428    
  50134800   292.81245     -9.3758692     -21868262       2.1998005      871.94547     -21867390       597.0251       597.0251       597.0251       1701.4874      2298.5126      1701.4874      2298.5126      1701.4874      2298.5126      2.1280302e+08  0.5            25272400       1.7598813      7083.3695      14166.757      5.3364202    
  50135000   305.82728     -9.5008285     -21868272       2.1998005      910.70143     -21867361       597.0251       597.0251       597.0251       1701.4874      2298.5126      1701.4874      2298.5126      1701.4874      2298.5126      2.1280302e+08  0.5            25272500       1.7740077      7078.9444      14157.909      5.3220289    
  50135200   309.37327     -9.6626339     -21868282       2.1998005      921.26078     -21867361       597.0251       597.0251       597.0251       1701.4874      2298.5126      1701.4874      2298.5126      1701.4874      2298.5126      2.1280302e+08  0.5            25272600       1.7881055      7093.3174      14186.662      5.3075568    
  50135400   289.74326     -10.032902     -21868661       2.1998005      862.80595     -21867798       597.0251       597.0251       597.0251       1701.4874      2298.5126      1701.4874      2298.5126      1701.4874      2298.5126      2.1280302e+08  0.5            25272700       1.8021965      7096.7027      14193.387      5.293071     
  50135600   294.4242      -10.042088     -21868672       2.1998005      876.74499     -21867795       597.0251       597.0251       597.0251       1701.4874      2298.5126      1701.4874      2298.5126      1701.4874      2298.5126      2.1280302e+08  0.5            25272800       1.8162698      7105.6913      14211.414      5.2785393    
  50135800   306.2647      -9.87221       -21868682       2.1998005      912.00398     -21867770       597.0251       597.0251       597.0251       1701.4874      2298.5126      1701.4874      2298.5126      1701.4874      2298.5126      2.1280302e+08  0.5            25272900       1.830348       7103.1394      14206.255      5.2640295    
  50136000   305.82361     -9.712563      -21868692       2.1998005      910.69049     -21867781       597.0251       597.0251       597.0251       1701.4874      2298.5126      1701.4874      2298.5126      1701.4874      2298.5126      2.1280302e+08  0.5            25273000       1.8444419      7095.2818      14190.551      5.2495709    
  50136200   290.39056     -9.5691226     -21868702       2.1998005      864.73351     -21867838       597.0251       597.0251       597.0251       1701.4874      2298.5126      1701.4874      2298.5126      1701.4874      2298.5126      2.1280302e+08  0.5            25273100       1.8585621      7082.0557      14164.121      5.2351917    
  50136400   294.43444     -9.5253695     -21869082       2.1998005      876.77549     -21868205       597.0251       597.0251       597.0251       1701.4874      2298.5126      1701.4874      2298.5126      1701.4874      2298.5126      2.1280302e+08  0.5            25273200       1.8726409      7102.8968      14205.808      5.2207009    
  50136600   303.35089     -9.2026554     -21869093       2.1998005      903.32716     -21868189       597.0251       597.0251       597.0251       1701.4874      2298.5126      1701.4874      2298.5126      1701.4874      2298.5126      2.1280302e+08  0.5            25273300       1.8867042      7110.6747      14221.307      5.2061741    
  50136800   304.32187     -8.822522      -21869102       2.1998005      906.21856     -21868196       597.0251       597.0251       597.0251       1701.4874      2298.5126      1701.4874      2298.5126      1701.4874      2298.5126      2.1280302e+08  0.5            25273400       1.9010535      6968.9553      13937.918      5.1924353    
  50137000   294.29858     -8.6729428     -21869110       2.1998005      876.37093     -21868234       597.0251       597.0251       597.0251       1701.4874      2298.5126      1701.4874      2298.5126      1701.4874      2298.5126      2.1280302e+08  0.5            25273500       1.9151496      7094.2066      14188.423      5.1780022    
  50137200   283.78001     -8.8794554     -21869118       2.1998005      845.04842     -21868273       597.0251       597.0251       597.0251       1701.4874      2298.5126      1701.4874      2298.5126      1701.4874      2298.5126      2.1280302e+08  0.5            25273600       1.9292249      7104.6398      14209.288      5.1635187    
  50137400   295.31694     -9.2764911     -21869127       2.1998005      879.40341     -21868248       597.0251       597.0251       597.0251       1701.4874      2298.5126      1701.4874      2298.5126      1701.4874      2298.5126      2.1280302e+08  0.5            25273700       1.9433085      7100.4643      14200.945      5.1490632    
  50137600   314.84452     -9.6312107     -21869138       2.1998005      937.55321     -21868201       597.0251       597.0251       597.0251       1701.4874      2298.5126      1701.4874      2298.5126      1701.4874      2298.5126      2.1280302e+08  0.5            25273800       1.9574039      7094.503       14188.982      5.1346443    
  50137800   305.12282     -9.8633748     -21869150       2.1998005      908.60365     -21868242       597.0251       597.0251       597.0251       1701.4874      2298.5126      1701.4874      2298.5126      1701.4874      2298.5126      2.1280302e+08  0.5            25273900       1.971458       7115.3446      14230.704      5.1201226    
  50138000   295.55763     -10.042651     -21869161       2.1998005      880.12015     -21868281       597.0251       597.0251       597.0251       1701.4874      2298.5126      1701.4874      2298.5126      1701.4874      2298.5126      2.1280302e+08  0.5            25274000       1.9855164      7113.1992      14226.379      5.1056186    
  50138200   298.04248     -9.9852492     -21868802       2.1998005      887.51961     -21867915       597.0251       597.0251       597.0251       1701.4874      2298.5126      1701.4874      2298.5126      1701.4874      2298.5126      2.1280302e+08  0.5            25274100       1.9995642      7118.5792      14237.163      5.0910938    
  50138400   305.41591     -10.251555     -21868811       2.1998005      909.47642     -21867902       597.0251       597.0251       597.0251       1701.4874      2298.5126      1701.4874      2298.5126      1701.4874      2298.5126      2.1280302e+08  0.5            25274200       2.0135867      7131.3599      14262.691      5.0765123    
  50138600   305.99243     -10.525416     -21868819       2.1998005      911.19321     -21867908       597.0251       597.0251       597.0251       1701.4874      2298.5126      1701.4874      2298.5126      1701.4874      2298.5126      2.1280302e+08  0.5            25274300       2.027608       7131.9758      14263.95       5.0619356    
  50138800   292.16644     -10.785017     -21868828       2.1998005      870.02176     -21867958       597.0251       597.0251       597.0251       1701.4874      2298.5126      1701.4874      2298.5126      1701.4874      2298.5126      2.1280302e+08  0.5            25274400       2.0416712      7110.8016      14221.658      5.0474696    
  50139000   293.56781     -11.04148      -21868838       2.1998005      874.19481     -21867963       597.0251       597.0251       597.0251       1701.4874      2298.5126      1701.4874      2298.5126      1701.4874      2298.5126      2.1280302e+08  0.5            25274500       2.0557518      7101.9681      14203.928      5.0330521    
  50139200   308.57559     -11.157089     -21868848       2.1998005      918.88542     -21867930       597.0251       597.0251       597.0251       1701.4874      2298.5126      1701.4874      2298.5126      1701.4874      2298.5126      2.1280302e+08  0.5            25274600       2.0698372      7099.5474      14199.048      5.0186511    
  50139400   311.84319     -10.855312     -21868490       2.1998005      928.61576     -21867561       597.0251       597.0251       597.0251       1701.4874      2298.5126      1701.4874      2298.5126      1701.4874      2298.5126      2.1280302e+08  0.5            25274700       2.083893       7114.481       14228.964      5.0041831    
  50139600   290.79745     -10.745102     -21868499       2.1998005      865.94515     -21867633       597.0251       597.0251       597.0251       1701.4874      2298.5126      1701.4874      2298.5126      1701.4874      2298.5126      2.1280302e+08  0.5            25274800       2.0979388      7119.5934      14239.198      4.9896969    
  50139800   296.4164      -10.952882     -21868508       2.1998005      882.67743     -21867625       597.0251       597.0251       597.0251       1701.4874      2298.5126      1701.4874      2298.5126      1701.4874      2298.5126      2.1280302e+08  0.5            25274900       2.1119864      7118.6557      14237.346      4.9752207    
  50140000   308.43189     -11.152054     -21868519       2.1998005      918.4575      -21867601       597.0251       597.0251       597.0251       1701.4874      2298.5126      1701.4874      2298.5126      1701.4874      2298.5126      2.1280302e+08  0.5            25275000       2.1260839      7093.4452      14186.887      4.9608669    
  50140200   305.31131     -10.931939     -21868531       2.1998005      909.16493     -21867622       597.0251       597.0251       597.0251       1701.4874      2298.5126      1701.4874      2298.5126      1701.4874      2298.5126      2.1280302e+08  0.5            25275100       2.1401815      7093.4019      14186.795      4.9465167    
  50140400   291.70803     -10.518682     -21868542       2.1998005      868.65672     -21867673       597.0251       597.0251       597.0251       1701.4874      2298.5126      1701.4874      2298.5126      1701.4874      2298.5126      2.1280302e+08  0.5            25275200       2.1542644      7100.8122      14201.668      4.9321359    
  50140600   297.25368     -10.324285     -21868552       2.1998005      885.1707      -21867666       597.0251       597.0251       597.0251       1701.4874      2298.5126      1701.4874      2298.5126      1701.4874      2298.5126      2.1280302e+08  0.5            25275300       2.1683688      7090.0077      14180.016      4.9178079    
  50140800   305.1504      -10.059577     -21868193       2.1998005      908.68579     -21867284       597.0251       597.0251       597.0251       1701.4874      2298.5126      1701.4874      2298.5126      1701.4874      2298.5126      2.1280302e+08  0.5            25275400       2.1826231      7015.4038      14030.72       4.90382      
  50141000   302.00394     -9.9196491     -21868203       2.1998005      899.31615     -21867303       597.0251       597.0251       597.0251       1701.4874      2298.5126      1701.4874      2298.5126      1701.4874      2298.5126      2.1280302e+08  0.5            25275500       2.1967174      7095.098       14190.225      4.889472     
  50141200   284.77163     -9.8364059     -21868212       2.1998005      848.0013      -21867364       597.0251       597.0251       597.0251       1701.4874      2298.5126      1701.4874      2298.5126      1701.4874      2298.5126      2.1280302e+08  0.5            25275600       2.2107882      7106.8801      14213.77       4.8750758    
  50141400   292.35417     -9.8493522     -21868222       2.1998005      870.58078     -21867352       597.0251       597.0251       597.0251       1701.4874      2298.5126      1701.4874      2298.5126      1701.4874      2298.5126      2.1280302e+08  0.5            25275700       2.2251346      6970.4078      13940.802      4.8612856    
  50141600   303.64702     -9.9224557     -21868233       2.1998005      904.20896     -21867329       597.0251       597.0251       597.0251       1701.4874      2298.5126      1701.4874      2298.5126      1701.4874      2298.5126      2.1280302e+08  0.5            25275800       2.23924        7089.4196      14178.834      4.8469671    
  50141800   305.82401     -9.9439423     -21868246       2.1998005      910.69169     -21867336       597.0251       597.0251       597.0251       1701.4874      2298.5126      1701.4874      2298.5126      1701.4874      2298.5126      2.1280302e+08  0.5            25275900       2.2533357      7094.3968      14188.817      4.8326298    
  50142000   296.34537     -9.8612766     -21868260       2.1998005      882.46592     -21867378       597.0251       597.0251       597.0251       1701.4874      2298.5126      1701.4874      2298.5126      1701.4874      2298.5126      2.1280302e+08  0.5            25276000       2.2674286      7095.7993      14191.616      4.8182898    
  50142200   293.76949     -9.7464044     -21868272       2.1998005      874.79539     -21867398       597.0251       597.0251       597.0251       1701.4874      2298.5126      1701.4874      2298.5126      1701.4874      2298.5126      2.1280302e+08  0.5            25276100       2.2814858      7113.8135      14227.592      4.8038778    
  50142400   300.79523     -9.850031      -21868284       2.1998005      895.71683     -21867388       597.0251       597.0251       597.0251       1701.4874      2298.5126      1701.4874      2298.5126      1701.4874      2298.5126      2.1280302e+08  0.5            25276200       2.2955294      7120.6514      14241.293      4.789442     
  50142600   304.21599     -9.9752635     -21868296       2.1998005      905.90328     -21867390       597.0251       597.0251       597.0251       1701.4874      2298.5126      1701.4874      2298.5126      1701.4874      2298.5126      2.1280302e+08  0.5            25276300       2.309574       7120.1672      14240.344      4.7750129    
  50142800   301.56594     -10.032645     -21868310       2.1998005      898.01188     -21867411       597.0251       597.0251       597.0251       1701.4874      2298.5126      1701.4874      2298.5126      1701.4874      2298.5126      2.1280302e+08  0.5            25276400       2.3236236      7117.6627      14235.319      4.7605986    
  50143000   295.0044      -10.152153     -21868323       2.1998005      878.47274     -21867444       597.0251       597.0251       597.0251       1701.4874      2298.5126      1701.4874      2298.5126      1701.4874      2298.5126      2.1280302e+08  0.5            25276500       2.3377106      7098.7259      14197.489      4.7462647    
  50143200   294.53178     -10.169745     -21868335       2.1998005      877.06533     -21867458       597.0251       597.0251       597.0251       1701.4874      2298.5126      1701.4874      2298.5126      1701.4874      2298.5126      2.1280302e+08  0.5            25276600       2.3517761      7109.6202      14219.231      4.7318906    
  50143400   305.96176     -9.92862       -21868345       2.1998005      911.10188     -21867434       597.0251       597.0251       597.0251       1701.4874      2298.5126      1701.4874      2298.5126      1701.4874      2298.5126      2.1280302e+08  0.5            25276700       2.3658438      7108.4876      14217.001      4.7175244    
  50143600   314.72517     -10.176461     -21872145       2.1998005      937.1978      -21871207       597.0251       597.0251       597.0251       1701.4874      2298.5126      1701.4874      2298.5126      1701.4874      2298.5126      2.1280302e+08  0.5            25276800       2.3799113      7108.571       14217.076      4.7031618    
  50143800   298.86091     -9.9342581     -21872153       2.1998005      889.95674     -21871263       597.0251       597.0251       597.0251       1701.4874      2298.5126      1701.4874      2298.5126      1701.4874      2298.5126      2.1280302e+08  0.5            25276900       2.3939713      7112.4084      14224.863      4.6887876    
  50144000   294.06795     -9.8210004     -21872160       2.1998005      875.68414     -21871284       597.0251       597.0251       597.0251       1701.4874      2298.5126      1701.4874      2298.5126      1701.4874      2298.5126      2.1280302e+08  0.5            25277000       2.4080353      7110.3198      14220.652      4.6744251    
  50144200   301.00046     -9.825463      -21872165       2.1998005      896.32798     -21871269       597.0251       597.0251       597.0251       1701.4874      2298.5126      1701.4874      2298.5126      1701.4874      2298.5126      2.1280302e+08  0.5            25277100       2.4220896      7115.2328      14230.435      4.6600474    
  50144400   309.88555     -9.8334954     -21872171       2.1998005      922.78626     -21871248       597.0251       597.0251       597.0251       1701.4874      2298.5126      1701.4874      2298.5126      1701.4874      2298.5126      2.1280302e+08  0.5            25277200       2.4361646      7104.822       14209.628      4.6457128    
  50144600   301.57529     -9.8235693     -21872176       2.1998005      898.03972     -21871278       597.0251       597.0251       597.0251       1701.4874      2298.5126      1701.4874      2298.5126      1701.4874      2298.5126      2.1280302e+08  0.5            25277300       2.4502578      7095.6307      14191.28       4.6314157    
  50144800   289.00249     -9.7994077     -21872181       2.1998005      860.60006     -21871321       597.0251       597.0251       597.0251       1701.4874      2298.5126      1701.4874      2298.5126      1701.4874      2298.5126      2.1280302e+08  0.5            25277400       2.4643426      7099.8523      14199.724      4.6171052    
  50145000   297.61632     -9.7910152     -21872186       2.1998005      886.25059     -21871300       597.0251       597.0251       597.0251       1701.4874      2298.5126      1701.4874      2298.5126      1701.4874      2298.5126      2.1280302e+08  0.5            25277500       2.4784441      7091.4477      14182.867      4.6028283    
  50145200   309.50807     -9.8851493     -21872191       2.1998005      921.66217     -21871269       597.0251       597.0251       597.0251       1701.4874      2298.5126      1701.4874      2298.5126      1701.4874      2298.5126      2.1280302e+08  0.5            25277600       2.4925158      7106.4447      14212.94       4.5884985    
  50145400   303.51649     -9.9670568     -21872196       2.1998005      903.82029     -21871293       597.0251       597.0251       597.0251       1701.4874      2298.5126      1701.4874      2298.5126      1701.4874      2298.5126      2.1280302e+08  0.5            25277700       2.5065957      7102.3171      14204.625      4.5741865    
  50145600   289.61312     -10.01834      -21872201       2.1998005      862.41842     -21871338       597.0251       597.0251       597.0251       1701.4874      2298.5126      1701.4874      2298.5126      1701.4874      2298.5126      2.1280302e+08  0.5            25277800       2.5206641      7108.1177      14216.212      4.5598565    
  50145800   294.07176     -10.350886     -21872574       2.1998005      875.69547     -21871698       597.0251       597.0251       597.0251       1701.4874      2298.5126      1701.4874      2298.5126      1701.4874      2298.5126      2.1280302e+08  0.5            25277900       2.5347491      7099.7727      14199.525      4.545559     
  50146000   302.64159     -10.486582     -21872579       2.1998005      901.21499     -21871678       597.0251       597.0251       597.0251       1701.4874      2298.5126      1701.4874      2298.5126      1701.4874      2298.5126      2.1280302e+08  0.5            25278000       2.5488492      7092.1292      14184.265      4.5312909    
  50146200   306.19845     -10.601084     -21872583       2.1998005      911.80671     -21871671       597.0251       597.0251       597.0251       1701.4874      2298.5126      1701.4874      2298.5126      1701.4874      2298.5126      2.1280302e+08  0.5            25278100       2.5629371      7098.287       14196.546      4.5170031    
  50146400   295.988       -10.92102      -21872587       2.1998005      881.40172     -21871706       597.0251       597.0251       597.0251       1701.4874      2298.5126      1701.4874      2298.5126      1701.4874      2298.5126      2.1280302e+08  0.5            25278200       2.5772681      6977.8762      13955.791      4.5031422    
  50146600   288.23891     -11.380539     -21872592       2.1998005      858.32625     -21871734       597.0251       597.0251       597.0251       1701.4874      2298.5126      1701.4874      2298.5126      1701.4874      2298.5126      2.1280302e+08  0.5            25278300       2.5913536      7099.4874      14198.928      4.488851     
  50146800   304.59757     -11.842592     -21872597       2.1998005      907.03956     -21871690       597.0251       597.0251       597.0251       1701.4874      2298.5126      1701.4874      2298.5126      1701.4874      2298.5126      2.1280302e+08  0.5            25278400       2.6054523      7092.8802      14185.798      4.4745845    
  50147000   315.5701      -12.236913     -21872603       2.1998005      939.71386     -21871663       597.0251       597.0251       597.0251       1701.4874      2298.5126      1701.4874      2298.5126      1701.4874      2298.5126      2.1280302e+08  0.5            25278500       2.6195677      7084.4645      14168.948      4.4603482    
  50147200   304.97982     -12.267274     -21870712       2.1998005      908.17782     -21869804       597.0251       597.0251       597.0251       1701.4874      2298.5126      1701.4874      2298.5126      1701.4874      2298.5126      2.1280302e+08  0.5            25278600       2.6336464      7102.9306      14205.848      4.4460514    
  50147400   296.71531     -12.55116      -21870716       2.1998005      883.56752     -21869832       597.0251       597.0251       597.0251       1701.4874      2298.5126      1701.4874      2298.5126      1701.4874      2298.5126      2.1280302e+08  0.5            25278700       2.6477614      7084.6562      14169.295      4.4318177    
  50147600   296.32159     -12.808174     -21870719       2.1998005      882.3951      -21869837       597.0251       597.0251       597.0251       1701.4874      2298.5126      1701.4874      2298.5126      1701.4874      2298.5126      2.1280302e+08  0.5            25278800       2.6618918      7076.9405      14153.884      4.4176109    
  50147800   305.73844     -13.050195     -21870722       2.1998005      910.43688     -21869812       597.0251       597.0251       597.0251       1701.4874      2298.5126      1701.4874      2298.5126      1701.4874      2298.5126      2.1280302e+08  0.5            25278900       2.6760106      7082.7434      14165.481      4.4033857    
  50148000   316.5183      -13.359836     -21870725       2.1998005      942.53746     -21869782       597.0251       597.0251       597.0251       1701.4874      2298.5126      1701.4874      2298.5126      1701.4874      2298.5126      2.1280302e+08  0.5            25279000       2.6901193      7087.8318      14175.686      4.3891451    
  50148200   298.86647     -13.74197      -21870727       2.1998005      889.9733      -21869837       597.0251       597.0251       597.0251       1701.4874      2298.5126      1701.4874      2298.5126      1701.4874      2298.5126      2.1280302e+08  0.5            25279100       2.7042176      7093.0618      14186.151      4.3748891    
  50148400   292.45168     -13.976006     -21870731       2.1998005      870.87116     -21869860       597.0251       597.0251       597.0251       1701.4874      2298.5126      1701.4874      2298.5126      1701.4874      2298.5126      2.1280302e+08  0.5            25279200       2.7183119      7095.0663      14190.107      4.3606284    
  50148600   301.01781     -14.102994     -21870734       2.1998005      896.37965     -21869838       597.0251       597.0251       597.0251       1701.4874      2298.5126      1701.4874      2298.5126      1701.4874      2298.5126      2.1280302e+08  0.5            25279300       2.7324298      7083.1984      14166.369      4.346407     
  50148800   308.72165     -13.981376     -21870369       2.1998005      919.32035     -21869450       597.0251       597.0251       597.0251       1701.4874      2298.5126      1701.4874      2298.5126      1701.4874      2298.5126      2.1280302e+08  0.5            25279400       2.7465453      7084.4067      14168.864      4.3321827    
  50149000   296.39318     -13.914839     -21870373       2.1998005      882.60829     -21869491       597.0251       597.0251       597.0251       1701.4874      2298.5126      1701.4874      2298.5126      1701.4874      2298.5126      2.1280302e+08  0.5            25279500       2.7606798      7074.8882      14149.75       4.3179894    
  50149200   285.74558     -13.456061     -21870009       2.1998005      850.90154     -21869158       597.0251       597.0251       597.0251       1701.4874      2298.5126      1701.4874      2298.5126      1701.4874      2298.5126      2.1280302e+08  0.5            25279600       2.7747606      7101.8536      14203.718      4.3037133    
  50149400   298.21603     -13.098472     -21870013       2.1998005      888.03642     -21869125       597.0251       597.0251       597.0251       1701.4874      2298.5126      1701.4874      2298.5126      1701.4874      2298.5126      2.1280302e+08  0.5            25279700       2.7888468      7099.1784      14198.358      4.2894474    
  50149600   305.22714     -12.838067     -21870016       2.1998005      908.91429     -21869107       597.0251       597.0251       597.0251       1701.4874      2298.5126      1701.4874      2298.5126      1701.4874      2298.5126      2.1280302e+08  0.5            25279800       2.8029385      7096.3849      14192.773      4.2751919    
  50149800   301.46272     -12.826665     -21870016       2.1998005      897.70451     -21869119       597.0251       597.0251       597.0251       1701.4874      2298.5126      1701.4874      2298.5126      1701.4874      2298.5126      2.1280302e+08  0.5            25279900       2.8170349      7093.9806      14187.968      4.2609451    
  50150000   293.96888     -12.865828     -21870017       2.1998005      875.38913     -21869142       597.0251       597.0251       597.0251       1701.4874      2298.5126      1701.4874      2298.5126      1701.4874      2298.5126      2.1280302e+08  0.5            25280000       2.8311326      7093.3587      14186.686      4.2467018    
  50150200   288.21464     -12.788479     -21870018       2.1998005      858.25398     -21869160       597.0251       597.0251       597.0251       1701.4874      2298.5126      1701.4874      2298.5126      1701.4874      2298.5126      2.1280302e+08  0.5            25280100       2.845235       7090.9836      14181.953      4.2324669    
  50150400   298.08717     -12.573481     -21870020       2.1998005      887.65268     -21869133       597.0251       597.0251       597.0251       1701.4874      2298.5126      1701.4874      2298.5126      1701.4874      2298.5126      2.1280302e+08  0.5            25280200       2.8593235      7098.0064      14196.032      4.2182127    
  50150600   311.0415      -12.275034     -21870023       2.1998005      926.22848     -21869097       597.0251       597.0251       597.0251       1701.4874      2298.5126      1701.4874      2298.5126      1701.4874      2298.5126      2.1280302e+08  0.5            25280300       2.8734152      7096.3623      14192.713      4.203965     
  50150800   303.0097      -12.155049     -21870026       2.1998005      902.31113     -21869124       597.0251       597.0251       597.0251       1701.4874      2298.5126      1701.4874      2298.5126      1701.4874      2298.5126      2.1280302e+08  0.5            25280400       2.8874869      7106.472       14212.956      4.1896897    
  50151000   291.52992     -12.243612     -21870029       2.1998005      868.12632     -21869161       597.0251       597.0251       597.0251       1701.4874      2298.5126      1701.4874      2298.5126      1701.4874      2298.5126      2.1280302e+08  0.5            25280500       2.9015604      7105.5454      14211.134      4.1754189    
  50151200   296.31864     -12.482465     -21870031       2.1998005      882.38632     -21869148       597.0251       597.0251       597.0251       1701.4874      2298.5126      1701.4874      2298.5126      1701.4874      2298.5126      2.1280302e+08  0.5            25280600       2.9156264      7109.3639      14218.714      4.1611393    
  50151400   304.0881      -12.915469     -21870032       2.1998005      905.52242     -21869127       597.0251       597.0251       597.0251       1701.4874      2298.5126      1701.4874      2298.5126      1701.4874      2298.5126      2.1280302e+08  0.5            25280700       2.9299443      6984.244       13968.409      4.1472187    
  50151600   303.09669     -13.146432     -21869664       2.1998005      902.57018     -21868761       597.0251       597.0251       597.0251       1701.4874      2298.5126      1701.4874      2298.5126      1701.4874      2298.5126      2.1280302e+08  0.5            25280800       2.944039       7094.8378      14189.659      4.1329807    
  50151800   299.93334     -13.346296     -21869664       2.1998005      893.15028     -21868770       597.0251       597.0251       597.0251       1701.4874      2298.5126      1701.4874      2298.5126      1701.4874      2298.5126      2.1280302e+08  0.5            25280900       2.958141       7091.2123      14182.516      4.118754     
  50152000   297.43727     -13.289694     -21869662       2.1998005      885.71739     -21868777       597.0251       597.0251       597.0251       1701.4874      2298.5126      1701.4874      2298.5126      1701.4874      2298.5126      2.1280302e+08  0.5            25281000       2.9722257      7099.9284      14199.868      4.1045047    
  50152200   300.32352     -13.192488     -21869661       2.1998005      894.31216     -21868767       597.0251       597.0251       597.0251       1701.4874      2298.5126      1701.4874      2298.5126      1701.4874      2298.5126      2.1280302e+08  0.5            25281100       2.9862659      7122.4026      14244.76       4.0901962    
  50152400   312.12431     -13.256318     -21869660       2.1998005      929.45291     -21868731       597.0251       597.0251       597.0251       1701.4874      2298.5126      1701.4874      2298.5126      1701.4874      2298.5126      2.1280302e+08  0.5            25281200       3.0003208      7114.9153      14229.86       4.0759101    
  50152600   307.30197     -13.171199     -21869292       2.1998005      915.09279     -21868376       597.0251       597.0251       597.0251       1701.4874      2298.5126      1701.4874      2298.5126      1701.4874      2298.5126      2.1280302e+08  0.5            25281300       3.0143727      7116.5108      14232.99       4.0616222    
  50152800   291.08821     -13.169794     -21869292       2.1998005      866.81098     -21868425       597.0251       597.0251       597.0251       1701.4874      2298.5126      1701.4874      2298.5126      1701.4874      2298.5126      2.1280302e+08  0.5            25281400       3.0284373      7110.0392      14220.116      4.0473533    
  50153000   294.52597     -13.065512     -21869292       2.1998005      877.04806     -21868415       597.0251       597.0251       597.0251       1701.4874      2298.5126      1701.4874      2298.5126      1701.4874      2298.5126      2.1280302e+08  0.5            25281500       3.0425129      7104.509       14209.023      4.0331009    
  50153200   304.15468     -12.943753     -21869293       2.1998005      905.72071     -21868387       597.0251       597.0251       597.0251       1701.4874      2298.5126      1701.4874      2298.5126      1701.4874      2298.5126      2.1280302e+08  0.5            25281600       3.056594       7101.6977      14203.395      4.0188576    
  50153400   304.50403     -12.783908     -21869294       2.1998005      906.761       -21868387       597.0251       597.0251       597.0251       1701.4874      2298.5126      1701.4874      2298.5126      1701.4874      2298.5126      2.1280302e+08  0.5            25281700       3.0706511      7113.8529      14227.686      4.0045844    
  50153600   299.87983     -12.462104     -21869296       2.1998005      892.99093     -21868403       597.0251       597.0251       597.0251       1701.4874      2298.5126      1701.4874      2298.5126      1701.4874      2298.5126      2.1280302e+08  0.5            25281800       3.0847129      7111.4762      14222.922      3.9903192    
  50153800   299.69231     -12.099474     -21869298       2.1998005      892.43252     -21868406       597.0251       597.0251       597.0251       1701.4874      2298.5126      1701.4874      2298.5126      1701.4874      2298.5126      2.1280302e+08  0.5            25281900       3.0987827      7107.4145      14214.848      3.9760661    
  50154000   300.46397     -11.885822     -21869302       2.1998005      894.7304      -21868407       597.0251       597.0251       597.0251       1701.4874      2298.5126      1701.4874      2298.5126      1701.4874      2298.5126      2.1280302e+08  0.5            25282000       3.1128864      7090.3435      14180.699      3.9618578    
  50154200   300.16181     -11.790487     -21869306       2.1998005      893.83062     -21868412       597.0251       597.0251       597.0251       1701.4874      2298.5126      1701.4874      2298.5126      1701.4874      2298.5126      2.1280302e+08  0.5            25282100       3.1269674      7101.7749      14203.542      3.9476218    
  50154400   295.73209     -11.688379     -21869310       2.1998005      880.63967     -21868429       597.0251       597.0251       597.0251       1701.4874      2298.5126      1701.4874      2298.5126      1701.4874      2298.5126      2.1280302e+08  0.5            25282200       3.1410877      7081.9814      14163.925      3.9334366    
  50154600   291.75374     -11.528519     -21869313       2.1998005      868.79281     -21868445       597.0251       597.0251       597.0251       1701.4874      2298.5126      1701.4874      2298.5126      1701.4874      2298.5126      2.1280302e+08  0.5            25282300       3.1551861      7093.0135      14186.078      3.9192245    
[...]
  50199200   298.92251     -11.322845     -21867454       2.1998005      890.14019     -21866564       597.0251       597.0251       597.0251       1701.4874      2298.5126      1701.4874      2298.5126      1701.4874      2298.5126      2.1280302e+08  0.5            25304600       6.3134559      7062.5614      14125.06       0.76440969   
  50199400   285.68865     -11.067771     -21867460       2.1998005      850.73202     -21866609       597.0251       597.0251       597.0251       1701.4874      2298.5126      1701.4874      2298.5126      1701.4874      2298.5126      2.1280302e+08  0.5            25304700       6.3276084      7065.8964      14131.812      0.75025357   
  50199600   294.24224     -11.088083     -21867833       2.1998005      876.20315     -21866957       597.0251       597.0251       597.0251       1701.4874      2298.5126      1701.4874      2298.5126      1701.4874      2298.5126      2.1280302e+08  0.5            25304800       6.3417889      7051.9082      14103.806      0.73610072   
  50199800   310.67493     -10.99788      -21867839       2.1998005      925.1369      -21866914       597.0251       597.0251       597.0251       1701.4874      2298.5126      1701.4874      2298.5126      1701.4874      2298.5126      2.1280302e+08  0.5            25304900       6.3559848      7044.3033      14088.639      0.72194949   
  50200000   305.52715     -10.981176     -21867844       2.1998005      909.80769     -21866934       597.0251       597.0251       597.0251       1701.4874      2298.5126      1701.4874      2298.5126      1701.4874      2298.5126      2.1280302e+08  0.5            25305000       6.3867257      3252.9692      6505.9121      0.70963644   
  50200200   297.60338     -10.989597     -21867848       2.1998005      886.21205     -21866962       597.0251       597.0251       597.0251       1701.4874      2298.5126      1701.4874      2298.5126      1701.4874      2298.5126      2.1280302e+08  0.5            25305100       6.4011773      6919.7132      13839.424      0.69547183   
  50200400   296.82918     -10.926964     -21867852       2.1998005      883.9066      -21866968       597.0251       597.0251       597.0251       1701.4874      2298.5126      1701.4874      2298.5126      1701.4874      2298.5126      2.1280302e+08  0.5            25305200       6.4153479      7056.9036      14113.916      0.68127609   
  50200600   303.43711     -10.850849     -21867854       2.1998005      903.58389     -21866951       597.0251       597.0251       597.0251       1701.4874      2298.5126      1701.4874      2298.5126      1701.4874      2298.5126      2.1280302e+08  0.5            25305300       6.429523       7054.615       14109.15       0.66708096   
  50200800   319.96773     -10.927735     -21867856       2.1998005      952.80927     -21866903       597.0251       597.0251       597.0251       1701.4874      2298.5126      1701.4874      2298.5126      1701.4874      2298.5126      2.1280302e+08  0.5            25305400       6.4437343      7036.6638      14073.387      0.65288958   
  50201000   307.23392     -11.100553     -21867489       2.1998005      914.89014     -21866575       597.0251       597.0251       597.0251       1701.4874      2298.5126      1701.4874      2298.5126      1701.4874      2298.5126      2.1280302e+08  0.5            25305500       6.4579921      7013.6723      14027.356      0.63870271   
  50201200   295.18141     -11.581185     -21867492       2.1998005      878.99983     -21866613       597.0251       597.0251       597.0251       1701.4874      2298.5126      1701.4874      2298.5126      1701.4874      2298.5126      2.1280302e+08  0.5            25305600       6.472238       7019.5561      14039.135      0.62451438   
  50201400   298.0522      -11.835414     -21867496       2.1998005      887.54854     -21866609       597.0251       597.0251       597.0251       1701.4874      2298.5126      1701.4874      2298.5126      1701.4874      2298.5126      2.1280302e+08  0.5            25305700       6.4864527      7035.0099      14070.025      0.61032286   
  50201600   306.23314     -11.67676      -21867132       2.1998005      911.91001     -21866220       597.0251       597.0251       597.0251       1701.4874      2298.5126      1701.4874      2298.5126      1701.4874      2298.5126      2.1280302e+08  0.5            25305800       6.5006868      7025.3689      14050.693      0.59613303   
  50201800   306.04485     -11.710727     -21867136       2.1998005      911.3493      -21866224       597.0251       597.0251       597.0251       1701.4874      2298.5126      1701.4874      2298.5126      1701.4874      2298.5126      2.1280302e+08  0.5            25305900       6.5149182      7026.7264      14053.482      0.58194276   
  50202000   289.04254     -11.824634     -21867138       2.1998005      860.71932     -21866278       597.0251       597.0251       597.0251       1701.4874      2298.5126      1701.4874      2298.5126      1701.4874      2298.5126      2.1280302e+08  0.5            25306000       6.5291501      7026.4559      14052.886      0.56775235   
  50202200   291.89536     -12.011502     -21867141       2.1998005      869.21455     -21866272       597.0251       597.0251       597.0251       1701.4874      2298.5126      1701.4874      2298.5126      1701.4874      2298.5126      2.1280302e+08  0.5            25306100       6.5433688      7033.015       14066.048      0.55356064   
  50202400   306.24675     -12.227518     -21867145       2.1998005      911.95053     -21866233       597.0251       597.0251       597.0251       1701.4874      2298.5126      1701.4874      2298.5126      1701.4874      2298.5126      2.1280302e+08  0.5            25306200       6.5575559      7048.6618      14097.328      0.53936622   
  50202600   306.54636     -12.41685      -21867150       2.1998005      912.84272     -21866238       597.0251       597.0251       597.0251       1701.4874      2298.5126      1701.4874      2298.5126      1701.4874      2298.5126      2.1280302e+08  0.5            25306300       6.5717263      7056.9548      14113.918      0.5251705    
  50202800   301.42821     -12.470859     -21867156       2.1998005      897.60173     -21866258       597.0251       597.0251       597.0251       1701.4874      2298.5126      1701.4874      2298.5126      1701.4874      2298.5126      2.1280302e+08  0.5            25306400       6.5858934      7058.6066      14117.227      0.51097463   
  50203000   298.65709     -12.489938     -21867162       2.1998005      889.34982     -21866272       597.0251       597.0251       597.0251       1701.4874      2298.5126      1701.4874      2298.5126      1701.4874      2298.5126      2.1280302e+08  0.5            25306500       6.6000793      7049.2526      14098.489      0.49678031   
  50203200   298.96415     -12.527289     -21867167       2.1998005      890.26419     -21866276       597.0251       597.0251       597.0251       1701.4874      2298.5126      1701.4874      2298.5126      1701.4874      2298.5126      2.1280302e+08  0.5            25306600       6.614243       7060.2801      14120.599      0.48258439   
  50203400   301.30697     -12.528561     -21867172       2.1998005      897.2407      -21866275       597.0251       597.0251       597.0251       1701.4874      2298.5126      1701.4874      2298.5126      1701.4874      2298.5126      2.1280302e+08  0.5            25306700       6.6284138      7056.805       14113.495      0.46838912   
  50203600   302.68422     -12.451598     -21867178       2.1998005      901.34192     -21866277       597.0251       597.0251       597.0251       1701.4874      2298.5126      1701.4874      2298.5126      1701.4874      2298.5126      2.1280302e+08  0.5            25306800       6.6425757      7061.1675      14122.406      0.45419334   
  50203800   298.24712     -12.301384     -21867185       2.1998005      888.129       -21866297       597.0251       597.0251       597.0251       1701.4874      2298.5126      1701.4874      2298.5126      1701.4874      2298.5126      2.1280302e+08  0.5            25306900       6.6567529      7053.5855      14107.18       0.43999872   
  50204000   294.15527     -12.000861     -21867193       2.1998005      875.94418     -21866317       597.0251       597.0251       597.0251       1701.4874      2298.5126      1701.4874      2298.5126      1701.4874      2298.5126      2.1280302e+08  0.5            25307000       6.6709484      7044.5073      14088.999      0.42580534   
  50204200   299.29654     -11.577339     -21867199       2.1998005      891.25399     -21866308       597.0251       597.0251       597.0251       1701.4874      2298.5126      1701.4874      2298.5126      1701.4874      2298.5126      2.1280302e+08  0.5            25307100       6.6853183      6958.9771      13917.922      0.41162269   
  50204400   312.56943     -11.312386     -21867206       2.1998005      930.77838     -21866275       597.0251       597.0251       597.0251       1701.4874      2298.5126      1701.4874      2298.5126      1701.4874      2298.5126      2.1280302e+08  0.5            25307200       6.6994806      7060.9965      14121.979      0.39742693   
  50204600   306.8434      -11.247567     -21867215       2.1998005      913.72725     -21866301       597.0251       597.0251       597.0251       1701.4874      2298.5126      1701.4874      2298.5126      1701.4874      2298.5126      2.1280302e+08  0.5            25307300       6.7136336      7065.6308      14131.301      0.38323078   
  50204800   293.29485     -11.170014     -21867224       2.1998005      873.38199     -21866351       597.0251       597.0251       597.0251       1701.4874      2298.5126      1701.4874      2298.5126      1701.4874      2298.5126      2.1280302e+08  0.5            25307400       6.727821       7048.4979      14096.99       0.36903671   
  50205000   298.54546     -10.93253      -21867234       2.1998005      889.01739     -21866345       597.0251       597.0251       597.0251       1701.4874      2298.5126      1701.4874      2298.5126      1701.4874      2298.5126      2.1280302e+08  0.5            25307500       6.7420008      7052.2931      14104.601      0.35484225   
  50205200   307.01953     -10.811069     -21867244       2.1998005      914.25174     -21866330       597.0251       597.0251       597.0251       1701.4874      2298.5126      1701.4874      2298.5126      1701.4874      2298.5126      2.1280302e+08  0.5            25307600       6.7561548      7065.1466      14130.279      0.34064656   
  50205400   301.22866     -11.014423     -21867255       2.1998005      897.00751     -21866358       597.0251       597.0251       597.0251       1701.4874      2298.5126      1701.4874      2298.5126      1701.4874      2298.5126      2.1280302e+08  0.5            25307700       6.7703217      7058.7147      14117.474      0.32645166   
  50205600   288.77183     -11.170935     -21867266       2.1998005      859.91318     -21866406       597.0251       597.0251       597.0251       1701.4874      2298.5126      1701.4874      2298.5126      1701.4874      2298.5126      2.1280302e+08  0.5            25307800       6.7844578      7074.0874      14148.193      0.31225547   
  50205800   298.56897     -11.030785     -21867277       2.1998005      889.08741     -21866388       597.0251       597.0251       597.0251       1701.4874      2298.5126      1701.4874      2298.5126      1701.4874      2298.5126      2.1280302e+08  0.5            25307900       6.7986028      7069.6479      14139.276      0.29805991   
  50206000   309.26945     -10.880017     -21867290       2.1998005      920.9516      -21866369       597.0251       597.0251       597.0251       1701.4874      2298.5126      1701.4874      2298.5126      1701.4874      2298.5126      2.1280302e+08  0.5            25308000       6.8127272      7079.9322      14159.893      0.28386371   
  50206200   300.93173     -10.955899     -21867303       2.1998005      896.12329     -21866407       597.0251       597.0251       597.0251       1701.4874      2298.5126      1701.4874      2298.5126      1701.4874      2298.5126      2.1280302e+08  0.5            25308100       6.8268246      7093.5182      14186.998      0.26966674   
  50206400   290.41322     -10.984639     -21867315       2.1998005      864.80097     -21866451       597.0251       597.0251       597.0251       1701.4874      2298.5126      1701.4874      2298.5126      1701.4874      2298.5126      2.1280302e+08  0.5            25308200       6.840978       7065.3997      14130.767      0.25547228   
  50206600   299.59951     -10.548396     -21867327       2.1998005      892.15619     -21866435       597.0251       597.0251       597.0251       1701.4874      2298.5126      1701.4874      2298.5126      1701.4874      2298.5126      2.1280302e+08  0.5            25308300       6.8551538      7054.3283      14108.687      0.24127877   
  50206800   307.66256     -9.9705249     -21867338       2.1998005      916.16657     -21866422       597.0251       597.0251       597.0251       1701.4874      2298.5126      1701.4874      2298.5126      1701.4874      2298.5126      2.1280302e+08  0.5            25308400       6.8693319      7053.1079      14106.222      0.22708541   
  50207000   300.59269     -9.8369532     -21867349       2.1998005      895.11371     -21866454       597.0251       597.0251       597.0251       1701.4874      2298.5126      1701.4874      2298.5126      1701.4874      2298.5126      2.1280302e+08  0.5            25308500       6.8834999      7058.1632      14116.335      0.21289181   
  50207200   291.64004     -9.7833085     -21867360       2.1998005      868.45424     -21866492       597.0251       597.0251       597.0251       1701.4874      2298.5126      1701.4874      2298.5126      1701.4874      2298.5126      2.1280302e+08  0.5            25308600       6.8976437      7070.2307      14140.483      0.19869761   
  50207400   298.09443     -9.5485044     -21867369       2.1998005      887.67432     -21866481       597.0251       597.0251       597.0251       1701.4874      2298.5126      1701.4874      2298.5126      1701.4874      2298.5126      2.1280302e+08  0.5            25308700       6.9117668      7080.5884      14161.152      0.18450307   
  50207600   304.79202     -9.5462856     -21867376       2.1998005      907.61859     -21866468       597.0251       597.0251       597.0251       1701.4874      2298.5126      1701.4874      2298.5126      1701.4874      2298.5126      2.1280302e+08  0.5            25308800       6.9261238      6965.2721      13930.503      0.17031457   
  50207800   304.60538     -9.656002      -21867385       2.1998005      907.06281     -21866478       597.0251       597.0251       597.0251       1701.4874      2298.5126      1701.4874      2298.5126      1701.4874      2298.5126      2.1280302e+08  0.5            25308900       6.9402573      7075.3417      14150.688      0.15612035   
  50208000   302.25637     -9.6030831     -21867394       2.1998005      900.06787     -21866494       597.0251       597.0251       597.0251       1701.4874      2298.5126      1701.4874      2298.5126      1701.4874      2298.5126      2.1280302e+08  0.5            25309000       6.954374       7083.8191      14167.613      0.14192604   
  50208200   298.69973     -9.6890701     -21867403       2.1998005      889.47678     -21866514       597.0251       597.0251       597.0251       1701.4874      2298.5126      1701.4874      2298.5126      1701.4874      2298.5126      2.1280302e+08  0.5            25309100       6.9684973      7080.5142      14161.087      0.12773216   
  50208400   296.23592     -9.817471      -21867414       2.1998005      882.14        -21866532       597.0251       597.0251       597.0251       1701.4874      2298.5126      1701.4874      2298.5126      1701.4874      2298.5126      2.1280302e+08  0.5            25309200       6.9826239      7078.8532      14157.669      0.11353863   
  50208600   292.30743     -9.8227566     -21867424       2.1998005      870.4416      -21866554       597.0251       597.0251       597.0251       1701.4874      2298.5126      1701.4874      2298.5126      1701.4874      2298.5126      2.1280302e+08  0.5            25309300       6.9967391      7084.5488      14169.103      0.099345207  
  50208800   293.28528     -9.8860942     -21867434       2.1998005      873.35349     -21866561       597.0251       597.0251       597.0251       1701.4874      2298.5126      1701.4874      2298.5126      1701.4874      2298.5126      2.1280302e+08  0.5            25309400       7.0108525      7085.4543      14170.923      0.085152078  
  50209000   307.81354     -10.106057     -21867445       2.1998005      916.61616     -21866528       597.0251       597.0251       597.0251       1701.4874      2298.5126      1701.4874      2298.5126      1701.4874      2298.5126      2.1280302e+08  0.5            25309500       7.0249849      7075.96        14151.908      0.070959463  
  50209200   311.3449      -10.462209     -21867456       2.1998005      927.13194     -21866529       597.0251       597.0251       597.0251       1701.4874      2298.5126      1701.4874      2298.5126      1701.4874      2298.5126      2.1280302e+08  0.5            25309600       7.0391344      7067.389       14134.776      0.056767228  
  50209400   295.81498     -10.98383      -21867469       2.1998005      880.8865      -21866588       597.0251       597.0251       597.0251       1701.4874      2298.5126      1701.4874      2298.5126      1701.4874      2298.5126      2.1280302e+08  0.5            25309700       7.0533223      7048.2778      14096.576      0.042575397  
  50209600   297.58898     -11.27439      -21867481       2.1998005      886.16918     -21866595       597.0251       597.0251       597.0251       1701.4874      2298.5126      1701.4874      2298.5126      1701.4874      2298.5126      2.1280302e+08  0.5            25309800       7.0675151      7045.8072      14091.591      0.028383602  
  50209800   303.38569     -11.715659     -21867492       2.1998005      903.43077     -21866588       597.0251       597.0251       597.0251       1701.4874      2298.5126      1701.4874      2298.5126      1701.4874      2298.5126      2.1280302e+08  0.5            25309900       7.0816707      7064.3266      14128.67       0.014191729  
  50210000   302.16738     -12.454771     -21867503       2.1998005      899.80285     -21866604       597.0251       597.0251       597.0251       1701.4874      2298.5126      1701.4874      2298.5126      1701.4874      2298.5126      2.1280302e+08  0.5            25310000       7.095817       7068.9932      14137.97       0            
Loop time of 7.09583 on 4 procs for 100000 steps with 1000 atoms

Performance: 608.808 ns/day, 0.039 hours/ns, 14092.781 timesteps/s
99.9% CPU use with 4 MPI tasks x 1 OpenMP threads

MPI task timing breakdown:
Section |  min time  |  avg time  |  max time  |%varavg| %total
---------------------------------------------------------------
Pair    | 3.835      | 4.3186     | 4.5527     |  13.9 | 60.86
Neigh   | 0.002855   | 0.0033305  | 0.0035976  |   0.5 |  0.05
Comm    | 1.6317     | 1.8732     | 2.3768     |  21.8 | 26.40
Output  | 0.028044   | 0.02944    | 0.033532   |   1.4 |  0.41
Modify  | 0.52888    | 0.57838    | 0.60105    |   3.8 |  8.15
Other   |            | 0.2929     |            |       |  4.13

Nlocal:            250 ave         272 max         216 min
Histogram: 1 0 0 0 0 0 1 1 0 1
Nghost:         847.75 ave         872 max         823 min
Histogram: 1 0 0 1 0 0 1 0 0 1
Neighs:           1710 ave        1806 max        1525 min
Histogram: 1 0 0 0 0 0 1 0 0 2

Total # of neighbors = 6840
Ave neighs/atom = 6.84
Neighbor list builds = 17
Dangerous builds = 0

# run_style
run_style verlet


Total wall time: 0:00:07
