LAMMPS (23 Jun 2022 - Update 1)
OMP_NUM_THREADS environment is not set. Defaulting to 1 thread. (src/comm.cpp:98)
  using 1 OpenMP thread(s) per MPI task
###

# Read restart info
read_restart ${read_res}
read_restart ./400600/equpmf71.res
Reading restart file ...
  restart file = 23 Jun 2022, LAMMPS = 23 Jun 2022
  restoring atom style atomic from restart
  orthogonal box = (2159.5319 2159.5319 2159.5319) to (2840.4681 2840.4681 2840.4681)
  1 by 1 by 1 MPI processor grid
  restoring pair style table from restart
  1000 atoms
  read_restart CPU = 0.040 seconds

# Settings
pair_style table/pgn spline 9941
pair_coeff 1 1 N20.txt DE_GNP 147.89 75.6
pair_coeff 2 2 N100.txt DE_GNP 473.9 115.92
WARNING: 3 of 9941 force values in table DE_GNP are inconsistent with -dE/dr.
WARNING:  Should only be flagged at inflection points (src/pair_table_pgn.cpp:478)
pair_coeff 1 2 mixed_potential.txt DE_GNP 391.2 95.66
WARNING: 1562 of 9941 force values in table DE_GNP are inconsistent with -dE/dr.
WARNING:  Should only be flagged at inflection points (src/pair_table_pgn.cpp:478)

# Neighbor list
neighbor 2.0 bin
neigh_modify delay 0 every 1 check yes

# Temperature
variable T equal ${Temp}
variable T equal 300

# Deformation
reset_timestep 0
variable tmp equal "lx"
variable L0 equal ${tmp}
variable L0 equal 680.936214552134
variable strain equal "(lx - v_L0)/v_L0"
variable stp equal "step"
variable tmpe equal "temp"
variable p1 equal "v_strain"
variable p2 equal "-pxx*1.01325/10000"
variable p3 equal "-pyy*1.01325/10000"
variable p4 equal "-pzz*1.01325/10000"
variable p5 equal "lx"
variable p6 equal "ly"
variable p7 equal "lz"
variable p8 equal "press"
variable p9 equal "epair"
variable p10 equal "etotal"

# Thermo
thermo_style custom step temp v_p1 v_p2 v_p3 v_p4 press lx ly lz vol density epair pe ke etotal pxx pyy pzz pxy pxz pyz spcpu
thermo ${ts_save}
thermo 100

# Dump
dump 1 all custom 2000 ./tensile/trajectory/trajectory_${usic}_${trial}_*.tensile.custom id type x y z ix iy iz
dump 1 all custom 2000 ./tensile/trajectory/trajectory_1_${trial}_*.tensile.custom id type x y z ix iy iz
dump 1 all custom 2000 ./tensile/trajectory/trajectory_1_2_*.tensile.custom id type x y z ix iy iz
dump_modify 1 sort id
dump 2 all cfg 2500 ./tensile/trajectory/ovito/dumpten.tens_${usic}_${trial}_*.cfg mass type xs ys zs fx fy fz
dump 2 all cfg 2500 ./tensile/trajectory/ovito/dumpten.tens_1_${trial}_*.cfg mass type xs ys zs fx fy fz
dump 2 all cfg 2500 ./tensile/trajectory/ovito/dumpten.tens_1_2_*.cfg mass type xs ys zs fx fy fz
dump_modify 2 element N20 N100

fix 1 all nvt temp ${T} ${T} 100
fix 1 all nvt temp 300 ${T} 100
fix 1 all nvt temp 300 300 100
fix 2 all deform 1 x erate ${strain_rate} y erate ${strain_rate} z erate ${strain_rate} units box
fix 2 all deform 1 x erate 5e-6 y erate ${strain_rate} z erate ${strain_rate} units box
fix 2 all deform 1 x erate 5e-6 y erate 5e-6 z erate ${strain_rate} units box
fix 2 all deform 1 x erate 5e-6 y erate 5e-6 z erate 5e-6 units box
fix             def1 all print ${ts_save} "${p1} ${p2} ${p3} ${p4}" file ./tensile/tensile${N20}${N100}_${usic}_${trial}.txt screen no
fix             def1 all print 100 "${p1} ${p2} ${p3} ${p4}" file ./tensile/tensile${N20}${N100}_${usic}_${trial}.txt screen no
fix             def1 all print 100 "${p1} ${p2} ${p3} ${p4}" file ./tensile/tensile400${N100}_${usic}_${trial}.txt screen no
fix             def1 all print 100 "${p1} ${p2} ${p3} ${p4}" file ./tensile/tensile400600_${usic}_${trial}.txt screen no
fix             def1 all print 100 "${p1} ${p2} ${p3} ${p4}" file ./tensile/tensile400600_1_${trial}.txt screen no
fix             def1 all print 100 "${p1} ${p2} ${p3} ${p4}" file ./tensile/tensile400600_1_2.txt screen no

timestep       		${ts}
timestep       		1
run				${steps_tensile}
run				250000
Generated 0 of 1 mixed pair_coeff terms from geometric mixing rule
Unused restart file global fix info:
  fix style: npt, fix ID: 5
Neighbor list info ...
  update every 1 steps, delay 0 steps, check yes
  max neighbors/atom: 2000, page size: 100000
  master list distance cutoff = 117.92
  ghost atom cutoff = 117.92
  binsize = 58.96, bins = 12 12 12
  1 neighbor lists, perpetual/occasional/extra = 1 0 0
  (1) pair table/pgn, perpetual
      attributes: half, newton on
      pair build: half/bin/atomonly/newton
      stencil: half/bin/3d
      bin: standard
Per MPI rank memory allocation (min/avg/max) = 5.814 | 5.814 | 5.814 Mbytes
   Step          Temp           v_p1           v_p2           v_p3           v_p4          Press            Lx             Ly             Lz           Volume        Density         E_pair         PotEng         KinEng         TotEng          Pxx            Pyy            Pzz            Pxy            Pxz            Pyz           S/CPU     
         0   305.05076     -5.0086999e-16  0.017386689    0.017072871    0.015486895   -164.31106      680.93621      680.93621      680.93621      3.1573251e+08  1.7985356     -36067360      -36067360       908.38907     -36066452      -171.59328     -168.49613     -152.84377     -52.686024     -88.621184     -19.01103       0            
       100   412.97044      0.0005         0.025154573    0.025020435    0.023371902   -241.95052      681.27668      681.27668      681.27668      3.1620634e+08  1.7958405     -36066393      -36066393       1229.7554     -36065163      -248.25633     -246.9325      -230.66274     -53.184311     -87.430505     -19.230248      5771.6193    
       200   527.34343      0.001          0.032331066    0.032365552    0.030519821   -313.23773      681.61715      681.61715      681.61715      3.1668065e+08  1.7931508     -36024151      -36024151       1570.3387     -36022581      -319.08281     -319.42317     -301.20722     -54.369934     -84.90682      -21.065249      5505.4026    
       300   594.44495      0.0015         0.039475715    0.039508483    0.037842442   -384.32976      681.95762      681.95762      681.95762      3.1715543e+08  1.7904664     -36022605      -36022605       1770.1556     -36020835      -389.59502     -389.91841     -373.47586     -54.369441     -82.913741     -22.014057      5794.7597    
       400   614.14395      0.002          0.046293799    0.046398036    0.044429651   -451.09461      682.29809      682.29809      682.29809      3.1763069e+08  1.7877874     -35964214      -35964214       1828.8158     -35962385      -456.88427     -457.91301     -438.48656     -52.822628     -82.026224     -22.230423      5540.6871    
       500   604.3705       0.0025         0.053495488    0.053611963    0.051669802   -522.33655      682.63856      682.63856      682.63856      3.1810642e+08  1.7851138     -35961783      -35961783       1799.7121     -35959983      -527.95942     -529.10893     -509.9413      -52.416568     -80.09224      -21.641301      5799.6076    
       600   581.74844      0.003          0.060297259    0.060554593    0.058723471   -590.75688      682.97902      682.97902      682.97902      3.1858263e+08  1.7824454     -35932373      -35932373       1732.3475     -35930641      -595.08767     -597.62737     -579.5556      -53.223409     -78.991971     -19.819178      5557.5124    
       700   556.44371      0.0035         0.066885735    0.067353721    0.065529639   -657.18923      683.31949      683.31949      683.31949      3.1905931e+08  1.7797824     -35902652      -35902652       1656.9943     -35900995      -660.11088     -664.72954     -646.72726     -53.252466     -78.120566     -19.330128      5555.2883    
       800   532.35121      0.004          0.073662054    0.074357755    0.072439706   -725.25542      683.65996      683.65996      683.65996      3.1953647e+08  1.7771247     -35898698      -35898698       1585.251      -35897112      -726.98795     -733.85399     -714.92432     -51.219528     -76.449165     -19.510766      5768.7796    
       900   511.08634      0.0045         0.080297473    0.080998919    0.078984889   -790.46396      684.00043      684.00043      684.00043      3.200141e+08   1.7744723     -35864508      -35864508       1521.9279     -35862986      -792.47444     -799.39718     -779.52024     -50.0003       -75.496521     -21.07762       5561.8612    
      1000   493.23786      0.005          0.08683889     0.087598861    0.085493518   -855.10739      684.3409       684.3409       684.3409       3.2049221e+08  1.7718251     -35859554      -35859554       1468.7781     -35858085      -857.03321     -864.53354     -843.75542     -50.129013     -73.378423     -22.497811      5766.7224    
      1100   478.13266      0.0055         0.092883101    0.094043574    0.091642537   -916.42146      684.68136      684.68136      684.68136      3.209708e+08   1.7691832     -35831875      -35831875       1423.7974     -35830451      -916.68494     -928.13791     -904.44152     -51.204496     -70.266636     -23.362102      5557.9214    
      1200   464.88059      0.006          0.099013549    0.10042334     0.097948423   -978.3216       685.02183      685.02183      685.02183      3.2144986e+08  1.7665466     -35825980      -35825980       1384.335      -35824595      -977.18775     -991.10128     -966.67577     -51.267368     -68.248797     -23.332103      5827.1289    
      1300   453.38967      0.0065         0.10477191     0.10632504     0.10404453    -1036.7348      685.3623       685.3623       685.3623       3.219294e+08   1.7639152     -35797519      -35797519       1350.117      -35796168      -1034.0183     -1049.3466     -1026.8396     -49.753363     -66.763243     -23.043768      5570.8947    
      1400   444.06569      0.007          0.11011444     0.11199585     0.10974081    -1091.7053      685.70277      685.70277      685.70277      3.2240941e+08  1.761289      -35754292      -35754292       1322.3518     -35752969      -1086.7451     -1105.3131     -1083.0576     -50.997377     -67.483007     -22.604393      5528.3768    
      1500   436.06395      0.0075         0.11578519     0.11774958     0.11569449    -1148.875       686.04324      686.04324      686.04324      3.228899e+08   1.7586681     -35747108      -35747108       1298.524      -35745810      -1142.711      -1162.098      -1141.8159     -51.193783     -66.535726     -22.030953      5836.638     
      1600   428.79478      0.008          0.12148233     0.12343879     0.1213069     -1204.7965      686.3837       686.3837       686.3837       3.2337087e+08  1.7560523     -35725991      -35725991       1276.8776     -35724714      -1198.9374     -1218.2461     -1197.206      -50.919069     -65.283346     -22.056804      5579.1731    
      1700   422.3494       0.0085         0.12730351     0.12906932     0.12687264    -1260.7796      686.72417      686.72417      686.72417      3.2385231e+08  1.7534417     -35717955      -35717955       1257.6844     -35716698      -1256.388      -1273.8151     -1252.1356     -49.650414     -63.908402     -22.209753      5843.9851    
      1800   416.98157      0.009          0.13262544     0.13447235     0.13174842    -1312.102       687.06464      687.06464      687.06464      3.2433424e+08  1.7508363     -35661719      -35661719       1241.6999     -35660477      -1308.9114     -1327.1389     -1300.2559     -47.701296     -61.518769     -23.194017      5588.3127    
      1900   412.5052       0.0095         0.13788856     0.14002164     0.13697727    -1364.8737      687.40511      687.40511      687.40511      3.2481664e+08  1.7482361     -35652901      -35652901       1228.3701     -35651672      -1360.8542     -1381.9062     -1351.8605     -46.459837     -59.986996     -23.725557      5792.1075    
      2000   408.59039      0.01           0.14273295     0.1449988      0.14193375    -1413.4896      687.74558      687.74558      687.74558      3.2529952e+08  1.7456409     -35595577      -35595577       1216.7124     -35594360      -1408.6647     -1431.0269     -1400.7772     -45.834741     -56.981698     -22.596834      4653.6998    
      2100   405.48212      0.0105         0.14741897     0.15015802     0.14709428    -1462.8548      688.08604      688.08604      688.08604      3.2578287e+08  1.743051      -35560037      -35560037       1207.4565     -35558830      -1454.9122     -1481.9444     -1451.7077     -44.8063       -54.891612     -22.21663       5577.8123    
      2200   403.05885      0.011          0.15230857     0.15513912     0.15230404    -1512.4656      688.42651      688.42651      688.42651      3.2626671e+08  1.7404661     -35550124      -35550124       1200.2404     -35548924      -1503.1687     -1531.1041     -1503.124      -44.728307     -52.923632     -21.683562      5867.5643    
      2300   401.20565      0.0115         0.15695194     0.15983543     0.15711202    -1559.0078      688.76698      688.76698      688.76698      3.2675102e+08  1.7378864     -35530105      -35530105       1194.7219     -35528911      -1548.9952     -1577.4531     -1550.5751     -45.742185     -49.803608     -22.093408      5605.6834    
      2400   399.86875      0.012          0.16164934     0.1645581      0.16172877    -1605.1853      689.10745      689.10745      689.10745      3.2723582e+08  1.7353117     -35519482      -35519482       1190.7409     -35518291      -1595.355      -1624.0622     -1596.1388     -46.240005     -48.479444     -21.406919      5874.8325    
      2500   398.89835      0.0125         0.16627821     0.16911162     0.16590159    -1649.1206      689.44792      689.44792      689.44792      3.2772109e+08  1.7327422     -35476823      -35476823       1187.8512     -35475635      -1641.0384     -1669.0019     -1637.3214     -45.947794     -47.996841     -19.957445      4449.9616    
      2600   397.92738      0.013          0.17102338     0.17371007     0.17037574    -1694.5775      689.78839      689.78839      689.78839      3.2820684e+08  1.7301777     -35465538      -35465538       1184.9598     -35464353      -1687.8695     -1714.3851     -1681.4778     -44.726761     -46.66887      -19.651067      5868.1499    
      2700   396.9808       0.0135         0.17533646     0.17782496     0.1747218     -1736.6008      690.12885      690.12885      690.12885      3.2869308e+08  1.7276182     -35429941      -35429941       1182.141      -35428759      -1730.4363     -1754.9959     -1724.3701     -44.801353     -46.002875     -21.380325      5610.1649    
      2800   396.59223      0.014          0.17906197     0.18176496     0.17851902    -1774.3103      690.46932      690.46932      690.46932      3.2917979e+08  1.7250639     -35366403      -35366403       1180.9839     -35365222      -1767.2042     -1793.8807     -1761.8458     -45.456009     -44.075874     -22.711736      5617.1813    
      2900   396.18807      0.0145         0.18314467     0.18610062     0.18274045    -1815.8919      690.80979      690.80979      690.80979      3.2966698e+08  1.7225145     -35354211      -35354211       1179.7804     -35353032      -1807.4974     -1836.6703     -1803.508      -44.944238     -41.41442      -22.634151      5892.2241    
      3000   395.86878      0.015          0.18717541     0.19045114     0.18669937    -1856.4879      691.15026      691.15026      691.15026      3.3015465e+08  1.7199702     -35324982      -35324982       1178.8296     -35323803      -1847.2776     -1879.6066     -1842.5795     -43.77105      -38.690164     -22.921726      5584.1794    
      3100   395.74221      0.0155         0.19112318     0.19447809     0.19064599    -1895.7061      691.49073      691.49073      691.49073      3.3064281e+08  1.7174308     -35312184      -35312184       1178.4527     -35311005      -1886.2391     -1919.3495     -1881.5296     -42.80557      -38.085975     -22.39412       5889.7421    
      3200   396.02206      0.016          0.19484017     0.19811788     0.19411107    -1931.3072      691.83119      691.83119      691.83119      3.3113144e+08  1.7148965     -35247910      -35247910       1179.2861     -35246730      -1922.923      -1955.2714     -1915.7273     -41.850615     -38.467891     -20.356465      5627.0424    
      3300   396.97717      0.0165         0.19865638     0.20199806     0.19796034    -1969.2895      692.17166      692.17166      692.17166      3.3162056e+08  1.7123672     -35234575      -35234575       1182.1302     -35233393      -1960.5861     -1993.5658     -1953.7167     -40.881307     -37.998484     -18.660794      5897.84      
      3400   398.69942      0.017          0.20208484     0.20564795     0.20179046    -2005.1756      692.51213      692.51213      692.51213      3.3211015e+08  1.7098428     -35208305      -35208305       1187.2588     -35207118      -1994.4223     -2029.5875     -1991.517      -40.477542     -35.107934     -18.856271      5631.887     
      3500   400.25602      0.0175         0.20565056     0.20893251     0.20543819    -2039.7114      692.8526       692.8526       692.8526       3.3260023e+08  1.7073234     -35172309      -35172309       1191.8941     -35171117      -2029.6133     -2062.0035     -2027.5173     -41.062077     -32.665373     -21.004214      5634.564     
      3600   401.06925      0.018          0.20930002     0.21232177     0.20892799    -2074.3475      693.19307      693.19307      693.19307      3.3309079e+08  1.7048089     -35158178      -35158178       1194.3157     -35156983      -2065.6306     -2095.453      -2061.9589     -40.325278     -30.960736     -21.814335      5852.0466    
      3700   401.59591      0.0185         0.21251789     0.21577097     0.21213191    -2106.8205      693.53353      693.53353      693.53353      3.3358184e+08  1.7022994     -35126928      -35126928       1195.884      -35125732      -2097.3885     -2129.4939     -2093.5792     -38.321038     -30.138621     -21.737353      5639.3704    
      3800   402.54576      0.019          0.21579778     0.21930966     0.21526319    -2139.553       693.874        693.874        693.874        3.3407336e+08  1.6997948     -35112305      -35112305       1198.7125     -35111106      -2129.7585     -2164.418      -2124.4825     -37.594817     -28.536042     -21.531211      5906.6445    
      3900   403.85282      0.0195         0.21878142     0.22256027     0.21818971    -2169.6896      694.21447      694.21447      694.21447      3.3456537e+08  1.6972951     -35081935      -35081935       1202.6047     -35080733      -2159.2047     -2196.499      -2153.365      -36.978303     -25.937318     -21.387191      5639.6124    
      4000   405.12444      0.02           0.22173463     0.2256232      0.22122238    -2199.4579      694.55494      694.55494      694.55494      3.3505786e+08  1.6948003     -35066847      -35066847       1206.3914     -35065640      -2188.3506     -2226.7279     -2183.2952     -36.32509      -24.914535     -21.071072      5154.1081    
      4100   406.05413      0.0205         0.22418387     0.22816496     0.22406497    -2225.2284      694.89541      694.89541      694.89541      3.3555083e+08  1.6923104     -35011129      -35011129       1209.1599     -35009920      -2212.5228     -2251.8131     -2211.3493     -34.955952     -25.186572     -18.026505      5635.0581    
      4200   407.24015      0.021          0.2269378      0.2308636      0.226869      -2252.3905      695.23588      695.23588      695.23588      3.3604429e+08  1.6898253     -34971147      -34971147       1212.6916     -34969934      -2239.7019     -2278.4466     -2239.0229     -34.602861     -24.973638     -15.387526      5604.6266    
      4300   408.40807      0.0215         0.2298873      0.23385124     0.22985       -2281.7289      695.57634      695.57634      695.57634      3.3653823e+08  1.6873452     -34955437      -34955437       1216.1695     -34954221      -2268.8112     -2307.9323     -2268.4431     -33.958677     -23.293826     -15.529606      5903.3874    
      4400   409.45263      0.022          0.2323961      0.23637117     0.23231813    -2306.3916      695.91681      695.91681      695.91681      3.3703266e+08  1.6848698     -34901394      -34901394       1219.28       -34900175      -2293.5711     -2332.802      -2292.8017     -30.820536     -23.276337     -18.228267      5654.1498    
      4500   410.97559      0.0225         0.23518724     0.23893927     0.23491529    -2332.5661      696.25728      696.25728      696.25728      3.3752756e+08  1.6823993     -34885286      -34885286       1223.8151     -34884063      -2321.1176     -2358.1472     -2318.4337     -29.50364      -23.363941     -18.979932      5785.6221    
      4600   412.62197      0.023          0.23774851     0.24147579     0.23747193    -2357.7473      696.59775      696.59775      696.59775      3.3802296e+08  1.6799337     -34852112      -34852112       1228.7178     -34850883      -2346.3954     -2383.1808     -2343.6657     -29.303282     -21.00235      -18.672363      5646.3667    
      4700   414.24678      0.0235         0.24003681     0.24396933     0.23998565    -2381.7478      696.93822      696.93822      696.93822      3.3851883e+08  1.6774729     -34835615      -34835615       1233.5562     -34834382      -2368.9791     -2407.7901     -2368.4742     -29.979094     -19.189326     -18.147342      5925.0646    
      4800   415.90204      0.024          0.24187622     0.24626405     0.24189433    -2401.6271      697.27868      697.27868      697.27868      3.390152e+08   1.6750168     -34780417      -34780417       1238.4853     -34779179      -2387.1327     -2430.4372     -2387.3114     -30.212418     -18.816744     -18.70743       5614.3853    
      4900   416.79202      0.0245         0.24384019     0.24821098     0.24374404    -2420.578       697.61915      697.61915      697.61915      3.3951204e+08  1.6725656     -34708703      -34708703       1241.1355     -34707462      -2406.5156     -2449.6519     -2405.5667     -29.735918     -18.087222     -18.704195      5672.06      
      5000   417.30836      0.025          0.24615046     0.25046508     0.24585463    -2442.5369      697.95962      697.95962      697.95962      3.4000938e+08  1.6701191     -34691725      -34691725       1242.673      -34690483      -2429.3161     -2471.8981     -2426.3965     -28.754846     -16.857045     -17.495734      4932.4742    
      5100   418.30545      0.0255         0.24812176     0.25233885     0.24779823    -2461.5802      698.30009      698.30009      698.30009      3.4050719e+08  1.6676774     -34635019      -34635019       1245.6422     -34633773      -2448.7714     -2490.3908     -2445.5784     -29.051836     -15.719714     -17.056889      5661.5832    
      5200   419.90797      0.026          0.25023837     0.2545394      0.25008532    -2483.3065      698.64056      698.64056      698.64056      3.410055e+08   1.6652405     -34617723      -34617723       1250.4142     -34616472      -2469.6607     -2512.1085     -2468.1502     -28.242181     -15.089023     -16.350788      5943.7872    
      5300   421.39672      0.0265         0.25217082     0.2563901      0.25206183    -2502.2543      698.98102      698.98102      698.98102      3.4150429e+08  1.6628083     -34572443      -34572443       1254.8475     -34571188      -2488.7325     -2530.3735     -2487.6569     -27.3698       -15.217639     -17.087013      5185.7252    
      5400   422.8612       0.027          0.25395533     0.25815263     0.25398018    -2520.234       699.32149      699.32149      699.32149      3.4200356e+08  1.6603808     -34554845      -34554845       1259.2085     -34553586      -2506.3443     -2547.7684     -2506.5895     -26.008366     -14.956669     -16.860549      5948.3849    
      5500   424.30881      0.0275         0.25560637     0.25952453     0.25570924    -2535.8669      699.66196      699.66196      699.66196      3.4250332e+08  1.6579581     -34517425      -34517425       1263.5192     -34516161      -2522.6388     -2561.308      -2523.654      -25.501905     -13.056771     -17.61987       5686.0142    
      5600   425.48145      0.028          0.25753008     0.26103183     0.25720101    -2552.0616      700.00243      700.00243      700.00243      3.4300357e+08  1.6555401     -34475350      -34475350       1267.0111     -34474083      -2541.6243     -2576.1838     -2538.3766     -24.68065      -11.805045     -20.097763      5683.0665    
      5700   426.30704      0.0285         0.25945631     0.26275508     0.25882533    -2569.411       700.3429       700.3429       700.3429       3.4350431e+08  1.6531267     -34457353      -34457353       1269.4696     -34456083      -2560.6347     -2593.191      -2554.4074     -25.470766     -11.940169     -20.627106      5967.5161    
      5800   426.80304      0.029          0.26103729     0.26459429     0.26041264    -2585.8844      700.68336      700.68336      700.68336      3.4400553e+08  1.6507181     -34431807      -34431807       1270.9466     -34430536      -2576.2378     -2611.3426     -2570.0729     -25.634632     -11.737012     -18.917941      5689.0426    
      5900   427.14254      0.0295         0.26232492     0.26620078     0.2619806     -2600.5635      701.02383      701.02383      701.02383      3.4450724e+08  1.6483142     -34413552      -34413552       1271.9575     -34412280      -2588.9457     -2627.1975     -2585.5475     -24.24952      -10.474222     -16.692217      5909.4163    
      6000   427.96388      0.03           0.26360075     0.2672469      0.2632178     -2612.2722      701.3643       701.3643       701.3643       3.4500943e+08  1.6459149     -34374631      -34374631       1274.4034     -34373357      -2601.5371     -2637.5218     -2597.7577     -23.046487     -10.037334     -14.468683      4107.6822    
      6100   428.89928      0.0305         0.26510645     0.26855815     0.2646384     -2626.2127      701.70477      701.70477      701.70477      3.4551212e+08  1.6435202     -34356146      -34356146       1277.1888     -34354868      -2616.3972     -2650.4629     -2611.7779     -23.583523     -8.8612462     -14.01712       5733.1392    
      6200   429.73477      0.031          0.26629456     0.26967236     0.26578921    -2637.5726      702.04524      702.04524      702.04524      3.4601529e+08  1.6411302     -34313886      -34313886       1279.6768     -34312606      -2628.123      -2661.4593     -2623.1355     -24.081576     -9.2520883     -14.043675      5691.8954    
      6300   430.8736       0.0315         0.267181       0.2705718      0.26679997    -2646.7728      702.38571      702.38571      702.38571      3.4651895e+08  1.6387449     -34271053      -34271053       1283.068      -34269770      -2636.8714     -2670.336      -2633.1109     -24.172353     -9.6650564     -14.864537      5695.5963    
      6400   431.94723      0.032          0.26827528     0.27149146     0.26800115    -2657.3497      702.72617      702.72617      702.72617      3.470231e+08   1.6363641     -34252294      -34252294       1286.2651     -34251008      -2647.6711     -2679.4124     -2644.9657     -22.876412     -9.3583693     -14.532007      5926.0639    
      6500   432.47192      0.0325         0.26929046     0.27235245     0.26900032    -2666.8089      703.06664      703.06664      703.06664      3.4752774e+08  1.633988      -34194812      -34194812       1287.8275     -34193525      -2657.6902     -2687.9097     -2654.8268     -21.287145     -7.6609557     -11.961542      5707.2273    
      6600   432.83945      0.033          0.27059606     0.27346063     0.27022681    -2678.7845      703.40711      703.40711      703.40711      3.4803287e+08  1.6316165     -34175874      -34175874       1288.922      -34174585      -2670.5755     -2698.8466     -2666.9312     -20.29356      -6.2652883     -10.379255      5981.3875    
      6700   433.28398      0.0335         0.27159491     0.27452561     0.27090988    -2687.821       703.74758      703.74758      703.74758      3.4853849e+08  1.6292495     -34119556      -34119556       1290.2457     -34118266      -2680.4333     -2709.3572     -2673.6726     -19.440122     -4.0190898     -10.333581      5709.9752    
      6800   433.88337      0.034          0.27254145     0.2755255      0.27167745    -2696.7494      704.08805      704.08805      704.08805      3.4904459e+08  1.6268871     -34100438      -34100438       1292.0306     -34099146      -2689.775      -2719.2252     -2681.248      -19.442482     -2.5092544     -11.210613      5984.8108    
      6900   434.35405      0.0345         0.27313796     0.27597705     0.27228523    -2702.1967      704.42851      704.42851      704.42851      3.4955119e+08  1.6245293     -34040389      -34040389       1293.4322     -34039095      -2695.6621     -2723.6817     -2687.2463     -19.006505     -2.3523972     -12.122195      5725.314     
      7000   434.50666      0.035          0.27387184     0.27655456     0.273128      -2709.2833      704.76898      704.76898      704.76898      3.5005827e+08  1.6221761     -33998157      -33998157       1293.8866     -33996863      -2702.9049     -2729.3813     -2695.5638     -18.44356      -3.3444341     -12.078433      5679.6425    
      7100   434.79039      0.0355         0.27468343     0.27713738     0.27396556    -2716.6259      705.10945      705.10945      705.10945      3.5056585e+08  1.6198274     -33978833      -33978833       1294.7315     -33977539      -2710.9146     -2735.1333     -2703.8299     -17.414694     -3.3372621     -10.60232       5998.9795    
      7200   435.61391      0.036          0.2751839      0.27745902     0.27457067    -2721.3211      705.44992      705.44992      705.44992      3.5107392e+08  1.6174832     -33943937      -33943937       1297.1838     -33942640      -2715.8539     -2738.3076     -2709.8019     -15.49774      -2.3459387     -8.1600796      5725.1852    
      7300   436.20824      0.0365         0.27561439     0.277908       0.27516194    -2726.1595      705.79039      705.79039      705.79039      3.5158247e+08  1.6151435     -33924505      -33924505       1298.9537     -33923206      -2720.1025     -2742.7387     -2715.6372     -14.276361     -1.4922098     -6.9541133      6001.1305    
      7400   436.33705      0.037          0.27576834     0.2782799      0.275183      -2727.9587      706.13085      706.13085      706.13085      3.5209152e+08  1.6128084     -33855737      -33855737       1299.3372     -33854438      -2721.622      -2746.4091     -2715.845      -14.048622     -1.0684716     -7.4749986      5733.943     
      7500   436.24357      0.0375         0.27655393     0.27852859     0.27550719    -2732.4277      706.47132      706.47132      706.47132      3.5260106e+08  1.6104777     -33817520      -33817520       1299.0589     -33816221      -2729.3751     -2748.8635     -2719.0446     -14.294426      0.21944446    -7.8727703      2336.5387    
      7600   436.21003      0.038          0.27733154     0.2790135      0.2760335     -2738.3125      706.81179      706.81179      706.81179      3.5311109e+08  1.6081516     -33797958      -33797958       1298.959      -33796659      -2737.0495     -2753.6492     -2724.2388     -15.222691      0.78017461    -6.8487296      3986.711     
      7700   436.37758      0.0385         0.27750244     0.27931221     0.27630975    -2740.7662      707.15226      707.15226      707.15226      3.5362161e+08  1.6058299     -33747406      -33747406       1299.4579     -33746106      -2738.7361     -2756.5972     -2726.9652     -14.994577      1.5042993     -3.8912524      5737.5075    
      7800   436.66095      0.039          0.27773343     0.27957115     0.2766038     -2743.3453      707.49273      707.49273      707.49273      3.5413263e+08  1.6035127     -33727751      -33727751       1300.3017     -33726451      -2741.0159     -2759.1527     -2729.8673     -13.367889      2.496113      -2.5001959      6015.161     
      7900   428.13293      0.0395         0.27715141     0.27886403     0.27650235    -2738.7706      707.8332       707.8332       707.8332       3.5464413e+08  1.6011999     -33724833      -33724833       1274.9068     -33723558      -2735.2718     -2752.174      -2728.866      -12.090813      1.3595108     -6.4938299      5703.1395    
      8000   425.39552      0.04           0.27733226     0.27894407     0.27670115    -2740.2829      708.17366      708.17366      708.17366      3.5515613e+08  1.5988916     -33705120      -33705120       1266.7552     -33703854      -2737.0566     -2752.9639     -2730.828      -11.547177      2.5447699     -8.6632421      4870.1527    
      8100   428.40273      0.0405         0.27739556     0.27876748     0.27682029    -2740.3021      708.51413      708.51413      708.51413      3.5566862e+08  1.5965877     -33646766      -33646766       1275.7102     -33645490      -2737.6813     -2751.2211     -2732.0039     -9.3774707      1.7766437     -9.6765261      5718.8621    
      8200   431.3889       0.041          0.27759414     0.27854772     0.27685768    -2740.3554      708.8546       708.8546       708.8546       3.561816e+08   1.5942883     -33608658      -33608658       1284.6025     -33607373      -2739.6412     -2749.0523     -2732.3728     -8.5269691      1.3741034     -7.2920994      5747.4042    
      8300   433.20903      0.0415         0.27757908     0.27834124     0.27674676    -2739.2617      709.19507      709.19507      709.19507      3.5669508e+08  1.5919932     -33588913      -33588913       1290.0225     -33587623      -2739.4926     -2747.0145     -2731.2782     -9.5305177      2.2642735     -5.6588927      6034.1782    
      8400   434.00246      0.042          0.2771521      0.27791287     0.27628781    -2734.938       709.53554      709.53554      709.53554      3.5720905e+08  1.5897026     -33515980      -33515980       1292.3852     -33514688      -2735.2785     -2742.7868     -2726.7487     -10.250738      2.2243429     -4.2626974      5758.5472    
      8500   434.11428      0.0425         0.2771609      0.27787981     0.2762232     -2734.6457      709.876        709.876        709.876        3.5772351e+08  1.5874164     -33496253      -33496253       1292.7182     -33494960      -2735.3654     -2742.4605     -2726.111      -9.0855446      2.3674607     -3.2311         5991.4617    
      8600   433.84811      0.043          0.27698967     0.27764709     0.27618989    -2733.2072      710.21647      710.21647      710.21647      3.5823847e+08  1.5851345     -33461638      -33461638       1291.9256     -33460346      -2733.6755     -2740.1637     -2725.7823     -8.1010808      2.9416408     -3.0379659      5764.6942    
      8700   433.67203      0.0435         0.27677239     0.27742414     0.27600892    -2731.1636      710.55694      710.55694      710.55694      3.5875392e+08  1.582857      -33441896      -33441896       1291.4013     -33440605      -2731.5311     -2737.9634     -2723.9962     -8.3997549      4.42279       -4.401242       6038.7866    
      8800   433.68769      0.044          0.27645998     0.27662203     0.27546419    -2725.7051      710.89741      710.89741      710.89741      3.5926987e+08  1.5805839     -33383952      -33383952       1291.4479     -33382661      -2728.4479     -2730.0472     -2718.6202     -8.376255       4.84574       -6.0720489      5770.3521    
      8900   433.76127      0.0445         0.27606788     0.27597292     0.27487654    -2720.3465      711.23788      711.23788      711.23788      3.5978631e+08  1.5783151     -33332613      -33332613       1291.667      -33331321      -2724.5781     -2723.641      -2712.8205     -7.3167556      5.4837549     -5.2176971      5769.7022    
      9000   433.24144      0.045          0.27561926     0.27574656     0.27454829    -2717.0462      711.57834      711.57834      711.57834      3.6030324e+08  1.5760506     -33312904      -33312904       1290.119      -33311613      -2720.1506     -2721.4069     -2709.5809     -5.3328939      5.6783909     -3.9044353      6047.6472    
      9100   431.94502      0.0455         0.27484593     0.2752922      0.27416798    -2711.7563      711.91881      711.91881      711.91881      3.6082067e+08  1.5737905     -33269068      -33269068       1286.2585     -33267782      -2712.5184     -2716.9227     -2705.8276     -3.1619143      5.6186434     -2.3941807      5699.856     
      9200   430.51746      0.046          0.27431257     0.27454653     0.27369982    -2706.0085      712.25928      712.25928      712.25928      3.6133859e+08  1.5715347     -33249399      -33249399       1282.0075     -33248117      -2707.2546     -2709.5636     -2701.2072     -3.1946962      5.8570499     -1.6133211      6053.1867    
      9300   429.67193      0.0465         0.27350683     0.27346032     0.2728039     -2696.8371      712.59975      712.59975      712.59975      3.6185701e+08  1.5692833     -33187006      -33187006       1279.4896     -33185726      -2699.3025     -2698.8436     -2692.3652     -4.0882896      6.6344918     -1.3736141      5782.5502    
      9400   429.17032      0.047          0.27290111     0.27285082     0.27226591    -2691.0695      712.94022      712.94022      712.94022      3.6237593e+08  1.5670361     -33167398      -33167398       1277.9959     -33166120      -2693.3246     -2692.8283     -2687.0556     -3.5882413      7.5734207     -1.9751271      6060.7225    
      9500   428.49592      0.0475         0.27223162     0.27229141     0.27154497    -2684.655       713.28068      713.28068      713.28068      3.6289534e+08  1.5647932     -33125999      -33125999       1275.9877     -33124723      -2686.7172     -2687.3073     -2679.9404     -2.41217        7.0058833     -3.3076056      5780.428     
      9600   427.75407      0.048          0.2713549      0.27162912     0.2707723     -2677.0502      713.62115      713.62115      713.62115      3.6341525e+08  1.5625546     -33082356      -33082356       1273.7786     -33081082      -2678.0646     -2680.771      -2672.3149     -1.8426909      6.6098189     -3.8806294      5781.2982    
      9700   426.99735      0.0485         0.27081757     0.27098257     0.27007121    -2670.8491      713.96162      713.96162      713.96162      3.6393565e+08  1.5603202     -33062844      -33062844       1271.5252     -33061573      -2672.7616     -2674.39       -2665.3956     -1.3314252      6.7996999     -3.3082837      5979.0364    
      9800   426.24028      0.049          0.27011297     0.27009766     0.26916531    -2662.6398      714.30209      714.30209      714.30209      3.6445655e+08  1.5580901     -33015540      -33015540       1269.2708     -33014271      -2665.8078     -2665.6566     -2656.4551     -0.16340285     7.0215675     -2.7644994      5789.5978    
      9900   425.57981      0.0495         0.26929203     0.26919635     0.26861898    -2655.1768      714.64256      714.64256      714.64256      3.6497795e+08  1.5558643     -32996097      -32996097       1267.304      -32994830      -2657.7057     -2656.7614     -2651.0632      1.1255         6.7195987     -2.7238792      6060.1525    
     10000   424.63633      0.05           0.26806178     0.26806594     0.26778632    -2644.6716      714.98303      714.98303      714.98303      3.6549984e+08  1.5536427     -32958473      -32958473       1264.4945     -32957208      -2645.5641     -2645.6051     -2642.8455      0.55369566     6.476572      -3.2375255      4129.2058    
     10100   423.51096      0.0505         0.26682354     0.26684222     0.2666832     -2632.9434      715.32349      715.32349      715.32349      3.6602223e+08  1.5514253     -32939137      -32939137       1261.1433     -32937876      -2633.3436     -2633.528      -2631.9585     -0.025252128    6.8672649     -4.5722697      6065.816     
     10200   422.43504      0.051          0.26549373     0.26544975     0.26530062    -2619.4394      715.66396      715.66396      715.66396      3.6654512e+08  1.5492121     -32908553      -32908553       1257.9394     -32907295      -2620.2194     -2619.7854     -2618.3135      1.7417656      8.193983      -4.6441607      5787.2256    
     10300   421.23923      0.0515         0.26417973     0.26416884     0.26407787    -2606.8803      716.00443      716.00443      716.00443      3.6706851e+08  1.5470032     -32859904      -32859904       1254.3785     -32858650      -2607.2512     -2607.1438     -2606.2459      4.2329913      9.4876883     -4.1943262      5750.7583    
     10400   419.57183      0.052          0.26338199     0.26341374     0.26312995    -2598.6535      716.3449       716.3449       716.3449       3.6759239e+08  1.5447984     -32840785      -32840785       1249.4133     -32839536      -2599.3782     -2599.6915     -2596.8907      5.0922837      9.2625742     -3.621396       6089.083     
     10500   417.9606       0.0525         0.26222855     0.26242797     0.26204601    -2588.0501      716.68537      716.68537      716.68537      3.6811678e+08  1.5425979     -32795138      -32795138       1244.6153     -32793893      -2587.9946     -2589.9627     -2586.193       5.3679994      9.4903074     -2.1118589      5815.1168    
     10600   417.18835      0.053          0.26108471     0.26130934     0.2610463     -2577.3183      717.02583      717.02583      717.02583      3.6864166e+08  1.5404015     -32776110      -32776110       1242.3157     -32774867      -2576.7057     -2578.9226     -2576.3267      5.4098571      9.8246095     -2.3049441      6094.5809    
     10700   416.79093      0.0535         0.26000518     0.25983055     0.25972441    -2564.5535      717.3663       717.3663       717.3663       3.6916704e+08  1.5382093     -32738448      -32738448       1241.1322     -32737207      -2566.0516     -2564.3281     -2563.2806      6.4975077      10.096849     -3.5733071      5813.0643    
     10800   415.59857      0.054          0.2588898      0.25841566     0.25856389    -2552.4117      717.70677      717.70677      717.70677      3.6969292e+08  1.5360212     -32719575      -32719575       1237.5816     -32718338      -2555.0437     -2550.3642     -2551.8272      8.4598367      9.5052649     -4.6670695      6101.0419    
     10900   413.82718      0.0545         0.25733941     0.25677256     0.25701853    -2536.8221      718.04724      718.04724      718.04724      3.7021929e+08  1.5338373     -32667389      -32667389       1232.3067     -32666157      -2539.7425     -2534.1481     -2536.5756      9.5361807      8.4809252     -4.9724994      5778.262     
     11000   412.65205      0.055          0.25572699     0.25541454     0.25557108    -2522.2883      718.38771      718.38771      718.38771      3.7074617e+08  1.5316575     -32627712      -32627712       1228.8073     -32626483      -2523.8291     -2520.7455     -2522.2904      7.9985243      8.1286015     -3.229635       5832.3661    
     11100   411.80141      0.0555         0.25458375     0.25436997     0.25436102    -2511.1103      718.72817      718.72817      718.72817      3.7127355e+08  1.5294819     -32609095      -32609095       1226.2743     -32607868      -2512.5463     -2510.4364     -2510.3481      7.4282556      8.2374848     -2.7523034      6108.3206    
     11200   410.64346      0.056          0.25321203     0.25305706     0.25299289    -2497.7777      719.06864      719.06864      719.06864      3.7180143e+08  1.5273103     -32545266      -32545266       1222.8261     -32544043      -2499.0085     -2497.479      -2496.8457      6.5888925      9.4016378     -3.0270691      5825.6139    
     11300   409.67489      0.0565         0.25187803     0.25184145     0.25171565    -2485.1883      719.40911      719.40911      719.40911      3.723298e+08   1.5251429     -32526794      -32526794       1219.9419     -32525574      -2485.8429     -2485.4819     -2484.2403      7.1011688      10.537118     -3.3358454      6118.5929    
     11400   409.06183      0.057          0.25018152     0.25028889     0.25008781    -2469.1446      719.74958      719.74958      719.74958      3.7285868e+08  1.5229796     -32485631      -32485631       1218.1163     -32484413      -2469.0996     -2470.1593     -2468.1748      7.8873653      9.5055531     -3.5876203      5840.9113    
     11500   408.05582      0.0575         0.24870606     0.2486244      0.24863679    -2454.0415      720.09005      720.09005      720.09005      3.7338806e+08  1.5208203     -32467355      -32467355       1215.1205     -32466139      -2454.538      -2453.7321     -2453.8543      8.8562647      9.1515186     -3.9009299      6071.8744    
     11600   406.2025       0.058          0.24724527     0.24678226     0.24709039    -2438.0884      720.43051      720.43051      720.43051      3.7391794e+08  1.5186652     -32418236      -32418236       1209.6017     -32417026      -2440.1211     -2435.5515     -2438.5925      10.665816      8.6142561     -4.7119924      5849.1449    
     11700   404.07027      0.0585         0.24577266     0.24526142     0.24576024    -2423.8648      720.77098      720.77098      720.77098      3.7444832e+08  1.5165141     -32390879      -32390879       1203.2523     -32389675      -2425.5875     -2420.542      -2425.465       11.546808      8.9632054     -4.7553111      5846.8974    
     11800   402.44161      0.059          0.24426175     0.24397935     0.24438631    -2410.1568      721.11145      721.11145      721.11145      3.749792e+08   1.5143671     -32372862      -32372862       1198.4024     -32371663      -2410.6761     -2407.889      -2411.9054      10.531782      8.845051      -3.6345144      6130.6989    
     11900   401.51154      0.0595         0.24279446     0.24251947     0.24290057    -2395.6395      721.45192      721.45192      721.45192      3.7551058e+08  1.5122241     -32346836      -32346836       1195.6328     -32345640      -2396.1951     -2393.4811     -2397.2423      9.9272163      8.9685356     -3.1653993      5853.574     
     12000   401.01102      0.06           0.24147905     0.24110137     0.24133393    -2381.493       721.79239      721.79239      721.79239      3.7604247e+08  1.5100852     -32329009      -32329009       1194.1423     -32327814      -2383.2129     -2379.4856     -2381.7807      9.8837873      8.997018      -3.446417       5003.5015    
     12100   400.51498      0.0605         0.24007523     0.2396353      0.23950765    -2366.0439      722.13286      722.13286      722.13286      3.7657485e+08  1.5079503     -32281709      -32281709       1192.6652     -32280517      -2369.3583     -2365.0165     -2363.7568      9.3358082      8.9055268     -3.2300339      5845.2787    
     12200   399.60765      0.061          0.23877266     0.23828061     0.2381408     -2352.8056      722.47332      722.47332      722.47332      3.7710774e+08  1.5058194     -32264078      -32264078       1189.9634     -32262888      -2356.503      -2351.6467     -2350.267       9.1240036      8.4534775     -2.7182927      6133.179     
     12300   397.91253      0.0615         0.23709388     0.23643061     0.23676522    -2336.6715      722.81379      722.81379      722.81379      3.7764113e+08  1.5036925     -32224631      -32224631       1184.9156     -32223446      -2339.9347     -2333.3887     -2336.691       10.35356       8.4106079     -3.4317339      5862.5001    
     12400   395.73532      0.062          0.2352973      0.23447546     0.2350652     -2318.7366      723.15426      723.15426      723.15426      3.7817503e+08  1.5015697     -32185131      -32185131       1178.4322     -32183953      -2322.2038     -2314.0929     -2319.9131      9.8731199      9.2246856     -3.9563635      5862.5149    
     12500   393.60521      0.0625         0.23337232     0.232648       0.23338517    -2300.8651      723.49473      723.49473      723.49473      3.7870942e+08  1.4994508     -32167795      -32167795       1172.0891     -32166623      -2303.2057     -2296.0572     -2303.3325      10.764371      9.2094696     -3.9016445      5103.4896    
     12600   391.99028      0.063          0.23150602     0.23082211     0.23168179    -2283.1151      723.8352       723.8352       723.8352       3.7924432e+08  1.4973359     -32120655      -32120655       1167.2801     -32119488      -2284.7868     -2278.0371     -2286.5215      9.9928477      9.9270213     -3.3531297      5813.095     
     12700   390.77008      0.0635         0.230122       0.22928554     0.23016314    -2268.5112      724.17566      724.17566      724.17566      3.7977973e+08  1.495225      -32103547      -32103547       1163.6466     -32102384      -2271.1276     -2262.8724     -2271.5335      8.4442357      9.7900402     -2.1698648      6155.2003    
     12800   389.57956      0.064          0.22839238     0.22782893     0.22859371    -2252.8663      724.51613      724.51613      724.51613      3.8031564e+08  1.4931181     -32046359      -32046359       1160.1014     -32045198      -2254.0576     -2248.4968     -2256.0446      6.5914565      10.529824     -1.1040253      5872.5317    
     12900   387.93273      0.0645         0.22703354     0.22648502     0.22728498    -2239.6695      724.8566       724.8566       724.8566       3.8085205e+08  1.4910151     -32029445      -32029445       1155.1974     -32028290      -2240.6468     -2235.2334     -2243.1283      6.6330717      9.5780153     -1.9124758      6161.882     
     13000   386.1197       0.065          0.2254471      0.22483144     0.22563406    -2223.5795      725.19707      725.19707      725.19707      3.8138896e+08  1.4889161     -32004780      -32004780       1149.7985     -32003630      -2224.9898     -2218.9138     -2226.835       8.3398784      7.8340988     -2.8382798      5875.3133    
     13100   384.89492      0.0655         0.22333148     0.2229903      0.22386359    -2204.7385      725.53754      725.53754      725.53754      3.8192638e+08  1.486821      -31951059      -31951059       1146.1514     -31949913      -2204.1103     -2200.7432     -2209.3619      10.115761      6.4321513     -3.8147176      5877.3638    
     13200   384.02582      0.066          0.22153152     0.22141186     0.22225791    -2188.3421      725.878        725.878        725.878        3.8246431e+08  1.4847298     -31934460      -31934460       1143.5633     -31933316      -2186.3461     -2185.1652     -2193.515       9.4778807      6.8526357     -3.2053466      6114.7198    
     13300   382.76754      0.0665         0.21983402     0.21968661     0.22062276    -2171.7029      726.21847      726.21847      726.21847      3.8300274e+08  1.4826426     -31886891      -31886891       1139.8164     -31885751      -2169.5931     -2168.1383     -2177.3773      8.003149       7.1713977     -1.9268007      5881.3247    
     13400   381.01085      0.067          0.21835723     0.21821443     0.21909054    -2156.9609      726.55894      726.55894      726.55894      3.8354167e+08  1.4805592     -31870506      -31870506       1134.5853     -31869371      -2155.0183     -2153.609      -2162.2555      6.8219209      7.627763      -2.2574721      6184.1569    
     13500   379.49315      0.0675         0.21676879     0.21644108     0.21740033    -2140.3412      726.89941      726.89941      726.89941      3.8408111e+08  1.4784798     -31835664      -31835664       1130.0658     -31834534      -2139.3417     -2136.1074     -2145.5744      6.0101204      7.0866598     -2.3840327      5891.4334    
     13600   378.3595       0.068          0.21541498     0.21473971     0.21584156    -2125.1624      727.23988      727.23988      727.23988      3.8462105e+08  1.4764042     -31819488      -31819488       1126.69       -31818361      -2125.9805     -2119.3162     -2130.1906      5.5358842      6.9612358     -2.589711       6183.885     
     13700   377.22014      0.0685         0.21387632     0.21282054     0.2140966     -2108.0466      727.58035      727.58035      727.58035      3.8516151e+08  1.4743326     -31756779      -31756779       1123.2971     -31755656      -2110.7951     -2100.3754     -2112.9692      5.779813       6.6601152     -3.066292       5903.3689    
     13800   375.67759      0.069          0.21206999     0.21119613     0.21237751    -2091.105       727.92081      727.92081      727.92081      3.8570246e+08  1.4722648     -31701628      -31701628       1118.7037     -31700509      -2092.9681     -2084.3437     -2096.003       4.4781592      7.2727604     -3.401956       5851.3949    
     13900   373.9802       0.0695         0.21020326     0.20981734     0.21097917    -2075.8279      728.26128      728.26128      728.26128      3.8624393e+08  1.4702009     -31685772      -31685772       1113.6492     -31684659      -2074.5449     -2070.7361     -2082.2025      4.7673033      5.8858684     -2.4254505      6184.6648    
     14000   372.46232      0.07           0.20811737     0.20823012     0.20931577    -2058.2721      728.60175      728.60175      728.60175      3.867859e+08   1.4681408     -31623575      -31623575       1109.1292     -31622465      -2053.9587     -2055.0715     -2065.786       2.144732       4.7700472     -2.1714992      3804.3162    
     14100   371.00551      0.0705         0.20679953     0.20675973     0.20779846    -2044.108       728.94222      728.94222      728.94222      3.8732837e+08  1.4660846     -31607932      -31607932       1104.791      -31606827      -2040.9527     -2040.5599     -2050.8114      0.85664972     4.9256545     -3.103166       5285.0773    
     14200   369.48527      0.071          0.20531434     0.20493957     0.20600722    -2027.3415      729.28269      729.28269      729.28269      3.8787136e+08  1.4640322     -31539286      -31539286       1100.264      -31538186      -2026.295      -2022.5963     -2033.1331     -0.73114289     6.0110266     -5.0420128      5904.8518    
     14300   368.41019      0.0715         0.20401961     0.20350392     0.204463      -2013.2791      729.62315      729.62315      729.62315      3.8841485e+08  1.4619836     -31523841      -31523841       1097.0626     -31522743      -2013.517      -2008.4275     -2017.8929     -0.81830883     6.3342372     -4.459681       6147.5579    
     14400   367.43049      0.072          0.20232218     0.20183764     0.20272677    -1996.5016      729.96362      729.96362      729.96362      3.8895885e+08  1.4599389     -31453284      -31453284       1094.1453     -31452190      -1996.7647     -1991.9826     -2000.7576     -0.61356567     6.9381963     -3.8907597      5925.2781    
     14500   366.23903      0.0725         0.20085875     0.20043908     0.20130749    -1982.4174      730.30409      730.30409      730.30409      3.8950335e+08  1.457898      -31428448      -31428448       1090.5973     -31427357      -1982.3217     -1978.1799     -1986.7505     -0.22659408     6.7688098     -4.3526648      5926.7414    
     14600   364.88994      0.073          0.19938949     0.19920038     0.20007675    -1969.46        730.64456      730.64456      730.64456      3.9004837e+08  1.4558609     -31413301      -31413301       1086.5799     -31412215      -1967.8212     -1965.9549     -1974.604      -0.45744517     7.8556124     -4.1654152      6230.9054    
     14700   363.77997      0.0735         0.19781757     0.1979491      0.19857914    -1955.2457      730.98503      730.98503      730.98503      3.9059389e+08  1.4538276     -31379873      -31379873       1083.2746     -31378789      -1952.3077     -1953.6057     -1959.8237     -0.5119438      6.9800883     -3.5985101      5930.7285    
     14800   362.68167      0.074          0.19649325     0.19664328     0.19712514    -1941.8099      731.32549      731.32549      731.32549      3.9113992e+08  1.451798      -31364906      -31364906       1080.0041     -31363826      -1939.2376     -1940.7183     -1945.4738     -0.74599866     5.8097278     -3.3489721      6225.2166    
     14900   361.36321      0.0745         0.19511033     0.19525945     0.1956923     -1927.9944      731.66596      731.66596      731.66596      3.9168646e+08  1.4497722     -31338593      -31338593       1076.0779     -31337516      -1925.5892     -1927.0609     -1931.3329     -2.0963741      3.7862764     -4.0836601      5886.471     
     15000   359.97215      0.075          0.19382692     0.19391408     0.19446553    -1915.3106      732.00643      732.00643      732.00643      3.9223351e+08  1.4477503     -31323797      -31323797       1071.9356     -31322725      -1912.923      -1913.7832     -1919.2256     -3.3767479      3.4024056     -5.2911321      4859.4846    
     15100   358.54661      0.0755         0.19222498     0.1924336      0.19307167    -1900.5847      732.3469       732.3469       732.3469       3.9278106e+08  1.445732      -31255704      -31255704       1067.6906     -31254637      -1897.113      -1899.1719     -1905.4692     -3.7188409      4.2243959     -4.9157175      5928.4055    
     15200   357.51063      0.076          0.19104545     0.19127765     0.19171939    -1888.453       732.68737      732.68737      732.68737      3.9332913e+08  1.4437175     -31224396      -31224396       1064.6056     -31223331      -1885.472      -1887.7637     -1892.1232     -3.6988589      4.5873982     -2.9753742      5941.0089    
     15300   356.56825      0.0765         0.18989112     0.19022357     0.1906477     -1877.6623      733.02783      733.02783      733.02783      3.938777e+08   1.4417068     -31209848      -31209848       1061.7994     -31208786      -1874.0797     -1877.3607     -1881.5465     -3.06878        5.6474435     -1.6894028      6242.0504    
     15400   355.62999      0.077          0.18861978     0.18905387     0.18935324    -1865.3734      733.3683       733.3683       733.3683       3.9442679e+08  1.4396998     -31177407      -31177407       1059.0054     -31176348      -1861.5325     -1865.8166     -1868.7712     -1.9245633      7.324216      -2.0886513      5948.7667    
     15500   354.88037      0.0775         0.18737219     0.18780926     0.1880812     -1852.99        733.70877      733.70877      733.70877      3.9497639e+08  1.4376965     -31163020      -31163020       1056.7731     -31161963      -1849.2197     -1853.5333     -1856.2171     -1.6020698      7.5723682     -3.0526809      6192.9156    
     15600   354.30512      0.078          0.18616631     0.18635869     0.18655233    -1839.2214      734.04924      734.04924      734.04924      3.9552649e+08  1.4356969     -31122267      -31122267       1055.0601     -31121212      -1837.3186     -1839.2173     -1841.1283     -2.1070352      7.0041753     -3.8315225      5951.8871    
     15700   353.61343      0.0785         0.18517391     0.18531555     0.18537959    -1828.667       734.38971      734.38971      734.38971      3.9607711e+08  1.433701      -31108052      -31108052       1053.0004     -31106999      -1827.5244     -1828.9223     -1829.5544     -3.7040911      5.9966208     -4.0117849      6243.75      
     15800   352.47203      0.079          0.18422874     0.18439434     0.18433354    -1819.0859      734.73018      734.73018      734.73018      3.9662824e+08  1.4317088     -31079003      -31079003       1049.6015     -31077953      -1818.1963     -1819.8307     -1819.2306     -4.0212853      5.6568024     -3.1590314      5953.482     
     15900   351.21049      0.0795         0.18319593     0.18332237     0.18320326    -1808.4433      735.07064      735.07064      735.07064      3.9717988e+08  1.4297204     -31032121      -31032121       1045.8449     -31031075      -1808.0032     -1809.2511     -1808.0756     -2.6773906      5.5800745     -2.6162361      5957.6691    
     16000   350.3147       0.08           0.18222763     0.1822506      0.18214176    -1798.2399      735.41111      735.41111      735.41111      3.9773203e+08  1.4277356     -31018085      -31018085       1043.1774     -31017042      -1798.4468     -1798.6736     -1797.5994     -2.5612095      5.6812715     -2.5293836      5113.5609    
     16100   349.45379      0.0805         0.18100323     0.18075032     0.18096652    -1785.4102      735.75158      735.75158      735.75158      3.9828469e+08  1.4257544     -30958356      -30958356       1040.6137     -30957316      -1786.363      -1783.8669     -1786.0007     -3.4854221      5.912034      -2.1061861      5786.3938    
     16200   348.45692      0.081          0.17993842     0.17964859     0.18004151    -1775.2398      736.09205      736.09205      736.09205      3.9883786e+08  1.423777      -30944481      -30944481       1037.6452     -30943443      -1775.8542     -1772.9937     -1776.8715     -3.4981153      5.545765      -1.1509616      6260.0223    
     16300   347.83775      0.0815         0.17889611     0.17838297     0.17893873    -1764.0194      736.43252      736.43252      736.43252      3.9939155e+08  1.4218031     -30905022      -30905022       1035.8014     -30903986      -1765.5673     -1760.503      -1765.9879     -3.3711369      5.721295      -0.43611382     5956.3568    
     16400   347.51176      0.082          0.17808412     0.17741949     0.17805206    -1755.2617      736.77298      736.77298      736.77298      3.9994574e+08  1.419833      -30891265      -30891265       1034.8307     -30890230      -1757.5536     -1750.9942     -1757.2372     -3.0184619      5.8962145      0.52629679     6265.6053    
     16500   347.04966      0.0825         0.17714061     0.17649718     0.17709332    -1745.9696      737.11345      737.11345      737.11345      4.0050045e+08  1.4178665     -30853185      -30853185       1033.4546     -30852152      -1748.2419     -1741.8917     -1747.7752     -3.8344797      5.3803336      1.4088666      5983.0444    
     16600   346.3426       0.083          0.17582802     0.17558425     0.17604878    -1735.2119      737.45392      737.45392      737.45392      4.0105568e+08  1.4159036     -30795431      -30795431       1031.3491     -30794399      -1735.2876     -1732.8818     -1737.4664     -4.7966247      5.2832894      1.6685606      5985.8013    
     16700   345.34688      0.0835         0.17499345     0.1747558      0.17508537    -1726.5716      737.79439      737.79439      737.79439      4.0161141e+08  1.4139443     -30781875      -30781875       1028.384      -30780847      -1727.051      -1724.7056     -1727.9582     -4.4011727      4.4421185      0.26903155     6226.4818    
     16800   344.30913      0.084          0.17419802     0.1737473      0.17408612    -1717.3499      738.13486      738.13486      738.13486      4.0216766e+08  1.4119886     -30754612      -30754612       1025.2938     -30753586      -1719.2008     -1714.7525     -1718.0964     -2.7063203      4.1685691     -0.6888676      5992.3528    
     16900   343.32692      0.0845         0.17345177     0.17289144     0.1733604     -1709.692       738.47532      738.47532      738.47532      4.0272442e+08  1.4100366     -30741153      -30741153       1022.3689     -30740131      -1711.8359     -1706.3058     -1710.9341     -2.4672314      4.0630618     -0.7013998      6294.0232    
     17000   342.69423      0.085          0.17233758     0.17199242     0.17236851    -1699.8059      738.81579      738.81579      738.81579      4.032817e+08   1.4080881     -30695612      -30695612       1020.4849     -30694591      -1700.8397     -1697.4332     -1701.1449     -3.1660633      4.3895322      0.64180933     5999.1421    
     17100   342.63992      0.0855         0.17137244     0.1712177      0.17156356    -1691.4342      739.15626      739.15626      739.15626      4.0383949e+08  1.4061432     -30682260      -30682260       1020.3232     -30681240      -1691.3145     -1689.7873     -1693.2007     -3.5784418      3.9590379      1.2139278      6303.7573    
     17200   342.47365      0.086          0.17043961     0.17043138     0.17058583    -1682.5621      739.49673      739.49673      739.49673      4.0439779e+08  1.4042019     -30654427      -30654427       1019.8281     -30653407      -1682.1082     -1682.0269     -1683.5512     -3.790651       3.4236028      1.2488562      5997.2637    
     17300   341.89267      0.0865         0.16963185     0.16956268     0.16966662    -1674.023       739.8372       739.8372       739.8372       4.0495661e+08  1.4022642     -30626168      -30626168       1018.098      -30625150      -1674.1362     -1673.4535     -1674.4793     -4.3795694      4.7451079      0.17612397     5963.2767    
     17400   340.93456      0.087          0.16908663     0.16874428     0.16889195    -1666.9886      740.17767      740.17767      740.17767      4.0551594e+08  1.4003301     -30612983      -30612983       1015.2449     -30611967      -1668.7553     -1665.3765     -1666.8339     -4.2748697      5.7171189      0.47378099     6316.0242    
     17500   340.13431      0.0875         0.16845251     0.16800695     0.16812041    -1659.9387      740.51813      740.51813      740.51813      4.0607579e+08  1.3983995     -30584853      -30584853       1012.8619     -30583840      -1662.497      -1658.0997     -1659.2194     -3.7514264      5.6110788      1.1553572      2701.3529    
     17600   339.66435      0.088          0.16776527     0.16742597     0.1674953     -1653.7101      740.8586       740.8586       740.8586       4.0663615e+08  1.3964724     -30571742      -30571742       1011.4624     -30570730      -1655.7144     -1652.3658     -1653.0501     -3.1626905      3.9573069      2.0466642      4228.4566    
     17700   339.20445      0.0885         0.16682237     0.16664471     0.16671009    -1645.4549      741.19907      741.19907      741.19907      4.0719703e+08  1.3945489     -30527739      -30527739       1010.0929     -30526729      -1646.4088     -1644.6554     -1645.3006     -3.5585539      2.9587931      2.7429876      6010.8172    
     17800   338.79698      0.089          0.166161       0.16585189     0.16604501    -1638.4831      741.53954      741.53954      741.53954      4.0775842e+08  1.3926289     -30514722      -30514722       1008.8796     -30513713      -1639.8816     -1636.8309     -1638.7369     -3.2213978      2.886118       2.5380316      6245.9148    
     17900   338.25412      0.0895         0.16546559     0.16491847     0.16511945    -1630.0798      741.88001      741.88001      741.88001      4.0832033e+08  1.3907124     -30467538      -30467538       1007.263      -30466531      -1633.0184     -1627.6187     -1629.6023     -2.6170934      4.1593402      1.1210284      6020.943     
     18000   337.75513      0.09           0.16478819     0.1641395      0.16436172    -1622.796       742.22047      742.22047      742.22047      4.0888275e+08  1.3887995     -30437811      -30437811       1005.7771     -30436805      -1626.333      -1619.9309     -1622.124      -3.6522077      4.726428       1.1384682      4960.1915    
     18100   337.28758      0.0905         0.16408237     0.16359379     0.1635985     -1616.168       742.56094      742.56094      742.56094      4.0944569e+08  1.38689       -30424938      -30424938       1004.3848     -30423934      -1619.3671     -1614.5451     -1614.5917     -4.7215451      3.6713308      0.71145374     6316.4474    
     18200   336.90973      0.091          0.16326679     0.16291301     0.16268357    -1608.2355      742.90141      742.90141      742.90141      4.1000915e+08  1.3849841     -30382677      -30382677       1003.2597     -30381674      -1611.318      -1607.8264     -1605.562      -5.746262       4.0491578     -0.3415277      6012.1608    
     18300   336.3766       0.0915         0.16263232     0.16241008     0.16209976    -1602.5731      743.24188      743.24188      743.24188      4.1057312e+08  1.3830817     -30369885      -30369885       1001.6721     -30368883      -1605.0563     -1602.8628     -1599.8003     -5.9179415      4.5311106     -0.71332751     6323.1569    
     18400   335.9149       0.092          0.1619703      0.16177329     0.16147845    -1596.2564      743.58235      743.58235      743.58235      4.1113761e+08  1.3811827     -30334527      -30334527       1000.2972     -30333527      -1598.5225     -1596.5783     -1593.6684     -7.05941        5.3141959     -0.63379407     5980.2657    
     18500   335.68252      0.0925         0.16154859     0.16113653     0.16093559    -1590.9884      743.92281      743.92281      743.92281      4.1170262e+08  1.3792872     -30321797      -30321797       999.60524     -30320797      -1594.3607     -1590.2939     -1588.3108     -6.3984267      5.1934111     -0.36330643     6331.2008    
     18600   335.51522      0.093          0.16080831     0.16026426     0.16023002    -1583.3624      744.26328      744.26328      744.26328      4.1226815e+08  1.3773952     -30283276      -30283276       999.10705     -30282277      -1587.0546     -1581.6853     -1581.3473     -3.8659506      4.6295437     -0.373134       6038.9303    
     18700   335.40832      0.0935         0.15982226     0.15958548     0.15947831    -1575.4126      744.60375      744.60375      744.60375      4.1283419e+08  1.3755066     -30241065      -30241065       998.78869     -30240066      -1577.323      -1574.9862     -1573.9285     -3.3759189      3.5899836      0.28346321     6035.5599    
     18800   335.44796      0.094          0.15908308     0.15905049     0.15876349    -1568.8694      744.94422      744.94422      744.94422      4.1340075e+08  1.3736215     -30228483      -30228483       998.90673     -30227484      -1570.0279     -1569.7063     -1566.8739     -4.1503456      2.9941868      0.55566224     6349.2213    
     18900   335.48179      0.0945         0.15834486     0.15830767     0.15791994    -1561.222       745.28469      745.28469      745.28469      4.1396783e+08  1.3717398     -30179433      -30179433       999.00749     -30178434      -1562.7422     -1562.3752     -1558.5487     -6.119168       2.9974644      1.0735212      6045.1104    
     19000   334.98101      0.095          0.15805932     0.15781733     0.15742876    -1557.0537      745.62515      745.62515      745.62515      4.1453543e+08  1.3698616     -30166935      -30166935       997.51625     -30165938      -1559.9242     -1557.536      -1553.701      -6.6974915      3.3873878      0.4347195      6293.162     
     19100   334.11463      0.0955         0.15766392     0.15718597     0.15680412    -1551.621       745.96562      745.96562      745.96562      4.1510354e+08  1.3679868     -30117791      -30117791       994.93632     -30116796      -1556.0219     -1551.3049     -1547.5363     -5.5610441      3.6905151     -0.47684313     6039.2899    
     19200   333.46383      0.096          0.15724884     0.15667933     0.15629796    -1546.9237      746.30609      746.30609      746.30609      4.1567218e+08  1.3661154     -30105330      -30105330       992.99835     -30104337      -1551.9254     -1546.3048     -1542.541      -5.1499071      3.7021042     -0.31942221     6356.2515    
     19300   332.92545      0.0965         0.15626334     0.15585572     0.15563695    -1538.7976      746.64656      746.64656      746.64656      4.1624133e+08  1.3642474     -30041848      -30041848       991.39513     -30040857      -1542.1992     -1538.1764     -1536.0172     -4.2059862      2.5388467     -0.52530584     6064.2832    
     19400   332.82651      0.097          0.15529551     0.15513236     0.15495248    -1530.9823      746.98703      746.98703      746.98703      4.1681101e+08  1.3623828     -29997905      -29997905       991.1005      -29996914      -1532.6475     -1531.0374     -1529.2621     -4.7637639      1.9680117     -1.2130054      6064.2612    
     19500   332.63687      0.0975         0.15474402     0.15470153     0.15446152    -1526.1356      747.3275       747.3275       747.3275       4.173812e+08   1.3605216     -29985579      -29985579       990.53579     -29984589      -1527.2048     -1526.7854     -1524.4166     -4.5540256      1.7223498     -1.4494678      6369.8394    
     19600   332.60431      0.098          0.15430586     0.15421007     0.15391918    -1521.2932      747.66796      747.66796      747.66796      4.1795191e+08  1.3586639     -29956751      -29956751       990.43884     -29955761      -1522.8804     -1521.9351     -1519.0642     -4.6271021      2.8855502     -0.73479158     5981.1864    
     19700   332.92549      0.0985         0.15393447     0.15376472     0.15350762    -1517.2525      748.00843      748.00843      748.00843      4.1852314e+08  1.3568094     -29944489      -29944489       991.39527     -29943498      -1519.2151     -1517.5398     -1515.0025     -4.7265666      3.5902948     -0.32293524     6372.209     
     19800   333.01616      0.099          0.15345418     0.15312456     0.15305571    -1512.0798      748.3489       748.3489       748.3489       4.190949e+08   1.3549584     -29909942      -29909942       991.66526     -29908950      -1514.475      -1511.2219     -1510.5424     -4.9877117      3.4046544     -0.88691922     6072.4477    
     19900   332.78848      0.0995         0.1530663      0.15264305     0.15253136    -1507.4947      748.68937      748.68937      748.68937      4.1966717e+08  1.3531107     -29897721      -29897721       990.98726     -29896730      -1510.6469     -1506.4698     -1505.3675     -5.3712234      2.5901726     -1.8492142      6380.307     
     20000   332.55907      0.1            0.15254721     0.15206019     0.15189898    -1501.7892      749.02984      749.02984      749.02984      4.2023997e+08  1.3512664     -29874099      -29874099       990.30412     -29873108      -1505.5239     -1500.7174     -1499.1264     -6.1935659      2.3710988     -2.0716349      2272.4454    
     20100   332.13091      0.1005         0.15189868     0.15153674     0.15137425    -1496.2075      749.3703       749.3703       749.3703       4.2081328e+08  1.3494255     -29839982      -29839982       989.02912     -29838993      -1499.1234     -1495.5513     -1493.9477     -5.6691431      2.4242037     -1.520465       3608.6756    
     20200   331.29016      0.101          0.1513024      0.15107009     0.15095275    -1491.3241      749.71077      749.71077      749.71077      4.2138712e+08  1.3475878     -29827865      -29827865       986.52552     -29826878      -1493.2386     -1490.9458     -1489.7878     -4.9443087      2.0029148     -0.91893923     6298.675     
     20300   330.94064      0.1015         0.15047404     0.150372       0.15021453    -1483.8739      750.05124      750.05124      750.05124      4.2196147e+08  1.3457536     -29791675      -29791675       985.48471     -29790690      -1485.0633     -1484.0563     -1482.5021     -4.2156146      1.8965697     -0.35393396     6083.4725    
     20400   331.0699       0.102          0.14991523     0.14981525     0.1495895     -1478.1478      750.39171      750.39171      750.39171      4.2253635e+08  1.3439226     -29779628      -29779628       985.86964     -29778642      -1479.5483     -1478.5616     -1476.3336     -4.4229414      2.1706863     -0.035200715    6396.2531    
     20500   331.03746      0.1025         0.14949764     0.1492348      0.1490375     -1473.0486      750.73218      750.73218      750.73218      4.2311175e+08  1.342095      -29731526      -29731526       985.77304     -29730540      -1475.427      -1472.833      -1470.8857     -4.3168195      2.3795481     -0.63569272     6083.5769    
     20600   330.89937      0.103          0.14939675     0.1489707      0.14880191    -1471.0728      751.07264      751.07264      751.07264      4.2368768e+08  1.3402706     -29719534      -29719534       985.36181     -29718549      -1474.4313     -1470.2265     -1468.5606     -4.5702603      2.8892235     -0.38674939     6342.6507    
     20700   331.0351       0.1035         0.14893823     0.148596       0.14850579    -1467.3576      751.41311      751.41311      751.41311      4.2426412e+08  1.3384496     -29695926      -29695926       985.76599     -29694940      -1469.906      -1466.5285     -1465.6382     -4.2384546      3.1175381     -0.34362734     6093.7171    
     20800   331.11237      0.104          0.14823795     0.14807166     0.14805571    -1461.8483      751.75358      751.75358      751.75358      4.2484109e+08  1.3366319     -29654390      -29654390       985.9961      -29653404      -1462.9948     -1461.3537     -1461.1963     -4.5440159      2.4751407     -1.5758189      6095.7542    
     20900   330.90559      0.1045         0.14769812     0.14769609     0.14749504    -1456.9923      752.09405      752.09405      752.09405      4.2541858e+08  1.3348175     -29642473      -29642473       985.38035     -29641487      -1457.6671     -1457.6471     -1455.6628     -4.4669819      1.9132884     -2.9829998      6413.7412    
     21000   330.83336      0.105          0.1470297      0.1471821      0.14662318    -1450.2344      752.43452      752.43452      752.43452      4.259966e+08   1.3330063     -29599223      -29599223       985.16525     -29598238      -1451.0704     -1452.5744     -1447.0583     -4.2684301      1.5788247     -4.0598864      6103.1517    
     21100   330.64793      0.1055         0.14660516     0.14663603     0.1461349     -1445.4349      752.77499      752.77499      752.77499      4.2657514e+08  1.3311984     -29587377      -29587377       984.61308     -29586393      -1446.8804     -1447.1851     -1442.2393     -4.5226943      1.7427069     -3.5252458      6413.786     
     21200   330.26199      0.106          0.14606152     0.14588893     0.14576743    -1439.9799      753.11545      753.11545      753.11545      4.271542e+08   1.3293938     -29553448      -29553448       983.46381     -29552465      -1441.5152     -1439.8118     -1438.6127     -3.9252893      2.9288731     -2.7223049      6052.6569    
     21300   330.05524      0.1065         0.14560222     0.14549242     0.14551532    -1436.3351      753.45592      753.45592      753.45592      4.2773378e+08  1.3275925     -29541656      -29541656       982.84814     -29540673      -1436.9821     -1435.8986     -1436.1245     -3.8550971      3.5766133     -1.6947012      6420.8393    
     21400   329.82747      0.107          0.14516198     0.14509493     0.14502575    -1431.9686      753.79639      753.79639      753.79639      4.2831389e+08  1.3257944     -29497117      -29497117       982.16988     -29496134      -1432.6374     -1431.9756     -1431.2929     -4.4412755      4.5127599     -1.3255854      6104.2772    
     21500   329.63659      0.1075         0.14481282     0.1445708      0.14455304    -1427.5406      754.13686      754.13686      754.13686      4.2889452e+08  1.3239995     -29459717      -29459717       981.60147     -29458735      -1429.1914     -1426.8029     -1426.6275     -4.9593879      4.2319762     -1.1801726      6116.6453    
     21600   329.70044      0.108          0.1443904      0.14416871     0.14405588    -1423.1927      754.47733      754.47733      754.47733      4.2947568e+08  1.3222079     -29447996      -29447996       981.7916      -29447014      -1425.0224     -1422.8345     -1421.721      -4.0944379      3.6958018     -0.67775545     6431.3301    
     21700   329.94936      0.1085         0.14374333     0.14350405     0.14334347    -1416.5338      754.81779      754.81779      754.81779      4.3005736e+08  1.3204196     -29404699      -29404699       982.53285     -29403717      -1418.6364     -1416.2748     -1414.69       -3.3067756      2.1304547     -1.0919465      6124.181     
     21800   329.90058      0.109          0.14334443     0.14303656     0.14288494    -1412.1751      755.15826      755.15826      755.15826      4.3063957e+08  1.3186344     -29393053      -29393053       982.38759     -29392071      -1414.6995     -1411.6611     -1410.1647     -3.3360913      1.4396453     -2.4330906      6435.6272    
[...]
    244700   309.41535      1.2235         8.3943786e-05  8.6633845e-05  0.00010436786 -0.90450035     1514.0617      1514.0617      1514.0617      3.4708089e+09  0.16360917    -158673.95     -158673.95      921.38607     -157752.56     -0.82846076    -0.85500958    -1.0300307     -0.019463894   -0.086094332    0.11499019     27515.698    
    244800   309.25887      1.224          8.4327426e-05  8.6517293e-05  0.00010477467 -0.90671731     1514.4021      1514.4021      1514.4021      3.4731508e+09  0.16349885    -158700.43     -158700.43      920.9201      -157779.51     -0.83224699    -0.8538593     -1.0340456     -0.016799191   -0.091030303    0.1139482      25557.871    
    244900   309.24093      1.2245         8.4657903e-05  8.6730497e-05  0.00010439655 -0.90726196     1514.7426      1514.7426      1514.7426      3.4754939e+09  0.16338862    -158726.32     -158726.32      920.86668     -157805.45     -0.83550855    -0.85596345    -1.0303139     -0.013791705   -0.095091598    0.11479693     27486.762    
    245000   309.1943       1.225          8.4754283e-05  8.6660848e-05  0.00010339729 -0.90406259     1515.0831      1515.0831      1515.0831      3.477838e+09   0.1632785     -158752.1      -158752.1       920.72783     -157831.38     -0.83645974    -0.85527607    -1.020452      -0.014566384   -0.096211919    0.11506533     11901.614    
    245100   309.10411      1.2255         8.4749944e-05  8.6255311e-05  0.00010277249 -0.90065874     1515.4235      1515.4235      1515.4235      3.4801831e+09  0.16316847    -158778.31     -158778.31      920.45927     -157857.85     -0.83641691    -0.85127373    -1.0142856     -0.018263089   -0.092991572    0.11386979     25035.482    
    245200   309.0528       1.226          8.4783874e-05  8.6151053e-05  0.00010215998 -0.89841239     1515.764       1515.764       1515.764       3.4825293e+09  0.16305854    -158804.23     -158804.23      920.30647     -157883.93     -0.83675178    -0.85024478    -1.0082406     -0.019603769   -0.092076861    0.11350122     27549.606    
    245300   309.06331      1.2265         8.4768689e-05  8.6398936e-05  0.00010138891 -0.8966413      1516.1045      1516.1045      1516.1045      3.4848765e+09  0.16294872    -158829.83     -158829.83      920.33776     -157909.49     -0.83660192    -0.8526912     -1.0006308     -0.017375516   -0.093974584    0.11260877     25471.451    
    245400   309.06643      1.227          8.4250091e-05  8.5940796e-05  0.00010037337 -0.89008721     1516.4449      1516.4449      1516.4449      3.4872248e+09  0.16283899    -158855.28     -158855.28      920.34706     -157934.93     -0.83148375    -0.84816971    -0.99060818    -0.018300897   -0.092570497    0.1055081      27492.195    
    245500   308.84558      1.2275         8.3193425e-05  8.4883559e-05  9.8638159e-05 -0.8774246      1516.7854      1516.7854      1516.7854      3.4895742e+09  0.16272936    -158879.98     -158879.98      919.6894      -157960.29     -0.82105526    -0.83773559    -0.97348294    -0.02244066    -0.089967455    0.094615011    25488.786    
    245600   308.46499      1.228          8.2204464e-05  8.4359835e-05  9.6780165e-05 -0.86633593     1517.1259      1517.1259      1517.1259      3.4919246e+09  0.16261982    -158903.98     -158903.98      918.55608     -157985.42     -0.81129498    -0.83256684    -0.95514597    -0.023697043   -0.090037503    0.089205393    25433.818    
    245700   308.25328      1.2285         8.1646665e-05  8.4384925e-05  9.5942082e-05 -0.86182637     1517.4664      1517.4664      1517.4664      3.494276e+09   0.16251039    -158927.63     -158927.63      917.92563     -158009.7      -0.80578993    -0.83281446    -0.94687473    -0.022205363   -0.089413471    0.090664147    27595.35     
    245800   308.33287      1.229          8.129323e-05   8.4293777e-05  9.5413733e-05 -0.85862568     1517.8068      1517.8068      1517.8068      3.4966286e+09  0.16240105    -158951.42     -158951.42      918.16263     -158033.26     -0.80230181    -0.8319149     -0.94166034    -0.021324835   -0.0878003      0.095158982    25433.857    
    245900   308.43323      1.2295         8.0895495e-05  8.3696124e-05  9.4268937e-05 -0.85158502     1518.1473      1518.1473      1518.1473      3.4989821e+09  0.16229181    -158975.4      -158975.4       918.46148     -158056.94     -0.79837646    -0.82601652    -0.93036207    -0.020930006   -0.087698473    0.098897418    27647.886    
    246000   308.34541      1.23           8.0231983e-05  8.2213061e-05  9.3084616e-05 -0.84062722     1518.4878      1518.4878      1518.4878      3.5013368e+09  0.16218267    -158998.95     -158998.95      918.19998     -158080.75     -0.79182811    -0.81137983    -0.91867373    -0.020720996   -0.086144781    0.097360815    13999.585    
    246100   308.04202      1.2305         7.94519e-05    8.0305109e-05  9.2282231e-05 -0.82914464     1518.8282      1518.8282      1518.8282      3.5036925e+09  0.16207363    -159021.23     -159021.23      917.29653     -158103.93     -0.78412929    -0.79254981    -0.91075481    -0.019742399   -0.083798981    0.092323306    27359.489    
    246200   307.86855      1.231          7.9371676e-05  8.0148187e-05  9.1879659e-05 -0.82704013     1519.1687      1519.1687      1519.1687      3.5060492e+09  0.16196468    -159042.92     -159042.92      916.77998     -158126.14     -0.78333754    -0.7910011     -0.90678174    -0.010371939   -0.089299927    0.095797807    25089.381    
    246300   308.08508      1.2315         7.9773107e-05  8.1152437e-05  9.1549897e-05 -0.83057963     1519.5092      1519.5092      1519.5092      3.508407e+09   0.16185584    -159065.27     -159065.27      917.42477     -158147.84     -0.78729935    -0.80091228    -0.90352724     0.00024087718 -0.099387175    0.10391514     25532.956    
    246400   308.36999      1.232          7.9665221e-05  8.0988038e-05  9.0699356e-05 -0.82688581     1519.8496      1519.8496      1519.8496      3.5107659e+09  0.16174709    -159088.15     -159088.15      918.27318     -158169.88     -0.7862346     -0.79928979    -0.89513304    -0.0037395239  -0.10351896     0.10155838     27578.432    
    246500   308.25257      1.2325         7.9271838e-05  8.0217425e-05  9.0186797e-05 -0.82137037     1520.1901      1520.1901      1520.1901      3.5131258e+09  0.16163844    -159110.04     -159110.04      917.92353     -158192.12     -0.78235221    -0.79168443    -0.89007448    -0.016818277   -0.1009206      0.090229461    24436.536    
    246600   308.13689      1.233          7.9535985e-05  8.1321358e-05  9.1149997e-05 -0.82903969     1520.5306      1520.5306      1520.5306      3.5154868e+09  0.16152988    -159131.33     -159131.33      917.57904     -158213.75     -0.78495915    -0.80257941    -0.89958053    -0.016940131   -0.1006863      0.086675029    27609.879    
    246700   308.52497      1.2335         7.9952331e-05  8.3403661e-05  9.2515007e-05 -0.84175014     1520.871       1520.871       1520.871       3.5178488e+09  0.16142142    -159153.54     -159153.54      918.73468     -158234.81     -0.78906816    -0.82313013    -0.91305213    -0.0045449278  -0.10439203     0.091496061    25484.499    
    246800   308.9203       1.234          7.9081488e-05  8.289133e-05   9.2035517e-05 -0.83562245     1521.2115      1521.2115      1521.2115      3.5202119e+09  0.16131306    -159176.36     -159176.36      919.91192     -158256.45     -0.78047361    -0.81807382    -0.90831993    -0.0021624831  -0.10364365     0.089845415    27539.325    
    246900   308.69972      1.2345         7.7728815e-05  8.112148e-05   9.0280546e-05 -0.81957675     1521.552       1521.552       1521.552       3.522576e+09   0.1612048     -159198.45     -159198.45      919.25506     -158279.19     -0.76712376    -0.80060676    -0.89099972    -0.0052409524  -0.10201248     0.087910303    25615.561    
    247000   308.11893      1.235          7.7039702e-05  8.0175359e-05  8.891103e-05  -0.80969189     1521.8924      1521.8924      1521.8924      3.5249412e+09  0.16109663    -159219.93     -159219.93      917.52554     -158302.4      -0.76032274    -0.79126927    -0.87748364    -0.0045059665  -0.10413621     0.092607428    25459.143    
    247100   307.76252      1.2355         7.7166039e-05  8.0119955e-05  8.8664244e-05 -0.80911337     1522.2329      1522.2329      1522.2329      3.5273075e+09  0.16098856    -159241.54     -159241.54      916.46424     -158325.08     -0.76156959    -0.79072247    -0.87504805    -0.0019924051  -0.10918485     0.10022884     27593.56     
    247200   307.81192      1.236          7.7613594e-05  8.0154732e-05  8.9038253e-05 -0.81193052     1522.5734      1522.5734      1522.5734      3.5296748e+09  0.16088059    -159263.52     -159263.52      916.61132     -158346.91     -0.76598662    -0.7910657     -0.87873924    -0.0028895741  -0.11434251     0.10480707     25169.042    
    247300   308.0958       1.2365         7.7970933e-05  7.9890138e-05  8.9326957e-05 -0.81318539     1522.9138      1522.9138      1522.9138      3.5320432e+09  0.16077271    -159285.78     -159285.78      917.4567      -158368.32     -0.76951328    -0.78845436    -0.88158852    -0.0081778059  -0.11774701     0.10391011     27548.475    
    247400   308.34511      1.237          7.8111805e-05  7.9587448e-05  8.9155601e-05 -0.81208933     1523.2543      1523.2543      1523.2543      3.5344126e+09  0.16066493    -159308.01     -159308.01      918.19907     -158389.81     -0.77090357    -0.78546704    -0.87989737    -0.015074023   -0.11882777     0.099097313    25552.796    
    247500   308.49797      1.2375         7.8267988e-05  7.989586e-05   8.8647119e-05 -0.81194495     1523.5948      1523.5948      1523.5948      3.5367831e+09  0.16055725    -159330.32     -159330.32      918.65427     -158411.66     -0.77244498    -0.78851083    -0.87487904    -0.018266168   -0.11947458     0.095661644    11529.386    
    247600   308.58558      1.238          7.8456743e-05  8.0610132e-05  8.7923367e-05 -0.81253472     1523.9352      1523.9352      1523.9352      3.5391547e+09  0.16044966    -159352.94     -159352.94      918.91515     -158434.02     -0.77430785    -0.79556015    -0.86773617    -0.018432176   -0.120238       0.094544283    25381.529    
    247700   308.74628      1.2385         7.8875567e-05  8.1879731e-05  8.7273222e-05 -0.81595039     1524.2757      1524.2757      1524.2757      3.5415273e+09  0.16034217    -159376.28     -159376.28      919.39371     -158456.89     -0.77844132    -0.80809012    -0.86131973    -0.013850618   -0.12279782     0.09793765     25528.315    
    247800   308.84665      1.239          7.8789705e-05  8.1738264e-05  8.6282456e-05 -0.81194317     1524.6162      1524.6162      1524.6162      3.543901e+09   0.16023477    -159400.22     -159400.22      919.69257     -158480.53     -0.77759393    -0.80669394    -0.85154163    -0.016989891   -0.12005995     0.094360658    27502.584    
    247900   308.57686      1.2395         7.844285e-05   8.0715323e-05  8.5248064e-05 -0.80403401     1524.9567      1524.9567      1524.9567      3.5462757e+09  0.16012747    -159423.45     -159423.45      918.88921     -158504.56     -0.77417074    -0.7965983     -0.84133298    -0.024821723   -0.11349267     0.085874836    25491.768    
    248000   308.30179      1.24           7.8765387e-05  8.1247257e-05  8.4873174e-05 -0.80561171     1525.2971      1525.2971      1525.2971      3.5486515e+09  0.16002027    -159446.3      -159446.3       918.0701      -158528.23     -0.77735393    -0.80184809    -0.8376331     -0.022481286   -0.1126149      0.0863088      14233.739    
    248100   308.47225      1.2405         7.9329685e-05  8.2493325e-05  8.4757106e-05 -0.81118551     1525.6376      1525.6376      1525.6376      3.5510284e+09  0.15991316    -159470.19     -159470.19      918.57768     -158551.61     -0.78292312    -0.81414582    -0.8364876     -0.01520452    -0.11612903     0.092945566    25056.094    
    248200   308.73107      1.241          7.912755e-05   8.1979038e-05  8.4018283e-05 -0.80639813     1525.9781      1525.9781      1525.9781      3.5534063e+09  0.15980614    -159494.69     -159494.69      919.34841     -158575.34     -0.7809282     -0.8090702     -0.82919598    -0.017581154   -0.11656929     0.093773995    27505.474    
    248300   308.6093       1.2415         7.8533182e-05  8.0441814e-05  8.2986356e-05 -0.79599096     1526.3185      1526.3185      1526.3185      3.5557853e+09  0.15969923    -159518.38     -159518.38      918.98581     -158599.4      -0.77506224    -0.79389898    -0.81901165    -0.023809014   -0.11620446     0.09210028     25527.031    
    248400   308.41135      1.242          7.8500509e-05  8.0248233e-05  8.2590376e-05 -0.79394397     1526.659       1526.659       1526.659       3.5581653e+09  0.1595924     -159541.75     -159541.75      918.39634     -158623.35     -0.77473979    -0.79198849    -0.81510364    -0.019542297   -0.12188886     0.09716204     25481.745    
    248500   308.50111      1.2425         7.8510481e-05  8.038328e-05   8.2690582e-05 -0.7947507      1526.9995      1526.9995      1526.9995      3.5605464e+09  0.15948568    -159566.04     -159566.04      918.66362     -158647.37     -0.77483821    -0.79332129    -0.81609259    -0.013222574   -0.12816949     0.099946683    27589.518    
    248600   308.5459       1.243          7.8002552e-05  7.9539132e-05  8.2840499e-05 -0.7907959      1527.3399      1527.3399      1527.3399      3.5629286e+09  0.15937905    -159590.45     -159590.45      918.79699     -158671.65     -0.76982534    -0.7849902     -0.81757216    -0.014052212   -0.12925666     0.093991768    25401.741    
    248700   308.56268      1.2435         7.7805734e-05  7.9217504e-05  8.3459732e-05 -0.79112746     1527.6804      1527.6804      1527.6804      3.5653118e+09  0.15927251    -159614.91     -159614.91      918.84698     -158696.07     -0.76788289    -0.78181598    -0.82368351    -0.011026925   -0.13127606     0.092171254    27503.098    
    248800   308.63587      1.244          7.7895393e-05  7.8846143e-05  8.4296693e-05 -0.79295412     1528.0209      1528.0209      1528.0209      3.5676961e+09  0.15916607    -159639.72     -159639.72      919.0649      -158720.65     -0.76876775    -0.77815093    -0.83194368    -0.0061507516  -0.13382238     0.095146004    25500.914    
    248900   308.78686      1.2445         7.8336385e-05  7.8642477e-05  8.5304832e-05 -0.79705138     1528.3613      1528.3613      1528.3613      3.5700815e+09  0.15905972    -159665        -159665         919.51455     -158745.49     -0.77312001    -0.7761409     -0.84189324    -0.00073666299 -0.13755774     0.10062575     26421.008    
    249000   308.97348      1.245          7.8840291e-05  7.842179e-05   8.6204807e-05 -0.80094379     1528.7018      1528.7018      1528.7018      3.5724679e+09  0.15895347    -159690.78     -159690.78      920.07025     -158770.71     -0.77809318    -0.7739629     -0.8507753     -0.0011167937  -0.14010214     0.099917463    25495.993    
    249100   308.9799       1.2455         7.9371791e-05  7.8774842e-05  8.703556e-05  -0.8065867      1529.0423      1529.0423      1529.0423      3.5748554e+09  0.15884731    -159716.12     -159716.12      920.08938     -158796.03     -0.78333867    -0.77744725    -0.85897419    -0.0059940834  -0.14195003     0.091935966    25131.513    
    249200   309.31183      1.246          8.0577787e-05  8.1332344e-05  8.8375864e-05 -0.8233769      1529.3827      1529.3827      1529.3827      3.5772439e+09  0.15874125    -159742.28     -159742.28      921.07782     -158821.2      -0.79524092    -0.80268783    -0.87220196    -0.00088174369 -0.14997227     0.091737993    27521.628    
    249300   309.76791      1.2465         8.0779627e-05  8.1984052e-05  8.898069e-05  -0.82817458     1529.7232      1529.7232      1529.7232      3.5796335e+09  0.15863528    -159769.61     -159769.61      922.43595     -158847.17     -0.79723294    -0.80911968    -0.87817114    -0.0060854871  -0.15079477     0.085732296    25442.256    
    249400   309.60831      1.247          8.0119603e-05  8.0949621e-05  8.8732402e-05 -0.82178345     1530.0637      1530.0637      1530.0637      3.5820242e+09  0.1585294     -159796.13     -159796.13      921.96067     -158874.17     -0.790719      -0.79891064    -0.87572072    -0.016642279   -0.14521828     0.079755139    27530.993    
    249500   309.38431      1.2475         8.0286255e-05  8.2008736e-05  8.8883759e-05 -0.82631384     1530.4041      1530.4041      1530.4041      3.5844159e+09  0.15842362    -159822.87     -159822.87      921.29363     -158901.57     -0.79236373    -0.8093633     -0.8772145     -0.010606555   -0.14703419     0.089989539    25499.601    
    249600   309.49858      1.248          8.0360217e-05  8.2638293e-05  8.8876072e-05 -0.82860295     1530.7446      1530.7446      1530.7446      3.5868087e+09  0.15831794    -159851.06     -159851.06      921.63393     -158929.43     -0.79309368    -0.81557655    -0.87713864    -0.0074815003  -0.14807286     0.096107938    25447.779    
    249700   309.37086      1.2485         8.0066467e-05  8.1841342e-05  8.8592391e-05 -0.82408159     1531.0851      1531.0851      1531.0851      3.5892026e+09  0.15821234    -159878.72     -159878.72      921.25359     -158957.47     -0.79019459    -0.80771125    -0.87433892    -0.015034299   -0.14623188     0.090331965    27585.758    
    249800   309.2466       1.249          8.0539939e-05  8.2217229e-05  8.8666014e-05 -0.82711796     1531.4255      1531.4255      1531.4255      3.5915975e+09  0.15810685    -159905.98     -159905.98      920.88355     -158985.1      -0.79486739    -0.81142096    -0.87506552    -0.014809124   -0.1506268      0.090062851    25527.357    
    249900   309.32094      1.2495         8.0944299e-05  8.1971969e-05  8.8383591e-05 -0.82671226     1531.766       1531.766       1531.766       3.5939935e+09  0.15800144    -159933.82     -159933.82      921.10493     -159012.71     -0.79885812    -0.80900044    -0.87227822    -0.016261252   -0.15350275     0.088697324    27533.366    
    250000   309.25035      1.25           8.107751e-05   8.1174806e-05  8.7875435e-05 -0.82285633     1532.1065      1532.1065      1532.1065      3.5963906e+09  0.15789613    -159961.42     -159961.42      920.89472     -159040.53     -0.80017281    -0.80113305    -0.86726312    -0.019530093   -0.15354906     0.086117874    8113.9188    
Loop time of 21.1353 on 1 procs for 250000 steps with 1000 atoms

Performance: 1021.985 ns/day, 0.023 hours/ns, 11828.532 timesteps/s
94.9% CPU use with 1 MPI tasks x 1 OpenMP threads

MPI task timing breakdown:
Section |  min time  |  avg time  |  max time  |%varavg| %total
---------------------------------------------------------------
Pair    | 10.671     | 10.671     | 10.671     |   0.0 | 50.49
Neigh   | 0.6403     | 0.6403     | 0.6403     |   0.0 |  3.03
Comm    | 0.94432    | 0.94432    | 0.94432    |   0.0 |  4.47
Output  | 1.6103     | 1.6103     | 1.6103     |   0.0 |  7.62
Modify  | 6.354      | 6.354      | 6.354      |   0.0 | 30.06
Other   |            | 0.9149     |            |       |  4.33

Nlocal:           1000 ave        1000 max        1000 min
Histogram: 1 0 0 0 0 0 0 0 0 0
Nghost:            530 ave         530 max         530 min
Histogram: 1 0 0 0 0 0 0 0 0 0
Neighs:             59 ave          59 max          59 min
Histogram: 1 0 0 0 0 0 0 0 0 0

Total # of neighbors = 59
Ave neighs/atom = 0.059
Neighbor list builds = 1435
Dangerous builds = 0

# restart file
write_restart ./tensile/restart/restart_${usic}_${trial}.tensile.restart
write_restart ./tensile/restart/restart_1_${trial}.tensile.restart
write_restart ./tensile/restart/restart_1_2.tensile.restart
System init for write_restart ...
Generated 0 of 1 mixed pair_coeff terms from geometric mixing rule
Total wall time: 0:00:21
