LAMMPS (23 Jun 2022 - Update 1)
OMP_NUM_THREADS environment is not set. Defaulting to 1 thread. (src/comm.cpp:98)
  using 1 OpenMP thread(s) per MPI task
###

# Read restart info
read_restart ${read_res}
read_restart ./700300/equpmf71.res
Reading restart file ...
  restart file = 23 Jun 2022, LAMMPS = 23 Jun 2022
WARNING: Restart file used different # of processors: 4 vs. 1 (src/read_restart.cpp:654)
  restoring atom style atomic from restart
  orthogonal box = (2201.5658 2201.5658 2201.5658) to (2798.4342 2798.4342 2798.4342)
  1 by 1 by 1 MPI processor grid
  restoring pair style table from restart
  1000 atoms
  read_restart CPU = 0.059 seconds

# Settings
pair_style table/pgn spline 9941
pair_coeff 1 1 N20.txt DE_GNP 147.89 75.6
pair_coeff 2 2 N100.txt DE_GNP 473.9 115.92
WARNING: 3 of 9941 force values in table DE_GNP are inconsistent with -dE/dr.
WARNING:  Should only be flagged at inflection points (src/pair_table_pgn.cpp:478)
pair_coeff 1 2 mixed_potential.txt DE_GNP 391.2 95.66
WARNING: 1562 of 9941 force values in table DE_GNP are inconsistent with -dE/dr.
WARNING:  Should only be flagged at inflection points (src/pair_table_pgn.cpp:478)

# Neighbor list
neighbor 2.0 bin
neigh_modify delay 0 every 1 check yes

# Temperature
variable T equal ${Temp}
variable T equal 300

# Deformation
reset_timestep 0
variable tmp equal "lx"
variable L0 equal ${tmp}
variable L0 equal 596.868378461536
variable strain equal "(lx - v_L0)/v_L0"
variable stp equal "step"
variable tmpe equal "temp"
variable p1 equal "v_strain"
variable p2 equal "-pxx*1.01325/10000"
variable p3 equal "-pyy*1.01325/10000"
variable p4 equal "-pzz*1.01325/10000"
variable p5 equal "lx"
variable p6 equal "ly"
variable p7 equal "lz"
variable p8 equal "press"
variable p9 equal "epair"
variable p10 equal "etotal"

# Thermo
thermo_style custom step temp v_p1 v_p2 v_p3 v_p4 press lx ly lz vol density epair pe ke etotal pxx pyy pzz pxy pxz pyz spcpu
thermo ${ts_save}
thermo 100

# Dump
dump 1 all custom 2000 ./tensile/trajectory/trajectory_${usic}_${trial}_*.tensile.custom id type x y z ix iy iz
dump 1 all custom 2000 ./tensile/trajectory/trajectory_1_${trial}_*.tensile.custom id type x y z ix iy iz
dump 1 all custom 2000 ./tensile/trajectory/trajectory_1_2_*.tensile.custom id type x y z ix iy iz
dump_modify 1 sort id
dump 2 all cfg 2500 ./tensile/trajectory/ovito/dumpten.tens_${usic}_${trial}_*.cfg mass type xs ys zs fx fy fz
dump 2 all cfg 2500 ./tensile/trajectory/ovito/dumpten.tens_1_${trial}_*.cfg mass type xs ys zs fx fy fz
dump 2 all cfg 2500 ./tensile/trajectory/ovito/dumpten.tens_1_2_*.cfg mass type xs ys zs fx fy fz
dump_modify 2 element N20 N100

fix 1 all nvt temp ${T} ${T} 100
fix 1 all nvt temp 300 ${T} 100
fix 1 all nvt temp 300 300 100
fix 2 all deform 1 x erate ${strain_rate} y erate ${strain_rate} z erate ${strain_rate} units box
fix 2 all deform 1 x erate 5e-6 y erate ${strain_rate} z erate ${strain_rate} units box
fix 2 all deform 1 x erate 5e-6 y erate 5e-6 z erate ${strain_rate} units box
fix 2 all deform 1 x erate 5e-6 y erate 5e-6 z erate 5e-6 units box
fix             def1 all print ${ts_save} "${p1} ${p2} ${p3} ${p4}" file ./tensile/tensile${N20}${N100}_${usic}_${trial}.txt screen no
fix             def1 all print 100 "${p1} ${p2} ${p3} ${p4}" file ./tensile/tensile${N20}${N100}_${usic}_${trial}.txt screen no
fix             def1 all print 100 "${p1} ${p2} ${p3} ${p4}" file ./tensile/tensile700${N100}_${usic}_${trial}.txt screen no
fix             def1 all print 100 "${p1} ${p2} ${p3} ${p4}" file ./tensile/tensile700300_${usic}_${trial}.txt screen no
fix             def1 all print 100 "${p1} ${p2} ${p3} ${p4}" file ./tensile/tensile700300_1_${trial}.txt screen no
fix             def1 all print 100 "${p1} ${p2} ${p3} ${p4}" file ./tensile/tensile700300_1_2.txt screen no

timestep       		${ts}
timestep       		1
run				${steps_tensile}
run				250000
Generated 0 of 1 mixed pair_coeff terms from geometric mixing rule
Unused restart file global fix info:
  fix style: npt, fix ID: 5
Neighbor list info ...
  update every 1 steps, delay 0 steps, check yes
  max neighbors/atom: 2000, page size: 100000
  master list distance cutoff = 117.92
  ghost atom cutoff = 117.92
  binsize = 58.96, bins = 11 11 11
  1 neighbor lists, perpetual/occasional/extra = 1 0 0
  (1) pair table/pgn, perpetual
      attributes: half, newton on
      pair build: half/bin/atomonly/newton
      stencil: half/bin/3d
      bin: standard
Per MPI rank memory allocation (min/avg/max) = 5.812 | 5.812 | 5.812 Mbytes
   Step          Temp           v_p1           v_p2           v_p3           v_p4          Press            Lx             Ly             Lz           Volume        Density         E_pair         PotEng         KinEng         TotEng          Pxx            Pyy            Pzz            Pxy            Pxz            Pyz           S/CPU     
         0   294.8084      -1.9047221e-16  0.024215135    0.029806702    0.030234214   -277.18086      596.86838      596.86838      596.86838      2.1263547e+08  2.2015339     -18921256      -18921256       877.88908     -18920378      -238.9848      -294.16928     -298.38849     -16.037295     -53.926239     -20.045926      0            
       100   344.00498      0.0005         0.034348705    0.040009492    0.040507182   -377.87772      597.16681      597.16681      597.16681      2.1295458e+08  2.1982349     -18919904      -18919904       1024.3881     -18918880      -338.99536     -394.86299     -399.77481     -15.14794      -53.905237     -21.1678        4137.9817    
       200   428.71177      0.001          0.042470508    0.048216059    0.048872855   -459.1148       597.46525      597.46525      597.46525      2.1327402e+08  2.1949424     -18876285      -18876285       1276.6304     -18875008      -419.15133     -475.8555      -482.33758     -11.643374     -52.337771     -19.846319      5380.7386    
       300   505.88727      0.0015         0.049718957    0.055296384    0.056054719   -529.8793       597.76368      597.76368      597.76368      2.1359377e+08  2.1916566     -18874580      -18874580       1506.4459     -18873073      -490.68795     -545.73288     -553.21706     -12.545845     -52.531608     -16.931331      5657.186     
       400   547.28019      0.002          0.056889572    0.06201796     0.06273626    -597.56161      598.06212      598.06212      598.06212      2.1391384e+08  2.1883773     -18856284      -18856284       1629.7069     -18854655      -561.45642     -612.06968     -619.15875     -13.707404     -52.15149      -17.03031       5393.2708    
       500   554.94501      0.0025         0.064725627    0.06965767     0.069806628   -671.73263      598.36055      598.36055      598.36055      2.1423423e+08  2.1851046     -18854078      -18854078       1652.5315     -18852425      -638.79227     -687.46776     -688.93786     -16.153324     -50.855556     -19.123422      5657.3377    
       600   542.9676       0.003          0.072534089    0.077074811    0.077037654   -745.60919      598.65898      598.65898      598.65898      2.1455494e+08  2.1818383     -18831310      -18831310       1616.8648     -18829693      -715.85581     -760.66924     -760.30253     -17.183414     -50.610378     -21.065889      5360.5423    
       700   523.08605      0.0035         0.080244347    0.084847033    0.084596496   -821.40925      598.95742      598.95742      598.95742      2.1487597e+08  2.1785786     -18828372      -18828372       1557.6609     -18826814      -791.95013     -837.37511     -834.9025      -16.284563     -49.273699     -19.903941      5665.6283    
       800   501.63315      0.004          0.087425851    0.092051515    0.092059786   -893.28778      599.25585      599.25585      599.25585      2.1519732e+08  2.1753254     -18802475      -18802475       1493.7779     -18800982      -862.82606     -908.47782     -908.55945     -15.110082     -47.168247     -18.930562      5414.9961    
       900   481.23524      0.0045         0.095087564    0.099430528    0.09970896    -967.93175      599.55429      599.55429      599.55429      2.1551899e+08  2.1720786     -18798777      -18798777       1433.0364     -18797344      -938.4413      -981.30302     -984.05092     -15.429938     -47.514319     -19.259252      5668.8041    
      1000   463.32787      0.005          0.10241045     0.10663194     0.10660274    -1038.3918      599.85272      599.85272      599.85272      2.1584098e+08  2.1688383     -18773813      -18773813       1379.7113     -18772433      -1010.7126     -1052.3754     -1052.0872     -16.865564     -48.183223     -22.090828      5366.1331    
      1100   448.15299      0.0055         0.1094797      0.11370068     0.11334637    -1107.0869      600.15115      600.15115      600.15115      2.1616329e+08  2.1656045     -18769383      -18769383       1334.5231     -18768048      -1080.4807     -1122.1384     -1118.6417     -17.647043     -48.327705     -22.913011      5637.4835    
      1200   435.32924      0.006          0.11512562     0.11977465     0.11897995    -1164.1754      600.44959      600.44959      600.44959      2.1648592e+08  2.1623771     -18703164      -18703164       1296.3361     -18701868      -1136.2015     -1182.0839     -1174.2408     -16.893651     -49.613789     -23.932652      5419.6474    
      1300   424.46263      0.0065         0.12150856     0.12656184     0.12526711    -1228.1849      600.74802      600.74802      600.74802      2.1680887e+08  2.159156      -18698102      -18698102       1263.9772     -18696838      -1199.1962     -1249.0683     -1236.2903     -15.795623     -50.767894     -21.481293      5692.2515    
      1400   415.71751      0.007          0.12791659     0.13290264     0.13150103    -1290.6333      601.04646      601.04646      601.04646      2.1713215e+08  2.1559414     -18678463      -18678463       1237.9358     -18677225      -1262.4386     -1311.6471     -1297.8142     -15.814736     -51.518535     -21.509927      5437.1082    
      1500   408.07825      0.0075         0.1346366      0.13932579     0.13809899    -1355.5766      601.34489      601.34489      601.34489      2.1745574e+08  2.1527332     -18672741      -18672741       1215.1873     -18671525      -1328.7599     -1375.0387     -1362.9311     -16.645116     -48.421682     -22.569178      5701.1652    
      1600   401.13619      0.008          0.14090304     0.14545542     0.14398405    -1415.7168      601.64333      601.64333      601.64333      2.1777966e+08  2.1495313     -18647308      -18647308       1194.5151     -18646113      -1390.6049     -1435.5334     -1421.012      -19.654108     -46.034718     -22.061501      5446.6756    
      1700   395.71528      0.0085         0.14697169     0.15114573     0.14953739    -1472.6698      601.94176      601.94176      601.94176      2.1810389e+08  2.1463358     -18640976      -18640976       1178.3725     -18639798      -1450.4978     -1491.6924     -1475.8193     -20.300099     -45.944194     -21.679271      5655.0863    
      1800   391.88138      0.009          0.15262798     0.15648682     0.1548145     -1526.2087      602.24019      602.24019      602.24019      2.1842845e+08  2.1431466     -18607861      -18607861       1166.9558     -18606694      -1506.3211     -1544.4048     -1527.9003     -19.562278     -46.340228     -20.141784      5446.0847    
      1900   388.8193       0.0095         0.15853389     0.16218309     0.16073198    -1583.844       602.53863      602.53863      602.53863      2.1875334e+08  2.1399637     -18600983      -18600983       1157.8375     -18599825      -1564.6079     -1600.6227     -1586.3013     -17.286154     -47.234287     -17.932452      5699.8927    
      2000   386.0234       0.01           0.16377585     0.16754783     0.16578257    -1635.3524      602.83706      602.83706      602.83706      2.1907854e+08  2.1367871     -18562863      -18562863       1149.5118     -18561714      -1616.342      -1653.5685     -1636.1468     -18.533871     -47.532769     -16.624776      4275.9193    
      2100   383.98872      0.0105         0.16906924     0.17302928     0.17065681    -1686.8339      603.1355       603.1355       603.1355       2.1940406e+08  2.1336168     -18555449      -18555449       1143.4528     -18554305      -1668.5837     -1707.6662     -1684.2517     -19.159683     -47.37493      -18.150992      5713.3641    
      2200   382.90231      0.011          0.17384398     0.17813758     0.17523838    -1734.4187      603.43393      603.43393      603.43393      2.1972991e+08  2.1304527     -18524340      -18524340       1140.2177     -18523200      -1715.7067     -1758.0812     -1729.4683     -18.363624     -45.330274     -20.385062      5417.0295    
      2300   382.19197      0.0115         0.17922051     0.18347372     0.18049425    -1786.9511      603.73236      603.73236      603.73236      2.2005608e+08  2.1272949     -18516439      -18516439       1138.1024     -18515301      -1768.7689     -1810.7448     -1781.3397     -18.231649     -43.544107     -20.048181      5730.4406    
      2400   381.99589      0.012          0.18453592     0.18873994     0.18538211    -1837.8418      604.0308       604.0308       604.0308       2.2038257e+08  2.1241434     -18496166      -18496166       1137.5185     -18495028      -1821.2279     -1862.7184     -1829.5791     -17.986669     -45.888633     -16.595034      5477.7979    
      2500   382.83143      0.0125         0.18960641     0.1937395      0.18994644    -1885.9852      604.32923      604.32923      604.32923      2.2070939e+08  2.1209981     -18487751      -18487751       1140.0066     -18486611      -1871.2698     -1912.0602     -1874.6256     -17.973009     -48.525379     -14.540127      4182.071     
      2600   384.24011      0.013          0.19371241     0.19830171     0.19402135    -1927.9068      604.62767      604.62767      604.62767      2.2103653e+08  2.1178589     -18469332      -18469332       1144.2014     -18468188      -1911.7929     -1957.0857     -1914.8418     -18.163365     -48.496944     -14.066691      5475.1913    
      2700   385.59841      0.0135         0.19797744     0.20278133     0.19842426    -1971.1589      604.9261       604.9261       604.9261       2.2136399e+08  2.114726      -18460513      -18460513       1148.2462     -18459365      -1953.8854     -2001.2961     -1958.2952     -16.371562     -45.371266     -14.846788      5691.7461    
      2800   386.47543      0.014          0.20233459     0.20674092     0.20296046    -2013.4418      605.22454      605.22454      605.22454      2.2169177e+08  2.1115993     -18413963      -18413963       1150.8578     -18412812      -1996.8871     -2040.3743     -2003.064      -16.766314     -44.249448     -14.481987      5484.2015    
      2900   387.51505      0.0145         0.20707637     0.21075439     0.20755132    -2057.3471      605.52297      605.52297      605.52297      2.2201988e+08  2.1084787     -18404721      -18404721       1153.9536     -18403567      -2043.6848     -2079.9841     -2048.3722     -19.248069     -45.626395     -13.961836      5748.7536    
      3000   389.25811      0.015          0.21109864     0.21441501     0.21133356    -2095.0644      605.8214       605.8214       605.8214       2.2234831e+08  2.1053642     -18375412      -18375412       1159.1442     -18374253      -2083.3816     -2116.1116     -2085.7        -19.804344     -47.555815     -10.875137      5485.1825    
      3100   391.58548      0.0155         0.21513943     0.21835341     0.21507834    -2133.6333      606.11984      606.11984      606.11984      2.2267707e+08  2.1022559     -18365783      -18365783       1166.0747     -18364617      -2123.2611     -2154.9806     -2122.6582     -18.296507     -46.740212     -7.9844591      5752.9237    
      3200   393.68062      0.016          0.21876481     0.22229856     0.21865344    -2170.2996      606.41827      606.41827      606.41827      2.2300615e+08  2.0991537     -18345223      -18345223       1172.3137     -18344050      -2159.0409     -2193.9162     -2157.9417     -16.401394     -42.68107      -6.2668607      5490.8393    
      3300   395.38765      0.0165         0.22263893     0.22670962     0.22243707    -2210.0029      606.71671      606.71671      606.71671      2.2333555e+08  2.0960576     -18335228      -18335228       1177.3969     -18334051      -2197.2754     -2237.45       -2195.2832     -13.910598     -39.940491     -6.7114289      5712.7018    
      3400   397.0084       0.017          0.2266505      0.23081194     0.22584192    -2247.8966      607.01514      607.01514      607.01514      2.2366528e+08  2.0929676     -18318364      -18318364       1182.2232     -18317182      -2236.8665     -2277.9368     -2228.8865     -10.829766     -41.054069     -7.6320083      5495.004     
      3500   399.0956       0.0175         0.23058922     0.23435324     0.22923552    -2283.668       607.31358      607.31358      607.31358      2.2399533e+08  2.0898837     -18307990      -18307990       1188.4386     -18306802      -2275.7387     -2312.8867     -2262.3786     -12.889179     -44.470668     -7.7371464      5756.781     
      3600   401.28609      0.018          0.23384702     0.23704516     0.23224728    -2313.149       607.61201      607.61201      607.61201      2.2432571e+08  2.0868058     -18280929      -18280929       1194.9615     -18279734      -2307.8907     -2339.4539     -2292.1024     -17.499925     -44.3994       -6.4163926      5502.845     
      3700   403.97449      0.0185         0.23697696     0.23999444     0.23534556    -2343.3406      607.91044      607.91044      607.91044      2.2465641e+08  2.083734      -18270258      -18270258       1202.9671     -18269055      -2338.7808     -2368.561      -2322.6801     -18.918714     -41.951833     -5.8037075      5769.9153    
      3800   406.86317      0.019          0.2398459      0.242897       0.23824993    -2371.882       608.20888      608.20888      608.20888      2.2498744e+08  2.0806681     -18245895      -18245895       1211.569      -18244684      -2367.095      -2397.207      -2351.344      -18.306197     -39.005523     -4.8750379      5504.3177    
      3900   409.57854      0.0195         0.24315143     0.24618648     0.24155088    -2404.4372      608.50731      608.50731      608.50731      2.2531879e+08  2.0776083     -18234942      -18234942       1219.655      -18233722      -2399.7181     -2429.6716     -2383.9218     -15.690392     -37.710386     -4.5240575      5725.4546    
      4000   411.43992      0.02           0.24636595     0.24936935     0.24470477    -2435.8584      608.80575      608.80575      608.80575      2.2565046e+08  2.0745545     -18212053      -18212053       1225.1978     -18210828      -2431.4429     -2461.0841     -2415.0483     -14.739945     -38.569418     -4.2370956      4288.5898    
      4100   413.16123      0.0205         0.24971827     0.25259341     0.24768667    -2467.3028      609.10418      609.10418      609.10418      2.2598246e+08  2.0715067     -18200776      -18200776       1230.3236     -18199546      -2464.5277     -2492.9032     -2444.4774     -15.358036     -38.538459     -3.0448787      5769.0175    
      4200   415.18871      0.021          0.25262973     0.25544779     0.24998064    -2493.8174      609.40261      609.40261      609.40261      2.2631479e+08  2.0684648     -18175748      -18175748       1236.3611     -18174512      -2493.2616     -2521.0737     -2467.1171     -14.994502     -40.086342     -1.2079627      5519.3788    
      4300   417.91137      0.0215         0.25483029     0.25800047     0.25217717    -2516.6804      609.70105      609.70105      609.70105      2.2664744e+08  2.0654289     -18153116      -18153116       1244.4687     -18151871      -2514.9794     -2546.2667     -2488.7952     -12.854187     -42.56087       0.37120767     5514.1355    
      4400   420.64935      0.022          0.25721876     0.26041514     0.25461537    -2540.5026      609.99948      609.99948      609.99948      2.2698042e+08  2.062399      -18141470      -18141470       1252.6219     -18140217      -2538.5518     -2570.0976     -2512.8583     -12.049401     -42.369211      0.49351018     5613.6342    
      4500   422.91802      0.0225         0.2598225      0.26261858     0.25686166    -2563.7067      610.29792      610.29792      610.29792      2.2731373e+08  2.0593749     -18112156      -18112156       1259.3777     -18110897      -2564.2487     -2591.8439     -2535.0275     -12.464033     -40.053067      0.26716134     5515.8546    
      4600   425.03781      0.023          0.26246741     0.26492524     0.25952789    -2588.7673      610.59635      610.59635      610.59635      2.2764736e+08  2.0563568     -18100267      -18100267       1265.69       -18099001      -2590.3519     -2614.6088     -2561.3412     -13.152831     -37.153324      0.46789837     5784.5277    
      4700   426.90324      0.0235         0.26457542     0.26727765     0.26169687    -2610.5763      610.89479      610.89479      610.89479      2.2798131e+08  2.0533445     -18077792      -18077792       1271.245      -18076521      -2611.1564     -2637.8253     -2582.7473     -13.083981     -35.766887     -0.014375094    5527.6459    
      4800   428.25981      0.024          0.26657946     0.26972916     0.26362334    -2631.5715      611.19322      611.19322      611.19322      2.283156e+08   2.0503382     -18065669      -18065669       1275.2846     -18064394      -2630.9347     -2662.0199     -2601.7601     -13.16378      -36.741045      0.78162712     5798.3768    
      4900   429.73835      0.0245         0.2687631      0.27150822     0.2652056     -2649.813       611.49165      611.49165      611.49165      2.2865021e+08  2.0473377     -18029448      -18029448       1279.6874     -18028168      -2652.4855     -2679.5778     -2617.3757     -13.890433     -38.608584      4.2350496      5531.668     
      5000   431.43447      0.025          0.27159328     0.27342169     0.26744803    -2672.7954      611.79009      611.79009      611.79009      2.2898514e+08  2.044343      -18017127      -18017127       1284.7382     -18015842      -2680.4172     -2698.4623     -2639.5068     -13.184728     -38.949794      5.9050588      4440.7892    
      5100   433.2462       0.0255         0.27429253     0.27527077     0.26967731    -2695.092       612.08852      612.08852      612.08852      2.2932041e+08  2.0413542     -17989563      -17989563       1290.1332     -17988273      -2707.0568     -2716.7112     -2661.5081     -11.861975     -37.593534      5.9288315      5526.6383    
      5200   435.49209      0.026          0.27624743     0.27729521     0.27204826    -2715.9829      612.38696      612.38696      612.38696      2.29656e+08    2.0383713     -17977025      -17977025       1296.8211     -17975728      -2726.3501     -2736.691      -2684.9076     -11.220947     -36.354076      4.3414309      5796.4959    
      5300   437.70215      0.0265         0.27756106     0.27933042     0.27367786    -2732.3607      612.68539      612.68539      612.68539      2.2999192e+08  2.0353941     -17956490      -17956490       1303.4023     -17955187      -2739.3147     -2756.7769     -2700.9905     -10.738427     -34.862828      2.2326629      5153.7227    
      5400   439.77762      0.027          0.27891886     0.28097792     0.27469922    -2745.6074      612.98382      612.98382      612.98382      2.3032816e+08  2.0324227     -17943784      -17943784       1309.5827     -17942475      -2752.7151     -2773.0365     -2711.0705     -11.346776     -34.295153      1.4751698      5806.6644    
      5500   441.55587      0.0275         0.28015703     0.28200233     0.27566405    -2756.2247      613.28226      613.28226      613.28226      2.3066474e+08  2.0294571     -17917442      -17917442       1314.878      -17916127      -2764.935      -2783.1466     -2720.5926     -11.53697      -35.500057      3.7098075      5500.1601    
      5600   442.99858      0.028          0.28185921     0.28317997     0.27732303    -2771.1562      613.58069      613.58069      613.58069      2.3100164e+08  2.0264973     -17904596      -17904596       1319.1741     -17903276      -2781.7342     -2794.769      -2736.9655     -12.496628     -35.684291      7.1908888      5812.2747    
      5700   443.85815      0.0285         0.28331017     0.28445011     0.27923815    -2786.4082      613.87913      613.87913      613.87913      2.3133887e+08  2.0235432     -17890841      -17890841       1321.7338     -17889519      -2796.054      -2807.3043     -2755.8663     -11.492708     -37.094974      9.350037       5546.3059    
      5800   444.22462      0.029          0.28466895     0.28591313     0.28074516    -2800.6489      614.17756      614.17756      614.17756      2.3167642e+08  2.0205949     -17877823      -17877823       1322.8251     -17876500      -2809.4641     -2821.7432     -2770.7393     -8.1479489     -38.550634      9.4527138      5806.512     
      5900   444.73836      0.0295         0.28583595     0.28741277     0.2817183     -2812.6228      614.476        614.476        614.476        2.3201431e+08  2.0176522     -17844726      -17844726       1324.3549     -17843402      -2820.9815     -2836.5435     -2780.3435     -5.0857227     -37.137733      6.848621       5544.2352    
      6000   445.75506      0.03           0.28719427     0.28875215     0.28303293    -2825.8223      614.77443      614.77443      614.77443      2.3235252e+08  2.0147153     -17831583      -17831583       1327.3825     -17830256      -2834.387      -2849.7622     -2793.3178     -6.9534676     -34.714443      6.3089505      1475.1171    
      6100   447.24015      0.0305         0.28795634     0.28895057     0.28361659    -2830.9022      615.07286      615.07286      615.07286      2.3269106e+08  2.0117841     -17783633      -17783633       1331.8048     -17782301      -2841.9081     -2851.7204     -2799.0781     -12.225222     -33.946737      6.3328222      2899.8552    
      6200   449.16645      0.031          0.28921312     0.28948392     0.28437869    -2839.2984      615.3713       615.3713       615.3713       2.3302993e+08  2.0088586     -17770403      -17770403       1337.541      -17769066      -2854.3116     -2856.9842     -2806.5995     -14.046146     -33.141077      6.4243886      5835.0285    
      6300   450.8647       0.0315         0.29056        0.29035116     0.28536611    -2849.8306      615.66973      615.66973      615.66973      2.3336913e+08  2.0059388     -17756855      -17756855       1342.5981     -17755512      -2867.6042     -2865.5431     -2816.3445     -11.234921     -33.93277       5.9813944      5501.5886    
      6400   451.52893      0.032          0.29172803     0.29156104     0.28668778    -2862.0013      615.96817      615.96817      615.96817      2.3370866e+08  2.0030246     -17743503      -17743503       1344.576      -17742158      -2879.1318     -2877.4837     -2829.3884     -7.6051142     -34.774957      5.7803332      5832.4461    
      6500   451.66195      0.0325         0.29184073     0.29216844     0.28732984    -2866.4825      616.2666       616.2666       616.2666       2.3404852e+08  2.000116      -17706405      -17706405       1344.9722     -17705060      -2880.2441     -2883.4783     -2835.7251     -5.1811163     -34.86832       6.3354258      5573.9872    
      6600   452.4671       0.033          0.29207028     0.29280712     0.28766296    -2870.4346      616.56503      616.56503      616.56503      2.343887e+08   1.9972131     -17692979      -17692979       1347.3697     -17691631      -2882.5095     -2889.7816     -2839.0126     -3.9505726     -35.490252      5.6868272      5842.7074    
      6700   453.14027      0.0335         0.29243999     0.29333839     0.2880824     -2874.7784      616.86347      616.86347      616.86347      2.3472922e+08  1.9943158     -17669104      -17669104       1349.3743     -17667754      -2886.1583     -2895.0248     -2843.1522     -5.6677278     -35.082504      7.9364832      5568.0038    
      6800   453.0623       0.034          0.29291853     0.29369594     0.28877441    -2879.8055      617.1619       617.1619       617.1619       2.3507007e+08  1.9914241     -17655610      -17655610       1349.1422     -17654260      -2890.8811     -2898.5536     -2849.9818     -7.724998      -34.021076      9.9182827      5800.428     
      6900   452.70657      0.0345         0.29273585     0.29361498     0.28901499    -2879.7296      617.46034      617.46034      617.46034      2.3541124e+08  1.9885379     -17606324      -17606324       1348.0829     -17604976      -2889.0782     -2897.7546     -2852.3561     -6.0596331     -30.98984       8.8699171      5586.2217    
      7000   452.71275      0.035          0.29328008     0.29366222     0.28949216    -2883.2452      617.75877      617.75877      617.75877      2.3575275e+08  1.9856574     -17592778      -17592778       1348.1013     -17591430      -2894.4493     -2898.2208     -2857.0655     -3.9193363     -29.748114      7.4466701      5853.34      
      7100   453.51643      0.0355         0.29398927     0.29388353     0.2895098     -2886.3643      618.05721      618.05721      618.05721      2.3609458e+08  1.9827824     -17556435      -17556435       1350.4945     -17555084      -2901.4485     -2900.4049     -2857.2395     -3.6616076     -27.831526      9.1505777      5586.8275    
      7200   454.26092      0.036          0.29498633     0.29472284     0.29020243    -2894.6841      618.35564      618.35564      618.35564      2.3643675e+08  1.979913      -17542846      -17542846       1352.7115     -17541493      -2911.2887     -2908.6883     -2864.0753     -4.2347483     -27.31694       10.852533      5859.4171    
      7300   454.23396      0.0365         0.29535914     0.29517085     0.290604      -2898.7054      618.65407      618.65407      618.65407      2.3677925e+08  1.9770491     -17510169      -17510169       1352.6312     -17508817      -2914.9681     -2913.1098     -2868.0385     -3.0969195     -29.063121      11.334119      5593.4884    
      7400   454.52158      0.037          0.29527878     0.29490847     0.29056052    -2897.4349      618.95251      618.95251      618.95251      2.3712207e+08  1.9741907     -17496519      -17496519       1353.4876     -17495165      -2914.175      -2910.5203     -2867.6094     -1.9624676     -31.208032      10.839027      5813.8027    
      7500   455.24418      0.0375         0.29472028     0.29396064     0.2903658     -2891.8389      619.25094      619.25094      619.25094      2.3746523e+08  1.9713378     -17476063      -17476063       1355.6394     -17474707      -2908.663      -2901.166      -2865.6877      0.32256908    -30.646127      10.065106      2148.6703    
      7600   455.76953      0.038          0.29411514     0.2935654      0.29011343    -2887.7177      619.54938      619.54938      619.54938      2.3780872e+08  1.9684904     -17462424      -17462424       1357.2038     -17461067      -2902.6908     -2897.2652     -2863.197       1.2249215     -28.168604      9.8843943      3845.1711    
      7700   455.52017      0.0385         0.29378896     0.29343683     0.29021782    -2886.565       619.84781      619.84781      619.84781      2.3815254e+08  1.9656485     -17433474      -17433474       1356.4613     -17432117      -2899.4716     -2895.9963     -2864.2272      0.91801007    -25.077477      9.1691936      5500.272     
      7800   454.16204      0.039          0.29379317     0.29368686     0.29085952    -2889.5125      620.14625      620.14625      620.14625      2.3849669e+08  1.9628121     -17419820      -17419820       1352.417      -17418467      -2899.5132     -2898.4639     -2870.5603      1.0325054     -23.784704      8.9212871      5818.4848    
      7900   452.75317      0.0395         0.29377848     0.29364776     0.29089676    -2889.458       620.44468      620.44468      620.44468      2.3884117e+08  1.9599811     -17396846      -17396846       1348.2216     -17395498      -2899.3682     -2898.0781     -2870.9278      2.6190926     -25.828428      10.058983      5604.0917    
      8000   452.57755      0.04           0.29413455     0.29350094     0.29052627    -2888.9276      620.74311      620.74311      620.74311      2.3918599e+08  1.9571556     -17383166      -17383166       1347.6987     -17381818      -2902.8823     -2896.6291     -2867.2713      3.6426751     -27.12967       12.58926       3128.2939    
      8100   453.08744      0.0405         0.29410582     0.29295379     0.28964694    -2884.1403      621.04155      621.04155      621.04155      2.3953113e+08  1.9543355     -17361994      -17361994       1349.217      -17360645      -2902.5988     -2891.2291     -2858.593       2.0448012     -25.155342      12.678188      4607.8257    
      8200   453.47624      0.041          0.29367294     0.29237379     0.28891786    -2878.4097      621.33998      621.33998      621.33998      2.3987661e+08  1.9515208     -17345522      -17345522       1350.3748     -17344172      -2898.3266     -2885.505      -2851.3976      0.68592947    -24.199533      11.227023      5554.9263    
      8300   453.61717      0.0415         0.2928421      0.29177194     0.28839942    -2871.991       621.63842      621.63842      621.63842      2.4022242e+08  1.9487115     -17331875      -17331875       1350.7945     -17330524      -2890.1268     -2879.5651     -2846.281       1.7353211     -25.202394      9.4052018      5886.759     
      8400   453.77428      0.042          0.29167266     0.29094315     0.28785127    -2863.6141      621.93685      621.93685      621.93685      2.4056856e+08  1.9459076     -17298866      -17298866       1351.2623     -17297514      -2878.5854     -2871.3857     -2840.8712      5.3610602     -26.0798        8.655351       5616.9504    
      8500   453.47935      0.0425         0.29096069     0.29031464     0.28783015    -2859.1347      622.23528      622.23528      622.23528      2.4091503e+08  1.9431091     -17285270      -17285270       1350.3841     -17283920      -2871.5587     -2865.1827     -2840.6628      6.0569418     -25.583386      8.9148989      5895.5114    
      8600   452.17905      0.043          0.29043909     0.28959931     0.28789697    -2855.2854      622.53372      622.53372      622.53372      2.4126184e+08  1.9403159     -17268195      -17268195       1346.512      -17266848      -2866.411      -2858.123      -2841.3222      5.4970656     -24.396702      9.2594438      5627.114     
      8700   450.78794      0.0435         0.29001513     0.28882317     0.28736563    -2849.5894      622.83215      622.83215      622.83215      2.4160898e+08  1.9375281     -17254609      -17254609       1342.3695     -17253266      -2862.2268     -2850.4631     -2836.0783      6.0083887     -22.885791      9.542698       5903.6251    
      8800   450.46661      0.044          0.28943202     0.28791067     0.28574607    -2839.3413      623.13059      623.13059      623.13059      2.4195645e+08  1.9347456     -17231413      -17231413       1341.4127     -17230072      -2856.4719     -2841.4574     -2820.0945      7.198822      -21.287115      8.9689953      5587.1181    
      8900   450.65758      0.0445         0.28871331     0.28707051     0.28433328    -2829.5653      623.42902      623.42902      623.42902      2.4230426e+08  1.9319685     -17217897      -17217897       1341.9813     -17216555      -2849.3789     -2833.1657     -2806.1512      7.4997227     -21.058419      8.0022054      5901.2623    
      9000   450.60351      0.045          0.28780502     0.2861044      0.28367008    -2821.2172      623.72746      623.72746      623.72746      2.426524e+08   1.9291966     -17206694      -17206694       1341.8203     -17205352      -2840.4147     -2823.6309     -2799.606       7.6774328     -20.192131      7.6106376      5631.7335    
      9100   449.68476      0.0455         0.28687114     0.28511054     0.28328363    -2813.6041      624.02589      624.02589      624.02589      2.4300087e+08  1.9264301     -17193237      -17193237       1339.0844     -17191898      -2831.198      -2813.8222     -2795.792       6.54647       -19.860621      9.3587781      5909.2501    
      9200   448.37302      0.046          0.2856514      0.28365249     0.28235538    -2801.7412      624.32432      624.32432      624.32432      2.4334967e+08  1.9236689     -17148111      -17148111       1335.1783     -17146776      -2819.1602     -2799.4324     -2786.6309      6.9060423     -20.967694      10.174778      5633.2868    
      9300   447.55954      0.0465         0.28433369     0.282465       0.2815542     -2790.864       624.62276      624.62276      624.62276      2.4369881e+08  1.9209129     -17134732      -17134732       1332.7559     -17133399      -2806.1554     -2787.7128     -2778.7239      9.8434925     -21.187318      8.7550276      5914.5822    
      9400   446.94274      0.047          0.2830041      0.28110405     0.28037059    -2778.1191      624.92119      624.92119      624.92119      2.4404828e+08  1.9181622     -17099563      -17099563       1330.9192     -17098232      -2793.0333     -2774.2813     -2767.0426      11.796411     -20.894085      4.2182351      5599.1941    
      9500   446.02742      0.0475         0.28233803     0.28040015     0.2793389     -2770.2182      625.21963      625.21963      625.21963      2.4439809e+08  1.9154167     -17086269      -17086269       1328.1935     -17084941      -2786.4597     -2767.3343     -2756.8606      11.414458     -19.80749       3.4102989      5909.4806    
      9600   445.02171      0.048          0.28167687     0.27961818     0.27804065    -2761.1998      625.51806      625.51806      625.51806      2.4474823e+08  1.9126765     -17070675      -17070675       1325.1987     -17069350      -2779.9346     -2759.6169     -2744.0478      8.9427773     -19.851848      5.6392348      5643.5269    
      9700   444.09957      0.0485         0.28046845     0.27845059     0.27668476    -2748.9228      625.81649      625.81649      625.81649      2.4509871e+08  1.9099415     -17057443      -17057443       1322.4527     -17056120      -2768.0084     -2748.0937     -2730.6663      7.4950246     -22.952117      7.2204394      5922.5233    
      9800   443.19651      0.049          0.2789663      0.27684806     0.27554325    -2734.9539      626.11493      626.11493      626.11493      2.4544951e+08  1.9072117     -17036316      -17036316       1319.7635     -17034996      -2753.1833     -2732.2779     -2719.4004      9.2042464     -24.560661      5.6051108      5649.9343    
      9900   442.0733       0.0495         0.2776995      0.27538641     0.27453254    -2722.653       626.41336      626.41336      626.41336      2.4580066e+08  1.9044871     -17023193      -17023193       1316.4188     -17021876      -2740.681      -2717.8526     -2709.4255      11.382439     -20.588648      4.4814998      5876.2727    
     10000   440.76276      0.05           0.2762696      0.27352311     0.27328658    -2707.7203      626.7118       626.7118       626.7118       2.4615214e+08  1.9017677     -16996017      -16996017       1312.5162     -16994705      -2726.569      -2699.4632     -2697.1288      10.219491     -14.222101      5.4476038      3801.0165    
     10100   439.22702      0.0505         0.27474719     0.27208435     0.27199349    -2693.7249      627.01023      627.01023      627.01023      2.4650395e+08  1.8990535     -16983000      -16983000       1307.9431     -16981692      -2711.544      -2685.2637     -2684.367       8.5067614     -12.763836      3.6303915      5918.9978    
     10200   437.65588      0.051          0.27285823     0.27069487     0.27030473    -2677.3841      627.30867      627.30867      627.30867      2.468561e+08   1.8963444     -16952688      -16952688       1303.2645     -16951385      -2692.9013     -2671.5507     -2667.7003      7.419055      -14.451943      0.67429622     5648.5747    
     10300   437.02196      0.0515         0.27128844     0.26921437     0.26871088    -2662.1061      627.6071       627.6071       627.6071       2.4720858e+08  1.8936405     -16939794      -16939794       1301.3768     -16938492      -2677.4088     -2656.9393     -2651.9702      7.8868389     -16.376891      0.97502358     5933.1829    
     10400   436.85492      0.052          0.26981328     0.26784399     0.26734346    -2648.2465      627.90553      627.90553      627.90553      2.475614e+08   1.8909417     -16907346      -16907346       1300.8793     -16906045      -2662.85       -2643.4147     -2638.4748      8.6482914     -16.433722      2.3907333      5656.1678    
     10500   435.83331      0.0525         0.2688675      0.26674496     0.26669753    -2639.3947      628.20397      628.20397      628.20397      2.4791456e+08  1.8882481     -16894572      -16894572       1297.8372     -16893274      -2653.5159     -2632.568      -2632.1         9.3608965     -15.28792       3.0671356      5892.6849    
     10600   433.84278      0.053          0.26749026     0.2650689      0.26523497    -2624.5386      628.5024       628.5024       628.5024       2.4826805e+08  1.8855596     -16863692      -16863692       1291.9097     -16862400      -2639.9236     -2616.0267     -2617.6656      8.6986213     -15.829542      1.7586093      5662.3846    
     10700   432.20098      0.0535         0.26575159     0.26320677     0.26338933    -2606.6212      628.80084      628.80084      628.80084      2.4862187e+08  1.8828761     -16851016      -16851016       1287.0207     -16849729      -2622.7643     -2597.6488     -2599.4506      8.0841757     -15.702831     -0.39867961     5952.3016    
     10800   430.94983      0.054          0.26347469     0.26122142     0.26121603    -2585.4499      629.09927      629.09927      629.09927      2.4897603e+08  1.8801978     -16830926      -16830926       1283.295      -16829643      -2600.293      -2578.0549     -2578.0018      8.6745793     -14.937646     -3.9294356      5675.1141    
     10900   429.5962       0.0545         0.26141751     0.25957371     0.25931534    -2567.009       629.39771      629.39771      629.39771      2.4933053e+08  1.8775245     -16818416      -16818416       1279.2641     -16817136      -2579.9902     -2561.7934     -2559.2434      9.7548384     -14.689933     -4.1458827      5945.9027    
     11000   428.05108      0.055          0.25986356     0.25800596     0.25775587    -2551.6092      629.69614      629.69614      629.69614      2.4968537e+08  1.8748563     -16805250      -16805250       1274.663      -16803975      -2564.6539     -2546.3209     -2543.8527      8.4880389     -13.239137     -0.70139631     5682.7859    
     11100   426.51306      0.0555         0.25876742     0.25687295     0.25651296    -2540.187       629.99457      629.99457      629.99457      2.5004054e+08  1.8721932     -16792866      -16792866       1270.0831     -16791596      -2553.8359     -2535.1389     -2531.5861      7.412936      -12.724076      0.90723557     5905.5297    
     11200   424.1171       0.056          0.25764111     0.25566025     0.25532582    -2528.5868      630.29301      630.29301      630.29301      2.5039605e+08  1.8695351     -16758420      -16758420       1262.9483     -16757157      -2542.7201     -2523.1705     -2519.8699      5.7812107     -9.5726224     -0.23345498     5677.9581    
     11300   422.05837      0.0565         0.25633719     0.25406894     0.25352868    -2513.1501      630.59144      630.59144      630.59144      2.5075189e+08  1.866882      -16746125      -16746125       1256.8178     -16744868      -2529.8514     -2507.4655     -2502.1335      5.8173772     -8.4787587     -2.343772       5967.7924    
     11400   421.01544      0.057          0.2539633      0.25166051     0.25117596    -2489.6776      630.88988      630.88988      630.88988      2.5110807e+08  1.8642339     -16726424      -16726424       1253.7121     -16725170      -2506.4228     -2483.6961     -2478.914       6.3692359     -7.3434556     -3.9795872      5685.0816    
     11500   420.10549      0.0575         0.25137496     0.24937837     0.24930536    -2467.5012      631.18831      631.18831      631.18831      2.5146459e+08  1.8615909     -16714323      -16714323       1251.0024     -16713072      -2480.878      -2461.1732     -2460.4526      6.4472928     -6.4153501     -3.1959142      5964.105     
     11600   418.34861      0.058          0.24903781     0.24743154     0.24768971    -2448.0929      631.48674      631.48674      631.48674      2.5182145e+08  1.8589528     -16687136      -16687136       1245.7707     -16685890      -2457.812      -2441.9594     -2444.5073      5.3740756     -5.9783653     -2.3316562      5647.0321    
     11700   416.62028      0.0585         0.24736803     0.24581441     0.24623058    -2432.4797      631.78518      631.78518      631.78518      2.5217864e+08  1.8563197     -16675193      -16675193       1240.624      -16673953      -2441.3326     -2425.9996     -2430.1069      3.2801044     -5.7383514     -1.4453219      5973.1683    
     11800   415.38722      0.059          0.24615493     0.24447233     0.24499413    -2420.0062      632.08361      632.08361      632.08361      2.5253617e+08  1.8536916     -16668008      -16668008       1236.9522     -16666771      -2429.3603     -2412.7543     -2417.904       2.854329      -4.2740887     -0.40418343     5680.5494    
     11900   414.62346      0.0595         0.24493645     0.24315024     0.24372502    -2407.4734      632.38205      632.38205      632.38205      2.5289404e+08  1.8510685     -16656175      -16656175       1234.6778     -16654940      -2417.3348     -2399.7063     -2405.3789      4.622066      -2.5991171     -1.2601369      5967.311     
     12000   413.68813      0.06           0.2431332      0.24176588     0.24201363    -2391.3569      632.68048      632.68048      632.68048      2.5325225e+08  1.8484503     -16640632      -16640632       1231.8926     -16639400      -2399.5381     -2386.0437     -2388.4888      4.72991       -3.2106395     -4.6780085      3563.8818    
     12100   412.46127      0.0605         0.24069384     0.24009687     0.23976678    -2370.4498      632.97892      632.97892      632.97892      2.5361079e+08  1.845837      -16618327      -16618327       1228.2392     -16617099      -2375.4635     -2369.5718     -2366.3141      3.9182547     -4.7481852     -6.7006384      4909.3226    
     12200   411.01518      0.061          0.23847236     0.23815098     0.23752132    -2349.3533      633.27735      633.27735      633.27735      2.5396968e+08  1.8432287     -16606735      -16606735       1223.933      -16605511      -2353.5392     -2350.3674     -2344.1532      3.1973725     -5.2182861     -7.7647647      5974.6325    
     12300   409.04732      0.0615         0.23667458     0.23599351     0.23566178    -2330.2241      633.57578      633.57578      633.57578      2.543289e+08   1.8406252     -16594209      -16594209       1218.0731     -16592991      -2335.7965     -2329.0749     -2325.8009      3.4892136     -3.6146831     -9.1456425      5697.9073    
     12400   407.05349      0.062          0.235048       0.23413926     0.23407408    -2313.5499      633.87422      633.87422      633.87422      2.5468846e+08  1.8380267     -16582766      -16582766       1212.1358     -16581554      -2319.7434     -2310.7749     -2310.1315      3.4468314     -1.3251358     -9.3824369      5980.583     
     12500   405.3907       0.0625         0.23333756     0.23250043     0.23262654    -2297.7696      634.17265      634.17265      634.17265      2.5504836e+08  1.8354331     -16570132      -16570132       1207.1843     -16568924      -2302.8626     -2294.6008     -2295.8455      2.6100089     -0.99308609    -6.1069589      4433.7868    
     12600   403.56899      0.063          0.23178256     0.23073739     0.23126062    -2282.3606      634.47109      634.47109      634.47109      2.5540859e+08  1.8328443     -16558820      -16558820       1201.7596     -16557618      -2287.516      -2277.201      -2282.3649      2.6244376     -3.0989406     -1.6803535      5981.4877    
     12700   401.69047      0.0635         0.2296814      0.2285014      0.22906452    -2260.8679      634.76952      634.76952      634.76952      2.5576917e+08  1.8302604     -16524806      -16524806       1196.1656     -16523610      -2266.7791     -2255.1335     -2260.691       2.3237184     -5.7629158     -0.69740688     5659.7852    
     12800   400.36066      0.064          0.22777669     0.22695191     0.22683529    -2242.1709      635.06795      635.06795      635.06795      2.5613009e+08  1.8276814     -16513669      -16513669       1192.2057     -16512476      -2247.9811     -2239.8412     -2238.6903      1.289897      -6.5029012     -1.0418476      5990.8727    
     12900   398.98009      0.0645         0.22590803     0.22583604     0.22499977    -2226.3142      635.36639      635.36639      635.36639      2.5649134e+08  1.8251072     -16499512      -16499512       1188.0946     -16498323      -2229.5389     -2228.8284     -2220.5751     -1.8474063     -5.1803388     -3.1823875      5711.3625    
     13000   397.28074      0.065          0.22425965     0.22447332     0.22376042    -2212.3313      635.66482      635.66482      635.66482      2.5685294e+08  1.8225378     -16488511      -16488511       1183.0342     -16487328      -2213.2707     -2215.3795     -2208.3436     -3.7451773     -2.5390074     -8.1384315      5981.7528    
     13100   395.79488      0.0655         0.22263764     0.22233519     0.22231806    -2195.2163      635.96326      635.96326      635.96326      2.5721487e+08  1.8199733     -16460362      -16460362       1178.6096     -16459184      -2197.2626     -2194.2777     -2194.1086     -3.1089462     -1.5348525     -12.71053       5712.3954    
     13200   394.8707       0.066          0.22097954     0.22064386     0.22076724    -2179.0958      636.26169      636.26169      636.26169      2.5757715e+08  1.8174135     -16449494      -16449494       1175.8575     -16448318      -2180.8985     -2177.5856     -2178.8033     -0.96703674    -1.3236355     -11.474789      6001.4276    
     13300   394.13991      0.0665         0.21913375     0.2190003      0.21921325    -2162.5045      636.56013      636.56013      636.56013      2.5793976e+08  1.8148586     -16434926      -16434926       1173.6814     -16433752      -2162.682      -2161.3649     -2163.4666      0.93871404    -1.8851568     -7.7783489      5678.4153    
     13400   392.8307       0.067          0.21738953     0.21746481     0.21769464    -2146.7192      636.85856      636.85856      636.85856      2.5830272e+08  1.8123084     -16424204      -16424204       1169.7828     -16423034      -2145.4679     -2146.2108     -2148.4791      2.1616854     -3.2590929     -6.3637671      6003.641     
     13500   390.63919      0.0675         0.21570209     0.21573115     0.21574957    -2129.0659      637.15699      637.15699      637.15699      2.5866601e+08  1.8097631     -16398928      -16398928       1163.2568     -16397765      -2128.8141     -2129.1009     -2129.2827      2.1704439     -5.9227144     -4.9657857      5728.3427    
     13600   388.3424       0.068          0.21410229     0.21406775     0.21400028    -2112.5761      637.45543      637.45543      637.45543      2.5902965e+08  1.8072224     -16388347      -16388347       1156.4174     -16387191      -2113.0253     -2112.6844     -2112.0185     -0.84326853    -8.0639974     -3.3988038      6017.1777    
     13700   386.33243      0.0685         0.21239924     0.21227745     0.21222       -2095.2272      637.75386      637.75386      637.75386      2.5939362e+08  1.8046866     -16369210      -16369210       1150.432      -16368060      -2096.2176     -2095.0155     -2094.4485     -4.2953188     -6.3611252     -4.238613       5734.5174    
     13800   384.58848      0.069          0.21074393     0.2108412      0.21061238    -2079.7681      638.0523       638.0523       638.0523       2.5975794e+08  1.8021555     -16358766      -16358766       1145.2388     -16357621      -2079.8809     -2080.8409     -2078.5826     -5.9220721     -3.8820481     -5.7782979      6009.8364    
     13900   383.09472      0.0695         0.20881095     0.20924392     0.20886451    -2062.4044      638.35073      638.35073      638.35073      2.601226e+08   1.7996291     -16321527      -16321527       1140.7907     -16320386      -2060.8039     -2065.0769     -2061.3325     -6.1992194     -2.2793542     -5.387341       5694.9943    
     14000   381.83863      0.07           0.20723013     0.20792981     0.20741978    -2048.128       638.64916      638.64916      638.64916      2.6048759e+08  1.7971074     -16311226      -16311226       1137.0502     -16310089      -2045.2023     -2052.1076     -2047.0741     -5.059567      -1.5620923     -5.7553199      4931.3154    
     14100   380.7199       0.0705         0.20569013     0.20660562     0.20621222    -2034.733       638.9476       638.9476       638.9476       2.6085294e+08  1.7945905     -16281327      -16281327       1133.7188     -16280194      -2030.0038     -2039.0389     -2035.1564     -4.5756714      0.23176527    -5.2729219      5723.4701    
     14200   379.65512      0.071          0.20487885     0.20547703     0.2052949     -2025.3336      639.24603      639.24603      639.24603      2.6121862e+08  1.7920782     -16271134      -16271134       1130.5481     -16270003      -2021.9971     -2027.9006     -2026.1031     -3.3101993     -0.034552479   -3.9331279      6019.9952    
     14300   378.39923      0.0715         0.20373608     0.20372463     0.20390856    -2011.2485      639.54447      639.54447      639.54447      2.6158464e+08  1.7895706     -16229929      -16229929       1126.8083     -16228803      -2010.7187     -2010.6058     -2012.4211     -2.3314917     -2.9524754     -4.1466533      5748.3101    
     14400   377.28199      0.072          0.20215616     0.20213979     0.20236699    -1995.7659      639.8429       639.8429       639.8429       2.6195101e+08  1.7870677     -16219843      -16219843       1123.4813     -16218719      -1995.1262     -1994.9646     -1997.2069     -3.1062339     -5.8942309     -5.2158026      5978.8695    
     14500   376.07936      0.0725         0.20024124     0.20038602     0.20028747    -1976.8558      640.14134      640.14134      640.14134      2.6231771e+08  1.7845695     -16210132      -16210132       1119.9001     -16209012      -1976.2273     -1977.6563     -1976.6836     -4.4559133     -6.1229829     -5.9935755      5749.5234    
     14600   374.26652      0.073          0.19847634     0.198852       0.19825784    -1959.3262      640.43977      640.43977      640.43977      2.6268476e+08  1.7820759     -16200201      -16200201       1114.5018     -16199087      -1958.8091     -1962.5167     -1956.6527     -5.5866463     -3.5006859     -5.9109088      6031.8913    
     14700   371.91818      0.0735         0.19687934     0.19745549     0.19662773    -1944.1157      640.7382       640.7382       640.7382       2.6305215e+08  1.779587      -16174375      -16174375       1107.5088     -16173267      -1943.048      -1948.7342     -1940.5648     -5.9299425      0.22919283    -4.7269363      5755.0436    
     14800   370.042        0.074          0.1958109      0.19667528     0.19563899    -1934.7813      641.03664      641.03664      641.03664      2.6341989e+08  1.7771027     -16164562      -16164562       1101.9219     -16163460      -1932.5033     -1941.0341     -1930.8067     -6.5371722      2.7736606     -3.3853626      6039.879     
     14900   368.80905      0.0745         0.19459062     0.19604067     0.19482279    -1925.9942      641.33507      641.33507      641.33507      2.6378796e+08  1.774623      -16129675      -16129675       1098.2504     -16128577      -1920.4601     -1934.771      -1922.7514     -6.0480722      0.44559935    -1.9226271      5764.9959    
     15000   367.57639      0.075          0.19343799     0.19495349     0.19437663    -1917.158       641.63351      641.63351      641.63351      2.6415638e+08  1.7721479     -16119933      -16119933       1094.5797     -16118838      -1909.0846     -1924.0414     -1918.3482     -3.4671203     -4.2305257     -3.5707817      4586.6638    
     15100   366.32531      0.0755         0.19195768     0.193155       0.19317781    -1902.4278      641.93194      641.93194      641.93194      2.6452514e+08  1.7696775     -16103710      -16103710       1090.8542     -16102619      -1894.475      -1906.2916     -1906.5168     -1.2064505     -7.1843201     -5.2653492      5757.1137    
     15200   365.13925      0.076          0.19052744     0.191417       0.19151518    -1886.5355      642.23038      642.23038      642.23038      2.6489425e+08  1.7672116     -16094077      -16094077       1087.3223     -16092990      -1880.3596     -1889.1389     -1890.1079     -0.58528513    -7.6975483     -5.4381859      6052.8822    
     15300   363.96446      0.0765         0.18935787     0.18975784     0.18965284    -1871.103       642.52881      642.52881      642.52881      2.652637e+08   1.7647503     -16075742      -16075742       1083.824      -16074658      -1868.8169     -1872.7642     -1871.728      -1.2011168     -6.5264218     -4.5229011      5773.1744    
     15400   362.87581      0.077          0.18848196     0.18887419     0.18827762    -1860.7904      642.82724      642.82724      642.82724      2.6563349e+08  1.7622936     -16066233      -16066233       1080.5822     -16065153      -1860.1723     -1864.0433     -1858.1556     -3.025638      -4.7128361     -5.3527282      6053.5773    
     15500   361.92436      0.0775         0.18730362     0.18815194     0.18706876    -1850.5611      643.12568      643.12568      643.12568      2.6600362e+08  1.7598414     -16035207      -16035207       1077.7489     -16034129      -1848.543      -1856.9153     -1846.2251     -4.346423      -2.9110095     -5.7263732      5787.51      
     15600   361.05813      0.078          0.18618491     0.18754167     0.1863275     -1842.4347      643.42411      643.42411      643.42411      2.663741e+08   1.7573938     -16025777      -16025777       1075.1695     -16024702      -1837.5022     -1850.8924     -1838.9095     -4.4214163     -2.4315641     -5.4708263      5867.1646    
     15700   360.12152      0.0785         0.18487973     0.18632885     0.18521316    -1830.4852      643.72255      643.72255      643.72255      2.6674492e+08  1.7549507     -15989453      -15989453       1072.3804     -15988381      -1824.621      -1838.9227     -1827.9118     -3.7741403     -4.3590281     -2.6904849      5781.565     
     15800   359.12438      0.079          0.18369866     0.18502794     0.18396879    -1818.2265      644.02098      644.02098      644.02098      2.6711609e+08  1.7525121     -15968150      -15968150       1069.4111     -15967081      -1812.9649     -1826.0838     -1815.6308     -4.1838184     -4.6221507     -0.32636463     5791.716     
     15900   357.91677      0.0795         0.18255347     0.18387202     0.18294226    -1807.2794      644.31941      644.31941      644.31941      2.674876e+08   1.7500781     -15958862      -15958862       1065.815      -15957796      -1801.6627     -1814.6758     -1805.4997     -4.3093568     -4.0633713      1.0764237      6091.9738    
     16000   356.40807      0.08           0.18143839     0.18259019     0.18187276    -1795.8758      644.61785      644.61785      644.61785      2.6785945e+08  1.7476486     -15938473      -15938473       1061.3224     -15937412      -1790.6577     -1802.0251     -1794.9446     -3.6846707     -4.4653066     -0.49511746     4200.8959    
     16100   354.8127       0.0805         0.18061501     0.18158452     0.1808637     -1786.5391      644.91628      644.91628      644.91628      2.6823165e+08  1.7452235     -15929265      -15929265       1056.5716     -15928209      -1782.5316     -1792.0999     -1784.9859     -2.8781637     -5.5198906     -4.2232386      6031.5013    
     16200   353.79921      0.081          0.179656       0.18040596     0.17962244    -1775.4236      645.21472      645.21472      645.21472      2.686042e+08   1.742803      -15902890      -15902890       1053.5536     -15901836      -1773.0668     -1780.4684     -1772.7356     -1.4651316     -7.6601796     -6.1181864      5788.8548    
     16300   353.39214      0.0815         0.17885754     0.17957153     0.17854782    -1766.5166      645.51315      645.51315      645.51315      2.6897709e+08  1.7403869     -15893769      -15893769       1052.3414     -15892717      -1765.1866     -1772.2333     -1762.13       -0.91524903    -9.2996292     -5.7139767      6102.1074    
     16400   352.77939      0.082          0.17806189     0.17875916     0.17771425    -1758.4844      645.81159      645.81159      645.81159      2.6935032e+08  1.7379752     -15874557      -15874557       1050.5168     -15873506      -1757.3343     -1764.2157     -1753.9033     -0.76810808    -6.9217448     -4.4836112      5809.4842    
     16500   351.81421      0.0825         0.17727387     0.17795115     0.17714049    -1751.3464      646.11002      646.11002      646.11002      2.697239e+08   1.7355681     -15865501      -15865501       1047.6426     -15864453      -1749.557      -1756.2413     -1748.2407     -0.36907423    -3.7030353     -2.6696251      6099.3235    
     16600   350.96949      0.083          0.17614946     0.17692592     0.17644923    -1742.0005      646.40845      646.40845      646.40845      2.7009782e+08  1.7331654     -15848972      -15848972       1045.1272     -15847927      -1738.46       -1746.123      -1741.4185     -2.235105      -2.618794      -2.2319582      5813.6486    
     16700   350.23104      0.0835         0.17523653     0.17599389     0.17577373    -1733.7089      646.70689      646.70689      646.70689      2.7047209e+08  1.7307671     -15839975      -15839975       1042.9282     -15838932      -1729.4501     -1736.9246     -1734.7519     -4.6923271     -3.1202541     -2.0962671      6056.9363    
     16800   349.50245      0.084          0.17442158     0.17541034     0.17500752    -1726.5875      647.00532      647.00532      647.00532      2.7084671e+08  1.7283732     -15829829      -15829829       1040.7586     -15828789      -1721.4071     -1731.1654     -1727.19       -5.3887575     -2.8910744     -0.95754694     5815.5602    
     16900   348.52922      0.0845         0.17396704     0.17502291     0.17401735    -1720.5602      647.30376      647.30376      647.30376      2.7122167e+08  1.7259837     -15820891      -15820891       1037.8605     -15819853      -1716.9212     -1727.3418     -1717.4177     -3.1391801     -3.8414641     -2.0764005      6109.9314    
     17000   347.67281      0.085          0.17341082     0.17425702     0.17292221    -1712.6081      647.60219      647.60219      647.60219      2.7159697e+08  1.7235987     -15801557      -15801557       1035.3102     -15800521      -1711.4317     -1719.7831     -1706.6095     -0.5424141     -5.5923032     -2.9648074      5821.9709    
     17100   347.13406      0.0855         0.1725861      0.17333693     0.17201271    -1703.8761      647.90062      647.90062      647.90062      2.7197263e+08  1.721218      -15792676      -15792676       1033.7059     -15791643      -1703.2924     -1710.7025     -1697.6334      0.76232145    -5.4754668     -2.5689296      6117.7331    
     17200   346.73761      0.086          0.17136423     0.17218766     0.17103602    -1692.8626      648.19906      648.19906      648.19906      2.7234863e+08  1.7188417     -15763968      -15763968       1032.5254     -15762936      -1691.2334     -1699.36       -1687.9942      0.78967353    -3.986276      -1.4109533      5817.9635    
     17300   346.23792      0.0865         0.17051873     0.17137393     0.17038657    -1685.2676      648.49749      648.49749      648.49749      2.7272497e+08  1.7164698     -15755168      -15755168       1031.0374     -15754137      -1682.889      -1691.3292     -1681.5847     -1.0660813     -3.6833645     -2.0492617      6069.0722    
     17400   341.44342      0.087          0.16936883     0.16970579     0.16981451    -1674.1151      648.79593      648.79593      648.79593      2.7310166e+08  1.7141023     -15726096      -15726096       1016.7602     -15725079      -1671.5404     -1674.8659     -1675.9389     -0.31005982    -3.9119526     -8.8196213      5792.9866    
     17500   338.17535      0.0875         0.16875893     0.1692454      0.16953098    -1669.6613      649.09436      649.09436      649.09436      2.734787e+08   1.7117391     -15717341      -15717341       1007.0285     -15716333      -1665.5211     -1670.3222     -1673.1407     -0.84678656    -4.8007425     -9.4440383      4582.4663    
     17600   339.61226      0.088          0.16838159     0.16886176     0.16920333    -1666.08        649.3928       649.3928       649.3928       2.7385609e+08  1.7093803     -15704440      -15704440       1011.3073     -15703428      -1661.7971     -1666.536      -1669.907       1.2514667     -5.0078351     -6.4221063      5766.5065    
     17700   340.81404      0.0885         0.16817222     0.16822959     0.16858712    -1661.2844      649.69123      649.69123      649.69123      2.7423382e+08  1.7070257     -15695719      -15695719       1014.886      -15694704      -1659.7307     -1660.2969     -1663.8255      2.6891345     -4.3300541     -2.7883932      6062.663     
     17800   341.58867      0.089          0.16746567     0.1670908      0.16741117    -1651.3451      649.98966      649.98966      649.98966      2.746119e+08   1.7046755     -15675941      -15675941       1017.1927     -15674924      -1652.7576     -1649.058      -1652.2198      3.2785323     -4.6293964     -1.5821044      5775.9057    
     17900   341.82054      0.0895         0.16660484     0.1665146      0.16640398    -1643.3042      650.2881       650.2881       650.2881       2.7499033e+08  1.7023297     -15667304      -15667304       1017.8832     -15666287      -1644.2619     -1643.3713     -1642.2795      2.9713803     -6.3347307     -3.3881882      6011.6327    
     18000   340.85527      0.09           0.16583456     0.16607461     0.16561024    -1636.7116      650.58653      650.58653      650.58653      2.753691e+08   1.6999881     -15654724      -15654724       1015.0088     -15653709      -1636.6599     -1639.029      -1634.446       3.6409319     -7.8460428     -5.2379853      3901.3066    
     18100   339.76092      0.0905         0.16529422     0.16554163     0.16492863    -1630.9383      650.88497      650.88497      650.88497      2.7574822e+08  1.6976508     -15646122      -15646122       1011.75       -15645111      -1631.3271     -1633.7688     -1627.7191      5.1382605     -6.6997021     -5.7496729      5224.6473    
     18200   339.47762      0.091          0.164553       0.16449181     0.16411512    -1622.3701      651.1834       651.1834       651.1834       2.7612769e+08  1.6953178     -15625295      -15625295       1010.9064     -15624284      -1624.0119     -1623.408      -1619.6903      6.2418941     -3.9666522     -4.8779582      5818.4388    
     18300   339.6624       0.0915         0.16376503     0.16358962     0.16344349    -1614.6003      651.48184      651.48184      651.48184      2.7650751e+08  1.692989      -15616764      -15616764       1011.4566     -15615753      -1616.2352     -1614.504      -1613.0619      5.5587513     -2.7195802     -5.5356631      6147.7567    
     18400   339.50306      0.092          0.16274135     0.16277967     0.16289591    -1606.7668      651.78027      651.78027      651.78027      2.7688768e+08  1.6906646     -15590923      -15590923       1010.9821     -15589912      -1606.1323     -1606.5104     -1607.6577      5.3682902     -2.062343      -4.6488792      5813.9998    
     18500   339.04763      0.0925         0.16203285     0.16220382     0.1627585     -1602.0896      652.0787       652.0787       652.0787       2.7726819e+08  1.6883444     -15582461      -15582461       1009.6259     -15581452      -1599.1399     -1600.8272     -1606.3015      4.8731218     -2.5579203     -2.578075       6151.1605    
     18600   338.79047      0.093          0.16123792     0.16161464     0.16219625    -1595.6865      652.37714      652.37714      652.37714      2.7764905e+08  1.6860284     -15549881      -15549881       1008.8602     -15548872      -1591.2945     -1595.0125     -1600.7526      5.3647007     -4.5937395     -1.3224038      5856.2681    
     18700   338.55198      0.0935         0.16090183     0.16120089     0.16145377    -1590.7771      652.67557      652.67557      652.67557      2.7803027e+08  1.6837166     -15541453      -15541453       1008.15       -15540445      -1587.9776     -1590.9291     -1593.4248      4.717048      -5.4842411     -1.6328692      6142.8831    
     18800   337.8927       0.094          0.16052136     0.16082011     0.16059259    -1585.4398      652.97401      652.97401      652.97401      2.7841183e+08  1.6814091     -15522909      -15522909       1006.1868     -15521902      -1584.2226     -1587.1711     -1584.9256      4.6259515     -6.3400581     -2.7197392      5865.0483    
     18900   336.98999      0.0945         0.16014443     0.16042733     0.16003033    -1581.0579      653.27244      653.27244      653.27244      2.7879374e+08  1.6791058     -15514505      -15514505       1003.4986     -15513501      -1580.5026     -1583.2946     -1579.3765      4.7796188     -6.5297064     -2.8080486      6157.6696    
     19000   336.32595      0.095          0.15932509     0.1597096      0.15918693    -1573.2268      653.57087      653.57087      653.57087      2.7917599e+08  1.6768067     -15488922      -15488922       1001.5212     -15487921      -1572.4163     -1576.2112     -1571.0529      5.5694041     -7.2997414     -2.2091477      5821.9366    
     19100   336.48628      0.0955         0.15861163     0.15900355     0.15842225    -1566.0414      653.86931      653.86931      653.86931      2.795586e+08   1.6745118     -15480584      -15480584       1001.9987     -15479582      -1565.3751     -1569.243      -1563.506       6.3866025     -6.1849417     -2.0473724      6161.1614    
     19200   337.02133      0.096          0.15796029     0.15834895     0.15772776    -1559.4605      654.16774      654.16774      654.16774      2.7994156e+08  1.6722211     -15458395      -15458395       1003.592      -15457392      -1558.9468     -1562.7826     -1556.6519      7.672361      -4.6956214     -2.7000561      5869.6169    
     19300   336.77068      0.0965         0.15768725     0.15790707     0.15750943    -1556.3904      654.46618      654.46618      654.46618      2.8032486e+08  1.6699346     -15450112      -15450112       1002.8456     -15449110      -1556.2522     -1558.4216     -1554.4972      8.6284812     -4.0726866     -4.4354099      6168.5383    
     19400   335.95632      0.097          0.15720002     0.15724889     0.15703455    -1551.06        654.76461      654.76461      654.76461      2.8070852e+08  1.6676522     -15433212      -15433212       1000.4205     -15432212      -1551.4436     -1551.9259     -1549.8105      8.706575      -5.3483377     -6.4479087      5881.0363    
     19500   335.7932       0.0975         0.15638382     0.15664659     0.15627218    -1543.8855      655.06305      655.06305      655.06305      2.8109253e+08  1.665374      -15424953      -15424953       999.93482     -15423953      -1543.3883     -1545.9817     -1542.2865      8.1895648     -6.7082253     -6.2150403      6174.422     
     19600   336.10205      0.098          0.15549018     0.15602242     0.15556178    -1536.5552      655.36148      655.36148      655.36148      2.8147688e+08  1.6630999     -15409165      -15409165       1000.8545     -15408164      -1534.5687     -1539.8215     -1535.2754      7.7366155     -7.6629312     -3.7448278      5830.1192    
     19700   336.00325      0.0985         0.15491606     0.15560986     0.15521278    -1532.1612      655.65991      655.65991      655.65991      2.8186159e+08  1.66083       -15398644      -15398644       1000.5603     -15397644      -1528.9026     -1535.7499     -1531.831       7.2729112     -8.1388132     -2.4907297      5878.0827    
     19800   335.49674      0.099          0.15482076     0.15529182     0.15487691    -1529.6965      655.95835      655.95835      655.95835      2.8224665e+08  1.6585642     -15390456      -15390456       999.05201     -15389457      -1527.9621     -1532.6111     -1528.5162      6.7666809     -8.8078541     -1.694842       6172.0364    
     19900   335.38292      0.0995         0.15453999     0.15468739     0.15405227    -1524.0716      656.25678      656.25678      656.25678      2.8263205e+08  1.6563025     -15358810      -15358810       998.71306     -15357811      -1525.1911     -1526.6459     -1520.3777      7.4175753     -8.3350862     -0.89020022     5882.9696    
     20000   335.4246       0.1            0.1541689      0.15422218     0.15362702    -1519.9214      656.55522      656.55522      656.55522      2.8301781e+08  1.654045      -15350656      -15350656       998.83719     -15349657      -1521.5287     -1522.0546     -1516.1808      7.2841128     -5.6308634     -0.87116611     3897.1369    
     20100   335.1025       0.1005         0.15365275     0.15374846     0.15318037    -1515.1956      656.85365      656.85365      656.85365      2.8340392e+08  1.6517915     -15338399      -15338399       997.87803     -15337401      -1516.4347     -1517.3793     -1511.7727      6.1983789     -3.2281341     -1.1079001      5751.7784    
     20200   334.5724       0.101          0.15299932     0.15333459     0.15267151    -1510.0104      657.15208      657.15208      657.15208      2.8379038e+08  1.6495421     -15330277      -15330277       996.29947     -15329281      -1509.9858     -1513.2947     -1506.7507      6.4716889     -3.238738      -1.4925117      6125.9694    
     20300   334.36404      0.1015         0.15210784     0.15277649     0.15206809    -1503.2566      657.45052      657.45052      657.45052      2.8417719e+08  1.6472968     -15321403      -15321403       995.67903     -15320407      -1501.1877     -1507.7867     -1500.7953      7.5443973     -4.8925574     -1.8455405      5890.0766    
     20400   334.18695      0.102          0.15149875     0.1521502      0.15148264    -1497.2665      657.74895      657.74895      657.74895      2.8456435e+08  1.6450556     -15313330      -15313330       995.15167     -15312334      -1495.1764     -1501.6057     -1495.0174      7.7454649     -6.1408933     -1.725393       6188.2839    
     20500   333.54595      0.1025         0.15117239     0.15145464     0.15071986    -1491.3953      658.04739      658.04739      658.04739      2.8495187e+08  1.6428185     -15295345      -15295345       993.24287     -15294352      -1491.9554     -1494.7411     -1487.4894      6.9813861     -6.8588128     -3.2938451      5890.5769    
     20600   332.63805      0.103          0.15092176     0.15087729     0.15019193    -1486.9347      658.34582      658.34582      658.34582      2.8533973e+08  1.6405854     -15287315      -15287315       990.53932     -15286324      -1489.482      -1489.043      -1482.2791      7.384941      -6.1982518     -5.2753147      6191.9535    
     20700   332.12258      0.1035         0.15028537     0.15051771     0.1498608     -1482.5689      658.64426      658.64426      658.64426      2.8572795e+08  1.6383563     -15277896      -15277896       989.00434     -15276907      -1483.2013     -1485.4943     -1479.0111      8.8848543     -4.8156488     -5.1231706      5899.4878    
     20800   332.36769      0.104          0.14969099     0.15025038     0.14959279    -1478.8524      658.94269      658.94269      658.94269      2.8611652e+08  1.6361313     -15269895      -15269895       989.73423     -15268905      -1477.3352     -1482.8559     -1476.3661      9.246515      -5.4055487     -3.3645662      6137.1441    
     20900   332.93158      0.1045         0.1491421      0.14972558     0.14928901    -1474.3209      659.24112      659.24112      659.24112      2.8650544e+08  1.6339103     -15249801      -15249801       991.41339     -15248809      -1471.9181     -1477.6765     -1473.368       8.710774      -7.1502077     -2.2878276      5900.8768    
     21000   333.53765      0.105          0.14890392     0.14938952     0.14901091    -1471.5169      659.53956      659.53956      659.53956      2.8689471e+08  1.6316933     -15241827      -15241827       993.21818     -15240834      -1469.5674     -1474.3599     -1470.6233      7.5944297     -7.4741541     -0.99458287     6200.0481    
     21100   334.11087      0.1055         0.14841835     0.14903513     0.1484426     -1466.884       659.83799      659.83799      659.83799      2.8728434e+08  1.6294804     -15213861      -15213861       994.92512     -15212866      -1464.7752     -1470.8623     -1465.0145      6.5939051     -8.5639486     -0.80334869     5905.4934    
     21200   334.17646      0.106          0.14805362     0.14884198     0.14807972    -1463.855       660.13643      660.13643      660.13643      2.8767432e+08  1.6272714     -15205923      -15205923       995.12042     -15204928      -1461.1756     -1468.9561     -1461.4332      7.8699402     -9.1712216     -1.2560282      6212.8252    
     21300   333.69677      0.1065         0.14747696     0.14816222     0.14734285    -1457.2976      660.43486      660.43486      660.43486      2.8806465e+08  1.6250664     -15189763      -15189763       993.69201     -15188770      -1455.4845     -1462.2474     -1454.1608      10.326015     -8.6635999     -2.6331072      5919.0507    
     21400   333.2146       0.107          0.14694004     0.14723582     0.1464475     -1449.5381      660.73329      660.73329      660.73329      2.8845533e+08  1.6228654     -15181876      -15181876       992.25617     -15180884      -1450.1854     -1453.1046     -1445.3244      10.745727     -7.1224907     -3.2408482      6157.524     
     21500   332.50657      0.1075         0.14617814     0.14643633     0.14565994    -1441.8107      661.03173      661.03173      661.03173      2.8884637e+08  1.6206684     -15170393      -15170393       990.1478      -15169403      -1442.6661     -1445.2142     -1437.5518      9.5168275     -5.9773556     -3.7422732      5918.1291    
     21600   331.73288      0.108          0.14549966     0.14594891     0.1451836     -1436.4082      661.33016      661.33016      661.33016      2.8923776e+08  1.6184753     -15162560      -15162560       987.84386     -15161573      -1435.97       -1440.4038     -1432.8507      8.2337251     -5.8394634     -3.1771045      6217.9434    
     21700   331.39138      0.1085         0.1446793      0.14552568     0.14472435    -1430.8062      661.6286       661.6286       661.6286       2.8962951e+08  1.6162862     -15142110      -15142110       986.82693     -15141123      -1427.8737     -1436.2268     -1428.3183      6.8536866     -5.9667349     -2.3373996      5930.8266    
     21800   331.43713      0.109          0.14431394     0.14539363     0.14453751    -1428.5552      661.92703      661.92703      661.92703      2.900216e+08   1.6141011     -15134316      -15134316       986.96318     -15133329      -1424.2679     -1434.9236     -1426.4743      6.6640367     -6.6040168     -2.0916216      6224.7075    
[...]
    244700   311.31564      1.2235         0.00015362919  0.00012643796  0.00018293749 -1.5231668      1327.1368      1327.1368      1327.1368      2.3374758e+09  0.20026911    -135367.38     -135367.38      927.0448      -134440.33     -1.5162022     -1.2478456     -1.8054527     -0.043709743    0.038879488   -0.28043866     27030.658    
    244800   310.9369       1.224          0.00015401947  0.00012457522  0.00018220236 -1.5159044      1327.4353      1327.4353      1327.4353      2.339053e+09   0.20013407    -135401.28     -135401.28      925.91699     -134475.37     -1.520054      -1.2294619     -1.7981974     -0.047545573    0.04539845    -0.26255528     24929.53     
    244900   310.83508      1.2245         0.00015383161  0.00012591756  0.00018208119 -1.5193038      1327.7337      1327.7337      1327.7337      2.3406309e+09  0.19999914    -135435.64     -135435.64      925.6138      -134510.03     -1.5181999     -1.2427097     -1.7970017     -0.052002933    0.056784554   -0.24982657     27002.98     
    245000   310.91606      1.225          0.00015297203  0.00012887246  0.00018199639 -1.5259179      1328.0321      1328.0321      1328.0321      2.3422096e+09  0.19986434    -135469.37     -135469.37      925.85493     -134543.52     -1.5097165     -1.2718723     -1.7961647     -0.053688173    0.060704013   -0.2512777      12105.132    
    245100   311.24179      1.2255         0.00015163203  0.00012948052  0.00018149597 -1.5218637      1328.3306      1328.3306      1328.3306      2.343789e+09   0.19972966    -135503.51     -135503.51      926.82492     -134576.68     -1.4964917     -1.2778734     -1.7912259     -0.056804841    0.054954561   -0.26035648     26905.472    
    245200   311.05317      1.226          0.00014891722  0.00012731402  0.00018160409 -1.5061611      1328.629       1328.629       1328.629       2.3453691e+09  0.19959511    -135536.84     -135536.84      926.26323     -134610.57     -1.4696987     -1.2564917     -1.792293      -0.068916672    0.062717713   -0.27563867     24692.163    
    245300   311.03842      1.2265         0.00014978865  0.00012588665  0.00018500886 -1.5155331      1328.9274      1328.9274      1328.9274      2.3469499e+09  0.19946067    -135570.8      -135570.8       926.21929     -134644.58     -1.4782991     -1.2424047     -1.8258955     -0.059733869    0.055144323   -0.27849016     25536.666    
    245400   311.28985      1.227          0.00014922979  0.00012555218  0.00018515657 -1.5130802      1329.2259      1329.2259      1329.2259      2.3485314e+09  0.19932635    -135605.71     -135605.71      926.96801     -134678.74     -1.4727835     -1.2391036     -1.8273533     -0.051574971    0.073390741   -0.28751        24894.057    
    245500   311.16583      1.2275         0.00014860614  0.0001260318   0.00018275341 -1.5047006      1329.5243      1329.5243      1329.5243      2.3501136e+09  0.19919216    -135639.35     -135639.35      926.59869     -134712.75     -1.4666286     -1.2438372     -1.803636      -0.051715137    0.080795036   -0.2904664      27065.548    
    245600   310.93769      1.228          0.00014785193  0.00012696509  0.0001814916  -1.5011386      1329.8227      1329.8227      1329.8227      2.3516965e+09  0.19905808    -135672.01     -135672.01      925.91934     -134746.09     -1.4591851     -1.2530481     -1.7911828     -0.059358416    0.069290836   -0.28640266     24944.063    
    245700   310.9257       1.2285         0.00014726946  0.00012829465  0.00018351865 -1.5102649      1330.1212      1330.1212      1330.1212      2.3532801e+09  0.19892412    -135704.75     -135704.75      925.88363     -134778.86     -1.4534365     -1.2661698     -1.8111883     -0.058050712    0.054802521   -0.28379773     27046.362    
    245800   311.26864      1.229          0.00014647272  0.00012913734  0.00018605847 -1.5187714      1330.4196      1330.4196      1330.4196      2.3548645e+09  0.19879029    -135738.91     -135738.91      926.90486     -134812        -1.4455734     -1.2744864     -1.8362543     -0.045138723    0.057609826   -0.28983693     24876.593    
    245900   311.51609      1.2295         0.00014568598  0.00012964084  0.00018743098 -1.5223548      1330.718       1330.718       1330.718       2.3564495e+09  0.19865657    -135773.62     -135773.62      927.64172     -134845.98     -1.4378088     -1.2794556     -1.8497999     -0.033483401    0.074226242   -0.29620333     27145.374    
    246000   311.78203      1.23           0.00014657343  0.00012987248  0.00018785945 -1.5274459      1331.0165      1331.0165      1331.0165      2.3580353e+09  0.19852298    -135808.75     -135808.75      928.43365     -134880.32     -1.4465673     -1.2817417     -1.8540286     -0.026161788    0.080229274   -0.2844915      11850.049    
    246100   311.77844      1.2305         0.00014665435  0.00012993114  0.0001863177  -1.5228331      1331.3149      1331.3149      1331.3149      2.3596218e+09  0.1983895     -135843.39     -135843.39      928.42296     -134914.97     -1.4473659     -1.2823207     -1.8388128     -0.035575794    0.098931353   -0.28552679     26867.406    
    246200   311.71591      1.231          0.00014876326  0.00013210096  0.00018770737 -1.5414807      1331.6134      1331.6134      1331.6134      2.361209e+09   0.19825615    -135878        -135878         928.23675     -134949.76     -1.4681793     -1.3037352     -1.8525277     -0.04757256     0.099054296   -0.29923346     24605.53     
    246300   312.21698      1.2315         0.00015009317  0.00013463353  0.00019064612 -1.563855       1331.9118      1331.9118      1331.9118      2.3627969e+09  0.19812291    -135914.63     -135914.63      929.72886     -134984.9      -1.4813044     -1.3287297     -1.8815309     -0.060998332    0.08855582    -0.31373427     27014.053    
    246400   312.5836       1.232          0.0001491172   0.00013468807  0.00019106103 -1.5621887      1332.2102      1332.2102      1332.2102      2.3643855e+09  0.19798979    -135951.62     -135951.62      930.82058     -135020.8      -1.4716723     -1.3292679     -1.8856258     -0.06608732     0.086073788   -0.3135746      24850.95     
    246500   312.3898       1.2325         0.00014810574  0.00013317601  0.00018960226 -1.5490879      1332.5087      1332.5087      1332.5087      2.3659748e+09  0.19785679    -135987.88     -135987.88      930.24349     -135057.63     -1.46169       -1.314345      -1.8712288     -0.055764869    0.086841049   -0.30150735     27128.296    
    246600   311.89783      1.233          0.00014698184  0.00013374505  0.00018951589 -1.5469785      1332.8071      1332.8071      1332.8071      2.3675648e+09  0.19772391    -136023.74     -136023.74      928.77849     -135094.96     -1.450598      -1.319961      -1.8703764     -0.051800637    0.10089577    -0.32589137     24887.508    
    246700   312.01477      1.2335         0.00014816343  0.00013664315  0.00019328027 -1.5727834      1333.1055      1333.1055      1333.1055      2.3691556e+09  0.19759115    -136060.48     -136060.48      929.12669     -135131.35     -1.4622594     -1.348563      -1.9075279     -0.051770606    0.086115147   -0.36933879     24899.543    
    246800   312.55678      1.234          0.00014740123  0.00013672914  0.00019425686 -1.5737716      1333.404       1333.404       1333.404       2.3707471e+09  0.19745851    -136098.63     -136098.63      930.74072     -135167.89     -1.4547371     -1.3494116     -1.9171661     -0.053235363    0.07004519    -0.39317526     27147.754    
    246900   312.37926      1.2345         0.00014486395  0.00013354114  0.00019115633 -1.5447369      1333.7024      1333.7024      1333.7024      2.3723392e+09  0.19732599    -136136.19     -136136.19      930.21209     -135205.98     -1.429696      -1.3179486     -1.8865663     -0.046939737    0.072693008   -0.38159122     24868.211    
    247000   311.62475      1.235          0.00014421114  0.0001320544   0.00018875066 -1.5297843      1334.0008      1334.0008      1334.0008      2.3739321e+09  0.19719359    -136172.07     -136172.07      927.96529     -135244.11     -1.4232532     -1.3032756     -1.8628242     -0.039456687    0.087381248   -0.36289168     27213.165    
    247100   311.29022      1.2355         0.00014633563  0.00013484956  0.00018902848 -1.5468827      1334.2993      1334.2993      1334.2993      2.3755257e+09  0.1970613     -136207.44     -136207.44      926.96911     -135280.47     -1.4442204     -1.3308616     -1.865566      -0.048583737    0.097653468   -0.36526207     24689.511    
    247200   311.86702      1.236          0.00014953597  0.0001408423   0.00019126615 -1.584487       1334.5977      1334.5977      1334.5977      2.37712e+09    0.19692913    -136244.79     -136244.79      928.68672     -135316.1      -1.4758053     -1.3900055     -1.8876502     -0.072763163    0.10300107    -0.38474751     27079.789    
    247300   313.04388      1.2365         0.00015205225  0.00014509356  0.00019394447 -1.6155614      1334.8961      1334.8961      1334.8961      2.3787151e+09  0.19679708    -136285.11     -136285.11      932.19123     -135352.92     -1.5006391     -1.4319621     -1.9140831     -0.09158506     0.11247452    -0.39482827     24979.043    
    247400   313.79673      1.237          0.0001523577   0.00014187604  0.00019438784 -1.60744        1335.1946      1335.1946      1335.1946      2.3803108e+09  0.19666515    -136326.23     -136326.23      934.43308     -135391.79     -1.5036536     -1.4002076     -1.9184588     -0.09099564     0.12739239    -0.37674907     27067.907    
    247500   313.40239      1.2375         0.0001510031   0.0001366494   0.00019321495 -1.5819309      1335.493       1335.493       1335.493       2.3819072e+09  0.19653334    -136365.49     -136365.49      933.25879     -135432.23     -1.4902848     -1.3486247     -1.9068833     -0.075668977    0.13953046    -0.35705368     13515.652    
    247600   312.72481      1.238          0.00014964599  0.00013728814  0.00019515579 -1.5859525      1335.7914      1335.7914      1335.7914      2.3835044e+09  0.19640165    -136404.01     -136404.01      931.24109     -135472.77     -1.4768911     -1.3549286     -1.9260379     -0.062893653    0.14068785    -0.36982828     26968.542    
    247700   312.7413       1.2385         0.00014810383  0.00014090542  0.00019958239 -1.6073415      1336.0899      1336.0899      1336.0899      2.3851023e+09  0.19627007    -136443.47     -136443.47      931.29017     -135512.18     -1.4616711     -1.3906284     -1.9697251     -0.064401012    0.13161363    -0.38853342     23917.334    
    247800   313.20765      1.239          0.00014756738  0.0001434262   0.00020170911 -1.6208659      1336.3883      1336.3883      1336.3883      2.3867009e+09  0.19613861    -136484.22     -136484.22      932.67889     -135551.54     -1.4563768     -1.4155066     -1.9907142     -0.075206975    0.12440849    -0.38742207     27055.882    
    247900   313.60586      1.2395         0.00014871606  0.00014482711  0.00020035501 -1.6247987      1336.6867      1336.6867      1336.6867      2.3883002e+09  0.19600726    -136526.87     -136526.87      933.86469     -135593        -1.4677134     -1.4293325     -1.9773502     -0.079937236    0.13349511    -0.38055255     24902.277    
    248000   313.73001      1.24           0.00014938275  0.00014381499  0.00019814126 -1.6163796      1336.9852      1336.9852      1336.9852      2.3899002e+09  0.19587604    -136570.08     -136570.08      934.23439     -135635.84     -1.4742931     -1.4193436     -1.9555022     -0.0714766      0.15674959    -0.3789755      12496.949    
    248100   313.29173      1.2405         0.00014853486  0.00013812707  0.0001956553  -1.5867003      1337.2836      1337.2836      1337.2836      2.3915009e+09  0.19574493    -136611.08     -136611.08      932.92927     -135678.15     -1.4659251     -1.3632082     -1.9309677     -0.069713329    0.16501063    -0.37111175     24537.21     
    248200   312.32905      1.241          0.0001483224   0.00013360389  0.00019364261 -1.5645         1337.582       1337.582       1337.582       2.3931024e+09  0.19561394    -136650.46     -136650.46      930.06258     -135720.4      -1.4638282     -1.3185679     -1.9111039     -0.076057773    0.15547847    -0.37193107     27137.204    
    248300   311.95681      1.2415         0.00014929498  0.00013660961  0.00019428508 -1.5797012      1337.8805      1337.8805      1337.8805      2.3947046e+09  0.19548306    -136691.21     -136691.21      928.95412     -135762.25     -1.4734269     -1.348232      -1.9174447     -0.078470408    0.14388839    -0.39449289     24875.69     
    248400   312.50581      1.242          0.00014972729  0.00014153279  0.00019572415 -1.6020536      1338.1789      1338.1789      1338.1789      2.3963074e+09  0.19535231    -136733.18     -136733.18      930.58894     -135802.59     -1.4776935     -1.3968201     -1.9316472     -0.085366954    0.13596706    -0.39982986     27067.738    
    248500   313.02586      1.2425         0.00015020627  0.00014253622  0.00019497452 -1.6044642      1338.4773      1338.4773      1338.4773      2.397911e+09   0.19522167    -136775.2      -136775.2       932.13755     -135843.06     -1.4824207     -1.4067231     -1.9242489     -0.088731934    0.14486754    -0.38054218     24936.039    
    248600   313.0588       1.243          0.00015192488  0.00014109069  0.0001939672  -1.6020488      1338.7758      1338.7758      1338.7758      2.3995154e+09  0.19509114    -136816.83     -136816.83      932.23565     -135884.59     -1.499382      -1.3924569     -1.9143074     -0.081585052    0.16421125    -0.37230974     26965.182    
    248700   313.09925      1.2435         0.00015324266  0.00013899416  0.00019638572 -1.6074432      1339.0742      1339.0742      1339.0742      2.4011204e+09  0.19496073    -136859.04     -136859.04      932.35609     -135926.68     -1.5123875     -1.3717657     -1.9381764     -0.089313609    0.16218433    -0.37492917     24928.331    
    248800   313.23788      1.244          0.00015279648  0.00013733951  0.00019814069 -1.6063054      1339.3726      1339.3726      1339.3726      2.4027261e+09  0.19483044    -136901.44     -136901.44      932.76893     -135968.68     -1.507984      -1.3554356     -1.9554966     -0.11253155     0.14095037    -0.36835968     27113.468    
    248900   313.10644      1.2445         0.00015245061  0.00013886682  0.00019515279 -1.6003626      1339.6711      1339.6711      1339.6711      2.4043326e+09  0.19470026    -136943.09     -136943.09      932.3775      -136010.71     -1.5045705     -1.370509      -1.9260083     -0.11896096     0.13514692    -0.35728026     24898.402    
    249000   312.96334      1.245          0.00015364428  0.00014209466  0.00019429929 -1.6121005      1339.9695      1339.9695      1339.9695      2.4059398e+09  0.1945702     -136984.73     -136984.73      931.95139     -136052.78     -1.5163512     -1.4023653     -1.9175849     -0.10671855     0.14252504    -0.35954265     27169.343    
    249100   313.18536      1.2455         0.00015426718  0.00014252435  0.00019594206 -1.6209675      1340.2679      1340.2679      1340.2679      2.4075476e+09  0.19444026    -137027.38     -137027.38      932.61252     -136094.76     -1.5224987     -1.4066059     -1.9337978     -0.092219685    0.14758326    -0.35899595     24678.854    
    249200   313.13389      1.246          0.00015381788  0.00014011809  0.00019486439 -1.6080281      1340.5664      1340.5664      1340.5664      2.4091563e+09  0.19431043    -137069.66     -137069.66      932.45926     -136137.2      -1.5180644     -1.382858      -1.923162      -0.097777173    0.13585963    -0.34643182     27042.317    
    249300   312.72603      1.2465         0.00015408667  0.00013946455  0.00019364556 -1.6027528      1340.8648      1340.8648      1340.8648      2.4107656e+09  0.19418072    -137111.16     -137111.16      931.24471     -136179.92     -1.5207172     -1.3764081     -1.911133      -0.11418509     0.11941591    -0.34861304     24932.843    
    249400   312.60755      1.247          0.00015481374  0.0001406252   0.00019399101 -1.6100993      1341.1632      1341.1632      1341.1632      2.4123756e+09  0.19405112    -137152.73     -137152.73      930.8919      -136221.84     -1.5278928     -1.3878628     -1.9145424     -0.12222544     0.11521912    -0.36222287     27057.749    
    249500   312.63612      1.2475         0.00015489856  0.0001398709   0.0001940405  -1.6080597      1341.4617      1341.4617      1341.4617      2.4139864e+09  0.19392164    -137193.82     -137193.82      930.97698     -136262.84     -1.52873       -1.3804184     -1.9150308     -0.12351253     0.12067043    -0.36236084     24987.906    
    249600   312.62232      1.248          0.00015586047  0.00013806893  0.00019498404 -1.6084002      1341.7601      1341.7601      1341.7601      2.4155978e+09  0.19379227    -137234.67     -137234.67      930.93589     -136303.74     -1.5382233     -1.3626344     -1.9243428     -0.13305391     0.11517484    -0.36356355     27115.592    
    249700   312.61464      1.2485         0.00015633685  0.00013670564  0.00019430008 -1.6032324      1342.0585      1342.0585      1342.0585      2.41721e+09    0.19366302    -137275.87     -137275.87      930.91303     -136344.96     -1.5429247     -1.3491797     -1.9175927     -0.13872119     0.11033969    -0.3608701      24796.587    
    249800   312.28311      1.249          0.00015465601  0.00013538231  0.00019141726 -1.5838657      1342.357       1342.357       1342.357       2.4188229e+09  0.19353388    -137316.56     -137316.56      929.92578     -136386.63     -1.5263361     -1.3361195     -1.8891414     -0.13438139     0.11206577    -0.34648556     27178.728    
    249900   311.70865      1.2495         0.00015328081  0.00013592618  0.00018903596 -1.573297       1342.6554      1342.6554      1342.6554      2.4204366e+09  0.19340486    -137355.56     -137355.56      928.21514     -136427.34     -1.512764      -1.3414871     -1.8656399     -0.13438505     0.10542146    -0.33854268     24928.822    
    250000   311.49471      1.25           0.000154065    0.00013818308  0.00018864533 -1.5820163      1342.9539      1342.9539      1342.9539      2.4220509e+09  0.19327595    -137393.86     -137393.86      927.57806     -136466.28     -1.5205033     -1.363761      -1.8617846     -0.14424834     0.083687397   -0.34302266     8900.5957    
Loop time of 22.2576 on 1 procs for 250000 steps with 1000 atoms

Performance: 970.456 ns/day, 0.025 hours/ns, 11232.131 timesteps/s
94.6% CPU use with 1 MPI tasks x 1 OpenMP threads

MPI task timing breakdown:
Section |  min time  |  avg time  |  max time  |%varavg| %total
---------------------------------------------------------------
Pair    | 11.608     | 11.608     | 11.608     |   0.0 | 52.15
Neigh   | 0.66264    | 0.66264    | 0.66264    |   0.0 |  2.98
Comm    | 1.0023     | 1.0023     | 1.0023     |   0.0 |  4.50
Output  | 1.7265     | 1.7265     | 1.7265     |   0.0 |  7.76
Modify  | 6.3311     | 6.3311     | 6.3311     |   0.0 | 28.44
Other   |            | 0.9266     |            |       |  4.16

Nlocal:           1000 ave        1000 max        1000 min
Histogram: 1 0 0 0 0 0 0 0 0 0
Nghost:            547 ave         547 max         547 min
Histogram: 1 0 0 0 0 0 0 0 0 0
Neighs:             95 ave          95 max          95 min
Histogram: 1 0 0 0 0 0 0 0 0 0

Total # of neighbors = 95
Ave neighs/atom = 0.095
Neighbor list builds = 1276
Dangerous builds = 0

# restart file
write_restart ./tensile/restart/restart_${usic}_${trial}.tensile.restart
write_restart ./tensile/restart/restart_1_${trial}.tensile.restart
write_restart ./tensile/restart/restart_1_2.tensile.restart
System init for write_restart ...
Generated 0 of 1 mixed pair_coeff terms from geometric mixing rule
Total wall time: 0:00:22
