LAMMPS (23 Jun 2022 - Update 1)
OMP_NUM_THREADS environment is not set. Defaulting to 1 thread. (src/comm.cpp:98)
  using 1 OpenMP thread(s) per MPI task
###

# Read restart info
read_restart ${read_res}
read_restart ./100900/equpmf141.res
Reading restart file ...
  restart file = 23 Jun 2022, LAMMPS = 23 Jun 2022
  restoring atom style atomic from restart
  orthogonal box = (2125.828 2125.828 2125.828) to (2874.172 2874.172 2874.172)
  1 by 1 by 1 MPI processor grid
  restoring pair style table from restart
  900 atoms
  read_restart CPU = 0.035 seconds

# Settings
pair_style table/pgn spline 9941
pair_coeff 1 1 N20.txt DE_GNP 147.89 75.6
pair_coeff 2 2 N100.txt DE_GNP 473.9 115.92
WARNING: 3 of 9941 force values in table DE_GNP are inconsistent with -dE/dr.
WARNING:  Should only be flagged at inflection points (src/pair_table_pgn.cpp:478)
pair_coeff 1 2 mixed_potential.txt DE_GNP 391.2 95.66
WARNING: 1562 of 9941 force values in table DE_GNP are inconsistent with -dE/dr.
WARNING:  Should only be flagged at inflection points (src/pair_table_pgn.cpp:478)

# Neighbor list
neighbor 2.0 bin
neigh_modify delay 0 every 1 check yes

# Temperature
variable T equal ${Temp}
variable T equal 300

# Deformation
reset_timestep 0
variable tmp equal "lx"
variable L0 equal ${tmp}
variable L0 equal 748.343955708625
variable strain equal "(lx - v_L0)/v_L0"
variable stp equal "step"
variable tmpe equal "temp"
variable p1 equal "v_strain"
variable p2 equal "-pxx*1.01325/10000"
variable p3 equal "-pyy*1.01325/10000"
variable p4 equal "-pzz*1.01325/10000"
variable p5 equal "lx"
variable p6 equal "ly"
variable p7 equal "lz"
variable p8 equal "press"
variable p9 equal "epair"
variable p10 equal "etotal"

# Thermo
thermo_style custom step temp v_p1 v_p2 v_p3 v_p4 press lx ly lz vol density epair pe ke etotal pxx pyy pzz pxy pxz pyz spcpu
thermo ${ts_save}
thermo 100

# Dump
dump 1 all custom 2000 ./tensile/trajectory/trajectory_${usic}_${trial}_*.tensile.custom id type x y z ix iy iz
dump 1 all custom 2000 ./tensile/trajectory/trajectory_1_${trial}_*.tensile.custom id type x y z ix iy iz
dump 1 all custom 2000 ./tensile/trajectory/trajectory_1_2_*.tensile.custom id type x y z ix iy iz
dump_modify 1 sort id
dump 2 all cfg 2500 ./tensile/trajectory/ovito/dumpten.tens_${usic}_${trial}_*.cfg mass type xs ys zs fx fy fz
dump 2 all cfg 2500 ./tensile/trajectory/ovito/dumpten.tens_1_${trial}_*.cfg mass type xs ys zs fx fy fz
dump 2 all cfg 2500 ./tensile/trajectory/ovito/dumpten.tens_1_2_*.cfg mass type xs ys zs fx fy fz
dump_modify 2 element N20 N100

fix 1 all nvt temp ${T} ${T} 100
fix 1 all nvt temp 300 ${T} 100
fix 1 all nvt temp 300 300 100
fix 2 all deform 1 x erate ${strain_rate} y erate ${strain_rate} z erate ${strain_rate} units box
fix 2 all deform 1 x erate 5e-6 y erate ${strain_rate} z erate ${strain_rate} units box
fix 2 all deform 1 x erate 5e-6 y erate 5e-6 z erate ${strain_rate} units box
fix 2 all deform 1 x erate 5e-6 y erate 5e-6 z erate 5e-6 units box
fix             def1 all print ${ts_save} "${p1} ${p2} ${p3} ${p4}" file ./tensile/tensile${N20}${N100}_${usic}_${trial}.txt screen no
fix             def1 all print 100 "${p1} ${p2} ${p3} ${p4}" file ./tensile/tensile${N20}${N100}_${usic}_${trial}.txt screen no
fix             def1 all print 100 "${p1} ${p2} ${p3} ${p4}" file ./tensile/tensile100${N100}_${usic}_${trial}.txt screen no
fix             def1 all print 100 "${p1} ${p2} ${p3} ${p4}" file ./tensile/tensile100900_${usic}_${trial}.txt screen no
fix             def1 all print 100 "${p1} ${p2} ${p3} ${p4}" file ./tensile/tensile100900_1_${trial}.txt screen no
fix             def1 all print 100 "${p1} ${p2} ${p3} ${p4}" file ./tensile/tensile100900_1_2.txt screen no

timestep       		${ts}
timestep       		1
run				${steps_tensile}
run				250000
Generated 0 of 1 mixed pair_coeff terms from geometric mixing rule
Unused restart file global fix info:
  fix style: npt, fix ID: 5
Neighbor list info ...
  update every 1 steps, delay 0 steps, check yes
  max neighbors/atom: 2000, page size: 100000
  master list distance cutoff = 117.92
  ghost atom cutoff = 117.92
  binsize = 58.96, bins = 13 13 13
  1 neighbor lists, perpetual/occasional/extra = 1 0 0
  (1) pair table/pgn, perpetual
      attributes: half, newton on
      pair build: half/bin/atomonly/newton
      stencil: half/bin/3d
      bin: standard
Per MPI rank memory allocation (min/avg/max) = 5.787 | 5.787 | 5.787 Mbytes
   Step          Temp           v_p1           v_p2           v_p3           v_p4          Press            Lx             Ly             Lz           Volume        Density         E_pair         PotEng         KinEng         TotEng          Pxx            Pyy            Pzz            Pxy            Pxz            Pyz           S/CPU     
         0   306.16194     -1.5191789e-16  0.0080862354   0.031698202   -0.013071934   -87.877303      748.34396      748.34396      748.34396      4.1908659e+08  1.5050563     -55702606      -55702606       820.43693     -55701786      -79.804938     -312.83693      129.00996     -68.067939      353.74106      119.3932       0            
       100   406.40245      0.0005         0.016327425    0.039772765   -0.0042740714  -170.49467      748.71813      748.71813      748.71813      4.1971554e+08  1.5028009     -55701803      -55701803       1089.0563     -55700714      -161.13915     -392.52667      42.181805     -66.241434      347.67311      117.2372       6621.6101    
       200   457.27161      0.001          0.023577806    0.04696369     0.0036465853  -244.05981      749.0923       749.0923       749.0923       4.2034511e+08  1.5005501     -55562105      -55562105       1225.3728     -55560879      -232.69485     -463.49558     -35.988998     -62.380441      342.89191      116.93172      6335.7199    
       300   466.54125      0.0015         0.031168046    0.054329406    0.011796495   -320.0722       749.46647      749.46647      749.46647      4.2097531e+08  1.4983038     -55559933      -55559933       1250.2131     -55558683      -307.6047      -536.18955     -116.42235     -60.522259      337.41869      114.70161      6602.9844    
       400   456.82671      0.002          0.03806889     0.060983279    0.018993414   -388.33977      749.84064      749.84064      749.84064      4.2160614e+08  1.4960619     -55397095      -55397095       1224.1806     -55395871      -375.71073     -601.85817     -187.45042     -58.487631      335.06123      112.42347      6363.2605    
       500   441.88621      0.0025         0.045155276    0.068007773    0.026981941   -461.04117      750.21482      750.21482      750.21482      4.2223761e+08  1.4938246     -55320848      -55320848       1184.1438     -55319664      -445.64792     -671.18454     -266.29106     -57.098321      329.56396      110.76127      6371.9293    
       600   427.88135      0.003          0.052666835    0.075253525    0.035044455   -536.11256      750.58899      750.58899      750.58899      4.228697e+08   1.4915916     -55316655      -55316655       1146.6143     -55315508      -519.78125     -742.69455     -345.86188     -55.739635      322.85576      108.84707      6677.2474    
       700   416.70527      0.0035         0.059582137    0.082071202    0.042571788   -606.05354      750.96316      750.96316      750.96316      4.2350242e+08  1.4893632     -55246324      -55246324       1116.6652     -55245207      -588.02997     -809.97978     -420.15088     -53.964987      316.14447      106.81914      6385.369     
       800   408.58207      0.004          0.066287959    0.08847193     0.049523301   -672.03945      751.33733      751.33733      751.33733      4.2413577e+08  1.4871391     -55131700      -55131700       1094.8971     -55130605      -654.21129     -873.15006     -488.75698     -52.629585      310.70934      105.99368      6386.8041    
       900   402.34006      0.0045         0.073339663    0.095245025    0.057012203   -742.15607      751.7115       751.7115       751.7115       4.2476976e+08  1.4849195     -55125559      -55125559       1078.1701     -55124480      -723.8062      -939.99531     -562.66669     -50.601217      305.4791       104.25275      6643.5401    
      1000   398.59549      0.005          0.080043116    0.10160622     0.064217733   -808.83976      752.08568      752.08568      752.08568      4.2540437e+08  1.4827043     -55060580      -55060580       1068.1356     -55059512      -789.96414     -1002.7754     -633.77975     -48.488671      300.73586      102.79854      6333.9771    
      1100   396.62336      0.0055         0.086887472    0.1081377      0.071516502   -876.85392      752.45985      752.45985      752.45985      4.2603962e+08  1.4804935     -55053171      -55053171       1062.8507     -55052108      -857.51268     -1067.2361     -705.813       -46.879098      295.53497      100.94839      6702.9614    
      1200   395.05924      0.006          0.093064484    0.11398151     0.078312515   -938.7565       752.83402      752.83402      752.83402      4.266755e+08   1.4782871     -54943330      -54943330       1058.6593     -54942271      -918.47505     -1124.91       -772.88443     -44.960732      290.66149      100.39023      6401.9487    
      1300   394.49173      0.0065         0.099291065    0.11975033     0.084552384   -998.74588      753.20819      753.20819      753.20819      4.2731201e+08  1.4760851     -54832905      -54832905       1057.1385     -54831847      -979.92662     -1181.8439     -834.46715     -42.159659      285.06499      99.536529      6418.3291    
      1400   394.60732      0.007          0.10555748     0.12566961     0.091279414   -1060.9639      753.58236      753.58236      753.58236      4.2794916e+08  1.4738875     -54823744      -54823744       1057.4483     -54822687      -1041.7713     -1240.2626     -900.85778     -40.805272      278.82115      97.787185      6629.3936    
      1500   395.096        0.0075         0.11119235     0.13106465     0.097382979   -1117.3287      753.95654      753.95654      753.95654      4.2858694e+08  1.4716942     -54704919      -54704919       1058.7578     -54703860      -1097.3831     -1293.5076     -961.09528     -37.827127      274.91507      96.33012       6429.0403    
      1600   396.1844       0.008          0.11701292     0.13673293     0.10351162    -1175.2857      754.33071      754.33071      754.33071      4.2922535e+08  1.4695052     -54614637      -54614637       1061.6745     -54613575      -1154.8278     -1349.4491     -1021.5803     -36.83367       269.72371      94.894596      6381.3949    
      1700   397.61577      0.0085         0.12315012     0.14249714     0.11006741    -1236.0052      754.70488      754.70488      754.70488      4.2986439e+08  1.4673206     -54603826      -54603826       1065.5102     -54602761      -1215.3972     -1406.3375     -1086.2809     -34.769553      264.23954      93.216299      6748.6743    
      1800   399.14117      0.009          0.12854129     0.14755782     0.11595201    -1289.7479      755.07905      755.07905      755.07905      4.3050407e+08  1.4651404     -54476092      -54476092       1069.5979     -54475022      -1268.6039     -1456.2824     -1144.3574     -34.815781      258.9407       92.993333      6445.8262    
      1900   400.95916      0.0095         0.13432203     0.15313703     0.12221772    -1347.7318      755.45322      755.45322      755.45322      4.3114439e+08  1.4629644     -54464226      -54464226       1074.4696     -54463151      -1325.6554     -1511.345      -1206.1951     -34.057378      253.74034      91.622637      6749.5785    
      2000   402.12008      0.01           0.139215       0.15815216     0.12786268    -1398.8974      755.8274       755.8274       755.8274       4.3178533e+08  1.4607928     -54328203      -54328203       1077.5806     -54327125      -1373.9452     -1560.8405     -1261.9065     -32.126578      248.7949       91.465671      5223.8599    
      2100   403.51121      0.0105         0.14422832     0.16273791     0.13270694    -1446.4123      756.20157      756.20157      756.20157      4.3242692e+08  1.4586254     -54155316      -54155316       1081.3084     -54154235      -1423.4229     -1606.0983     -1309.7156     -29.432641      244.58472      89.166325      6452.6799    
      2200   405.22035      0.011          0.14955696     0.16770258     0.13844415    -1499.1486      756.57574      756.57574      756.57574      4.3306914e+08  1.4564624     -54141980      -54141980       1085.8885     -54140894      -1476.0125     -1655.0958     -1366.3375     -27.34347       238.98566      86.478921      6719.5604    
      2300   407.09534      0.0115         0.15450779     0.17219703     0.14346687    -1546.7446      756.94991      756.94991      756.94991      4.3371199e+08  1.4543036     -54040877      -54040877       1090.913      -54039787      -1524.8733     -1699.4525     -1415.9079     -25.978735      235.95907      85.459242      6482.8594    
      2400   409.36172      0.012          0.15956585     0.17688326     0.14880347    -1596.3569      757.32408      757.32408      757.32408      4.3435548e+08  1.4521491     -53990223      -53990223       1096.9864     -53989126      -1574.7925     -1745.7021     -1468.576      -23.896366      230.93667      82.919328      6485.0132    
      2500   411.68728      0.0125         0.16462401     0.18170064     0.154301      -1646.9304      757.69826      757.69826      757.69826      4.349996e+08   1.4499988     -53975484      -53975484       1103.2183     -53974380      -1624.7127     -1793.2459     -1522.8325     -22.191499      225.28487      81.440328      5256.5427    
      2600   413.73882      0.013          0.16923218     0.1862136      0.15944719    -1693.8662      758.07243      758.07243      758.07243      4.3564437e+08  1.4478528     -53909372      -53909372       1108.7159     -53908264      -1670.1917     -1837.7854     -1573.6214     -21.817765      220.08464      79.936249      6493.0069    
      2700   415.80299      0.0135         0.17350091     0.19033614     0.16448878    -1738.0568      758.4466       758.4466       758.4466       4.3628976e+08  1.445711      -53813700      -53813700       1114.2473     -53812586      -1712.3208     -1878.4716     -1623.3781     -20.647642      214.79532      79.003053      6496.5194    
      2800   417.41458      0.014          0.17829097     0.19470781     0.16958936    -1784.9762      758.82077      758.82077      758.82077      4.369358e+08   1.4435734     -53797626      -53797626       1118.566      -53796507      -1759.5951     -1921.6167     -1673.7169     -19.652764      209.75398      77.053935      6743.4125    
      2900   419.14999      0.0145         0.18274805     0.19878299     0.17439381    -1828.8506      759.19494      759.19494      759.19494      4.3758247e+08  1.44144       -53737463      -53737463       1123.2164     -53736340      -1803.583      -1961.8356     -1721.1331     -18.850213      204.3887       75.080672      6507.7055    
      3000   420.89799      0.015          0.187301       0.20296799     0.17917884    -1873.3377      759.56912      759.56912      759.56912      4.3822979e+08  1.4393109     -53720508      -53720508       1127.9006     -53719381      -1848.5171     -2003.1383     -1768.3576     -17.609783      199.32772      73.318574      6832.811     
      3100   422.30902      0.0155         0.19127854     0.20677047     0.18349511    -1913.1314      759.94329      759.94329      759.94329      4.3887774e+08  1.4371859     -53630407      -53630407       1131.6818     -53629275      -1887.7724     -2040.6659     -1810.9559     -15.807051      196.21769      72.651962      6510.5078    
      3200   423.90216      0.016          0.19511351     0.21046487     0.18772715    -1951.8235      760.31746      760.31746      760.31746      4.3952632e+08  1.4350651     -53539922      -53539922       1135.9511     -53538786      -1925.6207     -2077.1268     -1852.723      -14.589039      190.26648      71.883302      6521.1732    
      3300   425.38385      0.0165         0.19923281     0.21431002     0.19227716    -1992.9928      760.69163      760.69163      760.69163      4.4017555e+08  1.4329485     -53521802      -53521802       1139.9216     -53520662      -1966.275      -2115.0755     -1897.6281     -12.487759      184.80531      70.25914       6846.3899    
      3400   426.83122      0.017          0.20306472     0.21784308     0.19656316    -2031.3215      761.0658       761.0658       761.0658       4.4082541e+08  1.4308361     -53459660      -53459660       1143.8002     -53458516      -2004.0929     -2149.944      -1939.9275     -11.669003      180.1087       67.368389      6528.7247    
      3500   428.29864      0.0175         0.20692769     0.22133467     0.20078753    -2069.4132      761.43997      761.43997      761.43997      4.4147592e+08  1.4287278     -53411689      -53411689       1147.7325     -53410541      -2042.2175     -2184.4034     -1981.6189     -10.405911      176.23338      65.740212      6454.9645    
      3600   429.80284      0.018          0.21086066     0.22485808     0.20505974    -2107.9973      761.81415      761.81415      761.81415      4.4212706e+08  1.4266236     -53392439      -53392439       1151.7634     -53391287      -2081.033      -2219.1767     -2023.7823     -8.8474986      171.35084      64.173981      6855.3915    
      3700   431.30421      0.0185         0.21451664     0.2279863      0.20898968    -2143.2441      762.18832      762.18832      762.18832      4.4277885e+08  1.4245236     -53314636      -53314636       1155.7867     -53313480      -2117.1146     -2250.0498     -2062.5678     -7.5274239      167.38051      62.105066      6545.6138    
      3800   432.77932      0.019          0.21806278     0.2313033      0.21263857    -2177.826       762.56249      762.56249      762.56249      4.4343127e+08  1.4224276     -53251022      -53251022       1159.7396     -53249863      -2152.1123     -2282.7861     -2098.5795     -5.4935106      162.81517      61.118462      6544.802     
      3900   433.97248      0.0195         0.22155883     0.23454535     0.21647881    -2212.626       762.93666      762.93666      762.93666      4.4408434e+08  1.4203358     -53230716      -53230716       1162.937      -53229553      -2186.6157     -2314.7827     -2136.4797     -4.1881964      157.9168       59.431915      6875.1232    
      4000   435.21078      0.02           0.22480849     0.23739952     0.22006257    -2244.4957      763.31083      763.31083      763.31083      4.4473804e+08  1.4182481     -53173702      -53173702       1166.2553     -53172536      -2218.6872     -2342.9511     -2171.8487     -3.9961063      151.94175      57.620762      5323.4737    
      4100   436.57178      0.0205         0.22815589     0.24029675     0.2238215     -2277.4049      763.68501      763.68501      763.68501      4.4539239e+08  1.4161645     -53152734      -53152734       1169.9025     -53151564      -2251.7235     -2371.5445     -2208.9465     -2.7566692      146.3288       56.224903      6865.9042    
      4200   437.24962      0.021          0.23096796     0.24291712     0.22696727    -2305.625       764.05918      764.05918      764.05918      4.4604738e+08  1.414085      -53029637      -53029637       1171.7189     -53028466      -2279.4765     -2397.4056     -2239.9928     -1.6908597      141.83509      55.491387      6496.0771    
      4300   438.07845      0.0215         0.23388744     0.24566363     0.23020807    -2334.926       764.43335      764.43335      764.43335      4.4670301e+08  1.4120095     -52949882      -52949882       1173.94       -52948708      -2308.2896     -2424.5116     -2271.977       0.68160343     137.17603      53.488441      6562.6022    
      4400   439.05391      0.022          0.23696406     0.24851098     0.2335854     -2365.5249      764.80752      764.80752      764.80752      4.4735928e+08  1.4099381     -52928026      -52928026       1176.5539     -52926849      -2338.6535     -2452.6127     -2305.3086      2.7161652      132.63861      51.444458      6893.8142    
      4500   440.11849      0.0225         0.23972428     0.2509583      0.23661699    -2392.6296      765.18169      765.18169      765.18169      4.480162e+08   1.4078708     -52862234      -52862234       1179.4067     -52861055      -2365.8947     -2476.7659     -2335.2281      4.3276971      127.93364      49.664631      6575.5666    
      4600   441.17168      0.023          0.24225765     0.25324835     0.23953357    -2418.0922      765.55587      765.55587      765.55587      4.4867376e+08  1.4058074     -52781611      -52781611       1182.229      -52780429      -2390.8971     -2499.3668     -2364.0125      5.5170217      124.30765      47.226536      6582.1146    
      4700   442.03835      0.0235         0.24506841     0.25572265     0.24255587    -2445.4213      765.93004      765.93004      765.93004      4.4933196e+08  1.4037481     -52758911      -52758911       1184.5515     -52757727      -2418.6372     -2523.7863     -2393.8403      6.6627875      119.85054      46.02668       6908.4519    
      4800   442.93412      0.024          0.24726369     0.25764648     0.24530766    -2468.0248      766.30421      766.30421      766.30421      4.499908e+08   1.4016929     -52641385      -52641385       1186.9519     -52640198      -2440.3028     -2542.7731     -2420.9984      8.0260355      116.11922      44.882352      6532.471     
      4900   443.76348      0.0245         0.24939406     0.25965838     0.24786845    -2490.0761      766.67838      766.67838      766.67838      4.5065029e+08  1.3996416     -52516342      -52516342       1189.1744     -52515153      -2461.328      -2562.629      -2446.2714      7.904914       111.67479      44.211224      6596.3139    
      5000   443.86518      0.025          0.2520304      0.26201174     0.25075508    -2515.9872      767.05255      767.05255      767.05255      4.5131042e+08  1.3975944     -52492920      -52492920       1189.4469     -52491731      -2487.3467     -2585.8548     -2474.7602      9.3059189      107.13235      42.713137      5289.6513    
      5100   444.12326      0.0255         0.2542155      0.26388034     0.25298425    -2536.6563      767.42673      767.42673      767.42673      4.519712e+08   1.3955511     -52381973      -52381973       1190.1385     -52380783      -2508.912      -2604.2965     -2496.7604      11.924984      103.89191      40.071593      6590.2184    
      5200   444.67026      0.026          0.25657056     0.2659141      0.25560074    -2559.702       767.8009       767.8009       767.8009       4.5263262e+08  1.3935118     -52358076      -52358076       1191.6043     -52356885      -2532.1546     -2624.3681     -2522.5831      13.614913      100.00155      37.879489      6771.0015    
      5300   445.25994      0.0265         0.25845048     0.26766179     0.25773345    -2578.6519      768.17507      768.17507      768.17507      4.5329469e+08  1.3914765     -52261214      -52261214       1193.1845     -52260020      -2550.708      -2641.6165     -2543.6313      13.837588      95.382669      35.662943      5993.3864    
      5400   445.84516      0.027          0.26034313     0.26953636     0.25984556    -2597.9934      768.54924      768.54924      768.54924      4.539574e+08   1.3894451     -52193224      -52193224       1194.7528     -52192029      -2569.3869     -2660.117      -2564.4763      15.006704      90.886362      34.075135      6567.4479    
      5500   446.3523       0.0275         0.2624477      0.27141908     0.26222564    -2618.9404      768.92341      768.92341      768.92341      4.5462075e+08  1.3874177     -52168667      -52168667       1196.1118     -52167470      -2590.1574     -2678.6981     -2587.9659      15.880765      86.497822      32.784591      6948.3374    
      5600   446.61255      0.028          0.26434553     0.27308257     0.26433554    -2637.5973      769.29759      769.29759      769.29759      4.5528476e+08  1.3853943     -52092992      -52092992       1196.8092     -52091796      -2608.8876     -2695.1155     -2608.789       16.262921      82.247743      32.603376      6649.6511    
      5700   446.94288      0.0285         0.26614908     0.27443289     0.26623356    -2654.2167      769.67176      769.67176      769.67176      4.5594941e+08  1.3833748     -51995292      -51995292       1197.6944     -51994094      -2626.6872     -2708.442      -2627.5209      16.596353      77.835998      32.972043      6646.01      
      5800   447.34406      0.029          0.26801201     0.27603759     0.26832827    -2672.5154      770.04593      770.04593      770.04593      4.566147e+08   1.3813592     -51970162      -51970162       1198.7695     -51968963      -2645.0729     -2724.2792     -2648.1941      17.925751      74.188382      30.854592      6963.4823    
      5900   447.75822      0.0295         0.26942155     0.2774669      0.27000956    -2687.3855      770.4201       770.4201       770.4201       4.5728064e+08  1.3793475     -51886664      -51886664       1199.8793     -51885464      -2658.984      -2738.3854     -2664.7872      19.243386      70.694938      28.450472      6668.6281    
      6000   447.96529      0.03           0.27085039     0.27884523     0.27162814    -2701.9451      770.79427      770.79427      770.79427      4.5794723e+08  1.3773397     -51810246      -51810246       1200.4342     -51809046      -2673.0855     -2751.9885     -2680.7613      20.180966      67.730738      25.627752      5179.3605    
      6100   447.85538      0.0305         0.27252856     0.2801774      0.27352625    -2718.0926      771.16845      771.16845      771.16845      4.5861447e+08  1.3753358     -51784577      -51784577       1200.1397     -51783377      -2689.6478     -2765.136      -2699.4942      21.319023      63.371471      24.94548       6917.3314    
      6200   447.70218      0.031          0.27387084     0.28122189     0.27527506    -2731.6976      771.54262      771.54262      771.54262      4.5928236e+08  1.3733358     -51715100      -51715100       1199.7291     -51713900      -2702.8951     -2775.4443     -2716.7536      22.296047      59.327245      24.202556      6661.2386    
      6300   447.68048      0.0315         0.27534068     0.28250239     0.27701354    -2746.4647      771.91679      771.91679      771.91679      4.5995089e+08  1.3713397     -51689106      -51689106       1199.671      -51687906      -2717.4012     -2788.0818     -2733.9111      22.669349      55.330852      23.263182      6995.6467    
      6400   447.61171      0.032          0.27611638     0.28348532     0.27841357    -2756.8559      772.29096      772.29096      772.29096      4.6062007e+08  1.3693474     -51568425      -51568425       1199.4867     -51567226      -2725.0568     -2797.7826     -2747.7283      22.937515      51.178312      22.016109      6688.8894    
      6500   447.47067      0.0325         0.27719875     0.28435868     0.27967658    -2767.4447      772.66513      772.66513      772.66513      4.612899e+08   1.367359      -51476697      -51476697       1199.1087     -51475498      -2735.7389     -2806.402      -2760.1933      24.182795      48.07435       19.969183      6692.9929    
      6600   447.21709      0.033          0.27846238     0.28533572     0.28113025    -2779.5982      773.03931      773.03931      773.03931      4.6196038e+08  1.3653745     -51450307      -51450307       1198.4292     -51449109      -2748.21       -2816.0447     -2774.5399      25.546338      43.958495      18.151364      7011.6811    
      6700   446.69107      0.0335         0.27943768     0.28606308     0.28209932    -2788.3874      773.41348      773.41348      773.41348      4.6263151e+08  1.3633937     -51372876      -51372876       1197.0196     -51371679      -2757.8354     -2823.2231     -2784.1038      26.664323      40.126789      16.112846      6700.1819    
      6800   446.34311      0.034          0.28024593     0.28649876     0.28280562    -2794.8032      773.78765      773.78765      773.78765      4.6330329e+08  1.3614168     -51266231      -51266231       1196.0872     -51265034      -2765.8123     -2827.5229     -2791.0745      25.641958      36.932307      15.216667      6649.442     
      6900   446.27396      0.0345         0.2812119      0.28724554     0.28398654    -2804.3227      774.16182      774.16182      774.16182      4.6397572e+08  1.3594438     -51239501      -51239501       1195.9018     -51238305      -2775.3457     -2834.8931     -2802.7292      25.806357      33.238243      14.132595      7032.3735    
      7000   445.99555      0.035          0.28209684     0.28795895     0.28515853    -2813.4364      774.53599      774.53599      774.53599      4.6464879e+08  1.3574745     -51190831      -51190831       1195.1558     -51189636      -2784.0794     -2841.9339     -2814.2958      26.380577      28.839941      12.965968      6724.4548    
      7100   445.4238       0.0355         0.28279124     0.28849649     0.28615233    -2820.7585      774.91017      774.91017      774.91017      4.6532252e+08  1.3555091     -51105669      -51105669       1193.6237     -51104476      -2790.9325     -2847.239      -2824.1039      25.849487      24.970824      11.179208      6715.7043    
      7200   444.67144      0.036          0.28365054     0.28909705     0.28718398    -2828.9549      775.28434      775.28434      775.28434      4.659969e+08   1.3535474     -51078618      -51078618       1191.6075     -51077427      -2799.4132     -2853.166      -2834.2855      27.202847      21.26483       8.973769       7044.2954    
      7300   444.15341      0.0365         0.28407437     0.28910989     0.28774543    -2832.2385      775.65851      775.65851      775.65851      4.6667194e+08  1.3515895     -50971479      -50971479       1190.2193     -50970289      -2803.5961     -2853.2928     -2839.8266      28.324037      16.93057       7.4990773      6729.644     
      7400   443.72325      0.037          0.28472278     0.28949625     0.28851764    -2838.183       776.03268      776.03268      776.03268      4.6734762e+08  1.3496354     -50944280      -50944280       1189.0666     -50943091      -2809.9954     -2857.1059     -2847.4477      28.829244      13.638329      7.1236869      7049.9847    
      7500   442.94171      0.0375         0.28511205     0.28960918     0.28885558    -2840.9468      776.40685      776.40685      776.40685      4.6802395e+08  1.3476851     -50858813      -50858813       1186.9723     -50857626      -2813.8372     -2858.2204     -2850.7829      28.503626      10.686586      6.0902802      4959.7351    
      7600   442.18244      0.038          0.2851762      0.28937608     0.28906034    -2841.0646      776.78103      776.78103      776.78103      4.6870094e+08  1.3457385     -50736901      -50736901       1184.9376     -50735716      -2814.4703     -2855.9199     -2852.8037      26.777512      9.2412976      2.7655886      6742.3823    
      7700   441.43912      0.0385         0.28557856     0.28954437     0.28964754    -2844.8736      777.1552       777.1552       777.1552       4.6937858e+08  1.3437957     -50709524      -50709524       1182.9457     -50708341      -2818.4412     -2857.5807     -2858.599       27.3715        5.9414544      0.83100844     7067.5399    
      7800   440.59225      0.039          0.28597243     0.28943885     0.28999903    -2846.9786      777.52937      777.52937      777.52937      4.7005687e+08  1.3418566     -50638462      -50638462       1180.6763     -50637282      -2822.3285     -2856.5393     -2862.0679      27.508194      2.7242762     -0.90448767     6749.163     
      7900   439.66788      0.0395         0.28633858     0.28945403     0.29026537    -2849.1093      777.90354      777.90354      777.90354      4.7073582e+08  1.3399212     -50581896      -50581896       1178.1992     -50580717      -2825.9421     -2856.6892     -2864.6965      28.37945       0.19109165    -2.9486495      6745.8686    
      8000   438.69071      0.04           0.28656177     0.28943589     0.29067896    -2851.1444      778.27771      778.27771      778.27771      4.7141542e+08  1.3379895     -50554377      -50554377       1175.5807     -50553201      -2828.1447     -2856.5101     -2868.7783      28.871125     -3.1643081     -4.0993703      5446.5985    
      8100   437.97079      0.0405         0.28634335     0.28904127     0.29063243    -2848.9746      778.65189      778.65189      778.65189      4.7209567e+08  1.3360616     -50446812      -50446812       1173.6514     -50445638      -2825.9891     -2852.6155     -2868.3191      27.89736      -6.4531355     -4.7722205      6687.2724    
      8200   437.39727      0.041          0.28639505     0.28874834     0.29066394    -2848.2846      779.02606      779.02606      779.02606      4.7277658e+08  1.3341374     -50382865      -50382865       1172.1146     -50381693      -2826.4994     -2849.7245     -2868.63        27.723625     -8.4621689     -6.253615       6767.9733    
      8300   436.55931      0.0415         0.28651312     0.28851669     0.29084706    -2848.5134      779.40023      779.40023      779.40023      4.7345814e+08  1.3322168     -50355276      -50355276       1169.869      -50354106      -2827.6646     -2847.4383     -2870.4374      28.532782     -11.045727     -7.1861693      7097.1036    
      8400   435.56568      0.042          0.28628829     0.28799404     0.29072293    -2845.6461      779.7744       779.7744       779.7744       4.7414036e+08  1.3303        -50276766      -50276766       1167.2064     -50275599      -2825.4458     -2842.2801     -2869.2123      27.965442     -14.093701     -8.5055618      6776.7564    
      8500   434.43954      0.0425         0.28611479     0.28749382     0.29070783    -2843.38        780.14857      780.14857      780.14857      4.7482323e+08  1.3283868     -50249165      -50249165       1164.1886     -50248000      -2823.7335     -2837.3434     -2869.0632      28.239311     -16.964319     -10.267982      7101.4229    
      8600   432.80331      0.043          0.28550359     0.28685182     0.29017788    -2837.5139      780.52275      780.52275      780.52275      4.7550676e+08  1.3264773     -50141566      -50141566       1159.8039     -50140406      -2817.7013     -2831.0074     -2863.833       27.711913     -19.640329     -11.995191      6785.5232    
      8700   431.43683      0.0435         0.28507883     0.28619644     0.28959254    -2832.0349      780.89692      780.89692      780.89692      4.7619094e+08  1.3245714     -50041242      -50041242       1156.1421     -50040085      -2813.5093     -2824.5392     -2858.0561      27.163625     -24.13071      -12.076713      6789.2152    
      8800   430.32547      0.044          0.28488622     0.28569354     0.28945674    -2829.3001      781.27109      781.27109      781.27109      4.7687578e+08  1.3226692     -50013672      -50013672       1153.1639     -50012519      -2811.6083     -2819.576      -2856.7159      27.502266     -27.334488     -12.577517      7051.5089    
      8900   429.73786      0.0445         0.28445853     0.28492631     0.28912371    -2824.2735      781.64526      781.64526      781.64526      4.7756127e+08  1.3207706     -49949759      -49949759       1151.5893     -49948607      -2807.3874     -2812.0041     -2853.4291      27.869685     -29.873566     -13.730495      6796.3843    
      9000   429.11457      0.045          0.28383678     0.2840838      0.2885268     -2817.4928      782.01943      782.01943      782.01943      4.7824742e+08  1.3188757     -49878593      -49878593       1149.919      -49877443      -2801.2512     -2803.6892     -2847.5381      27.742531     -31.51708      -14.078093      6802.6901    
      9100   428.21552      0.0455         0.28330281     0.28325388     0.28807645    -2811.5244      782.39361      782.39361      782.39361      4.7893423e+08  1.3169844     -49851118      -49851118       1147.5098     -49849971      -2795.9813     -2795.4984     -2843.0935      28.57254      -34.178568     -14.896563      7119.9659    
      9200   426.89783      0.046          0.28256225     0.28232608     0.28721097    -2803.1888      782.76778      782.76778      782.76778      4.7962169e+08  1.3150967     -49772753      -49772753       1143.9787     -49771609      -2788.6726     -2786.3418     -2834.5519      28.292717     -35.875326     -16.571214      6798.0859    
      9300   425.52408      0.0465         0.28168623     0.2814008      0.28648896    -2794.8877      783.14195      783.14195      783.14195      4.8030982e+08  1.3132126     -49701700      -49701700       1140.2974     -49700560      -2780.0269     -2777.21       -2827.4262      29.913999     -38.646326     -17.17569       6818.4146    
      9400   424.06961      0.047          0.28104956     0.28049177     0.28586388    -2787.7464      783.51612      783.51612      783.51612      4.809986e+08   1.3113321     -49674355      -49674355       1136.3998     -49673219      -2773.7435     -2768.2385     -2821.2572      29.790121     -40.886461     -17.696285      6964.914     
      9500   422.58511      0.0475         0.28027596     0.27927915     0.28504398    -2778.515       783.89029      783.89029      783.89029      4.8168804e+08  1.3094552     -49603422      -49603422       1132.4217     -49602289      -2766.1087     -2756.2709     -2813.1654      28.336909     -42.967468     -18.062822      6748.6333    
      9600   421.09824      0.048          0.27957733     0.27831367     0.28431838    -2770.6534      784.26447      784.26447      784.26447      4.8237813e+08  1.3075819     -49576194      -49576194       1128.4373     -49575066      -2759.2137     -2746.7423     -2806.0042      28.339208     -45.300549     -18.378139      7142.3419    
      9700   419.4595       0.0485         0.27826418     0.27701788     0.28330496    -2758.7368      784.63864      784.63864      784.63864      4.8306889e+08  1.3057121     -49476302      -49476302       1124.0458     -49475178      -2746.254      -2733.9539     -2796.0026      28.04653      -47.49969      -18.976552      6821.8292    
      9800   418.34281      0.049          0.27702646     0.27546604     0.28215431    -2745.7745      785.01281      785.01281      785.01281      4.8376031e+08  1.3038459     -49376482      -49376482       1121.0534     -49375361      -2734.0386     -2718.6384     -2784.6466      29.278964     -50.230782     -18.972604      6832.5743    
      9900   417.29889      0.0495         0.27609249     0.2741989      0.28125297    -2735.5683      785.38698      785.38698      785.38698      4.8445238e+08  1.3019833     -49349491      -49349491       1118.256      -49348373      -2724.821      -2706.1327     -2775.751       29.693014     -52.569839     -19.541393      7157.6904    
     10000   415.83054      0.05           0.27501336     0.27268728     0.2799206     -2722.6622      785.76115      785.76115      785.76115      4.8514512e+08  1.3001242     -49257132      -49257132       1114.3212     -49256018      -2714.1708     -2691.2142     -2762.6015      29.498621     -53.613958     -20.556616      2595.199     
     10100   414.195        0.0505         0.27385827     0.2713039      0.27878494    -2710.5753      786.13533      786.13533      786.13533      4.8583851e+08  1.2982686     -49193964      -49193964       1109.9383     -49192854      -2702.7709     -2677.5613     -2751.3935      28.675952     -55.888785     -20.460399      4270.5656    
     10200   412.59718      0.051          0.2727686      0.27002681     0.27774886    -2699.3808      786.5095       786.5095       786.5095       4.8653256e+08  1.2964166     -49167258      -49167258       1105.6566     -49166152      -2692.0168     -2664.9574     -2741.1681      28.467986     -57.924255     -21.453233      7087.128     
     10300   411.07716      0.0515         0.27118562     0.26857868     0.27641398    -2685.0178      786.88367      786.88367      786.88367      4.8722728e+08  1.2945681     -49082457      -49082457       1101.5833     -49081355      -2676.394      -2650.6655     -2727.9939      28.272082     -59.46923      -22.387227      6860.2228    
     10400   409.81982      0.052          0.2698559      0.26699733     0.27472115    -2669.8721      787.25784      787.25784      787.25784      4.8792266e+08  1.2927231     -48997758      -48997758       1098.2139     -48996660      -2663.2707     -2635.0587     -2711.2869      29.14292      -60.386338     -21.806587      6862.3714    
     10500   408.19902      0.0525         0.26865104     0.26554361     0.27346665    -2656.9991      787.63201      787.63201      787.63201      4.8861869e+08  1.2908816     -48971369      -48971369       1093.8706     -48970275      -2651.3796     -2620.7116     -2698.906       29.142436     -62.198297     -22.155319      7190.7749    
     10600   406.75243      0.053          0.26736471     0.26404953     0.2720653     -2643.2422      788.00619      788.00619      788.00619      4.8931539e+08  1.2890436     -48915993      -48915993       1089.9941     -48914903      -2638.6845     -2605.9662     -2685.0757      28.442046     -64.012524     -22.347751      6787.0822    
     10700   405.37734      0.0535         0.26606017     0.26267186     0.27076804    -2630.1507      788.38036      788.38036      788.38036      4.9001276e+08  1.2872091     -48889824      -48889824       1086.3092     -48888738      -2625.8097     -2592.3697     -2672.2728      28.390614     -65.479907     -23.069008      7201.7883    
     10800   403.88374      0.054          0.26451071     0.2611147      0.26915893    -2614.6372      788.75453      788.75453      788.75453      4.9071078e+08  1.2853781     -48827408      -48827408       1082.3067     -48826326      -2610.5177     -2577.0018     -2656.3921      27.711086     -66.194733     -23.774382      6875.7571    
     10900   402.5007       0.0545         0.26288238     0.25926376     0.26748462    -2597.6832      789.1287       789.1287       789.1287       4.9140947e+08  1.2835506     -48743292      -48743292       1078.6005     -48742214      -2594.4474     -2558.7344     -2639.8679      26.859628     -66.405607     -24.812907      6872.8622    
     11000   401.08242      0.055          0.26148325     0.25768048     0.26601232    -2583.0284      789.50287      789.50287      789.50287      4.9210882e+08  1.2817265     -48717507      -48717507       1074.7999     -48716432      -2580.639      -2543.1086     -2625.3375      26.664296     -67.354569     -25.626387      7209.9332    
     11100   399.44923      0.0555         0.25983587     0.25585817     0.26432093    -2566.0497      789.87705      789.87705      789.87705      4.9280883e+08  1.2799058     -48633663      -48633663       1070.4234     -48632593      -2564.3807     -2525.1238     -2608.6448      27.105938     -68.098136     -26.302746      6885.0864    
     11200   398.0251       0.056          0.25841205     0.25420284     0.26264889    -2550.4195      790.25122      790.25122      790.25122      4.935095e+08   1.2780887     -48593589      -48593589       1066.607      -48592522      -2550.3286     -2508.787      -2592.143       26.499937     -68.583954     -26.150972      6897.2676    
     11300   396.82022      0.0565         0.25694695     0.25261313     0.26099619    -2534.933       790.62539      790.62539      790.62539      4.9421084e+08  1.2762749     -48568195      -48568195       1063.3783     -48567132      -2535.8692     -2493.0977     -2575.8321      26.270819     -69.561874     -26.236452      7153.1342    
     11400   395.63066      0.057          0.25529346     0.2509782      0.25916293    -2518.0841      790.99956      790.99956      790.99956      4.9491285e+08  1.2744646     -48513849      -48513849       1060.1906     -48512789      -2519.5506     -2476.9623     -2557.7393      25.675002     -69.631827     -26.067282      6894.2624    
     11500   394.36686      0.0575         0.2537578      0.24937934     0.25748137    -2502.2404      791.37373      791.37373      791.37373      4.9561552e+08  1.2726577     -48488744      -48488744       1056.8039     -48487688      -2504.3948     -2461.1827     -2541.1436      25.558656     -69.739096     -26.304075      7214.9291    
     11600   393.17135      0.058          0.25197211     0.24759446     0.25569943    -2484.632       791.74791      791.74791      791.74791      4.9631885e+08  1.2708542     -48427418      -48427418       1053.6002     -48426365      -2486.7714     -2443.5673     -2523.5572      25.028568     -69.198131     -27.189497      6897.4256    
     11700   391.90489      0.0585         0.25033388     0.24573563     0.25380955    -2466.9103      792.12208      792.12208      792.12208      4.9702285e+08  1.2690541     -48373498      -48373498       1050.2064     -48372448      -2470.6033     -2425.2221     -2504.9055      24.396311     -69.032842     -27.185894      6904.0471    
     11800   390.67586      0.059          0.24867091     0.24400917     0.25207146    -2450.0421      792.49625      792.49625      792.49625      4.9772751e+08  1.2672575     -48348828      -48348828       1046.913      -48347781      -2454.1911     -2408.1832     -2487.7519      23.81794      -69.108644     -27.812865      7238.173     
     11900   389.23696      0.0595         0.24663183     0.24200994     0.25000032    -2429.9435      792.87042      792.87042      792.87042      4.9843284e+08  1.2654642     -48251592      -48251592       1043.0571     -48250549      -2434.0669     -2388.4524     -2467.3113      22.6673       -69.075114     -28.248128      6912.7065    
     12000   387.87335      0.06           0.24480018     0.23988758     0.2478556     -2409.8803      793.24459      793.24459      793.24459      4.9913884e+08  1.2636743     -48161798      -48161798       1039.4029     -48160758      -2415.9899     -2367.5064     -2446.1446      21.434232     -68.716032     -29.172835      2319.3496    
     12100   386.51535      0.0605         0.24313657     0.23813192     0.24601933    -2392.5909      793.61877      793.61877      793.61877      4.998455e+08   1.2618877     -48137636      -48137636       1035.7638     -48136601      -2399.5713     -2350.1793     -2428.022       20.804398     -68.669943     -28.462447      3814.1124    
     12200   385.26731      0.061          0.24137847     0.2363045      0.2440753     -2374.4001      793.99294      793.99294      793.99294      5.0055283e+08  1.2601046     -48084535      -48084535       1032.4194     -48083503      -2382.2203     -2332.144      -2408.8359      19.969285     -68.836778     -28.124805      6633.7144    
     12300   384.06797      0.0615         0.23952282     0.23425717     0.2420688     -2354.9594      794.36711      794.36711      794.36711      5.0126082e+08  1.2583248     -48002487      -48002487       1029.2055     -48001458      -2363.9064     -2311.9385     -2389.0333      18.544683     -68.999238     -27.517292      6913.605     
     12400   382.71066      0.062          0.23780816     0.23251557     0.24027643    -2337.6928      794.74128      794.74128      794.74128      5.0196948e+08  1.2565483     -47978803      -47978803       1025.5682     -47977778      -2346.984      -2294.7503     -2371.344       17.649034     -68.638575     -27.468686      7191.4063    
     12500   381.44098      0.0625         0.23598235     0.2307025      0.23834447    -2319.3662      795.11545      795.11545      795.11545      5.0267881e+08  1.2547752     -47933455      -47933455       1022.1658     -47932433      -2328.9647     -2276.8566     -2352.2771      15.783304     -67.246269     -27.582433      5205.4809    
     12600   380.27885      0.063          0.23418281     0.22898303     0.23650953    -2301.753       795.48962      795.48962      795.48962      5.0338881e+08  1.2530054     -47910098      -47910098       1019.0516     -47909078      -2311.2046     -2259.8868     -2334.1676      14.465111     -65.996193     -27.529119      7266.7411    
     12700   379.20328      0.0635         0.23234744     0.22711168     0.23445352    -2282.7951      795.8638       795.8638       795.8638       5.0409948e+08  1.2512389     -47850548      -47850548       1016.1693     -47849532      -2293.0909     -2241.418      -2313.8763      13.812626     -65.656286     -27.544252      6937.3274    
     12800   377.99281      0.064          0.23045152     0.22520345     0.23234138    -2263.332       796.23797      796.23797      796.23797      5.0481081e+08  1.2494758     -47783873      -47783873       1012.9256     -47782860      -2274.3797     -2222.5852     -2293.0311      13.080538     -65.781682     -26.141603      6947.1249    
     12900   376.61231      0.0645         0.2286193      0.22342405     0.23049437    -2245.3745      796.61214      796.61214      796.61214      5.0552282e+08  1.247716      -47761008      -47761008       1009.2262     -47759999      -2256.2971     -2205.0239     -2274.8026      13.410285     -65.437556     -25.355789      7282.7584    
     13000   375.11269      0.065          0.2266329      0.22135046     0.22848944    -2225.4225      796.98631      796.98631      796.98631      5.0623549e+08  1.2459595     -47672855      -47672855       1005.2076     -47671850      -2236.6929     -2184.5591     -2255.0154      13.148784     -64.582301     -25.001934      6949.9561    
     13100   373.70434      0.0655         0.22467447     0.21957048     0.22657171    -2206.8152      797.36048      797.36048      797.36048      5.0694883e+08  1.2442062     -47599407      -47599407       1001.4335     -47598406      -2217.3646     -2166.9922     -2236.0889      12.316201     -61.993937     -25.40147       6883.0865    
     13200   372.33082      0.066          0.22309289     0.2180006      0.22487398    -2190.8627      797.73466      797.73466      797.73466      5.0766285e+08  1.2424563     -47577050      -47577050       997.75287     -47576053      -2201.7557     -2151.4987     -2219.3337      11.272887     -60.93679      -25.175071      7296.4271    
     13300   371.17263      0.0665         0.22143926     0.21623968     0.2230696     -2173.6937      798.10883      798.10883      798.10883      5.0837753e+08  1.2407096     -47533016      -47533016       994.6492      -47532022      -2185.4356     -2134.1197     -2201.5258      9.7887354     -59.821023     -24.93306       6970.2193    
     13400   370.266        0.067          0.21972639     0.2145287      0.22129011    -2156.576       798.483        798.483        798.483        5.0909288e+08  1.2389663     -47510955      -47510955       992.21965     -47509963      -2168.5309     -2117.2337     -2183.9635      8.6085813     -58.754843     -23.815775      7308.9034    
     13500   369.20256      0.0675         0.21787347     0.21266253     0.21934863    -2137.9542      798.85717      798.85717      798.85717      5.098089e+08   1.2372261     -47459964      -47459964       989.36992     -47458974      -2150.244      -2098.816      -2164.8027      7.0961376     -57.711369     -22.840785      6972.958     
     13600   367.8666       0.068          0.21592286     0.21088652     0.217423      -2119.3598      799.23134      799.23134      799.23134      5.105256e+08   1.2354893     -47394588      -47394588       985.78988     -47393602      -2130.993      -2081.2881     -2145.7982      5.4222132     -56.664768     -22.502158      6973.1997    
     13700   366.29558      0.0685         0.21420525     0.20934149     0.21577205    -2103.1953      799.60552      799.60552      799.60552      5.1124297e+08  1.2337557     -47373009      -47373009       981.57992     -47372027      -2114.0415     -2066.0398     -2129.5046      5.2434813     -55.118866     -22.417913      7317.0189    
     13800   364.69457      0.069          0.21242637     0.20768024     0.21405151    -2086.218       799.97969      799.97969      799.97969      5.11961e+08    1.2320253     -47322482      -47322482       977.28964     -47321505      -2096.4853     -2049.6446     -2112.5241      5.8502497     -52.604797     -22.819219      6910.4446    
     13900   363.45258      0.0695         0.21071405     0.20596022     0.21227342    -2069.077       800.35386      800.35386      800.35386      5.1267971e+08  1.2302981     -47272111      -47272111       973.9614      -47271137      -2079.586      -2032.6693     -2094.9758      5.974302      -51.031221     -21.908313      6975.8133    
     14000   362.3992       0.07           0.20905526     0.20433002     0.21056889    -2052.6496      800.72803      800.72803      800.72803      5.133991e+08   1.2285742     -47250991      -47250991       971.13861     -47250019      -2063.215      -2016.5805     -2078.1534      5.6800692     -49.84956      -21.239413      5880.5414    
     14100   361.3314       0.0705         0.20733388     0.2027164      0.20881698    -2035.915       801.1022       801.1022       801.1022       5.1411915e+08  1.2268535     -47222744      -47222744       968.27718     -47221776      -2046.2263     -2000.6553     -2060.8633      5.0900785     -48.182623     -20.010823      6966.0867    
     14200   360.21951      0.071          0.20554128     0.20119952     0.20692164    -2018.7925      801.47638      801.47638      801.47638      5.1483988e+08  1.2251361     -47165541      -47165541       965.2976      -47164576      -2028.5347     -1985.6849     -2042.1578      3.744236      -45.449944     -18.424576      6989.354     
     14300   359.04936      0.0715         0.20399968     0.19978189     0.20534525    -2003.8714      801.85055      801.85055      801.85055      5.1556128e+08  1.2234218     -47144858      -47144858       962.16188     -47143896      -2013.3203     -1971.6939     -2026.6         2.6110424     -43.36746      -17.791529      7318.325     
     14400   358.00266      0.072          0.20225657     0.19828519     0.20366782    -1987.695       802.22472      802.22472      802.22472      5.1628335e+08  1.2217107     -47080670      -47080670       959.357       -47079711      -1996.1171     -1956.9227     -2010.0451      1.6045576     -41.917196     -17.128529      6997.1808    
     14500   356.91429      0.0725         0.20077082     0.19685207     0.20223536    -1973.3802      802.59889      802.59889      802.59889      5.170061e+08   1.2200028     -47060267      -47060267       956.44043     -47059311      -1981.454      -1942.7789     -1995.9078      1.7394594     -40.832771     -17.128281      7239.298     
     14600   355.51987      0.073          0.1991178      0.19530412     0.20059684    -1957.4595      802.97306      802.97306      802.97306      5.1772952e+08  1.2182981     -47003636      -47003636       952.70375     -47002683      -1965.1399     -1927.5018     -1979.7369      1.3620659     -38.851826     -17.116393      7010.7358    
     14700   354.33057      0.0735         0.19748706     0.19371045     0.1988161     -1940.9939      803.34724      803.34724      803.34724      5.1845362e+08  1.2165966     -46939869      -46939869       949.51672     -46938920      -1949.0457     -1911.7735     -1962.1624      1.209457      -37.997062     -16.395264      7006.6185    
     14800   353.46276      0.074          0.19605048     0.19238181     0.19720709    -1926.6038      803.72141      803.72141      803.72141      5.1917839e+08  1.2148982     -46919883      -46919883       947.19121     -46918936      -1934.8678     -1898.6608     -1946.2827      1.0095171     -36.53057      -15.354742      7344.9827    
     14900   352.51659      0.0745         0.19463665     0.19109095     0.19568829    -1912.7096      804.09558      804.09558      804.09558      5.1990384e+08  1.213203      -46892747      -46892747       944.65571     -46891802      -1920.9144     -1885.9211     -1931.2933      0.672074      -34.810922     -14.105976      7016.3553    
     15000   351.45328      0.075          0.19315461     0.18985254     0.19428594    -1899.1466      804.46975      804.46975      804.46975      5.2062996e+08  1.211511      -46858461      -46858461       941.8063      -46857519      -1906.2878     -1873.6989     -1917.4532     -0.57407765    -32.67241      -13.325679      5179.6811    
     15100   350.18319      0.0755         0.19177364     0.18863639     0.19301604    -1886.4251      804.84392      804.84392      804.84392      5.2135676e+08  1.209822      -46838845      -46838845       938.40279     -46837906      -1892.6587     -1861.6965     -1904.9202     -0.69246529    -30.83076      -13.169548      7343.2238    
     15200   348.89521      0.076          0.19022903     0.18719889     0.191613      -1871.9991      805.2181       805.2181       805.2181       5.2208424e+08  1.2081363     -46775713      -46775713       934.95134     -46774779      -1877.4146     -1847.5094     -1891.0733     -0.66576991    -29.435544     -13.721071      6931.8179    
     15300   347.91074      0.0765         0.1887787      0.18570343     0.19018703    -1857.6171      805.59227      805.59227      805.59227      5.2281239e+08  1.2064536     -46719971      -46719971       932.31318     -46719039      -1863.1009     -1832.7504     -1877          -1.091532      -27.980716     -14.078146      7013.1042    
     15400   347.09453      0.077          0.18754044     0.18449109     0.1887849     -1844.9426      805.96644      805.96644      805.96644      5.2354121e+08  1.2047741     -46700721      -46700721       930.12595     -46699791      -1850.8803     -1820.7854     -1863.1621     -0.94861379    -27.123234     -13.559152      7355.4696    
     15500   346.30494      0.0775         0.18613859     0.18316368     0.18734141    -1831.2153      806.34061      806.34061      806.34061      5.2427072e+08  1.2030977     -46630663      -46630663       928.01006     -46629735      -1837.045      -1807.685      -1848.9159     -2.2500629     -26.267094     -12.075799      7027.9339    
     15600   345.43623      0.078          0.18499886     0.18216176     0.18614452    -1820.2324      806.71478      806.71478      806.71478      5.250009e+08   1.2014244     -46611637      -46611637       925.68212     -46610712      -1825.7968     -1797.7968     -1837.1036     -2.2909418     -25.454042     -11.000133      7377.2416    
     15700   344.20593      0.0785         0.18357931     0.18100118     0.18484962    -1807.4845      807.08896      807.08896      807.08896      5.2573176e+08  1.1997542     -46541808      -46541808       922.38523     -46540886      -1811.7869     -1786.3428     -1824.3239     -3.8156861     -24.386662     -10.84783       7040.1256    
     15800   343.32537      0.079          0.18240628     0.17988337     0.18355863    -1795.7012      807.46313      807.46313      807.46313      5.264633e+08   1.1980871     -46501188      -46501188       920.02555     -46500268      -1800.21       -1775.3108     -1811.5829     -4.3440975     -21.593925     -11.640521      7031.7223    
     15900   342.64793      0.0795         0.18132763     0.17884913     0.18240097    -1784.9419      807.8373       807.8373       807.8373       5.2719551e+08  1.1964231     -46482489      -46482489       918.21018     -46481570      -1789.5645     -1765.1037     -1800.1576     -4.3193731     -19.977433     -12.201866      7303.9505    
     16000   341.93692      0.08           0.18011243     0.177691       0.18120436    -1773.1978      808.21147      808.21147      808.21147      5.2792841e+08  1.1947622     -46434785      -46434785       916.30486     -46433869      -1777.5715     -1753.6738     -1788.348      -4.968085      -19.401523     -11.576136      5565.3221    
     16100   341.18042      0.0805         0.17893205     0.1766403      0.18006626    -1762.114       808.58564      808.58564      808.58564      5.2866198e+08  1.1931043     -46401722      -46401722       914.27764     -46400808      -1765.922      -1743.3042     -1777.1158     -5.2952363     -19.222713     -10.618327      7030.8858    
     16200   340.3008       0.081          0.17784341     0.17565317     0.17899367    -1751.7567      808.95982      808.95982      808.95982      5.2939623e+08  1.1914495     -46383298      -46383298       911.92048     -46382386      -1755.178      -1733.562      -1766.5302     -5.3106575     -18.430697     -9.841142       7385.3815    
     16300   339.54139      0.0815         0.17674989     0.17464634     0.177941      -1741.3841      809.33399      809.33399      809.33399      5.3013117e+08  1.1897978     -46350415      -46350415       909.88545     -46349505      -1744.3858     -1723.6254     -1756.1411     -4.8440159     -17.015635     -9.15432        7041.6555    
     16400   338.90723      0.082          0.17582259     0.17378687     0.17691828    -1732.1416      809.70816      809.70816      809.70816      5.3086678e+08  1.1881491     -46332172      -46332172       908.18606     -46331264      -1735.234      -1715.143      -1746.0477     -4.9752052     -15.931854     -8.6178966      7387.0683    
     16500   338.3622       0.0825         0.17478639     0.17295868     0.17579597    -1722.3161      810.08233      810.08233      810.08233      5.3160307e+08  1.1865035     -46292193      -46292193       906.7255      -46291287      -1725.0075     -1706.9694     -1734.9713     -4.5931323     -16.196195     -8.6690187      7055.9903    
     16600   337.92675      0.083          0.17367362     0.17208867     0.17475944    -1712.3834      810.4565       810.4565       810.4565       5.3234004e+08  1.1848609     -46245027      -46245027       905.55862     -46244122      -1714.0254     -1698.3831     -1724.7415     -4.16216       -15.982595     -8.9503941      6987.8741    
     16700   337.50885      0.0835         0.17278544     0.17125338     0.17382759    -1703.648       810.83068      810.83068      810.83068      5.330777e+08   1.1832213     -46227038      -46227038       904.43874     -46226134      -1705.2597     -1690.1395     -1715.545      -3.9009046     -15.471492     -9.1309058      7398.85      
     16800   336.94339      0.084          0.17191799     0.17034411     0.1727168     -1694.1489      811.20485      811.20485      811.20485      5.3381603e+08  1.1815848     -46180036      -46180036       902.92346     -46179133      -1696.6986     -1681.1656     -1704.5823     -4.2429165     -13.760517     -9.1743644      7059.6665    
     16900   336.21869      0.0845         0.17082438     0.16933801     0.17167007    -1683.7979      811.57902      811.57902      811.57902      5.3455505e+08  1.1799513     -46104005      -46104005       900.98145     -46103104      -1685.9055     -1671.2362     -1694.2518     -4.6620196     -11.157538     -8.6065988      7064.3795    
     17000   335.38812      0.085          0.16999067     0.16858212     0.17079403    -1675.6866      811.95319      811.95319      811.95319      5.3529475e+08  1.1783207     -46086248      -46086248       898.75572     -46085349      -1677.6775     -1663.7762     -1685.606      -4.5665852     -9.9693858     -8.0507441      7407.9583    
     17100   334.74972      0.0855         0.16905366     0.16782972     0.16970504    -1666.5463      812.32736      812.32736      812.32736      5.3603513e+08  1.1766932     -46039476      -46039476       897.04497     -46038579      -1668.4299     -1656.3505     -1674.8586     -3.8278215     -9.9145613     -7.805056       7054.3169    
     17200   334.34841      0.086          0.16816265     0.16706942     0.16878275    -1658.0799      812.70154      812.70154      812.70154      5.3677619e+08  1.1750687     -46007327      -46007327       895.96956     -46006432      -1659.6363     -1648.847      -1665.7563     -3.5603008     -9.8352012     -8.4018162      7069.7909    
     17300   333.96111      0.0865         0.16742998     0.16633844     0.16800706    -1650.713       813.07571      813.07571      813.07571      5.3751793e+08  1.1734472     -45989797      -45989797       894.9317      -45988902      -1652.4054     -1641.6327     -1658.1008     -3.6847194     -10.096832     -8.785557       7342.4253    
     17400   333.5371       0.087          0.16668892     0.1655873      0.1671668     -1643.0398      813.44988      813.44988      813.44988      5.3826036e+08  1.1718286     -45950496      -45950496       893.79545     -45949602      -1645.0918     -1634.2196     -1649.808      -3.6859888     -9.2242794     -8.814101       7075.6881    
     17500   333.08992      0.0875         0.16599436     0.16488744     0.16647244    -1636.1682      813.82405      813.82405      813.82405      5.3900347e+08  1.1702131     -45933079      -45933079       892.59713     -45932186      -1638.237      -1627.3125     -1642.9553     -3.8341172     -8.3644254     -8.4027786      5177.8147    
     17600   332.77971      0.088          0.16517628     0.16403271     0.16569001    -1628.0911      814.19822      814.19822      814.19822      5.3974727e+08  1.1686005     -45886636      -45886636       891.76584     -45885744      -1630.1632     -1618.877      -1635.2333     -4.1603805     -7.3991879     -7.8917391      7067.6013    
     17700   332.5179       0.0885         0.16437492     0.16325718     0.16489988    -1620.3042      814.5724       814.5724       814.5724       5.4049175e+08  1.1669908     -45847535      -45847535       891.06426     -45846643      -1622.2543     -1611.2231     -1627.4352     -3.9279569     -7.1741102     -6.534681       7080.5634    
     17800   332.26903      0.089          0.16368994     0.16255674     0.16418708    -1613.4016      814.94657      814.94657      814.94657      5.4123691e+08  1.1653841     -45830320      -45830320       890.39735     -45829430      -1615.4941     -1604.3103     -1620.4005     -3.8456473     -6.985618      -6.2745876      7420.9493    
     17900   331.98245      0.0895         0.16283706     0.16191832     0.16343357    -1606.0168      815.32074      815.32074      815.32074      5.4198276e+08  1.1637804     -45798615      -45798615       889.62939     -45797726      -1607.0768     -1598.0096     -1612.9639     -3.8333748     -6.9392757     -7.105094       7084.9182    
     18000   331.7718       0.09           0.16201669     0.16114085     0.16265927    -1598.213       815.69491      815.69491      815.69491      5.4272929e+08  1.1621796     -45745145      -45745145       889.06488     -45744256      -1598.9804     -1590.3366     -1605.3222     -4.8107639     -6.4985659     -8.1549184      5455.8109    
     18100   331.6887       0.0905         0.16137608     0.16063168     0.16198231    -1592.2035      816.06908      816.06908      816.06908      5.4347651e+08  1.1605817     -45728107      -45728107       888.84222     -45727218      -1592.6581     -1585.3114     -1598.6411     -4.8477483     -6.1126275     -8.1705334      7426.3567    
     18200   331.37806      0.091          0.16066122     0.15997745     0.1612301     -1585.225       816.44326      816.44326      816.44326      5.4422441e+08  1.1589868     -45674755      -45674755       888.00976     -45673867      -1585.603      -1578.8547     -1591.2174     -5.366889      -5.4819832     -7.6112225      7075.8243    
     18300   331.07058      0.0915         0.16019609     0.15929658     0.16068563    -1579.6638      816.81743      816.81743      816.81743      5.44973e+08    1.1573948     -45657822      -45657822       887.18579     -45656935      -1581.0125     -1572.135      -1585.8439     -4.8991286     -5.3906907     -6.8828644      7436.0975    
     18400   330.6979       0.092          0.1596394      0.15851349     0.160107      -1573.3527      817.1916       817.1916       817.1916       5.4572227e+08  1.1558057     -45626388      -45626388       886.18713     -45625502      -1575.5184     -1564.4065     -1580.1333     -4.7938976     -4.9186703     -6.8382733      7094.0757    
     18500   330.42924      0.0925         0.15882825     0.15780851     0.15941591    -1566.0915      817.56577      817.56577      817.56577      5.4647224e+08  1.1542195     -45580460      -45580460       885.46718     -45579574      -1567.5129     -1557.4489     -1573.3127     -5.6983618     -4.2575175     -7.5784658      7094.3651    
     18600   330.18781      0.093          0.15813848     0.15726697     0.15874219    -1559.8245      817.93994      817.93994      817.93994      5.4722289e+08  1.1526362     -45563690      -45563690       884.82019     -45562805      -1560.7054     -1552.1043     -1566.6637     -6.0056537     -3.7500322     -7.7537869      7438.0206    
     18700   329.78797      0.0935         0.15748312     0.15657608     0.15792246    -1552.6989      818.31412      818.31412      818.31412      5.4797422e+08  1.1510558     -45503329      -45503329       883.74873     -45502445      -1554.2375     -1545.2858     -1558.5735     -5.9316519     -3.4633326     -7.4821243      7021.9655    
     18800   329.55361      0.094          0.1568427      0.15610571     0.15722678    -1546.7561      818.68829      818.68829      818.68829      5.4872624e+08  1.1494783     -45457563      -45457563       883.1207      -45456679      -1547.9171     -1540.6435     -1551.7077     -5.2595452     -2.752023      -6.4696593      7109.4519    
     18900   329.33805      0.0945         0.15635596     0.15562308     0.15670267    -1541.8429      819.06246      819.06246      819.06246      5.4947895e+08  1.1479037     -45440938      -45440938       882.54306     -45440055      -1543.1133     -1535.8803     -1546.5351     -5.1166493     -3.1736747     -6.0869784      7300.2884    
     19000   329.253        0.095          0.15572135     0.15500865     0.1559409     -1535.2279      819.43663      819.43663      819.43663      5.5023235e+08  1.1463319     -45387994      -45387994       882.31515     -45387112      -1536.8503     -1529.8165     -1539.017      -4.9980155     -2.9546012     -6.3965735      7094.9384    
     19100   329.21521      0.0955         0.15518456     0.15440055     0.15537775    -1529.6089      819.8108       819.8108       819.8108       5.5098644e+08  1.144763      -45371473      -45371473       882.21387     -45370591      -1531.5525     -1523.815      -1533.4592     -5.1135687     -3.1297626     -6.8259262      7463.3176    
     19200   329.17936      0.096          0.15459593     0.15379619     0.15478836    -1523.7453      820.18498      820.18498      820.18498      5.5174122e+08  1.143197      -45347728      -45347728       882.1178      -45346846      -1525.7432     -1517.8503     -1527.6424     -5.3269489     -2.4376388     -7.0265613      7097.3061    
     19300   328.98982      0.0965         0.15396485     0.15319502     0.15421781    -1517.8146      820.55915      820.55915      820.55915      5.5249668e+08  1.1416338     -45309477      -45309477       881.60989     -45308595      -1519.5149     -1511.9173     -1522.0115     -5.8371244     -2.423567      -6.9296269      7117.3724    
     19400   328.81889      0.097          0.15348612     0.15276924     0.15370571    -1513.1543      820.93332      820.93332      820.93332      5.5325284e+08  1.1400735     -45293087      -45293087       881.15185     -45292206      -1514.7902     -1507.7151     -1516.9575     -6.0717825     -1.9200316     -6.5240192      7374.7874    
     19500   328.58516      0.0975         0.15293011     0.15215653     0.15311961    -1507.3814      821.30749      821.30749      821.30749      5.5400968e+08  1.138516      -45240370      -45240370       880.52551     -45239489      -1509.3029     -1501.6682     -1511.173      -6.4336562     -1.2423016     -6.9560075      7119.1149    
     19600   328.49208      0.098          0.15245679     0.15170006     0.15259124    -1502.5844      821.68166      821.68166      821.68166      5.5476721e+08  1.1369614     -45216788      -45216788       880.27607     -45215907      -1504.6316     -1497.1632     -1505.9584     -6.1428058     -1.0047975     -6.682918       7123.1941    
     19700   328.37288      0.0985         0.15191513     0.15119936     0.15215788    -1497.7297      822.05584      822.05584      822.05584      5.5552544e+08  1.1354096     -45200522      -45200522       879.95664     -45199642      -1499.2858     -1492.2216     -1501.6816     -6.094949      -1.0846212     -6.9907525      7474.5141    
     19800   328.19161      0.099          0.15124429     0.15062115     0.15154033    -1491.589       822.43001      822.43001      822.43001      5.5628435e+08  1.1338606     -45162485      -45162485       879.47087     -45161605      -1492.6651     -1486.5152     -1495.5868     -6.2926503     -1.0331942     -7.1364148      7130.74      
     19900   328.08918      0.0995         0.1507497      0.15009379     0.15095639    -1486.306       822.80418      822.80418      822.80418      5.5704396e+08  1.1323144     -45146315      -45146315       879.19639     -45145436      -1487.7838     -1481.3105     -1489.8237     -6.4689036     -1.0922199     -6.7673149      7476.5545    
     20000   328.07478      0.1            0.15031823     0.14952362     0.15030867    -1480.8801      823.17835      823.17835      823.17835      5.5780425e+08  1.1307711     -45101095      -45101095       879.1578      -45100216      -1483.5256     -1475.6834     -1483.4313     -6.299961      -0.50255651    -5.921005       4244.2946    
     20100   328.12631      0.1005         0.14986192     0.14899464     0.14977844    -1475.8944      823.55252      823.55252      823.55252      5.5856524e+08  1.1292305     -45055899      -45055899       879.29589     -45055020      -1479.0221     -1470.4628     -1478.1983     -6.5488376     -0.047777595   -5.8787558      6578.9725    
     20200   328.17577      0.101          0.14945089     0.14856859     0.14941418    -1471.9423      823.9267       823.9267       823.9267       5.5932692e+08  1.1276927     -45039834      -45039834       879.42844     -45038954      -1474.9656     -1466.2579     -1474.6033     -6.5456714      0.32003074    -5.8937691      7470.1668    
     20300   327.9682       0.1015         0.1488677      0.14800458     0.14898935    -1466.7707      824.30087      824.30087      824.30087      5.6008929e+08  1.1261578     -44994712      -44994712       878.87221     -44993833      -1469.21       -1460.6916     -1470.4106     -6.305863      -0.15886681    -6.010707       7139.9828    
     20400   327.81114      0.102          0.14833111     0.14737401     0.14854957    -1461.4843      824.67504      824.67504      824.67504      5.6085236e+08  1.1246256     -44956906      -44956906       878.45132     -44956027      -1463.9143     -1454.4684     -1466.0702     -6.6708156      0.074244763   -6.1790789      7129.8131    
     20500   327.79531      0.1025         0.14785979     0.14694835     0.14805879    -1456.9189      825.04921      825.04921      825.04921      5.6161611e+08  1.1230962     -44940972      -44940972       878.40891     -44940094      -1459.2627     -1450.2674     -1461.2267     -6.3444473      0.029555757   -6.1299717      7486.2016    
     20600   327.9418       0.103          0.14744254     0.14648265     0.14754533    -1452.3251      825.42338      825.42338      825.42338      5.6238056e+08  1.1215695     -44917808      -44917808       878.80147     -44916929      -1455.1447     -1445.6713     -1456.1592     -6.1971065     -0.17637704    -6.0463624      7134.774     
     20700   328.03267      0.1035         0.14701334     0.14604623     0.14694815    -1447.5128      825.79756      825.79756      825.79756      5.6314571e+08  1.1200457     -44887396      -44887396       879.04497     -44886517      -1450.9088     -1441.3643     -1450.2654     -6.723452      -0.38221921    -6.2993567      7158.583     
     20800   327.98848      0.104          0.14658421     0.1455959      0.14648323    -1443.0902      826.17173      826.17173      826.17173      5.6391154e+08  1.1185245     -44871560      -44871560       878.92656     -44870681      -1446.6736     -1436.9198     -1445.6771     -7.2738058      0.013576366   -6.1164341      7367.5924    
     20900   327.81343      0.1045         0.14595985     0.1450697      0.1459185     -1437.4473      826.5459       826.5459       826.5459       5.6467808e+08  1.1170062     -44819387      -44819387       878.45747     -44818508      -1440.5117     -1431.7266     -1440.1036     -7.1798883      0.55726168    -6.4432079      7132.7714    
     21000   327.70442      0.105          0.14549091     0.14462454     0.1455237     -1433.1414      826.92007      826.92007      826.92007      5.654453e+08   1.1154906     -44803628      -44803628       878.16533     -44802750      -1435.8837     -1427.3332     -1436.2072     -6.5031302      0.62726856    -6.6552242      7457.3846    
     21100   327.73591      0.1055         0.14500972     0.14422525     0.14509482    -1428.8339      827.29424      827.29424      827.29424      5.6621322e+08  1.1139777     -44787916      -44787916       878.24974     -44787038      -1431.1347     -1423.3925     -1431.9745     -6.2156521      0.30535689    -6.8450613      7130.442     
     21200   327.9515       0.106          0.14452103     0.14380011     0.14458049    -1424.1357      827.66842      827.66842      827.66842      5.6698184e+08  1.1124676     -44757696      -44757696       878.82746     -44756817      -1426.3117     -1419.1968     -1426.8985     -6.8180767      0.1713856     -6.3504289      7153.8603    
     21300   328.27762      0.1065         0.14415281     0.14341193     0.14414609    -1420.2182      828.04259      828.04259      828.04259      5.6775115e+08  1.1109602     -44742056      -44742056       879.70138     -44741176      -1422.6776     -1415.3657     -1422.6113     -7.4188868      0.55211954    -6.0549069      7478.6076    
     21400   328.35296      0.107          0.14383119     0.14300257     0.14377208    -1416.5831      828.41676      828.41676      828.41676      5.6852115e+08  1.1094555     -44726438      -44726438       879.90327     -44725558      -1419.5035     -1411.3256     -1418.9201     -7.5682979      1.2345528     -5.5707172      7158.4585    
     21500   328.35007      0.1075         0.14339586     0.14249347     0.14322941    -1411.6909      828.79093      828.79093      828.79093      5.6929186e+08  1.1079535     -44674469      -44674469       879.89553     -44673590      -1415.2071     -1406.3012     -1413.5643     -6.8544545      2.0977853     -5.2891091      7089.0352    
     21600   328.31006      0.108          0.14302166     0.14215651     0.14288065    -1408.204       829.1651       829.1651       829.1651       5.7006325e+08  1.1064542     -44658909      -44658909       879.78831     -44658029      -1411.514      -1402.9757     -1410.1223     -6.4890201      1.8312588     -5.2455652      7481.2428    
     21700   328.29389      0.1085         0.14252978     0.14181863     0.14238905    -1403.8571      829.53927      829.53927      829.53927      5.7083535e+08  1.1049577     -44614283      -44614283       879.74496     -44613403      -1406.6596     -1399.641      -1405.2707     -6.7188378      1.2254326     -5.6126301      7167.2175    
     21800   328.23654      0.109          0.14215245     0.14146111     0.14201299    -1400.2025      829.91345      829.91345      829.91345      5.7160814e+08  1.1034638     -44598793      -44598793       879.59129     -44597913      -1402.9356     -1396.1126     -1401.5592     -6.7256966      1.054652      -5.6648802      7479.6207    
[...]
    244700   308.40079      1.2235         5.8828254e-05  8.39991e-05    5.9835653e-05 -0.66670945     1663.9428      1663.9428      1663.9428      4.6069677e+09  0.13691194    -208929.33     -208929.33      826.43646     -208102.9      -0.58058972    -0.82900666    -0.59053198     0.10853906    -0.20220618    -0.039447894    29088.912    
    244800   308.43702      1.224          5.8036562e-05  8.3772022e-05  5.9528183e-05 -0.66234646     1664.317       1664.317       1664.317       4.6100763e+09  0.13681962    -208947.22     -208947.22      826.53357     -208120.69     -0.57277633    -0.82676558    -0.58749749     0.10634058    -0.20082071    -0.040904798    31471.857    
    244900   308.40478      1.2245         5.7113217e-05  8.3413717e-05  5.8932508e-05 -0.65617054     1664.6911      1664.6911      1664.6911      4.6131863e+09  0.13672738    -208964.69     -208964.69      826.44717     -208138.24     -0.56366362    -0.82322938    -0.58161863     0.10299254    -0.19789871    -0.044122773    29079.058    
    245000   308.27722      1.225          5.6168737e-05  8.313981e-05   5.8337202e-05 -0.65020396     1665.0653      1665.0653      1665.0653      4.6162977e+09  0.13663523    -208981.72     -208981.72      826.10533     -208155.62     -0.55434233    -0.82052613    -0.57574342     0.099915879   -0.19498197    -0.046714565    13115.876    
    245100   308.13627      1.2255         5.5264731e-05  8.2984375e-05  5.7861416e-05 -0.64515346     1665.4395      1665.4395      1665.4395      4.6194105e+09  0.13654316    -208998.43     -208998.43      825.72763     -208172.7      -0.54542049    -0.81899211    -0.57104778     0.097396105   -0.19239015    -0.04825685     31231.759    
    245200   308.04206      1.226          5.4434639e-05  8.2863024e-05  5.7473681e-05 -0.6407479      1665.8136      1665.8136      1665.8136      4.6225248e+09  0.13645117    -209014.94     -209014.94      825.47517     -208189.47     -0.53722812    -0.81779446    -0.56722113     0.094999789   -0.18960368    -0.049667706    28572.457    
    245300   308.00887      1.2265         5.3684916e-05  8.2711098e-05  5.7181693e-05 -0.63682115     1666.1878      1666.1878      1666.1878      4.6256404e+09  0.13635926    -209031.34     -209031.34      825.38622     -208205.95     -0.52982893    -0.81629507    -0.56433944     0.09235355    -0.18627148    -0.051599749    31457.699    
    245400   308.01365      1.227          5.2988472e-05  8.2480076e-05  5.6970057e-05 -0.63307379     1666.562       1666.562       1666.562       4.6287574e+09  0.13626744    -209047.61     -209047.61      825.39904     -208222.21     -0.52295556    -0.81401506    -0.56225075     0.089113481   -0.18227071    -0.054327461    29040.491    
    245500   308.01888      1.2275         5.232316e-05   8.2197459e-05  5.6793383e-05 -0.62937413     1666.9362      1666.9362      1666.9362      4.6318758e+09  0.13617569    -209063.71     -209063.71      825.41306     -208238.3      -0.51638944    -0.81122585    -0.56050711     0.085404573   -0.17792483    -0.057350611    29166.211    
    245600   308.00357      1.228          5.1602413e-05  8.1949021e-05  5.6643763e-05 -0.62569355     1667.3103      1667.3103      1667.3103      4.6349956e+09  0.13608403    -209079.58     -209079.58      825.37202     -208254.21     -0.50927622    -0.80877396    -0.55903047     0.081593305   -0.17370765    -0.059844403    31447.114    
    245700   307.95343      1.2285         5.0741244e-05  8.1775824e-05  5.6439187e-05 -0.62161775     1667.6845      1667.6845      1667.6845      4.6381168e+09  0.13599246    -209095.14     -209095.14      825.23766     -208269.9      -0.50077714    -0.80706464    -0.55701147     0.077813025   -0.1697229     -0.061574017    29099.129    
    245800   307.85877      1.229          4.9822387e-05  8.1683755e-05  5.6132851e-05 -0.61728429     1668.0587      1668.0587      1668.0587      4.6412394e+09  0.13590096    -209110.43     -209110.43      824.984       -208285.44     -0.49170873    -0.80615598    -0.55398817     0.074313383   -0.16560249    -0.063161056    29242.87     
    245900   307.75157      1.2295         4.9019548e-05  8.1659714e-05  5.579773e-05  -0.61346161     1668.4328      1668.4328      1668.4328      4.6443634e+09  0.13580955    -209125.55     -209125.55      824.69672     -208300.85     -0.48378533    -0.80591872    -0.55068077     0.071347148   -0.1611142     -0.065149999    31302.049    
    246000   307.6826       1.23           4.8417315e-05  8.1652392e-05  5.5542251e-05 -0.61061587     1668.807       1668.807       1668.807       4.6474888e+09  0.13571822    -209140.58     -209140.58      824.5119      -208316.06     -0.47784175    -0.80584645    -0.5481594      0.068724674   -0.15642887    -0.067504038    14506.975    
    246100   307.68381      1.2305         4.7941533e-05  8.1595324e-05  5.5443369e-05 -0.60853763     1669.1812      1669.1812      1669.1812      4.6506156e+09  0.13562697    -209155.54     -209155.54      824.51514     -208331.03     -0.47314614    -0.80528324    -0.5471835      0.065885796   -0.15177577    -0.070014398    28497.165    
    246200   307.73312      1.231          4.7468477e-05  8.1412933e-05  5.5421825e-05 -0.6063105      1669.5554      1669.5554      1669.5554      4.6537439e+09  0.1355358     -209170.47     -209170.47      824.64728     -208345.83     -0.46847744    -0.80348318    -0.54697088     0.062139561   -0.1476665     -0.071987769    31228.16     
    246300   307.77265      1.2315         4.6943434e-05  8.1103995e-05  5.5368245e-05 -0.60339065     1669.9295      1669.9295      1669.9295      4.6568735e+09  0.13544471    -209185.39     -209185.39      824.75321     -208360.64     -0.46329568    -0.8004342     -0.54644209     0.057433031   -0.14441767    -0.072952504    29201.616    
    246400   307.75966      1.232          4.6417611e-05  8.0760495e-05  5.5190787e-05 -0.59994701     1670.3037      1670.3037      1670.3037      4.6600045e+09  0.13535371    -209200.29     -209200.29      824.71842     -208375.58     -0.4581062     -0.79704411    -0.54469072     0.052543131   -0.1419452     -0.072971554    31343.57     
    246500   307.69945      1.2325         4.5978929e-05  8.049017e-05   5.4957894e-05 -0.5968484      1670.6779      1670.6779      1670.6779      4.6631369e+09  0.13526279    -209215.21     -209215.21      824.55706     -208390.65     -0.45377675    -0.79437622    -0.54239225     0.048374382   -0.13977442    -0.072662835    29230.399    
    246600   307.65488      1.233          4.5708019e-05  8.0398931e-05  5.4859419e-05 -0.59533307     1671.0521      1671.0521      1671.0521      4.6662708e+09  0.13517195    -209230.19     -209230.19      824.43761     -208405.75     -0.45110308    -0.79347576    -0.54142037     0.045760453   -0.13723625    -0.072899855    29112.505    
    246700   307.69748      1.2335         4.5591321e-05  8.0460084e-05  5.5053373e-05 -0.5957884      1671.4262      1671.4262      1671.4262      4.669406e+09   0.13508119    -209245.32     -209245.32      824.55177     -208420.77     -0.44995135    -0.79407929    -0.54333455     0.044442976   -0.1341057     -0.073987188    30002.325    
    246800   307.84343      1.234          4.5547633e-05  8.0550968e-05  5.5498872e-05 -0.59740924     1671.8004      1671.8004      1671.8004      4.6725426e+09  0.13499051    -209260.61     -209260.61      824.94289     -208435.67     -0.44952018    -0.79497625    -0.54773128     0.043397211   -0.13053888    -0.075651581    29221.285    
    246900   308.0268       1.2345         4.5479725e-05  8.0531995e-05  5.5958829e-05 -0.59863656     1672.1746      1672.1746      1672.1746      4.6756807e+09  0.13489991    -209276.05     -209276.05      825.43427     -208450.61     -0.44884998    -0.794789      -0.5522707      0.041501647   -0.12702826    -0.077126102    29109.734    
    247000   308.13708      1.235          4.532498e-05   8.0319126e-05  5.619134e-05  -0.59819211     1672.5487      1672.5487      1672.5487      4.6788201e+09  0.13480939    -209291.59     -209291.59      825.7298      -208465.86     -0.44732277    -0.79268814    -0.55456541     0.038142193   -0.12401043    -0.077826568    31383.173    
    247100   308.10488      1.2355         4.5123279e-05  7.9991247e-05  5.6128819e-05 -0.59624425     1672.9229      1672.9229      1672.9229      4.681961e+09   0.13471896    -209307.21     -209307.21      825.64351     -208481.56     -0.44533214    -0.78945222    -0.55394838     0.033983642   -0.12140628    -0.077856262    28713.989    
    247200   307.96273      1.236          4.493962e-05   7.9672511e-05  5.5902344e-05 -0.59384645     1673.2971      1673.2971      1673.2971      4.6851032e+09  0.1346286     -209322.9      -209322.9       825.26259     -208497.64     -0.44351957    -0.78630655    -0.55171324     0.030023778   -0.11889098    -0.077710392    31358.55     
    247300   307.81286      1.2365         4.4839153e-05  7.9471942e-05  5.566428e-05  -0.59207295     1673.6713      1673.6713      1673.6713      4.6882469e+09  0.13453833    -209338.66     -209338.66      824.86096     -208513.8      -0.44252803    -0.78432708    -0.54936373     0.027085164   -0.11603613    -0.077900621    29241.279    
    247400   307.74979      1.237          4.4823536e-05  7.9387546e-05  5.551258e-05  -0.59124488     1674.0454      1674.0454      1674.0454      4.6913919e+09  0.13444814    -209354.51     -209354.51      824.69196     -208529.82     -0.44237391    -0.78349416    -0.54786657     0.025028415   -0.11281306    -0.078338554    29201.821    
    247500   307.80054      1.2375         4.4864803e-05  7.9357741e-05  5.547821e-05  -0.59116952     1674.4196      1674.4196      1674.4196      4.6945384e+09  0.13435802    -209370.47     -209370.47      824.82796     -208545.64     -0.44278117    -0.78320001    -0.54752737     0.02325602    -0.10941876    -0.078631382    13257.425    
    247600   307.92939      1.238          4.4926196e-05  7.9308642e-05  5.5568806e-05 -0.591508       1674.7938      1674.7938      1674.7938      4.6976863e+09  0.13426799    -209386.56     -209386.56      825.17324     -208561.39     -0.44338708    -0.78271544    -0.54842148     0.021143541   -0.10605088    -0.078524355    29047.425    
    247700   308.0714       1.2385         4.4994879e-05  7.921621e-05   5.5744331e-05 -0.5920073      1675.1679      1675.1679      1675.1679      4.7008356e+09  0.13417804    -209402.8      -209402.8       825.55379     -208577.24     -0.44406493    -0.78180321    -0.55015377     0.018609086   -0.10289028    -0.078010022    29072.48     
    247800   308.17491      1.239          4.5092378e-05  7.9112126e-05  5.5921991e-05 -0.5925701      1675.5421      1675.5421      1675.5421      4.7039863e+09  0.13408817    -209419.21     -209419.21      825.83116     -208593.38     -0.44502717    -0.78077598    -0.55190714     0.016073223   -0.10000753    -0.077238778    31436.289    
    247900   308.22208      1.2395         4.5251766e-05  7.9037248e-05  5.6032243e-05 -0.59321081     1675.9163      1675.9163      1675.9163      4.7071384e+09  0.13399838    -209435.84     -209435.84      825.95757     -208609.88     -0.4466002     -0.78003699    -0.55299524     0.013953568   -0.097388544   -0.076309542    28915.941    
    248000   308.22839      1.24           4.551659e-05   7.9024678e-05  5.6120805e-05 -0.59433201     1676.2905      1676.2905      1676.2905      4.7102919e+09  0.13390867    -209452.69     -209452.69      825.97448     -208626.71     -0.44921382    -0.77991294    -0.55386928     0.01235322    -0.094734928   -0.075222488    10969.835    
    248100   308.22551      1.2405         4.5901892e-05  7.9071617e-05  5.629892e-05  -0.59633992     1676.6646      1676.6646      1676.6646      4.7134468e+09  0.13381903    -209469.72     -209469.72      825.96678     -208643.75     -0.45301645    -0.78037618    -0.55562714     0.010996413   -0.091717788   -0.073922386    28641.871    
    248200   308.24036      1.241          4.6401436e-05  7.9164207e-05  5.6647373e-05 -0.59943422     1677.0388      1677.0388      1677.0388      4.7166031e+09  0.13372948    -209486.86     -209486.86      826.00657     -208660.85     -0.45794657    -0.78128998    -0.5590661      0.009618899   -0.088144995   -0.072408469    29099.561    
    248300   308.28149      1.2415         4.6959732e-05  7.9265276e-05  5.706472e-05  -0.60297632     1677.413       1677.413       1677.413       4.7197609e+09  0.13364001    -209504.01     -209504.01      826.11678     -208677.89     -0.46345652    -0.78228745    -0.563185       0.0082634646  -0.084487076   -0.070774633    31488.813    
    248400   308.33409      1.242          4.7513345e-05  7.9339038e-05  5.7374223e-05 -0.60605841     1677.7871      1677.7871      1677.7871      4.72292e+09    0.13355062    -209521.12     -209521.12      826.25772     -208694.87     -0.46892025    -0.78301543    -0.56623956     0.0071078893  -0.081369829   -0.069113689    28998.149    
    248500   308.37285      1.2425         4.8010616e-05  7.9356751e-05  5.7472065e-05 -0.60807446     1678.1613      1678.1613      1678.1613      4.7260806e+09  0.13346131    -209538.25     -209538.25      826.3616      -208711.89     -0.47382794    -0.78319024    -0.56720518     0.0062819002  -0.0792145     -0.0675761      29109.853    
    248600   308.39191      1.243          4.8455198e-05  7.932448e-05   5.7533198e-05 -0.60963196     1678.5355      1678.5355      1678.5355      4.7292425e+09  0.13337208    -209555.54     -209555.54      826.41268     -208729.13     -0.47821563    -0.78287175    -0.56780851     0.0056692488  -0.077590315   -0.066457558    31363.211    
    248700   308.41712      1.2435         4.8871576e-05  7.9266066e-05  5.7797509e-05 -0.61167909     1678.9097      1678.9097      1678.9097      4.7324059e+09  0.13328292    -209573.03     -209573.03      826.48023     -208746.55     -0.48232496    -0.78229525    -0.57041706     0.0051555453  -0.075830023   -0.066078781    29161.848    
    248800   308.48327      1.244          4.9286027e-05  7.9200091e-05  5.8325075e-05 -0.61456104     1679.2838      1679.2838      1679.2838      4.7355707e+09  0.13319385    -209590.63     -209590.63      826.65749     -208763.97     -0.48641527    -0.78164412    -0.57562373     0.0046739157  -0.073589135   -0.066349809    29252.271    
    248900   308.58278      1.2445         4.9697801e-05  7.9119888e-05  5.8888719e-05 -0.61750607     1679.658       1679.658       1679.658       4.7387369e+09  0.13310486    -209608.17     -209608.17      826.92417     -208781.24     -0.49047916    -0.78085258    -0.58118647     0.0041476557  -0.071118266   -0.066672772    31393.961    
    249000   308.66151      1.245          5.0080141e-05  7.8988796e-05  5.9240595e-05 -0.6194902      1680.0322      1680.0322      1680.0322      4.7419045e+09  0.13301594    -209625.68     -209625.68      827.13515     -208798.54     -0.49425257    -0.77955881    -0.58465922     0.0033461197  -0.068874204   -0.066378992    29280.168    
    249100   308.6606       1.2455         5.0407872e-05  7.8777749e-05  5.9362692e-05 -0.62027572     1680.4064      1680.4064      1680.4064      4.7450735e+09  0.13292711    -209643.25     -209643.25      827.13269     -208816.11     -0.49748702    -0.77747593    -0.58586422     0.0020732807  -0.067034212   -0.065304748    31385.852    
    249200   308.57154      1.246          5.0679797e-05  7.8502646e-05  5.9388862e-05 -0.62035136     1680.7805      1680.7805      1680.7805      4.7482439e+09  0.13283835    -209660.92     -209660.92      826.89403     -208834.03     -0.50017071    -0.77476088    -0.58612249     0.00046393529 -0.065497417   -0.06378401     28712.621    
    249300   308.44736      1.2465         5.0945647e-05  7.8261193e-05  5.9456064e-05 -0.6206527      1681.1547      1681.1547      1681.1547      4.7514158e+09  0.13274968    -209678.63     -209678.63      826.56128     -208852.07     -0.50279444    -0.77237792    -0.58678573    -0.00069914058 -0.063910411   -0.062493206    27982.008    
    249400   308.36968      1.247          5.1253643e-05  7.8159076e-05  5.9633954e-05 -0.6219152      1681.5289      1681.5289      1681.5289      4.754589e+09   0.13266108    -209696.31     -209696.31      826.35311     -208869.96     -0.50583413    -0.77137011    -0.58854137    -0.00063991567 -0.061895732   -0.062022764    31419.094    
    249500   308.40281      1.2475         5.1609197e-05  7.8227636e-05  5.9959975e-05 -0.62438295     1681.903       1681.903       1681.903       4.7577637e+09  0.13257256    -209713.99     -209713.99      826.44189     -208887.55     -0.50934317    -0.77204674    -0.59175894     0.00079995657 -0.059377285   -0.062590795    29204.652    
    249600   308.54208      1.248          5.1933943e-05  7.8348365e-05  6.0347789e-05 -0.62712426     1682.2772      1682.2772      1682.2772      4.7609398e+09  0.13248412    -209731.72     -209731.72      826.81509     -208904.9      -0.51254817    -0.77323824    -0.59558637     0.0026023473  -0.056901859   -0.063504909    29146.846    
    249700   308.69959      1.2485         5.2142872e-05  7.8373258e-05  6.0582009e-05 -0.628664       1682.6514      1682.6514      1682.6514      4.7641173e+09  0.13239576    -209749.5      -209749.5       827.23718     -208922.26     -0.51461014    -0.77348392    -0.59789795     0.0035488443  -0.05519678    -0.063659698    31459.966    
    249800   308.75564      1.249          5.2214573e-05  7.8248299e-05  6.0492035e-05 -0.6281928      1683.0256      1683.0256      1683.0256      4.7672962e+09  0.13230747    -209767.29     -209767.29      827.38739     -208939.9      -0.51531777    -0.77225067    -0.59700996     0.0031502138  -0.054583196   -0.062434504    29149.496    
    249900   308.66431      1.2495         5.2225174e-05  7.8075323e-05  6.019497e-05  -0.62668136     1683.3997      1683.3997      1683.3997      4.7704765e+09  0.13221927    -209785.03     -209785.03      827.14263     -208957.89     -0.5154224     -0.77054352    -0.59407816     0.0021039556  -0.054505077   -0.060446146    31473.462    
    250000   308.49488      1.25           5.2275383e-05  7.7978345e-05  5.993991e-05  -0.62568842     1683.7739      1683.7739      1683.7739      4.7736582e+09  0.13213114    -209802.66     -209802.66      826.68861     -208975.97     -0.51591792    -0.76958643    -0.59156092     0.0012645936  -0.054236228   -0.058574532    8922.579     
Loop time of 19.5124 on 1 procs for 250000 steps with 900 atoms

Performance: 1106.990 ns/day, 0.022 hours/ns, 12812.390 timesteps/s
91.8% CPU use with 1 MPI tasks x 1 OpenMP threads

MPI task timing breakdown:
Section |  min time  |  avg time  |  max time  |%varavg| %total
---------------------------------------------------------------
Pair    | 9.2648     | 9.2648     | 9.2648     |   0.0 | 47.48
Neigh   | 0.56596    | 0.56596    | 0.56596    |   0.0 |  2.90
Comm    | 0.87797    | 0.87797    | 0.87797    |   0.0 |  4.50
Output  | 2.071      | 2.071      | 2.071      |   0.0 | 10.61
Modify  | 5.8785     | 5.8785     | 5.8785     |   0.0 | 30.13
Other   |            | 0.8542     |            |       |  4.38

Nlocal:            900 ave         900 max         900 min
Histogram: 1 0 0 0 0 0 0 0 0 0
Nghost:            470 ave         470 max         470 min
Histogram: 1 0 0 0 0 0 0 0 0 0
Neighs:             26 ave          26 max          26 min
Histogram: 1 0 0 0 0 0 0 0 0 0

Total # of neighbors = 26
Ave neighs/atom = 0.028888889
Neighbor list builds = 1574
Dangerous builds = 0

# restart file
write_restart ./tensile/restart/restart_${usic}_${trial}.tensile.restart
write_restart ./tensile/restart/restart_1_${trial}.tensile.restart
write_restart ./tensile/restart/restart_1_2.tensile.restart
System init for write_restart ...
Generated 0 of 1 mixed pair_coeff terms from geometric mixing rule
Total wall time: 0:00:19
