LAMMPS (23 Jun 2022 - Update 1)
OMP_NUM_THREADS environment is not set. Defaulting to 1 thread. (src/comm.cpp:98)
  using 1 OpenMP thread(s) per MPI task
###

# Read restart info
read_restart ${read_res}
read_restart ./900100/equpmf71.res
Reading restart file ...
  restart file = 23 Jun 2022, LAMMPS = 23 Jun 2022
  restoring atom style atomic from restart
  orthogonal box = (2230.2129 2230.2129 2230.2129) to (2769.7871 2769.7871 2769.7871)
  1 by 1 by 1 MPI processor grid
  restoring pair style table from restart
  1000 atoms
  read_restart CPU = 0.067 seconds

# Settings
pair_style table/pgn spline 9941
pair_coeff 1 1 N20.txt DE_GNP 147.89 75.6
pair_coeff 2 2 N100.txt DE_GNP 473.9 115.92
WARNING: 3 of 9941 force values in table DE_GNP are inconsistent with -dE/dr.
WARNING:  Should only be flagged at inflection points (src/pair_table_pgn.cpp:478)
pair_coeff 1 2 mixed_potential.txt DE_GNP 391.2 95.66
WARNING: 1562 of 9941 force values in table DE_GNP are inconsistent with -dE/dr.
WARNING:  Should only be flagged at inflection points (src/pair_table_pgn.cpp:478)

# Neighbor list
neighbor 2.0 bin
neigh_modify delay 0 every 1 check yes

# Temperature
variable T equal ${Temp}
variable T equal 300

# Deformation
reset_timestep 0
variable tmp equal "lx"
variable L0 equal ${tmp}
variable L0 equal 539.5741875287
variable strain equal "(lx - v_L0)/v_L0"
variable stp equal "step"
variable tmpe equal "temp"
variable p1 equal "v_strain"
variable p2 equal "-pxx*1.01325/10000"
variable p3 equal "-pyy*1.01325/10000"
variable p4 equal "-pzz*1.01325/10000"
variable p5 equal "lx"
variable p6 equal "ly"
variable p7 equal "lz"
variable p8 equal "press"
variable p9 equal "epair"
variable p10 equal "etotal"

# Thermo
thermo_style custom step temp v_p1 v_p2 v_p3 v_p4 press lx ly lz vol density epair pe ke etotal pxx pyy pzz pxy pxz pyz spcpu
thermo ${ts_save}
thermo 100

# Dump
dump 1 all custom 2000 ./tensile/trajectory/trajectory_${usic}_${trial}_*.tensile.custom id type x y z ix iy iz
dump 1 all custom 2000 ./tensile/trajectory/trajectory_1_${trial}_*.tensile.custom id type x y z ix iy iz
dump 1 all custom 2000 ./tensile/trajectory/trajectory_1_2_*.tensile.custom id type x y z ix iy iz
dump_modify 1 sort id
dump 2 all cfg 2500 ./tensile/trajectory/ovito/dumpten.tens_${usic}_${trial}_*.cfg mass type xs ys zs fx fy fz
dump 2 all cfg 2500 ./tensile/trajectory/ovito/dumpten.tens_1_${trial}_*.cfg mass type xs ys zs fx fy fz
dump 2 all cfg 2500 ./tensile/trajectory/ovito/dumpten.tens_1_2_*.cfg mass type xs ys zs fx fy fz
dump_modify 2 element N20 N100

fix 1 all nvt temp ${T} ${T} 100
fix 1 all nvt temp 300 ${T} 100
fix 1 all nvt temp 300 300 100
fix 2 all deform 1 x erate ${strain_rate} y erate ${strain_rate} z erate ${strain_rate} units box
fix 2 all deform 1 x erate 5e-6 y erate ${strain_rate} z erate ${strain_rate} units box
fix 2 all deform 1 x erate 5e-6 y erate 5e-6 z erate ${strain_rate} units box
fix 2 all deform 1 x erate 5e-6 y erate 5e-6 z erate 5e-6 units box
fix             def1 all print ${ts_save} "${p1} ${p2} ${p3} ${p4}" file ./tensile/tensile${N20}${N100}_${usic}_${trial}.txt screen no
fix             def1 all print 100 "${p1} ${p2} ${p3} ${p4}" file ./tensile/tensile${N20}${N100}_${usic}_${trial}.txt screen no
fix             def1 all print 100 "${p1} ${p2} ${p3} ${p4}" file ./tensile/tensile900${N100}_${usic}_${trial}.txt screen no
fix             def1 all print 100 "${p1} ${p2} ${p3} ${p4}" file ./tensile/tensile900100_${usic}_${trial}.txt screen no
fix             def1 all print 100 "${p1} ${p2} ${p3} ${p4}" file ./tensile/tensile900100_1_${trial}.txt screen no
fix             def1 all print 100 "${p1} ${p2} ${p3} ${p4}" file ./tensile/tensile900100_1_2.txt screen no

timestep       		${ts}
timestep       		1
run				${steps_tensile}
run				250000
Generated 0 of 1 mixed pair_coeff terms from geometric mixing rule
Unused restart file global fix info:
  fix style: npt, fix ID: 5
Neighbor list info ...
  update every 1 steps, delay 0 steps, check yes
  max neighbors/atom: 2000, page size: 100000
  master list distance cutoff = 117.92
  ghost atom cutoff = 117.92
  binsize = 58.96, bins = 10 10 10
  1 neighbor lists, perpetual/occasional/extra = 1 0 0
  (1) pair table/pgn, perpetual
      attributes: half, newton on
      pair build: half/bin/atomonly/newton
      stencil: half/bin/3d
      bin: standard
Per MPI rank memory allocation (min/avg/max) = 5.829 | 5.829 | 5.829 Mbytes
   Step          Temp           v_p1           v_p2           v_p3           v_p4          Press            Lx             Ly             Lz           Volume        Density         E_pair         PotEng         KinEng         TotEng          Pxx            Pyy            Pzz            Pxy            Pxz            Pyz           S/CPU     
         0   303.80714      6.3209197e-16  0.017844792    0.014627102    0.027832056   -198.38457      539.57419      539.57419      539.57419      1.5709179e+08  2.5566976     -8382040.7     -8382040.7      904.68579     -8381136       -176.1144      -144.35827     -274.68104     -20.860413      5.9307639      49.084281      0            
       100   372.83775      0.0005         0.027836348    0.025359166    0.037953916   -299.85831      539.84397      539.84397      539.84397      1.5732755e+08  2.5528664     -8381465.6     -8381465.6      1110.2471     -8380355.3     -274.72339     -250.27551     -374.57602     -19.552731      5.298303       44.707364      5414.442     
       200   445.1184       0.001          0.036523413    0.034101633    0.046950055   -386.79201      540.11376      540.11376      540.11376      1.5756354e+08  2.5490428     -8380703.6     -8380703.6      1325.4866     -8379378.1     -360.45806     -336.55695     -463.36102     -18.194898      3.5039688      39.714537      5694.3393    
       300   490.84868      0.0015         0.042632741    0.040133697    0.053475613   -448.2015       540.38355      540.38355      540.38355      1.5779977e+08  2.5452269     -8373143.6     -8373143.6      1461.6635     -8371681.9     -420.75244     -396.08879     -527.76326     -16.715757      1.5826289      37.551772      5415.4955    
       400   509.20285      0.002          0.04851796     0.046075432    0.059496345   -506.91582      540.65334      540.65334      540.65334      1.5803623e+08  2.5414186     -8372108.7     -8372108.7      1516.3191     -8370592.4     -478.83503     -454.72916     -587.18327     -15.91952       1.9521035      38.045991      5701.9051    
       500   507.24814      0.0025         0.054741533    0.052397522    0.065068936   -566.52024      540.92312      540.92312      540.92312      1.5827293e+08  2.5376178     -8342806.3     -8342806.3      1510.4983     -8341295.8     -540.25693     -517.12334     -642.18047     -20.197429      2.0505435      40.95477       5426.6871    
       600   494.24999      0.003          0.062056258    0.060014379    0.071933414   -638.22371      541.19291      541.19291      541.19291      1.5850986e+08  2.5338247     -8341342.1     -8341342.1      1471.7921     -8339870.3     -612.44765     -592.29587     -709.9276      -21.905258      0.29781919     44.032509      5672.1028    
       700   477.35434      0.0035         0.068829099    0.067098408    0.078878181   -706.65577      541.4627       541.4627       541.4627       1.5874704e+08  2.5300391     -8331167.6     -8331167.6      1421.4797     -8329746.1     -679.2904      -662.2098      -778.46712     -18.671658     -0.72530642     44.596582      5434.3963    
       800   460.19696      0.004          0.075899787    0.074397076    0.086023841   -777.43467      541.73248      541.73248      541.73248      1.5898444e+08  2.526261      -8329177.2     -8329177.2      1370.388      -8327806.8     -749.07266     -734.24205     -848.9893      -14.487723     -0.69443979     39.872838      5726.5441    
       900   444.27028      0.0045         0.082655814    0.080950479    0.092626865   -842.94155      542.00227      542.00227      542.00227      1.5922209e+08  2.5224905     -8312557.7     -8312557.7      1322.961      -8311234.7     -815.74946     -798.91912     -914.15608     -13.265433      0.88427208     33.736118      5446.5394    
      1000   430.32774      0.005          0.089749387    0.087796718    0.099150949   -910.26253      542.27206      542.27206      542.27206      1.5945997e+08  2.5187275     -8310044.8     -8310044.8      1281.4425     -8308763.4     -885.75758     -866.48623     -978.54379     -14.840156      3.8559963      31.393541      5533.247     
      1100   418.47099      0.0055         0.0962136      0.094518251    0.1056936     -975.16391      542.54185      542.54185      542.54185      1.5969809e+08  2.5149719     -8307274.3     -8307274.3      1246.1351     -8306028.2     -949.5544      -932.82261     -1043.1147     -17.756663      3.4621004      31.32489       5734.3553    
      1200   407.91005      0.006          0.10164633     0.10029092     0.11147145    -1031.0345      542.81163      542.81163      542.81163      1.5993645e+08  2.5112238     -8289996.9     -8289996.9      1214.6865     -8288782.3     -1003.1713     -989.79441     -1100.1377     -20.190175      1.3371836      32.168772      5396.092     
      1300   398.79531      0.0065         0.10705792     0.10613825     0.11706964    -1086.49        543.08142      543.08142      543.08142      1.6017504e+08  2.5074832     -8286784.5     -8286784.5      1187.5443     -8285597       -1056.5795     -1047.503      -1155.3875     -20.516873     -0.19759127     30.82583       5626.4118    
      1400   391.40538      0.007          0.112245       0.11172831     0.12192842    -1137.9282      543.35121      543.35121      543.35121      1.6041387e+08  2.5037499     -8271307.7     -8271307.7      1165.5384     -8270142.2     -1107.772      -1102.6727     -1203.3399     -19.062189     -2.7172504      30.277782      5467.1158    
      1500   386.05224      0.0075         0.11777248     0.1176699      0.12737111    -1193.5636      543.62099      543.62099      543.62099      1.6065293e+08  2.5000241     -8267688       -8267688        1149.5977     -8266538.4     -1162.324      -1161.3116     -1257.0551     -17.151313     -3.9432252      30.68874       5748.9717    
      1600   381.65983      0.008          0.12384697     0.12371746     0.13307369    -1252.202       543.89078      543.89078      543.89078      1.6089224e+08  2.4963057     -8249093.3     -8249093.3      1136.5178     -8247956.8     -1222.2745     -1220.9964     -1313.3352     -15.17598      -1.4223072      27.973238      5471.8981    
      1700   377.37437      0.0085         0.13030048     0.13008375     0.13912217    -1314.2739      544.16057      544.16057      544.16057      1.6113178e+08  2.4925946     -8245027.1     -8245027.1      1123.7564     -8243903.4     -1285.9658     -1283.8268     -1373.0291     -14.836645      1.0105801      24.138935      5712.168     
      1800   373.60835      0.009          0.1358978      0.1354511      0.14385687    -1365.9208      544.43036      544.43036      544.43036      1.6137156e+08  2.4888909     -8236736.3     -8236736.3      1112.5419     -8235623.8     -1341.207      -1336.7984     -1419.7569     -15.295307      3.5490926      21.448504      5474.4378    
      1900   370.6878       0.0095         0.14043608     0.14002635     0.14803576    -1409.6494      544.70014      544.70014      544.70014      1.6161158e+08  2.4851946     -8232286.1     -8232286.1      1103.845      -8231182.3     -1385.9963     -1381.9526     -1460.9994     -16.695659      2.6528517      21.93043       5758.6334    
      2000   368.74739      0.01           0.14448574     0.14464012     0.15242647    -1452.5942      544.96993      544.96993      544.96993      1.6185183e+08  2.4815055     -8227682.3     -8227682.3      1098.0667     -8226584.2     -1425.9634     -1427.487      -1504.3322     -17.293926      1.3878738      22.961727      4762.4336    
      2100   367.14526      0.0105         0.14917805     0.14980027     0.1576435     -1502.169       545.23972      545.23972      545.23972      1.6209232e+08  2.4778237     -8218465.3     -8218465.3      1093.2959     -8217372       -1472.2729     -1478.4137     -1555.8204     -15.886874      2.8368254      21.973569      5474.67      
      2200   365.88149      0.011          0.15449045     0.15492763     0.16322895    -1554.8878      545.5095       545.5095       545.5095       1.6233306e+08  2.4741493     -8213492.1     -8213492.1      1089.5326     -8212402.6     -1524.7022     -1529.0168     -1610.9445     -14.429668      3.0191717      20.901713      5770.8506    
      2300   365.66565      0.0115         0.15883164     0.15934897     0.16773605    -1598.5415      545.77929      545.77929      545.77929      1.6257402e+08  2.470482      -8201668.6     -8201668.6      1088.8899     -8200579.7     -1567.5464     -1572.6521     -1655.4261     -14.766236      2.5090881      21.359973      5450.5082    
      2400   365.68569      0.012          0.16327539     0.16405946     0.17186848    -1642.2513      546.04908      546.04908      546.04908      1.6281523e+08  2.4668221     -8196366.4     -8196366.4      1088.9495     -8195277.4     -1611.4028     -1619.1409     -1696.21       -15.993553      1.3542546      20.471335      5779.0838    
      2500   364.93087      0.0125         0.16737479     0.16868145     0.17567799    -1683.4748      546.31886      546.31886      546.31886      1.6305668e+08  2.4631693     -8183559.6     -8183559.6      1086.7018     -8182472.9     -1651.8608     -1664.7565     -1733.807      -17.198037     -1.7407484      19.016373      4383.686     
      2600   364.12185      0.013          0.17161723     0.17300356     0.17957015    -1724.4541      546.58865      546.58865      546.58865      1.6329836e+08  2.4595238     -8177944.6     -8177944.6      1084.2927     -8176860.3     -1693.7303     -1707.4124     -1772.2196     -18.015308     -3.3491808      16.927454      5777.2191    
      2700   364.18694      0.0135         0.17552761     0.17654705     0.18295451    -1760.1091      546.85844      546.85844      546.85844      1.6354029e+08  2.4558854     -8163976.4     -8163976.4      1084.4865     -8162891.9     -1732.3228     -1742.384      -1805.6206     -15.761075     -0.91038036     13.575808      5501.0045    
      2800   365.08659      0.014          0.1795417      0.18038643     0.18697936    -1799.1857      547.12823      547.12823      547.12823      1.6378245e+08  2.4522543     -8158089.2     -8158089.2      1087.1655     -8157002       -1771.9388     -1780.2756     -1845.3428     -12.826748      4.0912068      12.815825      5752.3376    
      2900   366.4388       0.0145         0.18346695     0.18455394     0.19117209    -1839.6019      547.39801      547.39801      547.39801      1.6402485e+08  2.4486302     -8152061.8     -8152061.8      1091.1922     -8150970.6     -1810.678      -1821.4058     -1886.7218     -10.890439      5.3291103      13.647208      5798.1414    
      3000   367.36304      0.015          0.18736018     0.18846656     0.19504567    -1878.0242      547.6678       547.6678       547.6678       1.6426749e+08  2.4450134     -8141546.2     -8141546.2      1093.9444     -8140452.3     -1849.1012     -1860.0203     -1924.9511     -10.761532      4.0320046      13.186805      5515.077     
      3100   368.24461      0.0155         0.1912465      0.19208793     0.19823118    -1913.2021      547.93759      547.93759      547.93759      1.6451037e+08  2.4414036     -8135242.1     -8135242.1      1096.5696     -8134145.5     -1887.4562     -1895.7604     -1956.3896     -13.502206      1.3343252      11.022487      5806.7487    
      3200   369.16349      0.016          0.19433796     0.19516453     0.20072854    -1941.7091      548.20737      548.20737      548.20737      1.6475349e+08  2.4378009     -8123939.2     -8123939.2      1099.3058     -8122839.9     -1917.9666     -1926.1241     -1981.0367     -14.613218     -0.73777447     10.896404      5516.8801    
      3300   370.11769      0.0165         0.19695771     0.19831802     0.20382774    -1970.8972      548.47716      548.47716      548.47716      1.6499685e+08  2.4342054     -8117413.1     -8117413.1      1102.1473     -8116311       -1943.8215     -1957.2467     -2011.6234     -12.533627     -0.099542595    13.301314      5817.7343    
      3400   371.20024      0.017          0.19967599     0.20094641     0.20697453    -1998.8385      548.74695      548.74695      548.74695      1.6524044e+08  2.4306169     -8104409.9     -8104409.9      1105.3709     -8103304.5     -1970.6488     -1983.1868     -2042.6798     -11.636385      1.7382697      13.585457      5477.8162    
      3500   372.61481      0.0175         0.20340248     0.2044458      0.21016563    -2033.1077      549.01674      549.01674      549.01674      1.6548428e+08  2.4270354     -8097674.2     -8097674.2      1109.5833     -8096564.6     -2007.4264     -2017.7231     -2074.1735     -11.107385      3.3638006      12.833088      5826.7384    
      3600   374.05363      0.018          0.20697038     0.20816125     0.21278063    -2065.6707      549.28652      549.28652      549.28652      1.6572836e+08  2.423461      -8075222.4     -8075222.4      1113.8678     -8074108.5     -2042.6389     -2054.3918     -2099.9815     -10.45061       3.1419104      10.08066       5543.0658    
      3700   375.67074      0.0185         0.20996332     0.21179817     0.21576595    -2097.3022      549.55631      549.55631      549.55631      1.6597268e+08  2.4198936     -8068240.8     -8068240.8      1118.6833     -8067122.1     -2072.1768     -2090.2854     -2129.4444     -11.999202      3.6453705      6.871063       5840.2257    
      3800   377.8332       0.019          0.21233577     0.21441262     0.21862531    -2123.1144      549.8261       549.8261       549.8261       1.6621723e+08  2.4163331     -8061160.4     -8061160.4      1125.1228     -8060035.2     -2095.5912     -2116.088      -2157.6641     -13.021303      3.6822542      6.4719859      5835.4425    
      3900   379.49665      0.0195         0.2147142      0.21597135     0.2209706     -2143.7821      550.09588      550.09588      550.09588      1.6646203e+08  2.4127797     -8036148.2     -8036148.2      1130.0762     -8035018.1     -2119.0644     -2131.4715     -2180.8103     -11.164813     -0.25615193     4.7928434      5509.0372    
      4000   380.95208      0.02           0.21804063     0.21834356     0.22354348    -2170.9933      550.36567      550.36567      550.36567      1.6670707e+08  2.4092332     -8028894.6     -8028894.6      1134.4102     -8027760.2     -2151.8937     -2154.8834     -2206.2027     -10.727754     -1.1088167      4.8011329      4825.0006    
      4100   382.16584      0.0205         0.22117593     0.22139725     0.22586352    -2198.9858      550.63546      550.63546      550.63546      1.6695235e+08  2.4056937     -8010670.7     -8010670.7      1138.0246     -8009532.7     -2182.8367     -2185.021      -2229.0996     -10.839202     -0.46481864     3.8526342      5543.3005    
      4200   383.34828      0.021          0.22334128     0.22487714     0.22858469    -2226.5091      550.90525      550.90525      550.90525      1.6719786e+08  2.4021611     -8003213.7     -8003213.7      1141.5457     -8002072.1     -2204.207      -2219.3648     -2255.9554     -9.1041292      0.46449096     5.2734083      5847.8527    
      4300   384.46395      0.0215         0.22475667     0.22751        0.23128889    -2248.7229      551.17503      551.17503      551.17503      1.6744362e+08  2.3986355     -7990787.5     -7990787.5      1144.868      -7989642.6     -2218.1759     -2245.3491     -2282.6438     -5.9872326      0.59851417     7.1075418      5549.8229    
      4400   385.75139      0.022          0.2263481      0.22923145     0.23348706    -2266.8529      551.44482      551.44482      551.44482      1.6768962e+08  2.3951167     -7983166.9     -7983166.9      1148.7018     -7982018.2     -2233.8821     -2262.3385     -2304.3382     -6.7408036      0.1544442      6.1054604      5719.0315    
      4500   387.68191      0.0225         0.2280264      0.2301809      0.23458158    -2279.0982      551.71461      551.71461      551.71461      1.6793586e+08  2.3916048     -7974192.5     -7974192.5      1154.4505     -7973038       -2250.4456     -2271.7088     -2315.1402     -10.326892      0.63368982     0.90597181     5499.6047    
      4600   389.71942      0.023          0.23076506     0.23203155     0.23613294    -2299.2994      551.98439      551.98439      551.98439      1.6818234e+08  2.3880997     -7966467.7     -7966467.7      1160.5179     -7965307.1     -2277.4741     -2289.9733     -2330.451      -10.843809      0.72070567    -2.4482312      5859.3907    
      4700   390.95476      0.0235         0.23404319     0.23465613     0.23870158    -2327.168       552.25418      552.25418      552.25418      1.6842906e+08  2.3846016     -7955644.8     -7955644.8      1164.1965     -7954480.6     -2309.8267     -2315.8759     -2355.8015     -8.4373733     -2.4145486     -0.43400971     5564.6107    
      4800   391.95186      0.024          0.23685886     0.23733414     0.24103734    -2352.9249      552.52397      552.52397      552.52397      1.6867603e+08  2.3811102     -7947705.4     -7947705.4      1167.1657     -7946538.3     -2337.6152     -2342.3058     -2378.8536     -6.1607486     -5.7410289      1.8089212      5866.1558    
      4900   393.58837      0.0245         0.2386866      0.23943784     0.24253357    -2370.7805      552.79376      552.79376      552.79376      1.6892323e+08  2.3776256     -7939692.1     -7939692.1      1172.039      -7938520       -2355.6536     -2363.0678     -2393.6202     -6.2105019     -6.1889411      0.26068506     5868.7316    
      5000   395.48193      0.025          0.23939913     0.24130338     0.24372256    -2383.1732      553.06354      553.06354      553.06354      1.6917068e+08  2.3741479     -7921220.5     -7921220.5      1177.6777     -7920042.8     -2362.6857     -2381.4792     -2405.3547     -9.8700249     -4.4916167     -3.5648973      4248.641     
      5100   396.74139      0.0255         0.24008232     0.24332132     0.24537857    -2397.5071      553.33333      553.33333      553.33333      1.6941837e+08  2.3706769     -7913117.7     -7913117.7      1181.4281     -7911936.3     -2369.4283     -2401.3948     -2421.6982     -11.809708     -1.9978143     -4.4723395      5869.8026    
      5200   397.34622      0.026          0.24115932     0.24473173     0.24671354    -2410.0817      553.60312      553.60312      553.60312      1.696663e+08   2.3672127     -7900416.8     -7900416.8      1183.2292     -7899233.5     -2380.0575     -2415.3143     -2434.8734     -10.168679     -0.94715015    -2.5188664      5577.2116    
      5300   398.37348      0.0265         0.2428344      0.24580271     0.24786951    -2422.9184      553.8729       553.8729       553.8729       1.6991447e+08  2.3637552     -7892207.2     -7892207.2      1186.2882     -7891020.9     -2396.5892     -2425.8841     -2446.2818     -4.1958729     -2.6644371     -0.72569217     5352.6826    
      5400   399.87235      0.027          0.24470014     0.24663736     0.24896294    -2435.3991      554.14269      554.14269      554.14269      1.7016288e+08  2.3603045     -7879406.7     -7879406.7      1190.7516     -7878216       -2415.0026     -2434.1215     -2457.0731     -1.0444756     -0.35861335     0.17616257     5582.1224    
      5500   400.87471      0.0275         0.24666721     0.2477782      0.25074224    -2451.4767      554.41248      554.41248      554.41248      1.7041153e+08  2.3568605     -7871091.2     -7871091.2      1193.7364     -7869897.5     -2434.4161     -2445.3807     -2474.6335     -5.0543355      4.2010583     -0.56456861     5881.6357    
      5600   401.26504      0.028          0.24811275     0.24900668     0.25255876    -2466.2495      554.68226      554.68226      554.68226      1.7066043e+08  2.3534231     -7860872.7     -7860872.7      1194.8988     -7859677.8     -2448.6825     -2457.5049     -2492.5611     -9.7719491      3.3312444     -2.8160912      5533.9973    
      5700   401.33174      0.0285         0.24925254     0.25087985     0.25395134    -2480.7426      554.95205      554.95205      554.95205      1.7090957e+08  2.3499925     -7852420.9     -7852420.9      1195.0974     -7851225.8     -2459.9313     -2475.9916     -2506.3048     -10.655289     -0.65143903    -5.0926447      5888.9728    
      5800   401.33999      0.029          0.24997224     0.25259799     0.2544667     -2490.4578      555.22184      555.22184      555.22184      1.7115895e+08  2.3465685     -7843916.8     -7843916.8      1195.122      -7842721.7     -2467.0342     -2492.9484     -2511.391      -8.6680825     -2.4829783     -4.8180076      5885.0254    
      5900   402.21234      0.0295         0.25048136     0.25337081     0.25405588    -2493.3236      555.49163      555.49163      555.49163      1.7140858e+08  2.3431512     -7830222.9     -7830222.9      1197.7197     -7829025.1     -2472.0588     -2500.5755     -2507.3365     -4.8527035      0.068752666   -2.6117751      5589.6465    
      6000   404.41521      0.03           0.25141994     0.25439139     0.25428618    -2500.5264      555.76141      555.76141      555.76141      1.7165844e+08  2.3397405     -7821699.8     -7821699.8      1204.2795     -7820495.5     -2481.3219     -2510.6478     -2509.6095     -4.1231232      0.95660125    -1.8488894      4814.8602    
      6100   406.2036       0.0305         0.25253617     0.25557525     0.25564703    -2512.57        556.0312       556.0312       556.0312       1.7190855e+08  2.3363364     -7808260.5     -7808260.5      1209.6049     -7807050.9     -2492.3382     -2522.3316     -2523.04       -7.4634366     -1.1420899     -3.7444209      5582.1486    
      6200   406.97346      0.031          0.25359445     0.25656529     0.25770725    -2526.086       556.30099      556.30099      556.30099      1.7215891e+08  2.3329389     -7799639.9     -7799639.9      1211.8975     -7798428       -2502.7826     -2532.1026     -2543.3728     -8.0129778     -0.089199936   -6.2662589      5838.41      
      6300   407.62036      0.0315         0.2540778      0.25721252     0.25863443    -2532.8555      556.57077      556.57077      556.57077      1.724095e+08   2.329548      -7779592.2     -7779592.2      1213.8238     -7778378.4     -2507.5529     -2538.4902     -2552.5234     -3.8069479      2.9006426     -7.0765559      5602.0024    
      6400   408.17616      0.032          0.25474126     0.25797695     0.25926554    -2539.6291      556.84056      556.84056      556.84056      1.7266034e+08  2.3261637     -7770896.1     -7770896.1      1215.4789     -7769680.6     -2514.1008     -2546.0345     -2558.752      -1.3001436      2.3351681     -8.9315411      5908.2453    
      6500   408.27846      0.0325         0.2551636      0.25847636     0.2592884     -2542.7366      557.11035      557.11035      557.11035      1.7291142e+08  2.3227859     -7761014.2     -7761014.2      1215.7835     -7759798.4     -2518.2689     -2550.9634     -2558.9775     -2.5138065      0.75409236    -10.951961      5608.8663    
      6600   408.34091      0.033          0.25554737     0.25859982     0.25919884    -2544.1106      557.38014      557.38014      557.38014      1.7316274e+08  2.3194147     -7752278.6     -7752278.6      1215.9695     -7751062.6     -2522.0564     -2552.1818     -2558.0936     -3.6432372      0.61046112    -9.1914994      5907.6722    
      6700   408.94054      0.0335         0.25619326     0.2588771      0.25956529    -2548.3532      557.64992      557.64992      557.64992      1.7341431e+08  2.3160499     -7743532.3     -7743532.3      1217.7551     -7742314.6     -2528.4309     -2554.9184     -2561.7102     -2.2037632      2.0188939     -5.7273445      5856.7987    
      6800   409.82502      0.034          0.25676723     0.25965863     0.26022121    -2554.9702      557.91971      557.91971      557.91971      1.7366612e+08  2.3126917     -7730220.9     -7730220.9      1220.3889     -7729000.5     -2534.0956     -2562.6314     -2568.1836      0.21776022     3.4032361     -5.1287188      5616.4564    
      6900   410.18013      0.0345         0.25734707     0.26083949     0.26114012    -2563.7854      558.1895       558.1895       558.1895       1.7391818e+08  2.30934       -7721414.3     -7721414.3      1221.4464     -7720192.8     -2539.8181     -2574.2856     -2577.2526      1.271585       4.1397286     -7.7303135      5909.219     
      7000   410.43483      0.035          0.25725216     0.26111364     0.26146914    -2565.4575      558.45928      558.45928      558.45928      1.7417048e+08  2.3059947     -7707068.3     -7707068.3      1222.2049     -7705846       -2538.8815     -2576.9913     -2580.4998     -2.6125655      4.648212      -9.7286739      5616.6557    
      7100   411.31878      0.0355         0.25716949     0.26100775     0.26138849    -2564.5718      558.72907      558.72907      558.72907      1.7442302e+08  2.302656      -7698233       -7698233        1224.8371     -7697008.1     -2538.0655     -2575.9462     -2579.7038     -6.7465268      3.8427649     -9.0640652      5921.3867    
      7200   412.17836      0.036          0.25642868     0.26043749     0.26092922    -2558.7479      558.99886      558.99886      558.99886      1.7467581e+08  2.2993236     -7668688.9     -7668688.9      1227.3968     -7667461.5     -2530.7543     -2570.3182     -2575.1712     -11.397902      1.3828866     -7.585182       5620.1817    
      7300   412.52247      0.0365         0.25652116     0.26037974     0.26081855    -2558.4981      559.26865      559.26865      559.26865      1.7492884e+08  2.2959977     -7659859.3     -7659859.3      1228.4215     -7658630.9     -2531.667      -2569.7483     -2574.0789     -8.2969601      0.21283561    -9.8200539      5876.6353    
      7400   412.30093      0.037          0.25689661     0.26045577     0.26048611    -2558.8897      559.53843      559.53843      559.53843      1.7518212e+08  2.2926782     -7633534.6     -7633534.6      1227.7618     -7632306.8     -2535.3725     -2570.4986     -2570.798      -3.3297521     -1.8035598     -10.080878      5627.0557    
      7500   411.08743      0.0375         0.25728459     0.26106999     0.26078796    -2563.1797      559.80822      559.80822      559.80822      1.7543563e+08  2.289365      -7624679.3     -7624679.3      1224.1482     -7623455.2     -2539.2015     -2576.5604     -2573.777      -1.1910329     -1.7211876     -10.736176      3148.801     
      7600   410.17905      0.038          0.25728036     0.2614099      0.26038129    -2562.9461      560.07801      560.07801      560.07801      1.756894e+08   2.2860583     -7615809.5     -7615809.5      1221.4432     -7614588.1     -2539.1597     -2579.9151     -2569.7635     -4.9883365     -2.0458958     -13.178148      4710.4946    
      7700   410.50018      0.0385         0.25662145     0.26090563     0.25947495    -2556.138       560.34779      560.34779      560.34779      1.7594341e+08  2.2827579     -7602118.2     -7602118.2      1222.3994     -7600895.8     -2532.6568     -2574.9384     -2560.8186     -7.6641991      0.080756105   -13.019604      5632.9939    
      7800   411.50266      0.039          0.25630428     0.25996601     0.25938782    -2551.7167      560.61758      560.61758      560.61758      1.7619766e+08  2.2794639     -7593276       -7593276        1225.3847     -7592050.7     -2529.5265     -2565.665      -2559.9587     -6.2669443      3.2483658     -11.583833      5894.6537    
      7900   411.86092      0.0395         0.25610261     0.25922205     0.25970621    -2549.6533      560.88737      560.88737      560.88737      1.7645216e+08  2.2761762     -7571988       -7571988        1226.4515     -7570761.6     -2527.5363     -2558.3228     -2563.101      -4.3040064      3.7900203     -10.675108      5644.4204    
      8000   411.87745      0.04           0.2561711      0.25946689     0.26016623    -2552.1975      561.15716      561.15716      561.15716      1.767069e+08   2.2728949     -7563131.2     -7563131.2      1226.5007     -7561904.7     -2528.2122     -2560.7391     -2567.641      -2.7790328      2.3528514     -10.919082      4891.3549    
      8100   412.3374       0.0405         0.25575668     0.25952954     0.25984858    -2549.9953      561.42694      561.42694      561.42694      1.7696189e+08  2.2696198     -7541642.4     -7541642.4      1227.8704     -7540414.5     -2524.1222     -2561.3574     -2564.5061     -0.57765467     0.76742235    -10.875043      5632.8057    
      8200   412.9647       0.041          0.25552904     0.25968195     0.25916102    -2547.4858      561.69673      561.69673      561.69673      1.7721712e+08  2.266351      -7532792.7     -7532792.7      1229.7384     -7531562.9     -2521.8756     -2562.8616     -2557.7204     -1.1583861     -0.30349785    -11.631402      5944.8883    
      8300   412.91142      0.0415         0.25489067     0.25916653     0.25863755    -2541.9681      561.96652      561.96652      561.96652      1.774726e+08   2.2630885     -7512808       -7512808        1229.5797     -7511578.4     -2515.5753     -2557.7748     -2552.5542     -3.188133      -1.9516492     -12.091259      5604.9432    
      8400   412.35649      0.042          0.25414997     0.2582945      0.25838672    -2535.8375      562.2363       562.2363       562.2363       1.7772833e+08  2.2598323     -7503974       -7503974        1227.9272     -7502746       -2508.2652     -2549.1685     -2550.0787     -5.4358475     -1.4324469     -11.797654      5962.4476    
      8500   412.09366      0.0425         0.25317547     0.25719781     0.25766568    -2526.6518      562.50609      562.50609      562.50609      1.779843e+08   2.2565823     -7495161.8     -7495161.8      1227.1445     -7493934.7     -2498.6477     -2538.345      -2542.9626     -4.6200375      0.68675807    -12.456276      5960.2737    
      8600   411.85609      0.043          0.25234857     0.25630488     0.25682702    -2518.2349      562.77588      562.77588      562.77588      1.7824051e+08  2.2533385     -7480865.6     -7480865.6      1226.4371     -7479639.1     -2490.4867     -2529.5325     -2534.6856     -2.4948902      2.0738293     -13.141269      5658.2564    
      8700   411.15464      0.0435         0.2522095      0.25601493     0.25623166    -2514.865       563.04566      563.04566      563.04566      1.7849697e+08  2.2501009     -7472086.7     -7472086.7      1224.3483     -7470862.4     -2489.1143     -2526.6709     -2528.8098     -2.4380553      0.98129704    -14.208761      5964.2861    
      8800   410.76379      0.044          0.25135955     0.25565101     0.25517531    -2507.3966      563.31545      563.31545      563.31545      1.7875368e+08  2.2468696     -7449664.6     -7449664.6      1223.1844     -7448441.4     -2480.7259     -2523.0793     -2518.3846     -1.3911333     -0.12430913    -15.906585      5668.7417    
      8900   411.46499      0.0445         0.25054502     0.25528877     0.25438499    -2500.9253      563.58524      563.58524      563.58524      1.7901063e+08  2.2436444     -7440923       -7440923        1225.2725     -7439697.8     -2472.6871     -2519.5043     -2510.5846      0.33365612    -2.5971066     -17.301088      5927.7694    
      9000   412.38455      0.045          0.2496899      0.25452585     0.25360281    -2493.0292      563.85503      563.85503      563.85503      1.7926783e+08  2.2404254     -7428071       -7428071        1228.0108     -7426843       -2464.2477     -2511.9748     -2502.8652     -1.1284479     -3.8920088     -16.849144      5666.4425    
      9100   412.50634      0.0455         0.24917805     0.2537182      0.25301107    -2486.7417      564.12481      564.12481      564.12481      1.7952528e+08  2.2372126     -7419371.5     -7419371.5      1228.3735     -7418143.1     -2459.1962     -2504.0039     -2497.0251     -1.7736084     -0.063783828   -14.175825      5975.2105    
      9200   411.37111      0.046          0.24847592     0.25247296     0.2522499     -2477.8313      564.3946       564.3946       564.3946       1.7978297e+08  2.2340059     -7408319.2     -7408319.2      1224.9929     -7407094.2     -2452.2666     -2491.7144     -2489.513      -1.8270933      4.4450812     -13.170074      5671.4903    
      9300   410.07294      0.0465         0.24748742     0.25120006     0.25099062    -2466.2492      564.66439      564.66439      564.66439      1.8004091e+08  2.2308053     -7399661.9     -7399661.9      1221.1272     -7398440.8     -2442.511      -2479.1518     -2477.0848     -2.0795279      5.3107461     -17.59134       5985.998     
      9400   409.77575      0.047          0.24623949     0.24993628     0.25003033    -2454.8272      564.93417      564.93417      564.93417      1.8029909e+08  2.2276108     -7391042.1     -7391042.1      1220.2422     -7389821.9     -2430.1948     -2466.6793     -2467.6075     -1.3989233      2.9134428     -21.973886      5989.0658    
      9500   409.39554      0.0475         0.24501861     0.24870309     0.249952      -2446.4963      565.20396      565.20396      565.20396      1.8055752e+08  2.2244224     -7377282.8     -7377282.8      1219.11       -7376063.7     -2418.1457     -2454.5087     -2466.8344      0.22547709    -0.73975923    -22.253587      5645.6568    
      9600   408.31322      0.048          0.24424949     0.24803842     0.24947408    -2440.2072      565.47375      565.47375      565.47375      1.808162e+08   2.2212402     -7368702.1     -7368702.1      1215.887      -7367486.2     -2410.555      -2447.9489     -2462.1178      1.5953144     -1.0041229     -18.68503       5996.9785    
      9700   407.64884      0.0485         0.24346763     0.24717087     0.24740199    -2427.9644      565.74354      565.74354      565.74354      1.8107513e+08  2.2180639     -7357784.1     -7357784.1      1213.9086     -7356570.1     -2402.8387     -2439.3868     -2441.6678      0.66083492    -0.61054369    -14.135237      5697.9265    
      9800   407.56331      0.049          0.2427541      0.2462156      0.24531884    -2415.6215      566.01332      566.01332      566.01332      1.813343e+08   2.2148938     -7349271.8     -7349271.8      1213.654      -7348058.1     -2395.7967     -2429.9591     -2421.1087     -0.86028395    -1.5137893     -11.90056       6002.1967    
      9900   407.56649      0.0495         0.24175004     0.24514478     0.24402373    -2404.5351      566.28311      566.28311      566.28311      1.8159372e+08  2.2117296     -7331883.1     -7331883.1      1213.6634     -7330669.4     -2385.8874     -2419.3909     -2408.3269     -2.1042162     -0.32110962    -13.44905       5701.3778    
     10000   407.14113      0.05           0.24068961     0.24436583     0.24372876    -2397.5136      566.5529       566.5529       566.5529       1.8185339e+08  2.2085715     -7323432.1     -7323432.1      1212.3968     -7322219.7     -2375.4218     -2411.7032     -2405.4158     -0.77249787    -0.084323332   -16.418189      3092.3847    
     10100   406.35384      0.0505         0.23937574     0.24325485     0.24328899    -2388.0897      566.82268      566.82268      566.82268      1.821133e+08   2.2054194     -7310501.7     -7310501.7      1210.0523     -7309291.7     -2362.4548     -2400.7387     -2401.0756     -0.45350767    -0.25288664    -19.978208      4912.9344    
     10200   405.65566      0.051          0.23812097     0.24194457     0.24241459    -2376.7749      567.09247      567.09247      567.09247      1.8237346e+08  2.2022733     -7302099       -7302099        1207.9733     -7300891       -2350.0713     -2387.8073     -2392.446      -0.81250294     0.48686044    -20.729863      6008.4151    
     10300   405.37816      0.0515         0.23672901     0.24028871     0.24080691    -2361.4595      567.36226      567.36226      567.36226      1.8263387e+08  2.1991332     -7291709.1     -7291709.1      1207.1469     -7290501.9     -2336.3337     -2371.4652     -2376.5794     -0.62310629    -0.24802668    -21.531861      5704.6035    
     10400   405.36597      0.052          0.23563775     0.23863238     0.23922837    -2347.2276      567.63205      567.63205      567.63205      1.8289453e+08  2.195999      -7283400.2     -7283400.2      1207.1106     -7282193.1     -2325.5638     -2355.1184     -2361.0005     -1.2775013     -1.8106903     -23.626276      6013.288     
     10500   405.10061      0.0525         0.23462115     0.23696945     0.23805094    -2334.5392      567.90183      567.90183      567.90183      1.8315543e+08  2.1928708     -7275132.6     -7275132.6      1206.3204     -7273926.2     -2315.5307     -2338.7067     -2349.3801     -3.1727986     -1.605268      -23.799066      6012.2729    
     10600   404.6319       0.053          0.23344916     0.23544516     0.23672514    -2321.3075      568.17162      568.17162      568.17162      1.8341659e+08  2.1897486     -7255623.8     -7255623.8      1204.9247     -7254418.9     -2303.9641     -2323.663      -2336.2955     -3.9877438     -0.46145327    -18.215381      5638.5255    
     10700   403.94243      0.0535         0.23239425     0.23491307     0.23555701    -2312.2439      568.44141      568.44141      568.44141      1.8367799e+08  2.1866322     -7247434       -7247434        1202.8716     -7246231.1     -2293.5529     -2318.4118     -2324.7669     -0.83135731    -1.8646785     -15.351558      6016.3407    
     10800   402.68093      0.054          0.23105474     0.23449806     0.23446918    -2302.8933      568.71119      568.71119      568.71119      1.8393964e+08  2.1835218     -7236753.5     -7236753.5      1199.1151     -7235554.4     -2280.333      -2314.316      -2314.0309      1.9433463     -5.0996806     -18.029124      5718.4288    
     10900   401.60193      0.0545         0.22967462     0.23349762     0.23332548    -2291.2993      568.98098      568.98098      568.98098      1.8420154e+08  2.1804173     -7228606.5     -7228606.5      1195.902      -7227410.6     -2266.7123     -2304.4424     -2302.7434      2.0118252     -5.8593704     -22.194436      6018.0866    
     11000   401.26005      0.055          0.22834338     0.23173865     0.23181942    -2276.1788      569.25077      569.25077      569.25077      1.8446368e+08  2.1773186     -7217166.1     -7217166.1      1194.8839     -7215971.2     -2253.5739     -2287.0827     -2287.8798     -0.11422466    -1.8138653     -23.892741      5719.112     
     11100   401.0277       0.0555         0.22748667     0.23029682     0.23063237    -2264.7121      569.52055      569.52055      569.52055      1.8472608e+08  2.1742258     -7209109.5     -7209109.5      1194.192      -7207915.4     -2245.1188     -2272.8529     -2276.1645     -1.421639       3.1693464     -24.065052      6027.3824    
     11200   399.85282      0.056          0.22658654     0.22876383     0.22948115    -2252.9205      569.79034      569.79034      569.79034      1.8498872e+08  2.1711389     -7199390.1     -7199390.1      1190.6934     -7198199.4     -2236.2353     -2257.7235     -2264.8029     -1.0865354      4.9858085     -22.489551      5658.4084    
     11300   398.44913      0.0565         0.22513555     0.22663556     0.22788505    -2235.8949      570.06013      570.06013      570.06013      1.8525161e+08  2.1680578     -7191405.6     -7191405.6      1186.5135     -7190219.1     -2221.9152     -2236.7191     -2249.0506      0.50825505     2.1294064     -20.415658      6033.8443    
     11400   397.66211      0.057          0.22309993     0.22441803     0.22606039    -2215.9005      570.32992      570.32992      570.32992      1.8551476e+08  2.1649826     -7183491.2     -7183491.2      1184.1699     -7182307       -2201.8252     -2214.8337     -2231.0425      2.1452597     -2.6769892     -20.144646      6037.352     
     11500   396.88834      0.0575         0.22092693     0.22251779     0.22430034    -2196.7104      570.5997       570.5997       570.5997       1.8577815e+08  2.1619131     -7163184       -7163184        1181.8657     -7162002.1     -2180.3793     -2196.0798     -2213.6722      3.9644629     -7.722448      -22.551545      5722.3411    
     11600   395.83039      0.058          0.22003375     0.22192932     0.2235001     -2189.2036      570.86949      570.86949      570.86949      1.8604179e+08  2.1588495     -7155372.1     -7155372.1      1178.7153     -7154193.4     -2171.5642     -2190.2721     -2205.7744      3.5082541     -8.1301647     -24.25619       6040.3066    
     11700   394.46851      0.0585         0.2191747      0.22105183     0.222207      -2179.2369      571.13928      571.13928      571.13928      1.8630567e+08  2.1557916     -7130322.4     -7130322.4      1174.6599     -7129147.7     -2163.0861     -2181.612      -2193.0126      2.2882347     -7.9657292     -22.80522       5691.5579    
     11800   393.75065      0.059          0.21795926     0.22012299     0.22063612    -2167.0149      571.40906      571.40906      571.40906      1.8656981e+08  2.1527395     -7122555.8     -7122555.8      1172.5222     -7121383.3     -2151.0907     -2172.445      -2177.5092      2.9304699     -7.5503363     -23.43267       6048.3722    
     11900   393.93875      0.0595         0.21667497     0.2186873      0.2189426     -2152.4957      571.67885      571.67885      571.67885      1.868342e+08   2.1496932     -7117135       -7117135        1173.0823     -7115961.9     -2138.4157     -2158.2758     -2160.7955      5.3155739     -6.5423073     -23.553669      5744.4876    
     12000   394.25082      0.06           0.21543592     0.21730702     0.21772195    -2139.8631      571.94864      571.94864      571.94864      1.8709884e+08  2.1466526     -7109468.9     -7109468.9      1174.0116     -7108294.9     -2126.1872     -2144.6536     -2148.7485      2.4220396     -7.171431      -22.927797      4981.0513    
     12100   393.33304      0.0605         0.21433802     0.2159131      0.21647616    -2127.5674      572.21843      572.21843      572.21843      1.8736373e+08  2.1436178     -7097969.6     -7097969.6      1171.2786     -7096798.4     -2115.3518     -2130.8966     -2136.4536      0.89146942    -6.1941982     -21.100796      5730.2811    
     12200   391.167        0.061          0.21313899     0.21415127     0.21539303    -2114.2636      572.48821      572.48821      572.48821      1.8762886e+08  2.1405886     -7090366.5     -7090366.5      1164.8285     -7089201.7     -2103.5183     -2113.5087     -2125.7639      2.8664964     -2.559865      -19.135925      6065.1641    
     12300   389.11527      0.0615         0.21138693     0.21213584     0.21390345    -2096.9692      572.758        572.758        572.758        1.8789425e+08  2.1375652     -7082805.1     -7082805.1      1158.7188     -7081646.4     -2086.2268     -2093.6179     -2111.0629      6.2672759     -1.8602794     -18.546512      6018.413     
     12400   387.99132      0.062          0.20929904     0.2100564      0.21197021    -2076.8999      573.02779      573.02779      573.02779      1.8815989e+08  2.1345474     -7070288.7     -7070288.7      1155.3719     -7069133.3     -2065.621      -2073.0955     -2091.9833      8.855626      -5.1742694     -19.398898      5762.9255    
     12500   387.17761      0.0625         0.20785251     0.20891442     0.21031452    -2062.9376      573.29757      573.29757      573.29757      1.8842578e+08  2.1315354     -7062853.9     -7062853.9      1152.9488     -7061700.9     -2051.3448     -2061.8251     -2075.643       9.1890388     -8.7309268     -20.855772      4512.6877    
     12600   386.44544      0.063          0.20645938     0.20779636     0.20848052    -2048.643       573.56736      573.56736      573.56736      1.8869191e+08  2.128529      -7038461.5     -7038461.5      1150.7685     -7037310.7     -2037.5956     -2050.7906     -2057.5427      5.301957      -11.019383     -19.436152      5766.8225    
     12700   386.12577      0.0635         0.20550044     0.20672704     0.20736344    -2038.2957      573.83715      573.83715      573.83715      1.889583e+08   2.1255282     -7031116.3     -7031116.3      1149.8166     -7029966.5     -2028.1317     -2040.2373     -2046.5181      0.63624214    -10.39543      -19.44176       6088.2245    
     12800   385.50644      0.064          0.20434298     0.20533451     0.20632709    -2026.4975      574.10694      574.10694      574.10694      1.8922494e+08  2.1225331     -7019301.7     -7019301.7      1147.9723     -7018153.7     -2016.7085     -2026.4941     -2036.2901     -1.0822061     -9.9881997     -20.800137      5772.2137    
     12900   384.29782      0.0645         0.20335976     0.20374933     0.20511994    -2014.0769      574.37672      574.37672      574.37672      1.8949183e+08  2.1195437     -7012009.2     -7012009.2      1144.3733     -7010864.9     -2007.0047     -2010.8495     -2024.3764      0.95793805    -8.3466824     -22.674233      6036.2828    
     13000   383.1201       0.065          0.20176784     0.20203144     0.20350427    -1997.8733      574.64651      574.64651      574.64651      1.8975897e+08  2.1165598     -6997555.1     -6997555.1      1140.8662     -6996414.2     -1991.2937     -1993.8953     -2008.431       5.0137312     -7.7420221     -21.561568      5772.6712    
     13100   381.91375      0.0655         0.20045891     0.20091738     0.20202007    -1985.0197      574.9163       574.9163       574.9163       1.9002636e+08  2.1135815     -6990354.8     -6990354.8      1137.2739     -6989217.5     -1978.3756     -1982.9003     -1993.7831      7.3427117     -10.944152     -19.357736      6103.1115    
     13200   380.54019      0.066          0.19869427     0.19980737     0.20045052    -1970.3994      575.18608      575.18608      575.18608      1.9029401e+08  2.1106088     -6983200.7     -6983200.7      1133.1837     -6982067.5     -1960.9599     -1971.9454     -1978.2928      7.8331718     -13.822143     -19.202751      6104.152     
     13300   379.36814      0.0665         0.19665873     0.19836767     0.19904354    -1954.3381      575.45587      575.45587      575.45587      1.905619e+08   2.1076417     -6966514.9     -6966514.9      1129.6935     -6965385.2     -1940.8708     -1957.7367     -1964.407       8.9961195     -14.009259     -20.07436       5787.7531    
     13400   378.30008      0.067          0.19528083     0.1971197      0.19826347    -1943.1335      575.72566      575.72566      575.72566      1.9083005e+08  2.1046801     -6959460       -6959460        1126.513      -6958333.5     -1927.2719     -1945.4202     -1956.7083      10.114569     -11.641061     -20.09643       6108.2467    
     13500   376.88772      0.0675         0.19424262     0.19592666     0.19785758    -1934.4579      575.99545      575.99545      575.99545      1.9109844e+08  2.1017241     -6947883.4     -6947883.4      1122.3073     -6946761.1     -1917.0256     -1933.6458     -1952.7025      9.7408459     -10.297824     -20.325187      5752.7188    
     13600   375.63884      0.068          0.1934036      0.1951052      0.1971257     -1926.5877      576.26523      576.26523      576.26523      1.9136709e+08  2.0987737     -6940862.1     -6940862.1      1118.5883     -6939743.5     -1908.7451     -1925.5386     -1945.4794      5.5125018     -10.851963     -20.586537      6122.2013    
     13700   375.34221      0.0685         0.19216252     0.19388872     0.19532062    -1912.5647      576.53502      576.53502      576.53502      1.9163599e+08  2.0958287     -6931073.3     -6931073.3      1117.705      -6929955.6     -1896.4967     -1913.5328     -1927.6646      0.73213011    -11.484724     -21.492635      5802.001     
     13800   375.26721      0.069          0.19114775     0.19212029     0.19324558    -1896.5823      576.80481      576.80481      576.80481      1.9190514e+08  2.0928893     -6924143.3     -6924143.3      1117.4817     -6923025.8     -1886.4816     -1896.0798     -1907.1856      1.6920113     -11.423204     -22.866137      6126.1927    
     13900   374.35257      0.0695         0.18989387     0.19022222     0.19153538    -1880.5871      577.07459      577.07459      577.07459      1.9217455e+08  2.0899553     -6909515.5     -6909515.5      1114.758      -6908400.8     -1874.1068     -1877.3473     -1890.3072      6.9351628     -13.058466     -22.996645      5795.8257    
     14000   372.34803      0.07           0.18851747     0.18875135     0.19043729    -1867.6079      577.34438      577.34438      577.34438      1.924442e+08   2.0870268     -6902682.7     -6902682.7      1108.7888     -6901574       -1860.5227     -1862.831      -1879.4699      10.259719     -15.411432     -19.055108      4853.2918    
     14100   370.20691      0.0705         0.18699318     0.18752969     0.18926843    -1854.7292      577.61417      577.61417      577.61417      1.9271411e+08  2.0841038     -6895883.9     -6895883.9      1102.413      -6894781.4     -1845.4792     -1850.7741     -1867.9342      10.421108     -17.529314     -17.396104      6118.4125    
     14200   368.72515      0.071          0.18565393     0.18650193     0.18818712    -1843.3851      577.88395      577.88395      577.88395      1.9298427e+08  2.0811863     -6885157.2     -6885157.2      1098.0005     -6884059.2     -1832.2618     -1840.6309     -1857.2625      8.9835883     -15.274597     -21.269234      5809.7516    
     14300   367.72167      0.0715         0.1846604      0.18611797     0.1876789     -1837.1816      578.15374      578.15374      578.15374      1.9325468e+08  2.0782742     -6878414.1     -6878414.1      1095.0123     -6877319.1     -1822.4564     -1836.8416     -1852.2467      6.500749      -11.970834     -25.409156      6134.3427    
     14400   366.98944      0.072          0.18353661     0.18553167     0.18695627    -1829.1785      578.42353      578.42353      578.42353      1.9352535e+08  2.0753675     -6868160.6     -6868160.6      1092.8319     -6867067.8     -1811.3655     -1831.0552     -1845.1149      5.3859823     -11.214476     -25.088088      5817.3973    
     14500   366.84853      0.0725         0.18263633     0.1844764      0.18591086    -1819.3061      578.69332      578.69332      578.69332      1.9379626e+08  2.0724662     -6861465.8     -6861465.8      1092.4123     -6860373.4     -1802.4804     -1820.6405     -1834.7975      6.1986737     -12.227529     -21.542451      6136.6443    
     14600   366.80574      0.073          0.18175341     0.18309571     0.18437609    -1806.8105      578.9631       578.9631       578.9631       1.9406743e+08  2.0695704     -6849155.6     -6849155.6      1092.2848     -6848063.3     -1793.7667     -1807.0142     -1819.6505      6.0418643     -12.537951     -18.707011      5770.7873    
     14700   366.00798      0.0735         0.18113284     0.18199127     0.18303149    -1796.7122      579.23289      579.23289      579.23289      1.9433886e+08  2.0666799     -6842537.6     -6842537.6      1089.9093     -6841447.7     -1787.6421     -1796.1141     -1806.3803      7.1449818     -14.196293     -18.530606      6146.3438    
     14800   364.46356      0.074          0.18012988     0.1806789      0.18194079    -1785.5072      579.50268      579.50268      579.50268      1.9461053e+08  2.0637948     -6833774.3     -6833774.3      1085.3102     -6832689       -1777.7437     -1783.1621     -1795.616       9.8743857     -15.705317     -19.190995      5829.7868    
     14900   363.15091      0.0745         0.17863902     0.17933624     0.18091553    -1772.8128      579.77246      579.77246      579.77246      1.9488246e+08  2.0609151     -6827214       -6827214        1081.4014     -6826132.6     -1763.03       -1769.9111     -1785.4974      11.326821     -14.543401     -17.998676      6157.4683    
     15000   362.4353       0.075          0.17718415     0.17811156     0.17959508    -1759.6539      580.04225      580.04225      580.04225      1.9515464e+08  2.0580408     -6820695.3     -6820695.3      1079.2704     -6819616       -1748.6716     -1757.8244     -1772.4657      9.6394389     -13.238281     -20.501514      4883.9515    
     15100   361.35623      0.0755         0.17604042     0.17688104     0.17821721    -1747.3104      580.31204      580.31204      580.31204      1.9542708e+08  2.0551717     -6806097.9     -6806097.9      1076.0572     -6805021.9     -1737.3838     -1745.6802     -1758.8671      5.1517483     -14.297956     -25.879963      5832.6937    
     15200   359.60047      0.076          0.1752565      0.17646269     0.17733167    -1740.442       580.58183      580.58183      580.58183      1.9569977e+08  2.0523081     -6799650.1     -6799650.1      1070.8288     -6798579.3     -1729.6472     -1741.5513     -1750.1276      2.1429182     -15.363694     -26.831288      6113.1966    
     15300   358.27354      0.0765         0.1742404      0.17577439     0.17639464    -1731.7524      580.85161      580.85161      580.85161      1.9597271e+08  2.0494497     -6780436.5     -6780436.5      1066.8774     -6779369.6     -1719.6191     -1734.7584     -1740.8798      1.7367938     -12.992257     -23.578756      5844.7116    
     15400   357.87083      0.077          0.17325441     0.17471474     0.17583188    -1723.1714      581.1214       581.1214       581.1214       1.9624591e+08  2.0465966     -6774034.3     -6774034.3      1065.6782     -6772968.6     -1709.8881     -1724.3005     -1735.3258      4.6165808     -11.606832     -19.554842      6165.4368    
     15500   357.68257      0.0775         0.17171956     0.17310439     0.1744387     -1708.2413      581.39119      581.39119      581.39119      1.9651936e+08  2.0437489     -6745917       -6745917        1065.1176     -6744851.9     -1694.7403     -1708.4075     -1721.5761      7.1288773     -10.613972     -16.641496      5852.4558    
     15600   357.22555      0.078          0.17068913     0.17205851     0.1733524     -1697.8371      581.66097      581.66097      581.66097      1.9679306e+08  2.0409064     -6739588.4     -6739588.4      1063.7567     -6738524.6     -1684.5708     -1698.0855     -1710.8551      7.9039109     -10.133148     -15.531888      6177.4688    
     15700   356.29965      0.0785         0.17019493     0.1711561      0.17238357    -1690.0554      581.93076      581.93076      581.93076      1.9706702e+08  2.0380691     -6729756.8     -6729756.8      1060.9995     -6728695.8     -1679.6934     -1689.1794     -1701.2936      6.4670993     -9.8754745     -18.800783      5860.6448    
     15800   355.15436      0.079          0.17009788     0.17043814     0.1717764     -1685.3768      582.20055      582.20055      582.20055      1.9734123e+08  2.0352372     -6723471.9     -6723471.9      1057.589      -6722414.4     -1678.7356     -1682.0937     -1695.3012      3.7587067     -11.529167     -22.091575      6135.0326    
     15900   354.34601      0.0795         0.16939182     0.16983158     0.17114809    -1678.9917      582.47034      582.47034      582.47034      1.976157e+08   2.0324105     -6717202.8     -6717202.8      1055.1819     -6716147.6     -1671.7673     -1676.1074     -1689.1003      1.7440747     -13.967194     -24.47221       6059.9879    
     16000   353.56716      0.08           0.1677071      0.16907037     0.16999541    -1667.1531      582.74012      582.74012      582.74012      1.9789042e+08  2.029589      -6699154.2     -6699154.2      1052.8626     -6698101.3     -1655.1404     -1668.5948     -1677.7242      0.23355947    -14.898038     -26.746837      4830.4344    
     16100   352.71173      0.0805         0.166357       0.16831129     0.16890939    -1656.6417      583.00991      583.00991      583.00991      1.9816539e+08  2.0267727     -6692947.8     -6692947.8      1050.3153     -6691897.5     -1641.8159     -1661.1033     -1667.006       1.9067669     -13.825605     -26.251149      6187.0633    
     16200   351.47635      0.081          0.16488242     0.16666511     0.16779559    -1642.7111      583.2797       583.2797       583.2797       1.9844062e+08  2.0239617     -6666487.2     -6666487.2      1046.6366     -6665440.5     -1627.2629     -1644.8568     -1656.0137      4.2200998     -11.865675     -23.579328      5857.8712    
     16300   351.091        0.0815         0.16416236     0.16555283     0.16735455    -1635.2323      583.54948      583.54948      583.54948      1.9871611e+08  2.0211558     -6660349.6     -6660349.6      1045.4891     -6659304.2     -1620.1565     -1633.8794     -1651.6609      5.3707548     -8.2948277     -19.865261      6186.4593    
     16400   351.11474      0.082          0.16357458     0.16497149     0.16667038    -1629.1355      583.81927      583.81927      583.81927      1.9899184e+08  2.0183551     -6650026.8     -6650026.8      1045.5597     -6648981.2     -1614.3556     -1628.1421     -1644.9088      4.7355052     -6.1188519     -19.270515      5810.6914    
     16500   350.52473      0.0825         0.16329365     0.16471794     0.16607288    -1625.4115      584.08906      584.08906      584.08906      1.9926784e+08  2.0155596     -6643918.1     -6643918.1      1043.8028     -6642874.3     -1611.583      -1625.6397     -1639.0119      2.437318      -8.6185017     -21.280249      6201.4262    
     16600   349.27482      0.083          0.16253768     0.163925       0.16504381    -1616.9306      584.35885      584.35885      584.35885      1.9954409e+08  2.0127693     -6632256.7     -6632256.7      1040.0808     -6631216.7     -1604.1222     -1617.8139     -1628.8557     -0.14367802    -13.915448     -24.16305       5878.2402    
     16700   347.97465      0.0835         0.16171096     0.16312291     0.16393087    -1607.911       584.62863      584.62863      584.62863      1.9982059e+08  2.0099841     -6626188.8     -6626188.8      1036.2091     -6625152.6     -1595.9631     -1609.8979     -1617.8719      0.30770965    -16.515361     -26.55809       6206.0499    
     16800   347.28467      0.084          0.16062822     0.16228024     0.16285246    -1598.0292      584.89842      584.89842      584.89842      2.0009735e+08  2.007204      -6620150.5     -6620150.5      1034.1544     -6619116.3     -1585.2772     -1601.5815     -1607.2289      1.8174312     -13.06061      -25.010266      6213.7019    
     16900   347.24849      0.0845         0.15929115     0.16132404     0.16193671    -1587.4723      585.16821      585.16821      585.16821      2.0037437e+08  2.0044291     -6611877.6     -6611877.6      1034.0467     -6610843.5     -1572.0814     -1592.1445     -1598.191       3.0716426     -7.2669687     -21.261638      5895.4919    
     17000   346.91644      0.085          0.15862246     0.1604071      0.16141484    -1580.5392      585.43799      585.43799      585.43799      2.0065164e+08  2.0016593     -6605900.1     -6605900.1      1033.0579     -6604867.1     -1565.482      -1583.095      -1593.0406      4.1762749     -5.6775067     -20.170561      6164.9761    
     17100   345.69391      0.0855         0.15826458     0.15942749     0.16078327    -1574.0615      585.70778      585.70778      585.70778      2.0092917e+08  1.9988945     -6595250.8     -6595250.8      1029.4174     -6594221.4     -1561.9499     -1573.427      -1586.8075      3.9685905     -7.4612966     -19.564567      5893.7289    
     17200   344.57264      0.086          0.15793695     0.15882565     0.1603248     -1569.4955      585.97757      585.97757      585.97757      2.0120695e+08  1.9961349     -6589301.4     -6589301.4      1026.0785     -6588275.4     -1558.7165     -1567.4873     -1582.2827      2.7383875     -10.677133     -18.619036      6232.651     
     17300   344.2831       0.0865         0.15718682     0.15819655     0.15967924    -1562.8345      586.24735      586.24735      586.24735      2.0148499e+08  1.9933803     -6579691.3     -6579691.3      1025.2163     -6578666.1     -1551.3133     -1561.2786     -1575.9116      1.8108519     -12.178305     -20.075742      5900.8629    
     17400   344.59978      0.087          0.15641826     0.15773003     0.15913432    -1556.9787      586.51714      586.51714      586.51714      2.0176328e+08  1.9906309     -6573776.2     -6573776.2      1026.1593     -6572750.1     -1543.7282     -1556.6744     -1570.5336      2.3678583     -12.32505      -22.800169      6240.3812    
     17500   344.50139      0.0875         0.15555854     0.15696628     0.15845502    -1549.4032      586.78693      586.78693      586.78693      2.0204183e+08  1.9878864     -6563046       -6563046        1025.8663     -6562020.2     -1535.2434     -1549.1367     -1563.8295      4.5025101     -11.289068     -25.467378      4482.9727    
     17600   343.999        0.088          0.15487757     0.15620838     0.15763444    -1541.9702      587.05672      587.05672      587.05672      2.0232064e+08  1.985147      -6557173.8     -6557173.8      1024.3703     -6556149.4     -1528.5227     -1541.6569     -1555.7309      5.328322      -9.8436422     -23.6843        6177.5917    
     17700   343.52797      0.0885         0.15401303     0.15538711     0.15660955    -1533.0527      587.3265       587.3265       587.3265       2.025997e+08   1.9824127     -6551325.3     -6551325.3      1022.9676     -6550302.3     -1519.9904     -1533.5515     -1545.6161      3.2543602     -7.3357295     -18.988263      6239.2066    
     17800   342.73962      0.089          0.15293804     0.15459939     0.15557289    -1523.5145      587.59629      587.59629      587.59629      2.0287902e+08  1.9796833     -6537673.8     -6537673.8      1020.6201     -6536653.2     -1509.3811     -1525.7773     -1535.3851     -0.36800651    -5.3840685     -15.31755       5920.769     
     17900   341.71429      0.0895         0.15231306     0.15424059     0.15471742    -1517.4639      587.86608      587.86608      587.86608      2.0315859e+08  1.976959      -6531880.6     -6531880.6      1017.5668     -6530863       -1503.2131     -1522.2363     -1526.9423     -1.5176978     -4.8410542     -14.411137      6255.5667    
     18000   341.11579      0.09           0.15166483     0.15342584     0.15383836    -1509.7591      588.13586      588.13586      588.13586      2.0343843e+08  1.9742396     -6521754.5     -6521754.5      1015.7846     -6520738.8     -1496.8155     -1514.1953     -1518.2666      1.0204067     -5.4772222     -15.828172      3283.182     
     18100   341.11507      0.0905         0.15120096     0.1526387      0.15344605    -1504.353       588.40565      588.40565      588.40565      2.0371852e+08  1.9715253     -6515999.8     -6515999.8      1015.7824     -6514984       -1492.2375     -1506.4268     -1514.3948      3.8217733     -6.8377224     -19.680131      4760.0896    
     18200   340.96526      0.091          0.15089347     0.15245765     0.15350838    -1502.9509      588.67544      588.67544      588.67544      2.0399886e+08  1.9688159     -6508607.2     -6508607.2      1015.3363     -6507591.9     -1489.2028     -1504.64       -1515.01        4.8816003     -7.8824146     -22.804923      5803.7972    
     18300   340.52599      0.0915         0.15061082     0.15250522     0.15359428    -1502.4601      588.94523      588.94523      588.94523      2.0427947e+08  1.9661115     -6502847.9     -6502847.9      1014.0282     -6501833.8     -1486.4132     -1505.1095     -1515.8577      4.9152144     -7.4185824     -23.055675      6266.9242    
     18400   340.42158      0.092          0.14984186     0.15182667     0.15298106    -1495.6809      589.21501      589.21501      589.21501      2.0456033e+08  1.963412      -6494391       -6494391        1013.7173     -6493377.3     -1478.8242     -1498.4127     -1509.8057      2.3010783     -7.1045714     -21.568415      5932.4891    
     18500   340.24763      0.0925         0.14897843     0.1507959      0.15215195    -1486.7219      589.4848       589.4848       589.4848       2.0484145e+08  1.9607175     -6488668.1     -6488668.1      1013.1994     -6487654.9     -1470.3028     -1488.2398     -1501.623       0.55305963    -7.6651999     -19.512665      6273.532     
     18600   339.6021       0.093          0.1482893      0.14970845     0.15108878    -1477.3798      589.75459      589.75459      589.75459      2.0512282e+08  1.9580279     -6482977.3     -6482977.3      1011.2771     -6481966       -1463.5016     -1477.5075     -1491.1304      2.0009325     -6.6886823     -17.739273      6274.8319    
     18700   335.11957      0.0935         0.14838776     0.14952745     0.15015482    -1474.0358      590.02437      590.02437      590.02437      2.0540445e+08  1.9553432     -6516316       -6516316        997.92886     -6515318.1     -1464.4733     -1475.7212     -1481.9128      9.278061      -4.8461666     -15.340963      5840.4211    
     18800   334.97122      0.094          0.14803324     0.14914752     0.14938411    -1469.0842      590.29416      590.29416      590.29416      2.0568635e+08  1.9526634     -6510638.3     -6510638.3      997.48708     -6509640.9     -1460.9745     -1471.9715     -1474.3065      8.1300821     -3.3418862     -17.620963      6182.8427    
     18900   335.91195      0.0945         0.14728943     0.14830915     0.1488288     -1462.0524      590.56395      590.56395      590.56395      2.0596849e+08  1.9499886     -6491858.7     -6491858.7      1000.2884     -6490858.4     -1453.6337     -1463.6976     -1468.826       6.176131      -1.3580345     -18.037142      5902.1773    
     19000   336.75529      0.095          0.14704191     0.14779462     0.14885955    -1459.6466      590.83374      590.83374      590.83374      2.062509e+08   1.9473186     -6486218.4     -6486218.4      1002.7997     -6485215.6     -1451.1908     -1458.6195     -1469.1295      6.9881671     -1.452771      -17.001952      6197.0032    
     19100   336.80116      0.0955         0.14671105     0.14746503     0.14870398    -1456.9621      591.10352      591.10352      591.10352      2.0653357e+08  1.9446534     -6479563.4     -6479563.4      1002.9363     -6478560.5     -1447.9255     -1455.3667     -1467.5942      9.3758726     -3.6871082     -16.198987      5931.678     
     19200   336.30606      0.096          0.14603675     0.1470428      0.14815586    -1451.5516      591.37331      591.37331      591.37331      2.0681649e+08  1.9419932     -6473931.9     -6473931.9      1001.462      -6472930.4     -1441.2706     -1451.1996     -1462.1847      9.6747416     -6.2144907     -16.109663      6280.8949    
     19300   336.34057      0.0965         0.14479849     0.14630299     0.14719721    -1441.8906      591.6431       591.6431       591.6431       2.0709967e+08  1.9393378     -6463497.4     -6463497.4      1001.5648     -6462495.8     -1429.05       -1443.8983     -1452.7235      7.2831325     -4.8196943     -13.848         5934.417     
     19400   336.9777       0.097          0.14389731     0.14578174     0.14657954    -1435.1791      591.91288      591.91288      591.91288      2.0738311e+08  1.9366872     -6457928.5     -6457928.5      1003.4621     -6456925       -1420.156      -1438.7539     -1446.6276      6.4054195     -1.6149638     -12.247251      6289.775     
     19500   337.34117      0.0975         0.14355629     0.14538122     0.14613175    -1431.2666      592.18267      592.18267      592.18267      2.0766681e+08  1.9340414     -6452375.3     -6452375.3      1004.5444     -6451370.7     -1416.7905     -1434.8011     -1442.2083      5.7934543     -2.1767762     -14.358494      6288.4681    
     19600   337.21803      0.098          0.14329173     0.1448681      0.14561974    -1427.0238      592.45246      592.45246      592.45246      2.0795076e+08  1.9314005     -6439334.4     -6439334.4      1004.1777     -6438330.2     -1414.1795     -1429.737      -1437.1551      6.9205624     -5.0939345     -17.551179      5996.6214    
     19700   337.20187      0.0985         0.14298357     0.14436049     0.1451805     -1422.8952      592.72225      592.72225      592.72225      2.0823498e+08  1.9287644     -6433796.9     -6433796.9      1004.1296     -6432792.8     -1411.1381     -1424.7272     -1432.8202      8.9508519     -5.7185663     -19.11229       6294.5192    
     19800   337.01728      0.099          0.14266662     0.14366598     0.14428541    -1416.6231      592.99203      592.99203      592.99203      2.0851945e+08  1.9261331     -6424413.3     -6424413.3      1003.5799     -6423409.8     -1408.0101     -1417.873      -1423.9863      9.6048596     -3.3714594     -16.652503      6000.7643    
     19900   336.00394      0.0995         0.14259793     0.14334636     0.14365728    -1413.2793      593.26182      593.26182      593.26182      2.0880418e+08  1.9235065     -6418907.6     -6418907.6      1000.5624     -6417907       -1407.3321     -1414.7186     -1417.7872      8.7592351     -2.566353      -13.029793      6246.5956    
     20000   334.68408      0.1            0.14178422     0.14301762     0.14309025    -1407.6555      593.53161      593.53161      593.53161      2.0908918e+08  1.9208847     -6408044.8     -6408044.8      996.63203     -6407048.2     -1399.3015     -1411.4741     -1412.191       6.6050394     -1.682533      -11.123751      3757.5402    
     20100   334.65637      0.1005         0.14083529     0.142531       0.14265736    -1401.5088      593.80139      593.80139      593.80139      2.0937443e+08  1.9182677     -6402563.5     -6402563.5      996.54952     -6401566.9     -1389.9362     -1406.6716     -1407.9186      5.7771601     -0.77316736    -10.065655      6303.3992    
     20200   335.69334      0.101          0.14002291     0.14192404     0.14228956    -1395.6296      594.07118      594.07118      594.07118      2.0965994e+08  1.9156555     -6395078.7     -6395078.7      999.63744     -6394079.1     -1381.9186     -1400.6813     -1404.2887      6.4084753     -0.53704843    -9.3629377      5994.0794    
     20300   335.94093      0.1015         0.13991866     0.14145221     0.14208987    -1393.0775      594.34097      594.34097      594.34097      2.0994571e+08  1.913048      -6389631.2     -6389631.2      1000.3747     -6388630.8     -1380.8898     -1396.0247     -1402.318       7.1001477     -2.189491      -9.8385517      6315.9017    
     20400   335.38346      0.102          0.1398865      0.14065212     0.14159837    -1388.7227      594.61075      594.61075      594.61075      2.1023174e+08  1.9104452     -6384186.8     -6384186.8      998.71467     -6383188.1     -1380.5724     -1388.1284     -1397.4673      7.8482498     -3.8085377     -11.24515       6315.1391    
     20500   334.71668      0.1025         0.13915318     0.13972132     0.14075807    -1380.4838      594.88054      594.88054      594.88054      2.1051803e+08  1.9078471     -6374225.3     -6374225.3      996.72911     -6373228.6     -1373.3351     -1378.9422     -1389.1741      8.5484826     -4.5798567     -13.869744      5937.9902    
     20600   333.96345      0.103          0.13815953     0.13936642     0.14025223    -1374.3834      595.15033      595.15033      595.15033      2.1080458e+08  1.9052538     -6368827.8     -6368827.8      994.48612     -6367833.4     -1363.5286     -1375.4396     -1384.1819      7.9972674     -4.2893086     -16.209052      6312.5873    
     20700   333.19784      0.1035         0.13711445     0.13885612     0.13959226    -1367.0954      595.42012      595.42012      595.42012      2.1109138e+08  1.9026651     -6358619.3     -6358619.3      992.20627     -6357627.1     -1353.2144     -1370.4033     -1377.6685      8.0670298     -3.4715644     -16.297709      6024.092     
     20800   333.05913      0.104          0.13671266     0.13827841     0.13900538    -1361.9424      595.6899       595.6899       595.6899       2.1137845e+08  1.9000811     -6353257       -6353257        991.79323     -6352265.2     -1349.249      -1364.7018     -1371.8764      8.3411954     -0.85708652    -14.816302      6319.666     
     20900   333.22749      0.1045         0.13654985     0.13781619     0.13840317    -1357.9052      595.95969      595.95969      595.95969      2.1166578e+08  1.8975018     -6346216.2     -6346216.2      992.29455     -6345223.9     -1347.6423     -1360.1401     -1365.9331      8.196956       1.1362829     -12.399735      6024.9617    
     21000   333.25517      0.105          0.13640191     0.13773304     0.13796164    -1355.6924      596.22948      596.22948      596.22948      2.1195337e+08  1.8949272     -6340873.6     -6340873.6      992.37698     -6339881.2     -1346.1822     -1359.3194     -1361.5755      6.6407826      0.53992877    -9.5765919      6324.8635    
     21100   333.55348      0.1055         0.13588095     0.1375783      0.13749751    -1351.9426      596.49926      596.49926      596.49926      2.1224122e+08  1.8923572     -6332548.8     -6332548.8      993.26529     -6331555.5     -1341.0407     -1357.7923     -1356.9949      7.2511157      0.0061823427  -7.850358       5968.747     
     21200   333.75788      0.106          0.13547135     0.13756732     0.13727664    -1349.8324      596.76905      596.76905      596.76905      2.1252933e+08  1.8897919     -6327228.8     -6327228.8      993.87399     -6326234.9     -1336.9983     -1357.6838     -1354.8151      8.5472933     -0.61200531    -7.5757862      6342.6869    
     21300   333.11385      0.1065         0.13519879     0.13719771     0.13715072    -1347.3056      597.03884      597.03884      597.03884      2.128177e+08   1.8872312     -6321906.4     -6321906.4      991.95616     -6320914.4     -1334.3084     -1354.0361     -1353.5724      8.0732307     -2.5747236     -8.2630526      6342.0404    
     21400   332.49355      0.107          0.13458206     0.136129       0.1367219     -1340.3502      597.30863      597.30863      597.30863      2.1310633e+08  1.8846751     -6314419.3     -6314419.3      990.10902     -6313429.2     -1328.2216     -1343.4887     -1349.3402      6.6562853     -2.5491829     -10.572503      6039.7685    
     21500   332.61612      0.1075         0.13373319     0.13482647     0.13614062    -1331.3604      597.57841      597.57841      597.57841      2.1339523e+08  1.8821237     -6309131.8     -6309131.8      990.47402     -6308141.4     -1319.844      -1330.6338     -1343.6034      5.2767589     -1.5189181     -12.819441      6343.7624    
     21600   333.09874      0.108          0.13279478     0.13378419     0.13524474    -1321.8973      597.8482       597.8482       597.8482       2.1368438e+08  1.8795768     -6295790.4     -6295790.4      991.91117     -6294798.4     -1310.5826     -1320.3473     -1334.7619      5.4114198     -2.4355501     -13.927703      6048.2405    
     21700   333.25862      0.1085         0.13244798     0.13336437     0.13454582    -1317.076       598.11799      598.11799      598.11799      2.1397379e+08  1.8770346     -6290569.2     -6290569.2      992.38726     -6289576.8     -1307.1599     -1316.204      -1327.864       7.2766442     -3.3123627     -13.975547      6292.9335    
     21800   333.01368      0.109          0.13234384     0.133307       0.13387827    -1314.3486      598.38777      598.38777      598.38777      2.1426347e+08  1.8744969     -6275768.6     -6275768.6      991.65787     -6274777       -1306.1322     -1315.6378     -1321.2758      9.0207388     -1.9555762     -12.966864      6057.7868    
[...]
    244700   312.80776      1.2235         0.0002715858   0.0003242765   0.00029712088 -2.9376862      1199.7432      1199.7432      1199.7432      1.7268909e+09  0.23257764    -170640.05     -170640.05      931.4881      -169708.56     -2.6803434     -3.2003602     -2.932355      -0.14510857    -0.20025888    -0.62169924     23741.008    
    244800   313.14328      1.224          0.00027079504  0.00032156045  0.00029818649 -2.9296553      1200.013       1200.013       1200.013       1.7280561e+09  0.23242081    -170672.73     -170672.73      932.48723     -169740.25     -2.6725392     -3.1735549     -2.9428719     -0.17495772    -0.1937233     -0.64608843     25907.306    
    244900   313.23781      1.2245         0.00026911576  0.00032295313  0.00029884174 -2.9308681      1200.2828      1200.2828      1200.2828      1.7292219e+09  0.23226412    -170704.73     -170704.73      932.7687      -169771.96     -2.655966      -3.1872996     -2.9493387     -0.17963972    -0.20728356    -0.64030705     25884.74     
    245000   313.55589      1.225          0.00027274699  0.00032320151  0.0003012619  -2.9515927      1200.5526      1200.5526      1200.5526      1.7303882e+09  0.23210758    -170737.34     -170737.34      933.71591     -169803.63     -2.6918035     -3.1897509     -2.9732237     -0.17275422    -0.17570613    -0.60868836     12579.995    
    245100   314.1437       1.2255         0.00027456339  0.00031847211  0.00030121338 -2.9418501      1200.8224      1200.8224      1200.8224      1.731555e+09   0.23195117    -170772.14     -170772.14      935.46629     -169836.67     -2.70973       -3.1430754     -2.9727449     -0.16276477    -0.14780748    -0.583221       25837.016    
    245200   313.88785      1.226          0.00027078896  0.00031532634  0.00029770469 -2.9075417      1201.0921      1201.0921      1201.0921      1.7327223e+09  0.2317949     -170806        -170806         934.70441     -169871.29     -2.6724792     -3.112029      -2.9381169     -0.14269776    -0.18275088    -0.57022455     23492.62     
    245300   313.46455      1.2265         0.00027289348  0.00031445828  0.00029868769 -2.9148432      1201.3619      1201.3619      1201.3619      1.7338902e+09  0.23163878    -170838.91     -170838.91      933.4439      -169905.47     -2.6932493     -3.1034619     -2.9478184     -0.15505385    -0.19717777    -0.57514721     25856.403    
    245400   313.43689      1.227          0.00027414034  0.00030453151  0.0002995213  -2.8890309      1201.6317      1201.6317      1201.6317      1.7350586e+09  0.23148279    -169031.98     -169031.98      933.36152     -168098.62     -2.7055548     -3.0054924     -2.9560454     -0.18463399    -0.21111983    -0.57496412     23669.709    
    245500   313.40512      1.2275         0.00027693271  0.00030433885  0.00029996402 -2.8990397      1201.9015      1201.9015      1201.9015      1.7362275e+09  0.23132695    -169065.04     -169065.04      933.26693     -168131.77     -2.7331133     -3.0035909     -2.9604147     -0.18047736    -0.21734917    -0.6087846      25907.232    
    245600   313.73814      1.228          0.00027742595  0.0003042061   0.00030135591 -2.9048045      1202.1713      1202.1713      1202.1713      1.737397e+09   0.23117124    -169099.74     -169099.74      934.25861     -168165.49     -2.7379812     -3.0022808     -2.9741516     -0.16557587    -0.18922139    -0.60175761     23771.783    
    245700   314.01775      1.2285         0.00027224894  0.00030480575  0.00030329492 -2.896125       1202.4411      1202.4411      1202.4411      1.7385669e+09  0.23101567    -169135.55     -169135.55      935.09123     -168200.46     -2.6868881     -3.0081989     -2.9932881     -0.16498463    -0.15933196    -0.55022404     25962.96     
    245800   313.98282      1.229          0.0002678376   0.00030121958  0.00030160418 -2.8642532      1202.7109      1202.7109      1202.7109      1.7397374e+09  0.23086025    -169171.33     -169171.33      934.98721     -168236.34     -2.6433516     -2.9728061     -2.9766018     -0.14955227    -0.15234147    -0.53743433     25935.016    
    245900   313.33022      1.2295         0.00026566396  0.00029694519  0.00029792313 -2.8309311      1202.9807      1202.9807      1202.9807      1.7409084e+09  0.23070496    -169204.87     -169204.87      933.04389     -168271.83     -2.6218994     -2.9306212     -2.9402727     -0.13953157    -0.17441245    -0.55584207     23833.982    
    246000   313.01026      1.23           0.0002655505   0.00029705106  0.00029716983 -2.828428       1203.2504      1203.2504      1203.2504      1.74208e+09    0.23054981    -169238.31     -169238.31      932.09112     -168306.22     -2.6207797     -2.931666      -2.9328382     -0.16028535    -0.19033591    -0.55742832     4520.0837    
    246100   312.82525      1.2305         0.00026391324  0.00029663952  0.00029626374 -2.8187071      1203.5202      1203.5202      1203.5202      1.743252e+09   0.2303948     -169271.76     -169271.76      931.54017     -168340.22     -2.6046211     -2.9276045     -2.9238958     -0.18623533    -0.20574498    -0.57358691     14842.946    
    246200   312.96799      1.231          0.00026638549  0.00029712605  0.00029773312 -2.8332746      1203.79        1203.79        1203.79        1.7444246e+09  0.23023993    -169306        -169306         931.96523     -168374.04     -2.6290204     -2.9324061     -2.9383974     -0.18684677    -0.18571878    -0.58834095     18379.62     
    246300   313.43244      1.2315         0.0002645796   0.0002974057   0.00029990264 -2.8353909      1204.0598      1204.0598      1204.0598      1.7455977e+09  0.2300852     -169341.61     -169341.61      933.34827     -168408.26     -2.6111977     -2.9351661     -2.959809      -0.18893085    -0.17474875    -0.5774158      18478.974    
    246400   313.57612      1.232          0.00026226329  0.00029509658  0.00030121386 -2.824488       1204.3296      1204.3296      1204.3296      1.7467714e+09  0.22993061    -169376.72     -169376.72      933.77614     -168442.94     -2.5883374     -2.9123768     -2.9727497     -0.19155471    -0.16864662    -0.5670121      23276.779    
    246500   313.42218      1.2325         0.0002595902   0.00029646821  0.00030094355 -2.8193172      1204.5994      1204.5994      1204.5994      1.7479455e+09  0.22977616    -169410.89     -169410.89      933.31775     -168477.57     -2.561956      -2.9259138     -2.9700819     -0.18052741    -0.18295171    -0.55207446     23784.969    
    246600   313.61601      1.233          0.00025981108  0.00029848744  0.0003010261  -2.8269582      1204.8692      1204.8692      1204.8692      1.7491202e+09  0.22962184    -169445.96     -169445.96      933.89492     -168512.06     -2.564136      -2.945842      -2.9708967     -0.17199127    -0.18173639    -0.55678043     26056.894    
    246700   313.43851      1.2335         0.00025583049  0.00030093955  0.00030053488 -2.8203139      1205.1389      1205.1389      1205.1389      1.7502955e+09  0.22946766    -169480.27     -169480.27      933.36637     -168546.9      -2.5248506     -2.9700424     -2.9660487     -0.18212092    -0.2001981     -0.56539309     25933.879    
    246800   313.53958      1.234          0.00025756947  0.00030292519  0.00030353125 -2.8424242      1205.4087      1205.4087      1205.4087      1.7514712e+09  0.22931362    -169515.39     -169515.39      933.66732     -168581.73     -2.542013      -2.9896392     -2.9956205     -0.21383615    -0.17617241    -0.56794982     23805.449    
    246900   313.65316      1.2345         0.00025747068  0.00030617897  0.00030359119 -2.8530006      1205.6785      1205.6785      1205.6785      1.7526475e+09  0.22915972    -169550.63     -169550.63      934.00554     -168616.63     -2.5410381     -3.0217515     -2.9962121     -0.21347598    -0.18680791    -0.57727532     25983.63     
    247000   314.12658      1.235          0.0002606568   0.00031255552  0.00030557991 -2.8910016      1205.9483      1205.9483      1205.9483      1.7538243e+09  0.22900596    -169586.66     -169586.66      935.41532     -168651.25     -2.5724826     -3.0846831     -3.0158392     -0.19166492    -0.18461289    -0.56568216     23792.444    
    247100   314.52678      1.2355         0.00025886666  0.00030878112  0.00030664401 -2.8761964      1206.2181      1206.2181      1206.2181      1.7550016e+09  0.22885233    -169623.3      -169623.3       936.60704     -168686.69     -2.5548153     -3.0474327     -3.0263411     -0.20865616    -0.18074601    -0.57055895     26024.994    
    247200   314.14622      1.236          0.00025785794  0.000305692    0.00030732126 -2.8649435      1206.4879      1206.4879      1206.4879      1.7561795e+09  0.22869884    -169658.25     -169658.25      935.47379     -168722.77     -2.54486       -3.0169455     -3.033025      -0.20898301    -0.17860714    -0.5761141      23586.458    
    247300   313.97232      1.2365         0.00025804157  0.00030984948  0.00030631639 -2.8759188      1206.7577      1206.7577      1206.7577      1.7573578e+09  0.22854549    -169694.01     -169694.01      934.95596     -168759.05     -2.5466723     -3.0579766     -3.0231077     -0.17525094    -0.19691028    -0.5710935      25963.56     
    247400   313.95556      1.237          0.00025767364  0.00030760955  0.00030447552 -2.8612837      1207.0275      1207.0275      1207.0275      1.7585368e+09  0.22839228    -169730.45     -169730.45      934.90605     -168795.55     -2.5430411     -3.0358702     -3.0049397     -0.18548582    -0.19634577    -0.58949582     23891.432    
    247500   313.5405       1.2375         0.00025399051  0.00030676824  0.00030379122 -2.8441482      1207.2972      1207.2972      1207.2972      1.7597162e+09  0.2282392     -169765.24     -169765.24      933.67006     -168831.57     -2.5066914     -3.0275671     -2.9981862     -0.20296439    -0.21152837    -0.58988864     13504.732    
    247600   313.25942      1.238          0.00025582446  0.00030488418  0.00030384456 -2.8441589      1207.567       1207.567       1207.567       1.7608961e+09  0.22808626    -169799.62     -169799.62      932.83307     -168866.79     -2.5247912     -3.0089729     -2.9987126     -0.18238506    -0.21742508    -0.61073492     25678.853    
    247700   313.13653      1.2385         0.0002552211   0.00030645566  0.00030389398 -2.8475063      1207.8368      1207.8368      1207.8368      1.7620766e+09  0.22793345    -169834.08     -169834.08      932.46711     -168901.61     -2.5188364     -3.0244822     -2.9992004     -0.17173203    -0.23488509    -0.61994539     23801.386    
    247800   313.58315      1.239          0.00025510572  0.00031109208  0.00030435839 -2.8639072      1208.1066      1208.1066      1208.1066      1.7632577e+09  0.22778078    -169870.24     -169870.24      933.79709     -168936.45     -2.5176977     -3.0702401     -3.0037838     -0.18971255    -0.22488687    -0.61183629     25916.646    
    247900   313.55415      1.2395         0.00024997875  0.00030985453  0.00029874312 -2.8244967      1208.3764      1208.3764      1208.3764      1.7644392e+09  0.22762825    -169905.47     -169905.47      933.71072     -168971.76     -2.4670985     -3.0580264     -2.9483654     -0.20700329    -0.22882192    -0.62820302     23789.773    
    248000   313.03723      1.24           0.00024861617  0.00030748286  0.0002960806  -2.803453       1208.6462      1208.6462      1208.6462      1.7656213e+09  0.22747586    -169938.85     -169938.85      932.17142     -169006.68     -2.4536508     -3.0346199     -2.9220883     -0.20464114    -0.20621471    -0.6166437      2934.1242    
    248100   312.77129      1.2405         0.00024865223  0.0003062871   0.00029715431 -2.8031701      1208.916       1208.916       1208.916       1.7668039e+09  0.2273236     -169972.26     -169972.26      931.37951     -169040.89     -2.4540067     -3.0228187     -2.932685      -0.17650334    -0.20093381    -0.58831414     9642.7617    
    248200   313.04873      1.241          0.00024955005  0.00030681813  0.00030114924 -2.821013       1209.1858      1209.1858      1209.1858      1.767987e+09   0.22717147    -170007.16     -170007.16      932.20566     -169074.95     -2.4628675     -3.0280595     -2.972112      -0.16637494    -0.21163849    -0.56241536     14032.439    
    248300   313.41716      1.2415         0.00024928295  0.0003069375   0.00030305401 -2.8267932      1209.4555      1209.4555      1209.4555      1.7691707e+09  0.22701948    -170042.57     -170042.57      933.30279     -169109.27     -2.4602315     -3.0292376     -2.9909105     -0.19773937    -0.23381601    -0.55326114     16244.932    
    248400   313.53514      1.242          0.00025127261  0.00030755491  0.00030090794 -2.8283098      1209.7253      1209.7253      1209.7253      1.7703548e+09  0.22686763    -170077.29     -170077.29      933.65411     -169143.63     -2.4798679     -3.035331      -2.9697304     -0.20621746    -0.25602875    -0.57234464     22526.515    
    248500   313.75547      1.2425         0.00025397295  0.0003095039   0.00029969654 -2.8396197      1209.9951      1209.9951      1209.9951      1.7715395e+09  0.22671592    -170112.4      -170112.4       934.31023     -169178.09     -2.5065181     -3.054566      -2.9577749     -0.19452876    -0.26218666    -0.5795005      23355.389    
    248600   314.05867      1.243          0.00025278949  0.00030909296  0.0003009087  -2.8383622      1210.2649      1210.2649      1210.2649      1.7727248e+09  0.22656433    -170148.53     -170148.53      935.21309     -169213.31     -2.4948383     -3.0505103     -2.9697379     -0.21078835    -0.24981066    -0.56883739     23677.118    
    248700   314.00594      1.2435         0.00024929781  0.00030635109  0.00029997477 -2.814783       1210.5347      1210.5347      1210.5347      1.7739106e+09  0.22641289    -170184.33     -170184.33      935.05608     -169249.28     -2.4603781     -3.0234502     -2.9605208     -0.22820406    -0.24019132    -0.56389652     25979.08     
    248800   313.66701      1.244          0.00024803886  0.00030435398  0.00029614331 -2.7914669      1210.8045      1210.8045      1210.8045      1.7750969e+09  0.22626157    -170219.02     -170219.02      934.04678     -169284.97     -2.4479533     -3.0037402     -2.9227072     -0.21420738    -0.23621161    -0.56306919     23857.176    
    248900   313.35949      1.2445         0.00024707949  0.00030122225  0.0002934546  -2.7691631      1211.0743      1211.0743      1211.0743      1.7762837e+09  0.2261104     -170253.59     -170253.59      933.13106     -169320.46     -2.438485      -2.9728325     -2.8961717     -0.20017008    -0.23343504    -0.5473288      25931.888    
    249000   312.93417      1.245          0.00024591016  0.00029696081  0.00029329555 -2.7507739      1211.3441      1211.3441      1211.3441      1.777471e+09   0.22595936    -170287.92     -170287.92      931.86452     -169356.06     -2.4269445     -2.9307753     -2.894602      -0.18655913    -0.23930529    -0.54740109     23814.842    
    249100   312.80732      1.2455         0.00024543394  0.00029835496  0.00029449294 -2.7577328      1211.6138      1211.6138      1211.6138      1.7786589e+09  0.22580845    -170322.78     -170322.78      931.48678     -169391.29     -2.4222447     -2.9445345     -2.9064193     -0.18012621    -0.254718      -0.56007655     26042.257    
    249200   313.11557      1.246          0.00024458179  0.00030220271  0.00029384873 -2.7654683      1211.8836      1211.8836      1211.8836      1.7798473e+09  0.22565767    -170358.36     -170358.36      932.40471     -169425.95     -2.4138345     -2.9825089     -2.9000615     -0.18737808    -0.27278379    -0.58048227     23580.757    
    249300   313.40172      1.2465         0.00024489127  0.00030240141  0.00029358547 -2.766274       1212.1534      1212.1534      1212.1534      1.7810363e+09  0.22550703    -170393.5      -170393.5       933.25681     -169460.25     -2.4168889     -2.9844699     -2.8974633     -0.17813158    -0.27726874    -0.59919992     26082.876    
    249400   313.7056       1.247          0.00024642922  0.0002989996   0.00029706388 -2.7715855      1212.4232      1212.4232      1212.4232      1.7822257e+09  0.22535653    -170429.31     -170429.31      934.16172     -169495.15     -2.4320673     -2.9508966     -2.9317926     -0.16407176    -0.27056092    -0.59420657     25946.334    
    249500   313.94114      1.2475         0.00024878079  0.00029753534  0.00029819764 -2.7782343      1212.693       1212.693       1212.693       1.7834157e+09  0.22520616    -170465.66     -170465.66      934.86311     -169530.79     -2.4552755     -2.9364455     -2.9429819     -0.17497016    -0.27463022    -0.58212213     23837.544    
    249600   314.21958      1.248          0.00025303676  0.00029945325  0.00029563864 -2.7901263      1212.9628      1212.9628      1212.9628      1.7846063e+09  0.22505592    -170502.85     -170502.85      935.69227     -169567.15     -2.4972787     -2.9553737     -2.9177265     -0.16733166    -0.29173615    -0.59437999     26023.024    
    249700   314.41573      1.2485         0.00025572622  0.00029932652  0.00029714145 -2.8035009      1213.2326      1213.2326      1213.2326      1.7857973e+09  0.22490582    -170540.12     -170540.12      936.27636     -169603.85     -2.5238215     -2.9541231     -2.9325581     -0.15934764    -0.2899168     -0.6097809      23838.772    
    249800   314.58603      1.249          0.00025438712  0.00029882011  0.0003011729  -2.8106921      1213.5023      1213.5023      1213.5023      1.7869889e+09  0.22475585    -170577.97     -170577.97      936.78347     -169641.19     -2.5106057     -2.9491251     -2.9723455     -0.17894376    -0.28160455    -0.59407428     25959.954    
    249900   314.67287      1.2495         0.00025325686  0.00030137347  0.00030180871 -2.8174654      1213.7721      1213.7721      1213.7721      1.7881811e+09  0.22460601    -170616.24     -170616.24      937.04208     -169679.2      -2.4994509     -2.9743249     -2.9786204     -0.18859155    -0.2875127     -0.58137998     23834.63     
    250000   314.79886      1.25           0.00025440797  0.00030508432  0.00030277931 -2.836653       1214.0419      1214.0419      1214.0419      1.7893737e+09  0.2244563     -170654.86     -170654.86      937.41725     -169717.44     -2.5108115     -3.0109481     -2.9881995     -0.17027985    -0.29753237    -0.58836834     8263.4398    
Loop time of 22.1588 on 1 procs for 250000 steps with 1000 atoms

Performance: 974.780 ns/day, 0.025 hours/ns, 11282.180 timesteps/s
95.1% CPU use with 1 MPI tasks x 1 OpenMP threads

MPI task timing breakdown:
Section |  min time  |  avg time  |  max time  |%varavg| %total
---------------------------------------------------------------
Pair    | 11.435     | 11.435     | 11.435     |   0.0 | 51.60
Neigh   | 0.62202    | 0.62202    | 0.62202    |   0.0 |  2.81
Comm    | 1.2237     | 1.2237     | 1.2237     |   0.0 |  5.52
Output  | 1.6038     | 1.6038     | 1.6038     |   0.0 |  7.24
Modify  | 6.2763     | 6.2763     | 6.2763     |   0.0 | 28.32
Other   |            | 0.9979     |            |       |  4.50

Nlocal:           1000 ave        1000 max        1000 min
Histogram: 1 0 0 0 0 0 0 0 0 0
Nghost:            682 ave         682 max         682 min
Histogram: 1 0 0 0 0 0 0 0 0 0
Neighs:            135 ave         135 max         135 min
Histogram: 1 0 0 0 0 0 0 0 0 0

Total # of neighbors = 135
Ave neighs/atom = 0.135
Neighbor list builds = 1111
Dangerous builds = 0

# restart file
write_restart ./tensile/restart/restart_${usic}_${trial}.tensile.restart
write_restart ./tensile/restart/restart_1_${trial}.tensile.restart
write_restart ./tensile/restart/restart_1_2.tensile.restart
System init for write_restart ...
Generated 0 of 1 mixed pair_coeff terms from geometric mixing rule
Total wall time: 0:00:22
