ITEM: TIMESTEP
0
ITEM: NUMBER OF ATOMS
1000
ITEM: BOX BOUNDS pp pp pp
-1.0000000000000000e+02 4.1000000000000000e+03
-1.0000000000000000e+02 4.1000000000000000e+03
-1.0000000000000000e+02 4.1000000000000000e+03
ITEM: ATOMS type x y z ix iy iz
1 271.197 0.088 475.749 0 0 0
1 1874.1 0.689 0.472 0 0 0
1 1999.54 1702.35 0.218 0 0 0
1 861.637 82.641 1917.1 0 0 0
1 14.606 11.029 1997.06 0 0 0
1 2000 1296.84 623.993 0 0 0
1 1757.09 2.643 1996.16 0 0 0
1 183.896 2000 0.003 0 0 0
1 1728.09 1520.75 595.225 0 0 0
1 310.114 742.336 534.02 0 0 0
1 169.491 828.941 176.72 0 0 0
1 479.153 710.046 721.408 0 0 0
1 910.92 775.461 774.522 0 0 0
1 553.419 106.253 227.117 0 0 0
1 790.522 295.648 958.372 0 0 0
1 625.071 847.111 6.55 0 0 0
1 329.784 640.277 68.748 0 0 0
1 50.181 396.281 4.638 0 0 0
1 681.072 88.461 432.418 0 0 0
1 287.276 899.247 19.818 0 0 0
1 494.855 333.949 171.257 0 0 0
1 123.639 39.507 536.259 0 0 0
1 762.916 818.997 676.843 0 0 0
1 309.772 926.645 340.219 0 0 0
1 273.183 859.738 706.687 0 0 0
1 19.391 1.908 895.312 0 0 0
1 784.801 616.399 590.521 0 0 0
1 521.204 587.386 207.551 0 0 0
1 601.655 44.063 702.049 0 0 0
1 566.971 789.896 819.997 0 0 0
1 438.779 343.888 556.147 0 0 0
1 587.04 440.156 373.397 0 0 0
1 67.615 441.952 316.436 0 0 0
1 819.997 306.325 253.023 0 0 0
1 271.367 215.488 1933.69 0 0 0
1 877.661 177.494 960.527 0 0 0
1 906.485 961.25 446.573 0 0 0
1 772.932 652.24 109.962 0 0 0
1 778.916 235.528 717.033 0 0 0
1 6.828 920.379 608.657 0 0 0
1 374.704 493.314 439.581 0 0 0
1 507.373 463.967 189.697 0 0 0
1 790.872 821.027 284.525 0 0 0
1 388.114 126.921 672.835 0 0 0
1 473.639 402.199 351.004 0 0 0
1 226.517 814.634 826.94 0 0 0
1 1954.85 1908.44 34.168 0 0 0
1 582.921 1764.2 1563.18 0 0 0
1 1353.88 1001.16 1563.22 0 0 0
1 794.099 793.124 405.504 0 0 0
1 3997.95 7.159 26.431 0 0 0
1 3171.26 1999.99 91.667 0 0 0
1 2188.04 1828.72 1904.84 0 0 0
1 2103.31 672.844 1890 0 0 0
1 3248.72 418.836 291.252 0 0 0
1 3141.48 0 0 0 0 0
1 2443.46 0.051 65.419 0 0 0
1 4000 132.406 0 0 0 0
1 3182.57 206.124 305.931 0 0 0
1 3154.91 302.46 123.609 0 0 0
1 3349.26 651.071 748.845 0 0 0
1 3777.53 807.491 867.135 0 0 0
1 3922.42 337.377 401.685 0 0 0
1 3142.56 908.572 17.315 0 0 0
1 3358.13 181.079 282.735 0 0 0
1 3415.37 8.573 265.285 0 0 0
1 3252.09 194.633 840.763 0 0 0
1 3767.79 229.328 500.734 0 0 0
1 3008.73 304.491 815.67 0 0 0
1 3397.01 921.894 853.446 0 0 0
1 3461.12 522.183 537.357 0 0 0
1 3558.03 150.525 569.285 0 0 0
1 3772.29 648.26 647.822 0 0 0
1 3760.35 731.332 310.229 0 0 0
1 3580.03 850.322 777.886 0 0 0
1 3187.18 793.312 636.356 0 0 0
1 3958.03 913.516 445.027 0 0 0
1 3440.54 834.22 264.394 0 0 0
1 3226.76 557.293 206.148 0 0 0
1 3773.23 249.104 125.063 0 0 0
1 3064.23 98.796 408.313 0 0 0
1 3013.07 369.932 300.059 0 0 0
1 3421.78 634.558 194.174 0 0 0
1 3554.72 602.262 727.518 0 0 0
1 3228.02 804.788 306.855 0 0 0
1 3093.29 609.911 314.068 0 0 0
1 2980.72 930.789 294.642 0 0 0
1 3967.79 639.568 256.243 0 0 0
1 3078.93 710.552 104.332 0 0 0
1 3116.07 440.223 742.2 0 0 0
1 3110.29 632.719 684.08 0 0 0
1 3949.53 419.581 803.311 0 0 0
1 3628.23 848.417 86.275 0 0 0
1 3418.68 467.941 94.408 0 0 0
1 3440.39 534.999 358.281 0 0 0
1 3840.8 770.327 551.391 0 0 0
1 4000 2000 1056.71 0 0 0
1 3999.96 249.945 1922.68 0 0 0
1 2453.67 1370.8 151.588 0 0 0
1 3384.1 321.834 302.951 0 0 0
1 68.658 3697.77 902.454 0 0 0
1 132.814 2135.45 322.607 0 0 0
1 0.277 2912.16 0.341 0 0 0
1 1750.51 3725.1 1641.84 0 0 0
1 1423.79 3685.7 1436.1 0 0 0
1 1.865 2030.42 111.354 0 0 0
1 1998.28 2444.44 843.72 0 0 0
1 322.213 2374.7 66.028 0 0 0
1 1487.59 4000 237.072 0 0 0
1 785.418 2010.26 125.068 0 0 0
1 129.433 2000.19 511.726 0 0 0
1 247.291 2216.92 1138.53 0 0 0
1 342.354 2064.62 246.706 0 0 0
1 970.788 2000 998.992 0 0 0
1 1542.31 2044.92 36.219 0 0 0
1 824.7 2002.01 727.937 0 0 0
1 370.323 2273.54 0 0 0 0
1 415.967 2000 159.213 0 0 0
1 112.96 2000.13 767.177 0 0 0
1 515.748 2000.42 647.368 0 0 0
1 209.162 2001.62 694.443 0 0 0
1 6.335 2000 652.224 0 0 0
1 433.547 2000.17 301.165 0 0 0
1 1987.48 3926.42 1380.28 0 0 0
1 764.356 2000.59 614.607 0 0 0
1 367.05 2000.28 778.356 0 0 0
1 722.915 4000 1388.36 0 0 0
1 666.206 2000 782.165 0 0 0
1 1007.35 2000 776.937 0 0 0
1 201.991 2000 836.189 0 0 0
1 1032.02 2000 544.341 0 0 0
1 565.92 2004.15 379.764 0 0 0
1 123.691 2000.13 623.28 0 0 0
1 628.461 2001.59 158.326 0 0 0
1 308.047 2000 910.253 0 0 0
1 0 2105.7 799.109 0 0 0
1 84.316 2908.47 77.969 0 0 0
1 676.052 2009.53 1782.03 0 0 0
1 973.914 2019.22 650.394 0 0 0
1 554.378 2000.04 859.222 0 0 0
1 69.049 2438.33 547.749 0 0 0
1 296.641 2000 19.349 0 0 0
1 945.127 2000 880.74 0 0 0
1 826.007 2000 854.059 0 0 0
1 214.619 2039.55 128.445 0 0 0
1 516.113 2000.4 529.36 0 0 0
1 0 3507.03 0.003 0 0 0
1 63.526 2002.13 2.678 0 0 0
1 112.809 2000.7 146.592 0 0 0
1 891.272 2000 425.074 0 0 0
1 1737.53 1988.44 3342.71 0 0 0
1 1495.16 920.286 2000.01 0 0 0
1 774.877 1999.87 2750.32 0 0 0
1 0.827 786.669 3063.17 0 0 0
1 929.493 108.6 2191.9 0 0 0
1 539.483 1227.71 2158.53 0 0 0
1 1922.23 1456.32 3378.57 0 0 0
1 857.883 0 2000 0 0 0
1 421.823 0 2000 0 0 0
1 599.303 649.125 2003.23 0 0 0
1 69.668 1055.29 2006.39 0 0 0
1 200.785 932.997 2000 0 0 0
1 493.752 93.498 2000.65 0 0 0
1 253.158 112.644 2002.72 0 0 0
1 708.606 116.696 2000 0 0 0
1 769.645 671.008 2000 0 0 0
1 1004.09 997.816 2003.87 0 0 0
1 3.719 130.971 2044.56 0 0 0
1 573.828 25.381 2577.81 0 0 0
1 674.046 249.553 2000 0 0 0
1 271.41 845.463 2000.07 0 0 0
1 544.641 551.258 2007.1 0 0 0
1 348.084 174.632 2014.17 0 0 0
1 792.869 923.854 2000.14 0 0 0
1 594.717 543.871 2411.74 0 0 0
1 211.579 588.108 2006.37 0 0 0
1 868.101 813.937 2004.5 0 0 0
1 105.1 405.979 2000.19 0 0 0
1 426.864 845.314 2003.26 0 0 0
1 756.556 349.112 2000 0 0 0
1 583.321 165.925 2000 0 0 0
1 159.281 830.519 2000 0 0 0
1 646.259 419.402 2000 0 0 0
1 116.228 516.902 2000.49 0 0 0
1 548.527 363.073 2394.58 0 0 0
1 272.128 356.603 2051.46 0 0 0
1 1007.6 832.94 2000 0 0 0
1 464.397 301.259 2000 0 0 0
1 368.969 628.568 2000 0 0 0
1 13.068 639.702 2000.22 0 0 0
1 525.897 406.819 2000 0 0 0
1 1056.65 175.364 2000 0 0 0
1 837.831 1805.55 2583.43 0 0 0
1 850.885 428.707 2000 0 0 0
1 580.042 808.245 2000 0 0 0
1 2000 0 3637.83 0 0 0
1 84.368 631.615 3265.24 0 0 0
1 1999.24 459.612 3998.58 0 0 0
1 10.866 0.059 3997.13 0 0 0
1 122.422 671.182 2008.11 0 0 0
1 3999.01 2461.76 1076.95 0 0 0
1 2107.33 3722.75 1946.26 0 0 0
1 4000 3434.66 0.002 0 0 0
1 2993.57 3355.05 1654.15 0 0 0
1 3130.8 2139.74 1999 0 0 0
1 3891.45 2000.07 1950.24 0 0 0
1 3999.97 3999.94 1765.42 0 0 0
1 2000.14 2000.71 1585.43 0 0 0
1 3175.97 2921.37 312.09 0 0 0
1 3953.06 2205.77 1904.18 0 0 0
1 3023.41 4000 0 0 0 0
1 3833.22 3457.94 0.08 0 0 0
1 2267.23 2059.11 223.461 0 0 0
1 2000.13 2147.67 295.532 0 0 0
1 2270.62 2018.55 1916.89 0 0 0
1 3196.56 2249.55 1080.51 0 0 0
1 2000 2136.75 506.164 0 0 0
1 2000.01 2547.9 58.739 0 0 0
1 3871.66 3404.66 2000 0 0 0
1 2118.7 2156.16 0 0 0 0
1 2421.06 2008.78 1834.47 0 0 0
1 3808.26 2465.16 2000 0 0 0
1 2097.7 2179.04 1742.62 0 0 0
1 2026.65 2022.29 904.439 0 0 0
1 2245.47 2447.11 548.443 0 0 0
1 2129.13 2094.45 1461.46 0 0 0
1 2000.06 2147.02 182.09 0 0 0
1 2880.01 2000 1122.2 0 0 0
1 2368.18 2000 354.337 0 0 0
1 2004.95 2348.6 112.032 0 0 0
1 2000.02 3979.4 12.007 0 0 0
1 2027.88 2130.24 1834.44 0 0 0
1 2000.8 2073.64 1266.5 0 0 0
1 2593.59 2000 120.378 0 0 0
1 2339.77 2415.28 677.135 0 0 0
1 2494.4 2123.05 112.86 0 0 0
1 2076.24 3606.37 54.72 0 0 0
1 2113.29 2418.64 1874.61 0 0 0
1 2396.56 2412.71 1328.07 0 0 0
1 2000 3853.47 284.118 0 0 0
1 2112.22 2334.23 1014.56 0 0 0
1 2000 3049.21 1516.82 0 0 0
1 3809.68 2434.06 1737.52 0 0 0
1 2055.9 2013.97 1135.48 0 0 0
1 2660.93 2000 1700.95 0 0 0
1 3325.41 2352.93 2000 0 0 0
1 2175.35 2062.64 1883.42 0 0 0
1 2935.13 3627.36 0 0 0 0
1 2520.15 3981.17 312.145 0 0 0
1 2251.03 2000 132.074 0 0 0
1 2001.93 0 3446.55 0 0 0
1 2001.7 0.72 2984.67 0 0 0
1 2080.83 368.578 3903.98 0 0 0
1 2000.08 1994.41 2531.26 0 0 0
1 3716.04 311.699 3999.09 0 0 0
1 2052.1 589.086 3997.8 0 0 0
1 2259.02 1784.86 2054.43 0 0 0
1 2429.21 2000 4000 0 0 0
1 4000 1226.44 3383.8 0 0 0
1 2001.56 159.066 3207.05 0 0 0
1 2009.17 1556.86 3995.79 0 0 0
1 2261.33 39.423 2604.91 0 0 0
1 2423.75 397.792 2150.32 0 0 0
1 3982.43 1781.63 3941.57 0 0 0
1 3789.97 1599.45 2301.09 0 0 0
1 2228.19 120.252 2385.94 0 0 0
1 2647.4 1530.79 2129.18 0 0 0
1 2912.15 945.802 2297.88 0 0 0
1 2002.09 406.871 2022.66 0 0 0
1 3877.79 142.95 3983.75 0 0 0
1 2027.65 306.301 2071.12 0 0 0
1 3836.36 1998.26 3654.66 0 0 0
1 3822.66 1124.85 3067.45 0 0 0
1 3539.32 0.057 2435.35 0 0 0
1 2000.39 647.744 2398.38 0 0 0
1 2279.52 369.597 2002.3 0 0 0
1 2403.26 1887.22 2961.55 0 0 0
1 3441.95 482.704 3214.12 0 0 0
1 3267.35 760.528 3073.8 0 0 0
1 2248.12 281.34 2108.65 0 0 0
1 2565.59 232.242 2128.46 0 0 0
1 2342.28 660.277 2381.82 0 0 0
1 2821.27 1999.8 3537.12 0 0 0
1 2694.59 8.204 3945.44 0 0 0
1 2000 514.909 3757.18 0 0 0
1 3990 477.031 2000.43 0 0 0
1 2591.27 1920.9 2000.8 0 0 0
1 2918.15 1910.55 3830.52 0 0 0
1 2520.2 102.361 2042.48 0 0 0
1 3982.72 8.574 3841.21 0 0 0
1 3473.17 47.14 3963.58 0 0 0
1 2324.29 377.702 2356.3 0 0 0
1 2178.36 230.423 2210.16 0 0 0
1 2305.01 1253.53 2450.72 0 0 0
1 3999.88 1933.82 3769.7 0 0 0
1 2000.16 288.841 3756.55 0 0 0
1 3741.15 1653.4 3308.9 0 0 0
1 2163.9 0.189 2053.12 0 0 0
1 3972.91 2000 3567.96 0 0 0
1 2447.92 1476.31 2687.18 0 0 0
1 1999.97 2000.03 3049.59 0 0 0
1 629.449 3998.78 3916.18 0 0 0
1 1170.26 4000 3025.84 0 0 0
1 27.799 3999.87 2000.13 0 0 0
1 416.245 2142.65 2155.53 0 0 0
1 203.287 3768 2257.14 0 0 0
1 1999.73 2968.1 3999.68 0 0 0
1 1857.62 3240.77 3832.88 0 0 0
1 110.596 3005.96 2004.27 0 0 0
1 1351.57 2030.12 2099.9 0 0 0
1 441.177 2029.65 2179.99 0 0 0
1 624.693 2048.83 2226.13 0 0 0
1 261.449 2000 2251.98 0 0 0
1 381.917 2000 2409.32 0 0 0
1 22.976 2000 2777.85 0 0 0
1 1423.25 4000 4000 0 0 0
1 905.568 2019.08 2184.52 0 0 0
1 0.009 2526.97 2796.41 0 0 0
1 208.697 2159.3 2264.2 0 0 0
1 1938.49 2091.6 2127.68 0 0 0
1 11.424 3860.29 2526.31 0 0 0
1 1135.33 2005.08 2050.2 0 0 0
1 253.457 2104.53 2179.3 0 0 0
1 571.936 2544.59 2605.77 0 0 0
1 1642.69 2617.48 2257.12 0 0 0
1 730.713 2074.26 2000.04 0 0 0
1 448.173 2112.96 2046.65 0 0 0
1 1170.74 2468.68 2000 0 0 0
1 0.867 2004.55 3310.64 0 0 0
1 670.216 2385.36 2180.31 0 0 0
1 198.872 2000.08 2133.15 0 0 0
1 439.957 2322.16 2007.95 0 0 0
1 0 2000 2669.81 0 0 0
1 87.951 2379.66 2000 0 0 0
1 943.149 2095.57 2071.15 0 0 0
1 363.234 2217.24 2092.85 0 0 0
1 179.719 2196.75 2000 0 0 0
1 2000 2007.22 2229.39 0 0 0
1 558.855 2000 3041.98 0 0 0
1 28.006 3165.95 3997.12 0 0 0
1 1241.89 2114.64 2000 0 0 0
1 744.041 2013.18 2183.53 0 0 0
1 1008.37 3999.96 3690.22 0 0 0
1 855.645 2034.55 2000 0 0 0
1 26.491 3989.97 2241.57 0 0 0
1 0 4000 3403.79 0 0 0
1 0 3888.77 2000 0 0 0
1 1179.56 2266.14 3250.6 0 0 0
1 1313.89 2000 2000.01 0 0 0
1 1471.05 2012.16 2158.93 0 0 0
1 3315.89 3999.97 2000.05 0 0 0
1 2414.43 2000.09 2021.78 0 0 0
1 3999.98 2543.45 4000 0 0 0
1 3989.82 2096.57 3725.91 0 0 0
1 2082.55 2050.19 2048.08 0 0 0
1 3687.22 2580.67 2002.94 0 0 0
1 3699.72 3695.2 3915.3 0 0 0
1 2671.85 4000 3953.73 0 0 0
1 2001.72 2040.84 3978.12 0 0 0
1 2148.69 2405.25 2000 0 0 0
1 2000 3801.58 2598.28 0 0 0
1 3978.74 2676.04 2125.85 0 0 0
1 3813.06 2262.28 2091.9 0 0 0
1 2959.32 3432.53 3369.93 0 0 0
1 2034.06 2340.47 2101.98 0 0 0
1 2000.52 3342.45 2000 0 0 0
1 2023.76 2100.9 2484.8 0 0 0
1 2000.47 3071.66 2000.97 0 0 0
1 3739.41 2326.08 2147.36 0 0 0
1 2563.42 2000 3059.61 0 0 0
1 3066.28 3178.39 3595.92 0 0 0
1 2057.09 2276.71 2009.84 0 0 0
1 3662.57 2112.12 3998.36 0 0 0
1 2227.26 2608.16 2000 0 0 0
1 3114.4 2429.6 2000 0 0 0
1 3150.54 2000.15 2588.91 0 0 0
1 2708.73 2067.4 2121.11 0 0 0
1 2109.98 2000.54 2786.81 0 0 0
1 2067.28 3823.23 2163.62 0 0 0
1 3601.11 2455.57 2218.04 0 0 0
1 2000 3613.79 2098.97 0 0 0
1 2001.68 2000.82 2414.62 0 0 0
1 3283.54 2175.65 2000.66 0 0 0
1 2375.54 3494.58 2107.48 0 0 0
1 2000.21 3312.15 2967.6 0 0 0
1 2007.78 3434.61 2354.02 0 0 0
1 2029.93 2756.78 2353.55 0 0 0
1 2517.12 2668.54 2000.01 0 0 0
1 2490.77 4000 4000 0 0 0
1 3646.46 3997.58 2020.15 0 0 0
1 2616.25 2971.25 4000 0 0 0
1 2118.5 2868.39 2019.45 0 0 0
1 2150.58 2069.41 3894.04 0 0 0
1 2175.07 3186.07 3957.32 0 0 0
1 3999.99 2000.02 2762.98 0 0 0
1 3995.75 3649.98 2002.28 0 0 0
1 3240.82 2000.01 2000 0 0 0
1 2000.05 3299.49 3836.03 0 0 0
1 2000.03 3946.27 2107 0 0 0
1 3674.16 3552.05 3988.86 0 0 0
2 876.851 1186.12 869.361 0 0 0
2 1693.04 535.248 1779.94 0 0 0
2 1.993 3.143 2.218 0 0 0
2 1812.43 195.858 1980.8 0 0 0
2 1968.01 1617.14 87.512 0 0 0
2 28.575 1743.12 201.751 0 0 0
2 1938.02 1982.42 1206.66 0 0 0
2 1502.7 1234.62 2000 0 0 0
2 0 1090.18 555.335 0 0 0
2 1999.32 1258.08 1999.92 0 0 0
2 218.227 0 0 0 0 0
2 262.453 375.078 286.003 0 0 0
2 350.073 429.768 665.417 0 0 0
2 3.352 278.358 766.373 0 0 0
2 232.57 708.066 441.644 0 0 0
2 915.316 682.621 254.924 0 0 0
2 233.89 733.885 936.777 0 0 0
2 97.574 481.917 447.06 0 0 0
2 74.358 365.213 413.671 0 0 0
2 694.436 877.515 572.029 0 0 0
2 462.565 727.998 554.634 0 0 0
2 921.451 666.104 542.033 0 0 0
2 567.315 80.484 494.173 0 0 0
2 0 118.168 117.864 0 0 0
2 46.629 963.25 881.137 0 0 0
2 793.851 267.133 406.939 0 0 0
2 187.95 677.413 824.005 0 0 0
2 872.858 480.349 120.177 0 0 0
2 448.662 148.069 809.944 0 0 0
2 907.724 898.857 954.203 0 0 0
2 543.971 551.134 431.938 0 0 0
2 299.39 588.031 697.84 0 0 0
2 406.186 474.5 271.076 0 0 0
2 384.614 739.345 419.674 0 0 0
2 966.478 86.293 136.515 0 0 0
2 869.387 768.053 496.865 0 0 0
2 208.624 67.101 355.959 0 0 0
2 223.451 301.612 422.114 0 0 0
2 191.619 135.982 863.216 0 0 0
2 392.703 860.398 399.04 0 0 0
2 862.829 589.097 385.388 0 0 0
2 303.96 145.746 804.86 0 0 0
2 947.64 252.012 252.898 0 0 0
2 191.249 361.138 168.228 0 0 0
2 70.356 293.543 260.113 0 0 0
2 712.42 740.481 239.225 0 0 0
2 759.94 1624.95 232.325 0 0 0
2 169.819 821.218 42.66 0 0 0
2 259.349 171.891 19.891 0 0 0
2 110.478 161.337 69.738 0 0 0
2 308.126 822.503 205.518 0 0 0
2 259.655 420.209 535.848 0 0 0
2 474.677 245.464 639.127 0 0 0
2 73.705 404.07 883.332 0 0 0
2 881.967 160.378 405.202 0 0 0
2 212.148 932.628 522.835 0 0 0
2 140.983 149.397 474.26 0 0 0
2 763.7 444.468 732.908 0 0 0
2 337.868 36.483 144.696 0 0 0
2 507.748 544.561 548.506 0 0 0
2 909.351 33.848 552.556 0 0 0
2 385.223 371.87 443.902 0 0 0
2 479.117 649.894 344.473 0 0 0
2 11.361 791.074 954.395 0 0 0
2 656.633 403.455 919.89 0 0 0
2 741.614 680.129 392.203 0 0 0
2 109.243 827.3 285.83 0 0 0
2 227.885 643.775 245.061 0 0 0
2 37.566 168.35 613.993 0 0 0
2 673.656 163.524 283.488 0 0 0
2 822.563 2000 1106.62 0 0 0
2 2000 543.886 1771.8 0 0 0
2 462.475 1998.23 3.767 0 0 0
2 1320.62 905.756 1010.34 0 0 0
2 438.572 922.145 182.695 0 0 0
2 3962.49 0.714 1998.54 0 0 0
2 2529.81 0.045 1999.95 0 0 0
2 3022.18 1999.68 0.051 0 0 0
2 2000.46 381.118 194.176 0 0 0
2 2093.17 38.769 269.554 0 0 0
2 2468.33 267.141 133.715 0 0 0
2 3696.33 1911.91 1349.19 0 0 0
2 2452.01 549.506 128.633 0 0 0
2 3768.58 1604.54 1572.45 0 0 0
2 2002.18 0.869 181.394 0 0 0
2 3786.8 1951.18 1926.19 0 0 0
2 2432.82 662.894 387.406 0 0 0
2 2383.43 1999.98 1369.77 0 0 0
2 2640.48 97.374 1032.72 0 0 0
2 3341.6 24.228 106.147 0 0 0
2 2375.89 323.827 41.967 0 0 0
2 2363.32 283.491 500.916 0 0 0
2 2776.66 179.435 195.608 0 0 0
2 2898.77 510.474 150.099 0 0 0
2 2346.07 996.743 796.076 0 0 0
2 2178.56 783.229 888.554 0 0 0
2 2123.43 367.728 432.883 0 0 0
2 2072.54 740.315 73.733 0 0 0
2 2029.66 47.688 1562.51 0 0 0
2 2404.21 241.276 839.955 0 0 0
2 2023.47 25.962 596.735 0 0 0
2 3995.77 1998.47 1.763 0 0 0
2 2710.81 452.724 270.683 0 0 0
2 2493.39 699.646 80.244 0 0 0
2 2917.01 961.089 444.9 0 0 0
2 2365.95 467.266 739.436 0 0 0
2 2913.32 0 8.311 0 0 0
2 2223.25 881.245 1352.82 0 0 0
2 2006.48 1603.86 768.153 0 0 0
2 2481.99 1217.55 1311.74 0 0 0
2 2392.6 682.499 222.855 0 0 0
2 2040.14 630.798 1506.32 0 0 0
2 2118.21 982.784 17.006 0 0 0
2 2514.09 107.895 1826.63 0 0 0
2 2368.26 546.789 383.771 0 0 0
2 2018.42 452.395 305.801 0 0 0
2 2423.03 880.967 773.973 0 0 0
2 2236.26 43.586 537.933 0 0 0
2 2282.53 501.836 1239.19 0 0 0
2 2416.44 216.841 269.719 0 0 0
2 2476.87 1409.09 806.81 0 0 0
2 2288.68 571.659 850.445 0 0 0
2 2275.6 53.349 404.429 0 0 0
2 2161.83 84.38 1287.34 0 0 0
2 2037.79 93.909 1392.07 0 0 0
2 2522.07 1690.05 603.071 0 0 0
2 2537.19 1337.38 962.49 0 0 0
2 2290.24 887.824 282.605 0 0 0
2 2100.4 272.271 1290.53 0 0 0
2 2329.1 12.511 1127.94 0 0 0
2 2248.32 242.97 1055.53 0 0 0
2 2348.75 590.636 88.282 0 0 0
2 2002.5 123.519 1224.35 0 0 0
2 2010.28 1106.82 674.988 0 0 0
2 2314.84 692.187 35.14 0 0 0
2 2176.37 89.043 197.61 0 0 0
2 2526.15 631.473 1076.57 0 0 0
2 2888.8 39.845 204.197 0 0 0
2 2501.87 1537.75 429.674 0 0 0
2 2120.94 693.246 299.217 0 0 0
2 2047.78 1882.05 850.739 0 0 0
2 2830.91 676.811 100.42 0 0 0
2 2795.37 133.704 336.051 0 0 0
2 3248.89 500.971 1017.08 0 0 0
2 3737.88 1999.27 13.463 0 0 0
2 3289.38 1999.98 1463.49 0 0 0
2 3997.78 665.598 1996.63 0 0 0
2 2029.29 198.863 1990.82 0 0 0
2 2318.84 215.404 175.342 0 0 0
2 3211.56 243.101 7.017 0 0 0
2 6.106 2012.41 1962.17 0 0 0
2 1719.43 3912.44 110.571 0 0 0
2 1021.16 3499.82 811.341 0 0 0
2 959.665 3627.8 136.211 0 0 0
2 353.547 2000.14 1999.52 0 0 0
2 624.153 2603.24 167.121 0 0 0
2 1518.13 2000.82 840.425 0 0 0
2 170.292 2509.54 1999.99 0 0 0
2 0.825 2125.09 0.583 0 0 0
2 138.298 4000 0.004 0 0 0
2 1210.15 3999.99 1999.97 0 0 0
2 2.913 2003.92 429.281 0 0 0
2 1997.82 3232.18 1999.99 0 0 0
2 735.433 2517.94 0.056 0 0 0
2 556.965 2490.14 173.523 0 0 0
2 591.529 2186.23 310.264 0 0 0
2 798.011 2311.65 964.546 0 0 0
2 774.781 2424.16 411.953 0 0 0
2 691.706 2266.65 630.272 0 0 0
2 826.666 2194.32 300.853 0 0 0
2 1009.86 2246.24 383.889 0 0 0
2 279.75 2132.03 462.905 0 0 0
2 1002.1 2225.46 686.103 0 0 0
2 793.18 2162.75 896.674 0 0 0
2 917.386 2200.21 922.364 0 0 0
2 853.556 2466.37 933.965 0 0 0
2 710.678 2169.93 342.784 0 0 0
2 980.37 2234.65 565.494 0 0 0
2 850.93 2148.41 596.886 0 0 0
2 414.08 2382.42 791.29 0 0 0
2 657.824 2169.7 728.384 0 0 0
2 548.735 2176.68 615.074 0 0 0
2 299.012 2366.75 223.376 0 0 0
2 563.163 2289.71 948.985 0 0 0
2 485.697 2218.41 180.788 0 0 0
2 912.641 2299.16 504.44 0 0 0
2 1049.22 2310.09 297.897 0 0 0
2 479.5 2384.86 260.435 0 0 0
2 394.268 2262.47 261.81 0 0 0
2 20.612 2405.74 1.406 0 0 0
2 1034.37 2142.99 413.755 0 0 0
2 149.252 2215.88 938.197 0 0 0
2 3.383 2413.73 979.125 0 0 0
2 682.554 2317.53 928.128 0 0 0
2 678.072 2412.12 286.823 0 0 0
2 690.192 2410.85 825.084 0 0 0
2 825.309 2220.29 471.743 0 0 0
2 186.208 2390.24 863.598 0 0 0
2 583.25 2402.26 487.355 0 0 0
2 492.737 2181.8 793.876 0 0 0
2 994.238 2522.17 458.587 0 0 0
2 707.989 2085.56 515.578 0 0 0
2 203.441 2309.48 660.768 0 0 0
2 1079.6 2399.94 835.542 0 0 0
2 895.361 2422.44 225.607 0 0 0
2 180.786 2139.64 164.622 0 0 0
2 378.325 2405.26 625.644 0 0 0
2 493.153 2429.66 13.391 0 0 0
2 157.285 2321.46 282.434 0 0 0
2 999.565 2430.12 748.734 0 0 0
2 1.315 2412.82 438.953 0 0 0
2 732.862 2438.57 651.871 0 0 0
2 917.847 2417.66 527.956 0 0 0
2 518.268 2111.07 385.377 0 0 0
2 162.243 2355.17 140.715 0 0 0
2 481.901 2380.16 697.708 0 0 0
2 398.107 2306.35 137.843 0 0 0
2 746.245 2303.6 122.699 0 0 0
2 231.816 2394.37 743.148 0 0 0
2 488.962 2390.37 941.889 0 0 0
2 0 4000 0 0 0 0
2 1828.68 2000 1614.27 0 0 0
2 144.668 2001.53 1217.97 0 0 0
2 335.981 2266.35 866.898 0 0 0
2 401.173 2175.62 584.076 0 0 0
2 1937.97 1998.75 3805.13 0 0 0
2 882.731 0.04 2115.31 0 0 0
2 262.013 686.246 2000.01 0 0 0
2 1667.13 58.394 2196.44 0 0 0
2 1825.08 480.982 2081.53 0 0 0
2 1609.23 1689.62 3681.45 0 0 0
2 56.642 809.921 2093.43 0 0 0
2 2.196 1997.6 3646.16 0 0 0
2 1227.17 1994.34 2754.67 0 0 0
2 483.262 1152.21 3525.2 0 0 0
2 591.489 1934.65 4000 0 0 0
2 16.393 772.052 2240.14 0 0 0
2 1880.02 161.439 2392.88 0 0 0
2 821.2 94.679 3768.9 0 0 0
2 788.031 543.133 2254.41 0 0 0
2 727.726 127.265 2229.2 0 0 0
2 790.08 162.359 2358.24 0 0 0
2 469.301 676.996 2087.33 0 0 0
2 645.375 68.56 2151.77 0 0 0
2 695.835 246.073 2238.42 0 0 0
2 158.32 931.678 2376.08 0 0 0
2 429.502 577.011 2151.74 0 0 0
2 549.246 497.501 2235.28 0 0 0
2 200.665 94.512 2299.23 0 0 0
2 1912.36 694.273 3999.85 0 0 0
2 472.781 982.659 2210.49 0 0 0
2 189.956 375.013 2297.57 0 0 0
2 625.276 603.434 2173.03 0 0 0
2 467.606 359.082 2262.95 0 0 0
2 114.549 230.575 2444.03 0 0 0
2 50.21 670.369 2265.12 0 0 0
2 842.943 923.665 2343.32 0 0 0
2 83.498 324.308 2362.28 0 0 0
2 414.291 878.415 2175.69 0 0 0
2 299.301 845.801 2194.74 0 0 0
2 268.513 991.061 2375.2 0 0 0
2 605.845 99.512 2286.81 0 0 0
2 514.719 868.435 2267.03 0 0 0
2 677.154 461.266 2214.29 0 0 0
2 139.889 564.851 2104.66 0 0 0
2 630.676 817.744 2363.81 0 0 0
2 128.483 60.819 2210.11 0 0 0
2 292.927 708.223 2375.51 0 0 0
2 146.697 688.244 2145.57 0 0 0
2 760.353 930.756 2144.29 0 0 0
2 935.123 117.154 2394.18 0 0 0
2 643.907 548.063 2306 0 0 0
2 33.338 1702.38 2000.01 0 0 0
2 308.353 143.097 2263.05 0 0 0
2 83.803 1796.58 2034.04 0 0 0
2 285.54 532.253 2331.39 0 0 0
2 423.681 164.252 2215.3 0 0 0
2 391.273 623.704 2379.18 0 0 0
2 296.874 580.535 2114.42 0 0 0
2 486.709 539.186 2364.53 0 0 0
2 411.058 759.809 2361.5 0 0 0
2 522.758 788.181 2124.67 0 0 0
2 18.255 421.016 2226.18 0 0 0
2 1703.04 1682.14 2000.03 0 0 0
2 896.056 245.697 2340.59 0 0 0
2 177.602 294.806 2176.21 0 0 0
2 305.038 318.861 2263.28 0 0 0
2 536.091 136.804 2128.3 0 0 0
2 146.088 622.726 2234.02 0 0 0
2 871.392 656.612 2199.47 0 0 0
2 130.053 768.115 3293.98 0 0 0
2 145.438 584.156 2412.45 0 0 0
2 462.641 260.3 2363.02 0 0 0
2 664.118 176.115 2377.2 0 0 0
2 1026.88 1541.61 2000.14 0 0 0
2 1361.96 1870.8 2000 0 0 0
2 591.542 2000 2000 0 0 0
2 115.676 1996.69 2049.59 0 0 0
2 2000 1465.25 3111.34 0 0 0
2 859.351 387.008 2392.41 0 0 0
2 2352.81 2214.4 1922.89 0 0 0
2 3190.37 3999.88 1999.95 0 0 0
2 2111.7 2631.44 0.068 0 0 0
2 2092.16 3924.7 1962.49 0 0 0
2 2469.38 2321.44 267.954 0 0 0
2 3861.23 3969.61 1640.62 0 0 0
2 3291.58 3771.38 604.257 0 0 0
2 3999.96 2000.03 1457.49 0 0 0
2 3951.4 2001.4 180.688 0 0 0
2 2528.86 2000 1894.05 0 0 0
2 3928.24 4000 0 0 0 0
2 2170.79 2053.84 727.829 0 0 0
2 4000 3095.6 962.367 0 0 0
2 2290.95 2265.75 494.623 0 0 0
2 2351.86 2220.23 942.243 0 0 0
2 2224.29 2127.61 644.193 0 0 0
2 2397.09 2267.11 840.273 0 0 0
2 2145.76 2393.1 107.469 0 0 0
2 2431.78 2382.85 556.194 0 0 0
2 2306.31 2320.78 756.369 0 0 0
2 2286.25 2355.26 936.514 0 0 0
2 3214.99 3486.92 0 0 0 0
2 2291.13 2353.15 586.429 0 0 0
2 2069.88 2152.85 915.746 0 0 0
2 2171.63 2140.18 181.122 0 0 0
2 2211.34 2125.24 1021.35 0 0 0
2 2190.01 2209.64 947.448 0 0 0
2 2202.53 2334.95 668.173 0 0 0
2 2430.58 2155.26 6.657 0 0 0
2 2085.85 2653.1 200.019 0 0 0
2 2173.07 2219.16 301.54 0 0 0
2 3047.53 3885.35 1967.36 0 0 0
2 2225.14 2142.33 377.746 0 0 0
2 2284.74 2286.43 292.612 0 0 0
2 2441.36 2321.27 683.36 0 0 0
2 2441.56 2380.83 795.029 0 0 0
2 2334.35 2102.34 382.436 0 0 0
2 2085.31 2311.68 660.645 0 0 0
2 2244.29 2314.2 181.199 0 0 0
2 2124.62 2354.79 414.865 0 0 0
2 2317.38 2208.4 758.391 0 0 0
2 2147.86 2243.34 112.014 0 0 0
2 2103.81 2235.77 385.807 0 0 0
2 2416.22 2208.65 133.398 0 0 0
2 2207.92 2148.61 837.896 0 0 0
2 2891.32 2000.04 7.17 0 0 0
2 2128.68 2414.4 737.691 0 0 0
2 2177.76 2039.79 868.705 0 0 0
2 2273.71 2079.2 761.637 0 0 0
2 2459.63 2178.62 752.75 0 0 0
2 2308.88 2415.63 212.662 0 0 0
2 2528.79 3999.98 2000 0 0 0
2 2258.09 2000 0 0 0 0
2 2255.18 2219.2 110.894 0 0 0
2 2063.2 2280.02 246.878 0 0 0
2 2207.99 2186.48 534.549 0 0 0
2 2394.33 2228.8 259.637 0 0 0
2 2356.59 2511.39 799.51 0 0 0
2 2347.68 2377.65 365.563 0 0 0
2 2037.21 2221.63 568.865 0 0 0
2 2372.14 2041.86 518.558 0 0 0
2 2098.58 2120.55 460.077 0 0 0
2 2253.42 2264.78 857.298 0 0 0
2 2305.39 2175.35 198.861 0 0 0
2 2212.21 2442.01 342.044 0 0 0
2 2312.93 2141.93 484.867 0 0 0
2 2103.16 2127.44 330.073 0 0 0
2 3717.58 3540.29 266.703 0 0 0
2 2000 2190.05 73.897 0 0 0
2 2127.28 2000.15 1559.73 0 0 0
2 2106.66 2001.18 1819.68 0 0 0
2 2416.97 2270.42 438.131 0 0 0
2 3985.76 3967.68 1647.5 0 0 0
2 2007.64 3999.74 1265.95 0 0 0
2 2365.56 2106.7 835.666 0 0 0
2 2294.85 371.868 3695.69 0 0 0
2 3540.56 1937.76 2423.2 0 0 0
2 2055.09 1946.67 3999.08 0 0 0
2 3993.52 954.302 2002.34 0 0 0
2 3708.17 1365.79 2369.12 0 0 0
2 2101.5 1495.89 3940.55 0 0 0
2 3674.75 1773.38 2452.09 0 0 0
2 3997.89 1852.75 2005.6 0 0 0
2 2698.23 1578.71 2000.05 0 0 0
2 2737.38 0.087 2000 0 0 0
2 2014.46 134.477 3882.48 0 0 0
2 3556.76 0.017 3272.18 0 0 0
2 4000 2000 3889.95 0 0 0
2 2284.64 509.779 2020.33 0 0 0
2 2105.07 634.371 2506.59 0 0 0
2 2501.99 370.137 2521.72 0 0 0
2 2395.38 263.206 2336.99 0 0 0
2 2692.3 381.911 2001.48 0 0 0
2 2034.98 399.357 2548.34 0 0 0
2 2659.49 456.478 3040.17 0 0 0
2 2117.4 377.02 2234.36 0 0 0
2 3694.55 0.089 2000.15 0 0 0
2 3048.75 1724.61 3538.7 0 0 0
2 2024.46 1171.55 2943.43 0 0 0
2 2169.79 926.508 2028.8 0 0 0
2 2312.85 553.865 2563.23 0 0 0
2 2545.26 91.195 2157.43 0 0 0
2 2438.92 597.215 2520.07 0 0 0
2 2249.71 528.632 2338.02 0 0 0
2 2376.87 840.004 2270.81 0 0 0
2 2416.8 270.056 2530.53 0 0 0
2 2590.77 205.741 2352.04 0 0 0
2 3987.52 137.38 2197.42 0 0 0
2 2188.12 609.481 2177.23 0 0 0
2 2324.1 717.515 2224.61 0 0 0
2 2289.2 935.825 2312.99 0 0 0
2 2247.43 762.521 2506.93 0 0 0
2 2303.16 257.886 2210.21 0 0 0
2 2390.08 384.052 2020.9 0 0 0
2 2506.39 491.342 2149.23 0 0 0
2 2133.38 551.136 2326.85 0 0 0
2 2771.14 1773.29 2238.62 0 0 0
2 3331.75 299.434 2946.13 0 0 0
2 2157.42 676.714 2277.1 0 0 0
2 2448.35 634.707 2402.22 0 0 0
2 2411.07 1048.24 2339.59 0 0 0
2 2624.46 489.453 2011.9 0 0 0
2 2465.07 970.631 2184.3 0 0 0
2 2135.18 1068.92 2317.22 0 0 0
2 2494.12 909.793 2387.89 0 0 0
2 2794.08 104.977 2058.99 0 0 0
2 2126.19 1976.26 3221.39 0 0 0
2 2321.88 475.993 2172.06 0 0 0
2 2081.27 878.031 2362.53 0 0 0
2 2305.05 3.388 2106.17 0 0 0
2 2361.39 776.206 2496.8 0 0 0
2 2295.94 3.945 2367.29 0 0 0
2 3584.16 722.91 4000 0 0 0
2 2453.88 772.899 2416.26 0 0 0
2 2119.12 290.419 2133.34 0 0 0
2 2209.02 745.494 2381.75 0 0 0
2 2464.66 484.686 2383.66 0 0 0
2 2343.78 594.634 2256.27 0 0 0
2 2046.83 50.191 2651.15 0 0 0
2 2219.82 149.674 2544.15 0 0 0
2 2486.23 293.182 2217.01 0 0 0
2 2157.07 231.656 2343.34 0 0 0
2 2364.78 129.344 2405.93 0 0 0
2 2136.49 701.886 2634.29 0 0 0
2 3274.69 1172.83 2334.14 0 0 0
2 2270.03 34.696 3758.8 0 0 0
2 3939.9 259.873 2267.21 0 0 0
2 2539.48 1027.1 2000 0 0 0
2 2465.56 1999.99 3136.98 0 0 0
2 2426.94 632.84 2166.98 0 0 0
2 1994.84 3857.03 2000 0 0 0
2 1984.75 3987.88 3860.49 0 0 0
2 1991.1 3997.33 3986.15 0 0 0
2 942.045 3081.22 2003.42 0 0 0
2 0.045 3999.84 3999.99 0 0 0
2 65.244 3429.27 2737.65 0 0 0
2 421.487 2150.24 3529.12 0 0 0
2 240.116 2099.77 3901.57 0 0 0
2 0.074 3999.94 3273.16 0 0 0
2 1.072 3950.59 3825.7 0 0 0
2 1536.05 3795.95 2000.01 0 0 0
2 2.086 2004.24 2154.49 0 0 0
2 1.326 3762.26 2001.49 0 0 0
2 876.139 2000 3999.78 0 0 0
2 1036.53 2577.85 2489.18 0 0 0
2 0 3036.37 2733.58 0 0 0
2 0 2229.13 2885.73 0 0 0
2 506.566 2008.2 2326.27 0 0 0
2 853.576 2000 2483.07 0 0 0
2 902.888 2281.36 2313.26 0 0 0
2 1992.84 2562.46 2000 0 0 0
2 0.4 2228.36 2488.59 0 0 0
2 2.099 2278.7 2283.56 0 0 0
2 651.627 2159.18 2042.21 0 0 0
2 60.967 3995.67 3908.1 0 0 0
2 1148.27 2327.92 4000 0 0 0
2 506.037 2530.61 2378.02 0 0 0
2 1578.67 2248.17 2884.54 0 0 0
2 1064.66 2467.54 2261.27 0 0 0
2 316.187 2138.78 2430 0 0 0
2 647.758 2143.06 3762.66 0 0 0
2 30.389 2386.84 2330.32 0 0 0
2 228.348 2392.82 2005.64 0 0 0
2 934.014 2240.32 2008.46 0 0 0
2 37.577 2412.32 2184.63 0 0 0
2 1004.33 2404.23 2161.19 0 0 0
2 1023.62 2205.15 2074.87 0 0 0
2 389.797 2310.33 2176.98 0 0 0
2 947.406 2033.77 2426.95 0 0 0
2 763.908 2185.58 2351.68 0 0 0
2 1541.35 2118 2007.19 0 0 0
2 639.471 2252.51 2341.95 0 0 0
2 760.303 2288.29 2199.68 0 0 0
2 573.162 2113.78 2121.39 0 0 0
2 505.836 2234.49 2130.41 0 0 0
2 851.497 2216.48 2201.9 0 0 0
2 3.912 2237.84 2167.95 0 0 0
2 0 2565.21 2520.93 0 0 0
2 238.155 2000 2442.78 0 0 0
2 77.655 2124.67 2356.75 0 0 0
2 1002.91 2085.84 2260.71 0 0 0
2 563.993 2439.45 2357.23 0 0 0
2 307.573 2466.66 2502.44 0 0 0
2 317.576 2332.51 2395.01 0 0 0
2 345.23 2111.47 2288.27 0 0 0
2 977.113 2202.83 2263.42 0 0 0
2 1130.2 2008.2 2403.26 0 0 0
2 168.181 2296.97 2044.78 0 0 0
2 722.719 2366.34 2008.53 0 0 0
2 927.625 2141.34 2389.93 0 0 0
2 279.066 2203.66 2347.95 0 0 0
2 4.547 2045.48 2378.75 0 0 0
2 516.478 2341.54 2198.6 0 0 0
2 631.446 2139.41 2398.81 0 0 0
2 421.042 2354.56 2305.31 0 0 0
2 796.316 2212.51 2030.27 0 0 0
2 203.544 2106.13 2393.56 0 0 0
2 2000 4000 2705.1 0 0 0
2 467.34 2175.33 2421.2 0 0 0
2 90.899 2000 3934.85 0 0 0
2 1981.35 3721.83 2000 0 0 0
2 8.163 3515 2167.25 0 0 0
2 1856.89 3079.34 2057.19 0 0 0
2 1733.58 3660.83 2347.29 0 0 0
2 630.448 2261.05 2105.49 0 0 0
2 2003.92 3869.76 3995.47 0 0 0
2 2279.03 3991.89 2747.07 0 0 0
2 3826.38 2928.19 3545.96 0 0 0
2 3447.05 2185.39 2051.43 0 0 0
2 3934.33 3076.41 2747.51 0 0 0
2 2002.97 3976.21 2001.13 0 0 0
2 2140.6 3999.99 2244.83 0 0 0
2 3695.07 2137.78 3894.28 0 0 0
2 3938.95 2063.38 2057.04 0 0 0
2 3999.86 2000.01 4000 0 0 0
2 3678.91 4000 3950.02 0 0 0
2 3836.76 2004.12 2899.41 0 0 0
2 2479.51 2229.25 2617.65 0 0 0
2 2213.55 2237.54 2692.81 0 0 0
2 2626.48 2326.4 2265.99 0 0 0
2 2238.52 2137.64 2472.61 0 0 0
2 2331.96 2225.04 2583.39 0 0 0
2 2616.92 2257.29 2414.5 0 0 0
2 3999.99 2324.79 2000.02 0 0 0
2 2451.2 3725.2 2025.5 0 0 0
2 2063.52 2118.9 2333.67 0 0 0
2 2290.43 2334.61 2488.67 0 0 0
2 2338.77 2174.66 2445.58 0 0 0
2 2326.03 2639.35 2309.36 0 0 0
2 2254.81 2320.19 2352.78 0 0 0
2 2390.58 2523.9 2428.51 0 0 0
2 2000 2013.17 3399.6 0 0 0
2 2426.38 2627.32 2760.61 0 0 0
2 2308.41 2105.86 2572.29 0 0 0
2 2480.03 2567.02 2517.98 0 0 0
2 2378.04 2795.23 3420.9 0 0 0
2 2426.08 2240.76 2395.08 0 0 0
2 2293.53 2042.7 2336.59 0 0 0
2 2102.58 2336.95 2204.18 0 0 0
2 2545.62 2342.22 2354.74 0 0 0
2 2368.3 2124.54 2351.39 0 0 0
2 2110.07 2608.39 2242.13 0 0 0
2 2291.31 2293.51 2155.52 0 0 0