ITEM: TIMESTEP
0
ITEM: NUMBER OF ATOMS
1000
ITEM: BOX BOUNDS pp pp pp
-1.0000000000000000e+02 4.1000000000000000e+03
-1.0000000000000000e+02 4.1000000000000000e+03
-1.0000000000000000e+02 4.1000000000000000e+03
ITEM: ATOMS type x y z ix iy iz
2 434.238 4000 3217.19 0 0 0
2 2176.6 0 4000 0 0 0
2 4000 4000 4000 0 0 0
2 0 4000 0 0 0 0
2 2300.73 1627.63 2174.7 0 0 0
2 1187.7 1182.24 694.495 0 0 0
2 2979.15 2177.64 1277.38 0 0 0
2 3293.94 1480.99 4000 0 0 0
2 0 3431.87 0 0 0 0
2 2722.02 2217.77 0 0 0 0
2 3971.93 0 3294.74 0 0 0
2 0 2756.88 372.179 0 0 0
2 1759.52 2706.14 3604.59 0 0 0
2 2216.23 3904.46 79.27 0 0 0
2 1218.37 673.607 2326.18 0 0 0
2 1418.92 1441.76 1868.89 0 0 0
2 3888.89 4000 0 0 0 0
2 140.149 0 3923.71 0 0 0
2 4000 0 1015.89 0 0 0
2 3692.41 2475.53 777.04 0 0 0
2 1091.39 1221.51 2240.24 0 0 0
2 1971.27 4000 348.479 0 0 0
2 0 4000 796.532 0 0 0
2 2041.67 0 0 0 0 0
2 1087.1 2804.87 3352.07 0 0 0
2 3599.57 1771.13 1118.52 0 0 0
2 2557.4 794.254 1024.86 0 0 0
2 4000 3382.22 1071.49 0 0 0
2 0 273.277 2676.46 0 0 0
2 4000 3147.46 4000 0 0 0
2 3999.2 4000 0 0 0 0
2 1068.21 1551.41 1112.74 0 0 0
2 0 2924.41 0 0 0 0
2 1898.82 0 4000 0 0 0
2 755.458 840.973 175.516 0 0 0
2 3712.97 3982 2296.56 0 0 0
2 0 1707.7 1722.49 0 0 0
2 1097.59 3068.18 1306.89 0 0 0
2 0 1875.48 797.957 0 0 0
2 2685.33 1653.86 1293.74 0 0 0
2 3831.18 2319.94 1991.43 0 0 0
2 2606.85 4000 79.092 0 0 0
2 623.327 1342.37 0 0 0 0
2 843.519 0.01 2398.17 0 0 0
2 1485.24 2849.02 1847.89 0 0 0
2 0 0 479.407 0 0 0
2 1784.77 2681.23 330.621 0 0 0
2 4000 0 4000 0 0 0
2 0.257 472.322 0 0 0 0
2 1759.08 3932.1 4000 0 0 0
2 2936.81 4000 2820.52 0 0 0
2 73.794 2915.8 1081.08 0 0 0
2 55.67 4000 528.14 0 0 0
2 2343.27 0 0 0 0 0
2 2088.06 0 239.149 0 0 0
2 2919.61 1438.92 533.169 0 0 0
2 444.405 3626.86 4000 0 0 0
2 3619.45 1071.33 2926.89 0 0 0
2 1220.46 3691.86 0 0 0 0
2 4000 2022.82 3897.2 0 0 0
2 1685.89 2099.75 3883.82 0 0 0
2 0 403.525 3676.56 0 0 0
2 1840.29 1517.29 0 0 0 0
2 0 2772.16 485.25 0 0 0
2 0 3045.21 762.512 0 0 0
2 2491.14 2797.27 910.655 0 0 0
2 1611.25 3906.25 2135.86 0 0 0
2 0.292 197.392 0.715 0 0 0
2 3714.57 3466.59 0.001 0 0 0
2 2215.71 1132.51 710.795 0 0 0
2 2305.39 3156.85 0.004 0 0 0
2 3453.49 1063.93 4000 0 0 0
2 1863.58 1819.88 168.636 0 0 0
2 2840.71 1144.54 1984.58 0 0 0
2 710.589 0 3355.84 0 0 0
2 151.998 1104.12 549.438 0 0 0
2 1871.49 3712.88 2027.26 0 0 0
2 1034.37 820.358 1161.47 0 0 0
2 2043.11 1892.74 0 0 0 0
2 1133.87 1257.59 760.411 0 0 0
2 1313.53 66.312 482.32 0 0 0
2 816.417 499.888 297.061 0 0 0
2 972.679 165.276 371.935 0 0 0
2 936.762 617.861 801.789 0 0 0
2 698.899 930.062 264.823 0 0 0
2 839.176 382.727 205.918 0 0 0
2 454.849 302.911 527.09 0 0 0
2 491.364 151.523 472.737 0 0 0
2 242.483 456.777 226.488 0 0 0
2 1019.8 917.429 176.759 0 0 0
2 344.667 774.433 909.554 0 0 0
2 120.828 922.84 1037.87 0 0 0
2 171.691 28.95 861.881 0 0 0
2 537.924 1704.94 1172.31 0 0 0
2 752.022 1033.8 0 0 0 0
2 371.764 924.274 315.51 0 0 0
2 244.573 533.65 105.787 0 0 0
2 158.384 136.244 686.485 0 0 0
2 952.3 113.949 477.138 0 0 0
2 9.65 2213.13 4000 0 0 0
2 748.73 108.97 556.501 0 0 0
2 926.165 350.34 118.039 0 0 0
2 767.437 841.762 647.45 0 0 0
2 792.929 155.405 458.926 0 0 0
2 484.793 545.119 429.098 0 0 0
2 15.667 1019.82 333.874 0 0 0
2 389.442 1032.7 21.454 0 0 0
2 602.2 769.756 637.389 0 0 0
2 550.996 1105.96 501.585 0 0 0
2 234.754 346.904 291.313 0 0 0
2 485.244 921.768 908.982 0 0 0
2 992.639 813.672 245.863 0 0 0
2 966.435 1078.74 292.288 0 0 0
2 589.612 482.362 274.591 0 0 0
2 1069.3 1371.53 1574.15 0 0 0
2 1087.81 367.996 534.756 0 0 0
2 317.673 27.281 545.617 0 0 0
2 293.004 1011.68 1111.23 0 0 0
2 800.318 973.401 251.587 0 0 0
2 539.31 364.367 561.86 0 0 0
2 1986.59 3096.96 3082.32 0 0 0
2 999.293 360.541 824.808 0 0 0
2 482.915 351.504 1082.72 0 0 0
2 1008.83 704.056 0 0 0 0
2 794.99 99.087 277.92 0 0 0
2 857.946 919.56 343.042 0 0 0
2 1047.19 529.278 55 0 0 0
2 415.539 549.726 751.324 0 0 0
2 704.796 948.571 838.701 0 0 0
2 529.864 503.873 757.816 0 0 0
2 216.749 930.363 617.629 0 0 0
2 156.529 339.482 370.044 0 0 0
2 733.032 507.706 486.973 0 0 0
2 801.848 40.481 1326.24 0 0 0
2 204.815 2010.85 1858.96 0 0 0
2 932.413 665.856 197.342 0 0 0
2 588.135 993.634 800.166 0 0 0
2 113.441 699.052 615.561 0 0 0
2 900.066 391.798 604.249 0 0 0
2 2926.81 3689.99 730.977 0 0 0
2 301.947 1115.87 723.766 0 0 0
2 17.168 702.572 993.624 0 0 0
2 608.872 595.901 280.537 0 0 0
2 460.428 297.274 818.82 0 0 0
2 0 1561.36 845.637 0 0 0
2 791.678 654.53 379.653 0 0 0
2 1015.13 953.449 878.497 0 0 0
2 526.693 544.492 654.871 0 0 0
2 3900.58 2346.66 2131.86 0 0 0
2 610.027 229.91 0 0 0 0
2 220.402 1073.79 864.247 0 0 0
2 917.131 1023.57 85.282 0 0 0
2 724.028 113.204 974.499 0 0 0
2 3084.7 147.096 1770.12 0 0 0
2 437.164 829.766 1137.13 0 0 0
2 826.106 1684.1 4.374 0 0 0
2 411.838 500.742 498.816 0 0 0
2 572.431 1006.02 437.057 0 0 0
2 740.195 742.02 583.269 0 0 0
2 297.391 988.272 561.139 0 0 0
2 910.581 1020.55 196.435 0 0 0
2 830.459 309.594 688.165 0 0 0
2 2309.39 0 3506.26 0 0 0
2 3172.15 2672.44 4000 0 0 0
2 0 1006.19 750.831 0 0 0
2 893.421 201.24 440.961 0 0 0
2 527.956 975.119 104.703 0 0 0
2 18.164 1093.78 613.998 0 0 0
2 266.039 818.566 2.247 0 0 0
2 322.501 484.588 423.587 0 0 0
2 502.224 593.614 331.468 0 0 0
2 228.246 869.039 510.689 0 0 0
2 937.075 1183.06 2401.92 0 0 0
2 353.117 434.316 104.991 0 0 0
2 805.26 263.728 791.155 0 0 0
2 1098.67 105.348 860.943 0 0 0
2 539.493 515.649 1075.36 0 0 0
2 543.734 220.486 627.217 0 0 0
2 138.657 981.8 4.122 0 0 0
2 903.732 176.599 788.631 0 0 0
2 888.856 3240.54 525.878 0 0 0
2 788.964 294.47 992.341 0 0 0
2 22.863 1560.91 2210.68 0 0 0
2 949.172 732.272 868.119 0 0 0
2 528.816 942.753 1035.7 0 0 0
2 2257.24 1924.64 1035.01 0 0 0
2 637.132 716.694 994.964 0 0 0
2 874.433 543.779 101.937 0 0 0
2 613.409 195.247 536.605 0 0 0
2 1517.07 1624.57 2179.67 0 0 0
2 1686.47 1941.63 527.366 0 0 0
2 317.801 1077.79 149.945 0 0 0
2 63.574 655.834 429.577 0 0 0
2 235.991 272.363 0 0 0 0
2 89.463 559.531 177.724 0 0 0
2 1067.04 634.697 702.445 0 0 0
2 816.48 0 1036.83 0 0 0
2 285.878 394.955 525.129 0 0 0
2 1108.53 316.552 228.683 0 0 0
2 2.819 11.414 1354.56 0 0 0
2 59.896 220.942 855.093 0 0 0
2 176.28 192.495 845.21 0 0 0
2 195.537 470.434 551.51 0 0 0
2 459.17 809.056 925.641 0 0 0
2 69.186 209.543 381.726 0 0 0
2 408.856 676.18 330.33 0 0 0
2 0 324.69 37.44 0 0 0
2 155.657 44.834 227.777 0 0 0
2 25.727 706.222 765.94 0 0 0
2 221.382 1042.25 620.8 0 0 0
2 1168.67 136.709 578.821 0 0 0
2 462.631 907.469 167.466 0 0 0
2 1407.89 85.134 780.718 0 0 0
2 285.072 242.739 597.189 0 0 0
2 936.247 73.238 762.168 0 0 0
2 160.468 594.91 383.106 0 0 0
2 151.679 626.505 1069.71 0 0 0
2 164.81 12.68 470.153 0 0 0
2 2103.18 878.553 1553.32 0 0 0
2 0 653.984 657.717 0 0 0
2 385.927 922.153 532.46 0 0 0
2 203.297 410.597 667.82 0 0 0
2 917.564 756.287 598.591 0 0 0
2 1332.89 715.868 683.85 0 0 0
2 402.859 769.763 704.147 0 0 0
2 23.717 141.356 455.222 0 0 0
2 1065.47 876.123 785.61 0 0 0
2 1794.59 2805.89 1780.68 0 0 0
2 199.841 515.216 450.217 0 0 0
2 318.424 488.947 1066.26 0 0 0
2 0 229.94 209.168 0 0 0
2 552.815 843.213 862.362 0 0 0
2 0 371.984 207.525 0 0 0
2 984.442 1037.52 947.17 0 0 0
2 479.249 695.536 0 0 0 0
2 748.172 585.943 946.7 0 0 0
2 840.352 398.01 996.773 0 0 0
2 514.218 308.389 296.172 0 0 0
2 1000.19 903.029 1052.99 0 0 0
2 115.304 181.938 0.461 0 0 0
2 648.114 819.719 452.451 0 0 0
2 1515.22 2206.81 2230.12 0 0 0
2 1374.26 422.987 0 0 0 0
2 0 781.873 238.083 0 0 0
2 363.572 902.426 990.029 0 0 0
2 731.49 704.202 895.8 0 0 0
2 236.839 948.639 1029.3 0 0 0
2 90.848 443.228 941.734 0 0 0
2 717.916 0 855.722 0 0 0
2 971.651 453.04 1737.54 0 0 0
2 836.769 522.098 530.852 0 0 0
2 673.967 819.385 246.674 0 0 0
2 729.92 3.043 2443.46 0 0 0
2 97.008 3345.23 2567.62 0 0 0
2 1027.91 286.329 747.753 0 0 0
2 301.156 584.747 466.76 0 0 0
2 1072.14 53.226 221.421 0 0 0
2 832.747 634.761 740.713 0 0 0
2 880.301 200.208 681.678 0 0 0
2 0 123.938 874.804 0 0 0
2 1247.4 0 185.823 0 0 0
2 2365.57 365.302 2062.16 0 0 0
2 388.487 655.963 784.129 0 0 0
2 980.497 181.246 1041.95 0 0 0
2 599.468 203.053 1121.56 0 0 0
2 34.055 213.852 967.898 0 0 0
2 883.572 859.86 166.024 0 0 0
2 1040.14 170.46 764.941 0 0 0
2 903.526 88.646 989.487 0 0 0
2 256.904 841.459 857.525 0 0 0
2 871.932 205.469 976.851 0 0 0
2 2331.36 1064.05 2109.26 0 0 0
2 198.864 85.921 570.108 0 0 0
2 2939.2 657.904 985.174 0 0 0
2 19.896 897.59 225.674 0 0 0
2 57.516 384.889 583.558 0 0 0
2 811.733 268.034 503.191 0 0 0
2 2346.09 1657.13 1426.76 0 0 0
2 3258.68 1242.66 2856.54 0 0 0
2 218.273 595.278 8.469 0 0 0
2 577.548 902.557 173.587 0 0 0
2 659.353 421.996 884.044 0 0 0
2 1886.36 1113.39 1831.36 0 0 0
2 408.534 228.792 597.592 0 0 0
2 698.864 1138.76 1070.47 0 0 0
2 552.536 863.89 592.425 0 0 0
2 806.672 28.409 508.202 0 0 0
2 1259.41 0 76.48 0 0 0
2 364.163 77.988 860.29 0 0 0
2 721.877 615.115 460.266 0 0 0
2 1092.45 714.421 325.204 0 0 0
2 540.393 159.101 357.391 0 0 0
2 1130.93 737.204 682.813 0 0 0
2 775.687 591.095 20.36 0 0 0
2 786.985 1036.75 849.28 0 0 0
2 991.408 3.899 563.988 0 0 0
2 750.434 329.636 615.392 0 0 0
2 100.336 680.085 0 0 0 0
2 968.503 696.288 519.807 0 0 0
2 386.4 447.62 0 0 0 0
2 741.699 705.313 160.624 0 0 0
2 676.795 572.677 555.78 0 0 0
2 142.375 484.873 115.058 0 0 0
2 236.83 1009.62 316.135 0 0 0
2 115.415 210.729 617.887 0 0 0
2 265.32 620.859 609.645 0 0 0
2 0 1285.7 3232.5 0 0 0
2 584.653 890.136 763.071 0 0 0
2 150.453 570.77 641.863 0 0 0
2 325.309 183.105 850.87 0 0 0
2 324.314 430.475 636.959 0 0 0
2 664.621 828.174 567.581 0 0 0
2 370.496 707.211 221.359 0 0 0
2 0 550.824 1003.74 0 0 0
2 451.056 362.97 97.66 0 0 0
2 302.726 985.52 91.392 0 0 0
2 903.433 544.588 1102.39 0 0 0
2 225.836 907.684 64.416 0 0 0
2 193.134 614.817 496.96 0 0 0
2 344.623 756.302 796.811 0 0 0
2 592.007 982.358 1116.73 0 0 0
2 921.988 983.272 671.875 0 0 0
2 111.726 267.24 498.841 0 0 0
2 3585.69 1140.68 3930.46 0 0 0
2 907.892 606.484 539.308 0 0 0
2 767.67 1030.02 615.31 0 0 0
2 347.4 193.896 286.928 0 0 0
2 834.144 962.962 125.475 0 0 0
2 116.865 840.987 802.318 0 0 0
2 1078.71 839.199 407.255 0 0 0
2 637.44 162.927 922.558 0 0 0
2 713.787 1043.56 292.354 0 0 0
2 921.499 596.876 912.013 0 0 0
2 146.623 326.951 960.02 0 0 0
2 262.159 519.217 660.341 0 0 0
2 214.391 527.555 1046.01 0 0 0
2 255.124 1058.81 3.23 0 0 0
2 299.813 203.842 60.389 0 0 0
2 1069.04 277.267 110.531 0 0 0
2 495.511 715.584 988.807 0 0 0
2 537.728 129.765 780.464 0 0 0
2 195.169 563.323 275.2 0 0 0
2 51.544 830.461 1004.77 0 0 0
2 1440.73 1283.73 1553.97 0 0 0
2 318.701 800.242 474.938 0 0 0
2 1125.74 507.511 494.398 0 0 0
2 345.711 1051.1 826.097 0 0 0
2 388.139 1986.33 1280.98 0 0 0
2 0 57.66 383.82 0 0 0
2 4000 1436.16 1195.88 0 0 0
2 1492.43 772.945 1021.91 0 0 0
2 240.774 83.143 795.599 0 0 0
2 1019.8 662.491 937.262 0 0 0
2 1554.85 2475.56 2736.09 0 0 0
2 337.926 191.793 168.753 0 0 0
2 1467.94 881.149 841.362 0 0 0
2 443.059 859.753 602.85 0 0 0
2 333.953 421.407 974.92 0 0 0
2 733.81 880.794 485.616 0 0 0
2 358.292 655.673 658.565 0 0 0
2 1051.86 679.684 589.661 0 0 0
2 535.537 1001.09 222.781 0 0 0
2 0 1998.18 935.479 0 0 0
2 123.003 135.954 923.086 0 0 0
2 817.981 439.828 449.109 0 0 0
2 368.284 632.171 551.008 0 0 0
2 864.97 661.87 989.521 0 0 0
2 666.531 997.991 184.292 0 0 0
2 679.22 388.922 335.54 0 0 0
2 1018.93 789.599 488.722 0 0 0
2 864.595 762.428 108.921 0 0 0
2 609.715 596.094 788.725 0 0 0
2 542.297 112.63 671.121 0 0 0
2 594.572 0 249.181 0 0 0
2 907.877 170.675 113.999 0 0 0
2 504.548 377.68 757.962 0 0 0
2 770.596 106.974 839.618 0 0 0
2 227.064 646.103 987.32 0 0 0
2 184.748 199.764 427.331 0 0 0
2 834.297 1126.85 586.553 0 0 0
2 222.791 244.18 1064.35 0 0 0
2 574.603 437.19 138.375 0 0 0
2 56.22 577.273 1094.52 0 0 0
2 144.65 126.649 355.593 0 0 0
2 225.438 1.939 1143.96 0 0 0
2 343.045 277.469 1076.12 0 0 0
2 298.127 935.506 814.007 0 0 0
2 241.402 118.551 953.09 0 0 0
2 2928.74 725.019 0 0 0 0
2 808.742 754.238 232.902 0 0 0
2 19.229 322.995 735.129 0 0 0
2 285.188 731.844 694.096 0 0 0
2 119.304 333.665 807.65 0 0 0
2 714.009 972.997 720.547 0 0 0
2 1069.59 420.304 93.171 0 0 0
2 865.02 307.67 1079.38 0 0 0
2 612.034 1007.18 321.467 0 0 0
2 3321.62 2667.79 0.908 0 0 0
2 1610.03 1170.73 474.054 0 0 0
2 1034.5 277.276 1058.38 0 0 0
2 94.523 628.299 717.111 0 0 0
2 374.005 526.009 186.596 0 0 0
2 966.389 274.789 387.127 0 0 0
2 0 3223.48 2157.3 0 0 0
2 26.725 529.978 692.811 0 0 0
2 1732.12 2431.27 1398.8 0 0 0
2 1695.75 182.333 778.61 0 0 0
2 1054.85 149.239 449.577 0 0 0
2 476.626 756.926 484.159 0 0 0
2 30.19 698.543 536.114 0 0 0
2 3812.06 1039.06 2138.76 0 0 0
2 130.875 871.998 0.998 0 0 0
2 1209.58 979.729 1067.19 0 0 0
2 311.118 739.395 341.474 0 0 0
2 307.476 517.583 555.652 0 0 0
2 244.356 390.756 134.998 0 0 0
2 377.762 38.375 1106.36 0 0 0
2 865.674 837.215 1059.52 0 0 0
2 632.285 315.727 528.848 0 0 0
2 967.911 549.374 176.757 0 0 0
2 657.219 221.51 1022.93 0 0 0
2 1265.85 874.29 132.396 0 0 0
2 511.546 1068.49 597.272 0 0 0
2 856.554 1051.6 730.972 0 0 0
2 3730.17 1949.75 1911.02 0 0 0
2 900.18 639.431 393.649 0 0 0
2 716.966 858.29 758.945 0 0 0
2 635.662 286.069 384.698 0 0 0
2 40.981 226.919 100.28 0 0 0
2 711.097 391.605 989.876 0 0 0
2 470.601 846.766 1028.34 0 0 0
2 34.895 121.469 141.296 0 0 0
2 378.146 542.364 975.592 0 0 0
2 358.102 693.391 429.894 0 0 0
2 716.442 240.99 904.87 0 0 0
2 788.615 1009.91 381.601 0 0 0
2 487.908 865.575 497.917 0 0 0
2 159.888 716.841 405.52 0 0 0
2 406.471 924.763 424.143 0 0 0
2 981.672 240 849.051 0 0 0
2 682.007 960.957 411.25 0 0 0
2 520.24 164.239 0 0 0 0
2 419.832 406.202 554.69 0 0 0
2 361.92 726.706 109.053 0 0 0
2 984.927 237.008 175.518 0 0 0
2 233.869 1086.45 236.716 0 0 0
2 71.569 1396.01 14.56 0 0 0
2 808.646 132.444 1175.16 0 0 0
2 3231.85 1866.36 2928.25 0 0 0
2 281.72 113.318 480.68 0 0 0
2 11.308 1776.01 722.609 0 0 0
2 663.39 16.127 1007.95 0 0 0
2 146.267 414.082 277.055 0 0 0
2 700.993 444.025 239.43 0 0 0
2 424.604 72.525 653.228 0 0 0
2 597.968 960.318 0 0 0 0
2 830.269 807.263 534.453 0 0 0
2 779.712 0 339.232 0 0 0
2 2419.71 1931.34 2177.67 0 0 0
2 430.888 994.699 613.156 0 0 0
2 702.068 2080.76 1139.46 0 0 0
2 1125.51 61.04 505.632 0 0 0
2 1006.99 1015.6 582.39 0 0 0
2 14.674 420.754 678.378 0 0 0
2 502.915 236.194 1066.8 0 0 0
2 401.878 322.634 306.541 0 0 0
2 725.689 541.271 752.432 0 0 0
2 370.839 383.967 1082.17 0 0 0
2 680.432 702.045 798.335 0 0 0
2 412.48 1020.54 729.751 0 0 0
2 3157.12 794.604 3047.95 0 0 0
2 702.935 759.104 698.966 0 0 0
2 516.903 255.748 407.263 0 0 0
2 284.426 105.84 214.415 0 0 0
2 0 504.674 1155.09 0 0 0
2 753.832 325.622 393.804 0 0 0
2 726.253 241.155 678.137 0 0 0
2 3147.44 472.112 1896.68 0 0 0
2 423.477 352.886 678.705 0 0 0
2 394.324 1041.28 1024.08 0 0 0
2 1972.37 2418.68 820.517 0 0 0
2 978.195 0.301 978.525 0 0 0
2 186.174 1049.64 749.502 0 0 0
2 811.607 417.751 56.483 0 0 0
2 1099.93 97.288 320.165 0 0 0
2 333.464 23.858 699.912 0 0 0
2 124.736 928.287 322.626 0 0 0
2 875.018 1023.89 563.549 0 0 0
2 985.465 133.297 887.02 0 0 0
2 115.388 397.542 475.486 0 0 0
2 1170.98 746.615 843.87 0 0 0
2 527.357 5.102 148.686 0 0 0
2 639.016 94.051 284.954 0 0 0
2 1031.29 387.962 926.668 0 0 0
2 635.235 823.079 1116.03 0 0 0
2 800.055 413.62 563.042 0 0 0
2 181.508 739.506 814.609 0 0 0
2 923.685 535.079 453.83 0 0 0
2 405.744 1009.64 917.538 0 0 0
2 81.614 83.525 528.96 0 0 0
2 916.953 305.782 239.045 0 0 0
2 619.297 917.765 505.286 0 0 0
2 557.018 287.53 160.476 0 0 0
2 376.4 0 70.767 0 0 0
2 128.833 0 1248.81 0 0 0
2 293.196 835.025 739.338 0 0 0
2 182.896 805.419 660.982 0 0 0
2 286.072 331.165 684.414 0 0 0
2 603.899 507.429 501.491 0 0 0
2 857.843 249.927 53.879 0 0 0
2 1007.61 1208.19 623.22 0 0 0
2 1031.36 553.399 839.298 0 0 0
2 120.031 999.854 614.306 0 0 0
2 384.893 33.345 429.654 0 0 0
2 457.246 897.615 796.206 0 0 0
2 975.735 577.293 1011.02 0 0 0
2 981.072 883.719 341.333 0 0 0
2 812.128 191.987 1068.68 0 0 0
2 1146.2 227.292 467.75 0 0 0
2 124.043 167.443 1047.03 0 0 0
2 1.742 463.097 360.469 0 0 0
2 724.353 938.615 111.508 0 0 0
2 698.312 862.381 937.292 0 0 0
2 735.436 221.069 283.171 0 0 0
2 571.228 679.137 582.95 0 0 0
2 677.329 709.856 1108.99 0 0 0
2 693.806 861.09 355.876 0 0 0
2 758.251 833.461 1036.08 0 0 0
2 595.527 384.727 696.224 0 0 0
2 946.929 319.862 508.75 0 0 0
2 975.985 1060.86 0 0 0 0
2 996.56 307.126 642.731 0 0 0
2 667.029 535.845 860.737 0 0 0
2 0 761.615 898.864 0 0 0
2 399.604 134.146 742.378 0 0 0
2 26.248 534.271 861.209 0 0 0
2 1524.03 1317.92 903.167 0 0 0
2 853.969 578.285 639.484 0 0 0
2 1050.41 896.355 660.335 0 0 0
2 0 1465.25 1994.45 0 0 0
2 2546.59 2038.83 4000 0 0 0
2 360.472 452.214 740.541 0 0 0
2 559.616 400.856 342.178 0 0 0
2 644.003 537.233 1114.87 0 0 0
2 924.04 424.504 482.449 0 0 0
2 965.428 0 457.035 0 0 0
2 844 677.724 854.13 0 0 0
2 0.46 835.182 508.393 0 0 0
2 188.817 1235.65 1494.21 0 0 0
2 428.223 316.387 197.105 0 0 0
2 299.507 3146.1 2216.2 0 0 0
2 914.471 37.914 881.201 0 0 0
2 448.391 224.922 326.675 0 0 0
2 649.817 628.102 377.438 0 0 0
2 865.619 852.531 875.483 0 0 0
2 925.015 489.783 954.443 0 0 0
2 1032.07 334.972 24.438 0 0 0
2 501.392 1066.03 1012.02 0 0 0
2 507.558 1058.65 332.32 0 0 0
2 854.625 124.868 370.313 0 0 0
2 822.377 548.237 410.924 0 0 0
2 474.794 646.967 855.936 0 0 0
2 261.762 554.653 364.285 0 0 0
2 585.062 1095.09 260.158 0 0 0
2 463.842 749.345 266.283 0 0 0
2 2229.7 1006.41 2760.32 0 0 0
2 458.89 460.646 677.336 0 0 0
2 819.881 225.771 201.029 0 0 0
2 584.022 661.251 1812.74 0 0 0
2 677.621 170.455 74.492 0 0 0
2 757.721 903.995 0 0 0 0
2 691.12 310.019 817.971 0 0 0
2 1045.99 273.824 473.605 0 0 0
2 278.306 0 999.584 0 0 0
2 0 642.213 897.938 0 0 0
2 78.908 55.76 663.176 0 0 0
2 421.677 784.397 389.299 0 0 0
2 222.821 97.723 1205.1 0 0 0
2 236.062 358 1048.9 0 0 0
2 951.644 586.573 1617 0 0 0
2 535.161 0 752.82 0 0 0
2 32.702 832.825 101.574 0 0 0
2 932.991 862.399 962.015 0 0 0
2 394.909 193.295 5.972 0 0 0
2 511.299 1089.42 160.809 0 0 0
2 82.171 719.387 173.796 0 0 0
2 925.142 952.43 784.472 0 0 0
2 1081.96 3776.32 1302.63 0 0 0
2 207.164 622.595 817.468 0 0 0
2 968.246 859.806 835.157 0 0 0
2 767.19 808.073 854.461 0 0 0
2 330.377 266.362 922.589 0 0 0
2 966.999 410.945 382.01 0 0 0
2 276.035 843.85 293.54 0 0 0
2 699.403 351.419 712.941 0 0 0
2 563.08 197.683 97.108 0 0 0
2 515.853 829.11 691.038 0 0 0
2 1067.75 972.504 80.278 0 0 0
2 1171.53 1167.16 412.304 0 0 0
2 2447.99 2787.44 0 0 0 0
2 563.592 352.684 444.665 0 0 0
2 657.258 806.041 851.163 0 0 0
2 738.003 8.276 85.405 0 0 0
2 669.56 503.635 665.512 0 0 0
2 462.496 723.385 623.508 0 0 0
2 238.648 726.932 1083.92 0 0 0
2 634.471 0 124.074 0 0 0
2 767.239 628.593 584.579 0 0 0
2 1839.56 584.077 74.589 0 0 0
2 2739.23 2602.09 2608.94 0 0 0
2 1024.84 743.37 726.706 0 0 0
2 634.629 83.601 489.794 0 0 0
2 954.774 437.747 1052.82 0 0 0
2 403.159 60.102 174.542 0 0 0
2 660.204 340.469 175.499 0 0 0
2 91.134 32.209 785.29 0 0 0
2 337.007 169.871 1031.75 0 0 0
2 285.846 1007.18 729.276 0 0 0
2 0 598.364 774.854 0 0 0
2 923.325 916.555 253.553 0 0 0
2 21.998 236.911 1097.94 0 0 0
2 654.406 1091.34 815.416 0 0 0
2 671.128 490.955 142.391 0 0 0
2 454.514 0 861.499 0 0 0
2 1022.67 367.386 180.378 0 0 0
2 846.232 22.944 72.197 0 0 0
2 104.655 513.981 0 0 0 0
2 884.311 856.01 632.606 0 0 0
2 717.587 139.706 203.108 0 0 0
2 915.249 537.222 0 0 0 0
2 656.208 420.149 456.39 0 0 0
2 679.271 541.735 43.362 0 0 0
2 1282.49 1528.44 1096.58 0 0 0
2 546.612 229.071 826.936 0 0 0
2 535.721 629.802 193.575 0 0 0
2 199.312 1121.79 415.457 0 0 0
2 462.025 1019.64 430.791 0 0 0
2 1036.3 998.941 262.701 0 0 0
2 726.78 1130.72 70.149 0 0 0
2 578.914 32.398 1641.75 0 0 0
2 673.723 506.083 976.201 0 0 0
2 949.442 822.637 715.194 0 0 0
2 935.737 493.355 581.074 0 0 0
2 263.614 680.628 77.469 0 0 0
2 253.522 875.081 180.89 0 0 0
2 748.545 759.348 470.85 0 0 0
2 644.835 217.914 778.229 0 0 0
2 642.129 170.202 639.874 0 0 0
2 567.513 51.1 364.407 0 0 0
2 496.928 978.131 526.735 0 0 0
2 943.752 993.438 376.373 0 0 0
2 839.498 529.507 835.585 0 0 0
2 372.128 387.394 457.263 0 0 0
2 3667.7 3484.75 1737.9 0 0 0
2 126.937 741.659 1039.67 0 0 0
2 745.676 1088.75 736.012 0 0 0
2 1388.3 730.062 1798.87 0 0 0
2 812.904 921.919 569 0 0 0
2 695.783 614.436 1039.13 0 0 0
2 195.17 666.358 682.307 0 0 0
2 389.339 830.865 259.875 0 0 0
2 183.492 1034.36 89.757 0 0 0
2 824.004 662.008 484.85 0 0 0
2 3255.74 2162.55 0 0 0 0
2 1051.29 342.772 325.806 0 0 0
2 593.906 316.113 1044.06 0 0 0
2 506.354 528.254 547.973 0 0 0
2 558.102 805.91 974.265 0 0 0
2 821.625 935.791 690.801 0 0 0
2 349.522 827.068 153.479 0 0 0
2 29.851 1168.69 249.197 0 0 0
2 433.388 433.412 182.965 0 0 0
2 95.556 319.862 223.411 0 0 0
2 404.36 125.771 559.046 0 0 0
2 125.506 231.339 746.848 0 0 0
2 605.544 0.22 837.355 0 0 0
2 725.424 106.322 672.775 0 0 0
2 406.314 436.196 290.096 0 0 0
2 778.473 322.089 276.57 0 0 0
2 777.936 494.199 172.758 0 0 0
2 403.796 1131.76 402.103 0 0 0
2 346.382 801.822 1079.67 0 0 0
2 156.536 27.295 970.819 0 0 0
2 364.79 328.639 768.534 0 0 0
2 845.959 1106.81 102.436 0 0 0
2 278.949 839.019 619.145 0 0 0
2 293.583 274.376 229.699 0 0 0
2 290.326 610.623 1093.76 0 0 0
2 951.803 474.464 813.105 0 0 0
2 831.634 505.294 726.56 0 0 0
2 880.843 751.836 445.613 0 0 0
2 1479.03 1320.79 639.695 0 0 0
2 755.55 1001.63 498.304 0 0 0
2 887.818 332.434 841.997 0 0 0
2 962.434 212.997 529.714 0 0 0
2 1366.49 319.602 2148.09 0 0 0
2 913.365 715.899 732.465 0 0 0
2 949.356 29.072 0 0 0 0
2 630.523 879.658 78.836 0 0 0
2 253.999 711.296 479.218 0 0 0
2 1127.45 1381.08 0 0 0 0
2 465.781 29 0 0 0 0
2 1109.45 371.668 656.369 0 0 0
2 513.075 213.101 238.449 0 0 0
2 232.213 298.256 449.461 0 0 0
2 0 874.465 619.131 0 0 0
2 2434.07 0 1239.23 0 0 0
2 209.48 709.93 307.426 0 0 0
2 985.202 611.654 327.013 0 0 0
2 767.599 366.617 883.626 0 0 0
2 414.588 547.183 625.718 0 0 0
2 1087.99 410.241 419.302 0 0 0
2 39.233 714.699 337.652 0 0 0
2 26.883 1164.48 427.022 0 0 0
2 146.8 1297.3 190.594 0 0 0
2 579.116 895.437 1194.64 0 0 0
2 1248.17 695.542 114.378 0 0 0
2 1072.56 169.394 193.807 0 0 0
2 56.369 951.14 409.766 0 0 0
2 929.236 850.86 446.916 0 0 0
2 227.285 409.212 420.786 0 0 0
2 107.362 628.997 292.036 0 0 0
2 42.796 547.478 425.912 0 0 0
2 954.763 327.278 999.424 0 0 0
2 289.094 0 879.849 0 0 0
2 227.809 451.78 967.411 0 0 0
2 945.193 916.896 549.512 0 0 0
2 793.26 416.784 673.018 0 0 0
2 788.109 864.428 277.912 0 0 0
2 921.875 819.174 1489.16 0 0 0
2 131.596 1098.44 172.765 0 0 0
2 634.932 430.201 1077.1 0 0 0
2 821.554 701.321 646.726 0 0 0
2 598.346 784.087 325.486 0 0 0
2 733.26 353.062 499.172 0 0 0
2 1375.3 1866.18 0 0 0 0
2 4.717 653.545 238.004 0 0 0
2 3851.27 338.933 1643.12 0 0 0
2 1091.68 252.215 648.804 0 0 0
2 790.482 587.439 1109.22 0 0 0
2 277.348 782.648 996.179 0 0 0
2 7.911 858.528 1509.68 0 0 0
2 327.183 268.834 496.572 0 0 0
2 353.078 329.557 596.943 0 0 0
2 1028.84 484.132 306.257 0 0 0
2 3330.02 1037.42 334.399 0 0 0
2 1047.68 3449.47 21.668 0 0 0
2 917.849 279.495 749.503 0 0 0
2 709.867 245.026 455.502 0 0 0
2 1098.58 826.281 187.996 0 0 0
2 775.149 475.727 928.27 0 0 0
2 466.638 788.222 815.781 0 0 0
2 344.831 229.039 693.925 0 0 0
2 638.408 1052.04 670.437 0 0 0
2 581.621 782.152 180.758 0 0 0
2 1098.16 779.361 574.234 0 0 0
2 1271.49 2017.51 702.62 0 0 0
2 0.487 0.344 597.488 0 0 0
2 835.42 837.948 754.913 0 0 0
2 138.496 1056.43 300.396 0 0 0
2 972.776 0 1590.25 0 0 0
2 213.816 247.706 683.334 0 0 0
2 354.121 928.603 198.619 0 0 0
2 397.828 72.153 998.433 0 0 0
2 205.507 326.448 556.819 0 0 0
2 43.065 473.855 508.023 0 0 0
2 1073.71 208.119 338.291 0 0 0
2 943.337 1051.36 481.582 0 0 0
2 408.928 1628.9 496.397 0 0 0
2 321.671 580.28 829.116 0 0 0
2 2.861 978.853 999.755 0 0 0
2 1089.16 894.016 287.817 0 0 0
2 865.183 729.477 327.197 0 0 0
2 1059.85 794.785 876.275 0 0 0
2 7.46 118.892 757.7 0 0 0
2 477.833 640.049 539.939 0 0 0
2 966.804 620.842 659.314 0 0 0
2 466.216 631.131 688.816 0 0 0
2 1089.86 563.781 946.817 0 0 0
2 829.912 635.169 152.798 0 0 0
2 833.804 1110.25 441.481 0 0 0
2 255.982 558.473 916.344 0 0 0
2 137.952 1569.15 1361.88 0 0 0
2 1061.8 717.586 205.349 0 0 0
2 307.079 881.038 397.634 0 0 0
2 529.025 48.149 933.654 0 0 0
2 285.182 608.888 729.11 0 0 0
2 1787.36 1491.79 3504.26 0 0 0
2 1075.68 438.913 837.388 0 0 0
2 632.414 316.628 911.272 0 0 0
2 930.757 130.909 252.537 0 0 0
2 257.764 187.334 764.154 0 0 0
2 117.598 325.646 1078.29 0 0 0
2 379.903 874.65 871.258 0 0 0
2 1974.45 2017.72 2378.62 0 0 0
2 0 146.32 318.565 0 0 0
2 306.138 416.139 338.407 0 0 0
2 596.088 898.56 314.451 0 0 0
2 749.1 1021.33 2510.88 0 0 0
2 632.467 292.077 643.43 0 0 0
2 673.137 71.877 773.041 0 0 0
2 403.866 524.715 355.647 0 0 0
2 213.027 925.408 743.551 0 0 0
2 744.892 455.201 820.52 0 0 0
2 38.636 787.062 673.611 0 0 0
2 708.041 542.891 291.739 0 0 0
2 1038.32 231.112 945.114 0 0 0
2 410.894 284.754 423.832 0 0 0
2 1121.62 590.986 583.8 0 0 0
2 793.986 165.944 741.01 0 0 0
2 2118.33 982.623 1747.34 0 0 0
2 201.463 196.324 292.208 0 0 0
2 0 1466.39 59.556 0 0 0
2 110.088 798.413 548.601 0 0 0
2 664.582 928.269 1031.88 0 0 0
2 1034.74 528.94 409.975 0 0 0
2 453.24 383.257 382.613 0 0 0
2 738.041 693.024 0 0 0 0
2 645.681 1036.91 534.799 0 0 0
2 738.796 1120.62 512.514 0 0 0
2 694.331 934.08 607.687 0 0 0
2 536.088 769.676 1076.55 0 0 0
2 285.373 682.233 872.171 0 0 0
2 424.896 579.405 1084.98 0 0 0
2 253.926 983.035 202.95 0 0 0
2 101.295 899.996 678.644 0 0 0
2 462.212 165.249 863.476 0 0 0
2 578.556 970.164 608.236 0 0 0
2 132.178 646.126 99.827 0 0 0
2 674.187 692.966 290.85 0 0 0
2 641.362 460.32 782.253 0 0 0
2 876.613 4000 2672.55 0 0 0
2 199.344 846.205 1050.48 0 0 0
2 849.217 622.497 287.743 0 0 0
2 658.797 1128.1 183.24 0 0 0
2 739.19 475.081 373.206 0 0 0
2 922.444 514.508 345.654 0 0 0
2 182.926 740.92 939.764 0 0 0
2 979.729 749.141 1000.08 0 0 0
2 745.798 67.177 1100.98 0 0 0
2 328.922 723.555 0 0 0 0
2 965.229 746.305 369.714 0 0 0
2 711.095 239.044 565.339 0 0 0
2 387.498 269.562 105.069 0 0 0
2 969.136 760.022 151.659 0 0 0
2 1030.21 534.768 629.162 0 0 0
2 527.059 343.633 893.283 0 0 0
2 858.723 950.803 460.711 0 0 0
2 1073.91 890.656 504.359 0 0 0
2 442.779 1141.1 543.537 0 0 0
2 828.973 49.974 755.013 0 0 0
2 345.458 933.189 3.78 0 0 0
2 0 427.398 788.165 0 0 0
2 1133.75 2.924 412.602 0 0 0
2 309.741 302.273 364.445 0 0 0
2 666.982 1080.36 423.841 0 0 0
2 22.012 799.048 406.738 0 0 0
2 689.001 414.714 580.612 0 0 0
2 833.224 545.989 1003.88 0 0 0
2 1432.52 2559.14 837.38 0 0 0
2 265.985 21.55 415.12 0 0 0
2 220.651 226.044 942.383 0 0 0
2 675.332 440.503 0 0 0 0
2 1781.61 756.969 95.976 0 0 0
2 3544.3 0 0 0 0 0
2 1417.79 62.129 902.829 0 0 0
2 716.694 306.809 1074.35 0 0 0
2 537.654 1057.06 714.739 0 0 0
2 350.594 1098.89 261.29 0 0 0
2 224.602 210.552 172.505 0 0 0
2 2981.57 739.441 1854.3 0 0 0
2 123.388 883.053 478.992 0 0 0
2 187.932 193.041 537.08 0 0 0
2 324.086 382.013 235.319 0 0 0
2 1005.84 133.303 666.524 0 0 0
2 567.404 607.115 469.415 0 0 0
2 358.151 363.62 879.217 0 0 0
2 321.676 511.305 282.229 0 0 0
2 293.958 200.078 414.174 0 0 0
2 323.401 615.52 143.516 0 0 0
2 833.483 1074.78 288.951 0 0 0
2 911.434 23.271 340.568 0 0 0
2 1697.54 222.595 2369.95 0 0 0
2 121.052 914.822 124.211 0 0 0
2 286.112 71.212 318.936 0 0 0
2 227.765 801.228 382.78 0 0 0
2 254.448 728.589 588.18 0 0 0
2 1000.59 0 95.925 0 0 0
2 1026.96 458.307 502.71 0 0 0
2 605.81 694.647 886.988 0 0 0
2 573.101 711.405 770.595 0 0 0
2 235.383 781.154 112.823 0 0 0
2 402.056 1835.53 0 0 0 0
2 485.377 492.512 104.488 0 0 0
2 1130.62 634.014 478.896 0 0 0
2 2652.48 3498.17 2295.2 0 0 0
2 1016.02 566.327 524.044 0 0 0
2 638.087 215.91 197.649 0 0 0
2 0.311 2.256 870.838 0 0 0
2 832.464 192.37 870.923 0 0 0
2 738.642 270.782 124.621 0 0 0
2 133.985 449.994 1059.17 0 0 0
2 435.565 424.003 931.226 0 0 0
2 564.826 276.945 728.857 0 0 0
2 867.789 339.516 433.451 0 0 0
2 515.384 843.952 243.472 0 0 0
2 599.883 674.324 0.131 0 0 0
2 680.331 645.484 82.893 0 0 0
2 706.59 25.942 203.072 0 0 0
2 297.385 1119.71 365.426 0 0 0
2 752.704 478.146 1063.51 0 0 0
2 200.067 906.409 400.532 0 0 0
2 798.652 791.024 5.702 0 0 0
2 3396.18 696.423 1382.2 0 0 0
2 583.936 458.773 608.349 0 0 0
2 549.684 687.855 298.076 0 0 0
2 502.245 13.913 1050.01 0 0 0
2 902.369 129.311 6.467 0 0 0
2 154.711 479.041 859.456 0 0 0
2 450.086 451.392 825.173 0 0 0
2 412.089 1007.52 127.776 0 0 0
2 645.489 648.677 191.101 0 0 0
2 610.948 1060.65 108.506 0 0 0
2 20.094 1066.06 486.521 0 0 0
2 1076.88 611.829 232.509 0 0 0
2 576.854 773.47 526.509 0 0 0
2 1254.98 1187.58 903.42 0 0 0
2 509.481 445.181 473.914 0 0 0
2 541.414 1064.01 870.738 0 0 0
2 1162.64 774.695 265.632 0 0 0
2 515.816 1248.45 86.134 0 0 0
2 884.928 233.896 316.455 0 0 0
2 555.199 643.049 1056.95 0 0 0
2 865.52 432.599 881.701 0 0 0
2 1041.32 83.513 26.084 0 0 0
2 557.353 450.913 852.711 0 0 0
2 621.708 1068.3 1025.31 0 0 0
2 1064.31 507.805 743.656 0 0 0
2 525.326 400.969 237.509 0 0 0
2 934.652 443.823 262.146 0 0 0
2 463.05 658.585 426.522 0 0 0
2 15.969 314.193 304.048 0 0 0
2 319.592 1024.13 415.135 0 0 0
2 215.515 138.22 31.563 0 0 0
2 485.005 935.98 295.637 0 0 0
2 756.865 1062.38 171.635 0 0 0
2 301.562 517.56 13.086 0 0 0
2 1076.61 347.967 2850.99 0 0 0
2 727.101 648.243 693.034 0 0 0
2 753.579 623.244 821.801 0 0 0
2 489.085 521.888 246.506 0 0 0
2 38.687 27.968 1160 0 0 0
2 268.057 1321.46 7.019 0 0 0
2 771.097 107.606 33.543 0 0 0
2 857.787 391.643 333.217 0 0 0
2 261.856 0 1637.15 0 0 0
2 3746.84 160.55 1818.08 0 0 0
2 1149.97 1503.84 24.614 0 0 0
2 432.035 429.07 1254.36 0 0 0
2 1715.14 2063.7 3247.87 0 0 0
2 200.718 3654.02 2764.95 0 0 0
2 353.748 2135.16 2938.12 0 0 0
2 2274.81 2507.15 558.688 0 0 0
2 704.65 184.596 1866.83 0 0 0
2 1012.67 73.083 1117.89 0 0 0
2 2331.35 4000 918.55 0 0 0
2 2631.3 3467.64 1581.47 0 0 0
2 0 1403.73 919.117 0 0 0
2 1171.57 3199.02 1435.05 0 0 0
2 695.325 0 1580.52 0 0 0