ITEM: TIMESTEP
50200000
ITEM: NUMBER OF ATOMS
1000
ITEM: BOX BOUNDS pp pp pp
1.7170085674175120e+03 2.2829914325852014e+03
1.7170085674175120e+03 2.2829914325852014e+03
1.7170085674175120e+03 2.2829914325852014e+03
ITEM: ATOMS type x y z ix iy iz c_vor[1] c_vor[2]
1 1872.33 2182.36 2004 0 -1 0 168240 15
1 1784.65 1828.06 2282.74 1 1 -1 140379 13
1 1954.53 2077.91 2147.84 0 -1 0 146176 13
1 2123.29 2174.16 2026.36 0 -1 0 121497 14
1 2242.03 1826.8 2190.6 -1 0 0 151198 12
1 1797.7 1974.49 2031.87 0 0 -1 187147 12
1 1990.13 1901.29 1777.05 0 0 0 136633 15
1 1984.38 2134.26 2139.56 0 0 -1 136191 12
1 1753.84 1850.42 2031.52 0 0 0 183287 15
1 1907.31 2153 2186.12 0 0 -1 154277 12
1 2169.53 2274.52 2087.18 -1 -1 -1 125401 13
1 2240.71 1913.38 1874.59 0 0 0 188611 10
1 2054.61 2270.01 2206.25 0 -1 -2 150778 13
1 1948.16 2176.9 2161.68 -1 -1 -1 138332 13
1 1875.44 2158.8 1735.37 0 -1 0 235335 13
1 1968.63 1776.49 2203.28 0 0 -1 134560 13
1 2025.74 2167.35 2173.46 -1 0 0 145197 16
1 2088.31 2228.61 2209.86 -1 -1 0 135577 12
1 1720.81 2182.23 1794.41 0 -1 0 216960 11
1 2046.18 1738.45 1925.99 0 0 -1 153328 12
1 1798.17 2054.5 2114.6 0 0 -1 148464 12
1 1875.58 2250.93 2268.61 0 -1 0 148095 15
1 1822.94 1862.34 1804.75 0 0 0 220063 11
1 1824.75 1824.22 1910.79 0 0 0 172869 13
1 1745.22 1921.49 1993.77 1 -1 -1 124845 13
1 2274.63 1796.42 2051.98 -1 0 -1 136150 12
1 2243.95 2036.23 1811.18 -1 0 0 220245 11
1 1976.58 1997.73 2198.13 -1 0 -1 159624 13
1 1887.28 2057.1 1952.88 0 -1 -1 117321 12
1 1928.73 2222.75 1944.51 0 -1 0 128586 12
1 2279.71 1865.29 2179.71 -1 0 -1 160761 13
1 2148.27 1946.58 2207.12 -1 0 -1 187425 13
1 1985.83 2158.51 1809.46 -1 0 0 187173 14
1 2073.49 2155.83 2001.97 0 -1 -1 170519 14
1 1978.13 2099.93 1989.26 0 0 0 145016 13
1 2003.37 2249.95 2182.49 -1 -1 -1 135420 12
1 2139.34 2246.09 1954.96 -1 -2 0 163899 14
1 2270.17 2034.71 1915.51 -1 0 0 153988 13
1 2146.7 1999.44 1718.86 -1 0 1 230750 11
1 1917.47 1719.57 1894.14 0 1 0 152420 13
1 1736.41 1915.84 2279.97 0 0 -1 152423 12
1 1830.07 2075.18 2010.72 0 0 -1 131192 12
1 2105.28 1922.74 1720.67 -1 0 0 172141 12
1 2211.27 1889.28 2149.08 0 0 -1 189362 13
1 2053.51 2265.02 2110.89 -1 0 0 152137 12
1 2218.74 1769.75 2136.38 -1 0 -1 151446 15
1 1722.44 1889.25 1757.77 -1 0 0 158773 12
1 2041.88 1792.94 1961.88 0 0 -1 149518 13
1 1955.35 2102.29 1886.2 0 -1 0 139631 12
1 2084.17 2222.1 2118.53 -1 0 0 126196 14
1 1787.64 1727.49 1922.22 0 0 0 163433 11
1 1777.37 2160.1 2040.26 0 0 0 146408 13
1 1739.21 2133.7 1788.15 0 -1 0 237845 13
1 1966.23 1847.44 1900.64 -1 0 0 144364 13
1 2246.71 1773.98 2012.27 0 0 0 153845 14
1 2255.53 1874.88 2050.98 -1 0 -1 165688 14
1 1937.95 1858.96 2175.06 0 0 -1 160457 13
1 2133.02 2088.59 2018.49 0 0 -1 133772 13
1 1906.73 2207.23 2035.59 0 -1 -1 173196 12
1 2143.31 1758.09 2013.42 -1 0 -1 174563 12
1 1968.84 1957.86 1731.24 0 -1 0 137143 12
1 2148.85 2214.19 1751.77 -1 -1 0 179124 12
1 2157.03 2098.35 2110.38 -1 -1 0 150198 12
1 1985.14 2029.95 1801.42 -1 0 0 180404 14
1 1783.55 1872.45 1930.99 0 0 0 188919 13
1 1849.05 1968.89 1915.76 0 0 0 159159 12
1 1992.49 1949.6 1932.31 -1 0 0 145427 14
1 1943.14 2273.5 1938.13 0 -1 -1 183287 12
1 2096.02 1904.06 1771.82 0 0 0 161500 14
1 2226 2190.66 2275 -1 -1 -1 168532 12
1 1726.19 2270.99 1979.8 0 -1 0 177317 15
1 1727.8 2137.45 1940.82 0 0 0 186622 13
1 1988.39 2015.85 1942.93 -1 -1 0 142027 14
1 1761.55 1798.36 2038.9 0 0 0 176591 14
1 1942.75 1819.56 2223.19 0 0 -1 135893 13
1 2251.66 2239.92 2033.37 -1 -1 0 174371 13
1 1835.63 2065.51 1737.02 0 0 0 189578 14
1 2067.68 2096.53 1885.13 0 0 0 169181 14
1 2173.16 1852.19 1757.34 -1 0 0 168294 11
1 2241.62 1785.47 1835.29 -1 0 0 279427 12
1 1819.68 1983.48 2257.45 0 0 0 181416 14
1 2225.69 2009.34 2039.47 -1 0 0 138457 13
1 1810.53 2264.84 1820.59 0 0 0 205049 10
1 2219.64 1814.75 1990.84 -1 0 0 163482 12
1 1809.96 1770.38 2217.93 -1 0 -1 167714 12
1 2202.99 2166.81 2225.54 -2 0 -1 205506 13
1 2230.17 2045.11 2132.03 -2 -1 -1 128868 12
1 2278.93 2060.28 2170.8 -1 0 -1 146947 16
1 1909.69 1888.72 1731.59 0 0 0 157907 12
1 1972.41 1839.06 1797.79 -1 0 0 140197 14
1 1986.93 1870.45 2155.29 0 0 -1 193960 16
1 2107.23 2278.62 2205.48 0 -1 -1 167964 12
1 2065.24 1908.13 1836.04 0 0 0 157777 14
1 2048.06 2253.58 1943.96 -1 -1 0 152212 12
1 1784.94 1786.39 1990.79 0 0 0 137814 13
1 2038.05 2229.58 2147.18 0 -2 0 135864 15
1 1942.76 1874.53 1771 -1 0 0 147917 13
1 1823.13 2243.48 2240.7 0 0 0 152759 12
1 1920.64 1723.87 1841.94 0 0 -1 152426 13
1 2068.82 2265.36 1740.09 0 -1 0 156864 11
1 2033.86 1896.99 1935.53 0 -1 -1 142047 13
1 1727.08 1895.48 2230.42 1 0 -1 162523 13
1 1870.33 2073.4 1806.03 1 0 0 152804 12
1 2192.89 2132.08 1906.77 0 -1 0 201632 12
1 1796.55 1940.22 1990.15 1 0 -1 154796 12
1 2201.14 1931.38 1907 -1 0 0 152288 12
1 2143.34 2037.15 2036.87 0 0 -1 158750 12
1 2177.44 2211.56 2272.87 0 -1 -1 197206 12
1 2272.57 1847.15 2229.74 0 0 -1 137339 11
1 1990.37 2192.23 2205.95 1 0 -1 145462 13
1 2067.81 1795.45 1736.83 0 0 1 182871 13
1 2121.01 1881.15 2102.49 0 0 0 181720 12
1 1727.94 2130.12 2222.58 1 -1 -1 145006 11
1 1859.15 2113.76 2035.91 1 0 0 129999 14
1 1717.94 2201.67 2197.29 1 -1 -1 141017 13
1 1868.45 2254.8 2215.94 0 -1 -1 154426 11
1 1742.89 2045.55 1879.61 1 -1 0 153757 13
1 1943.93 1826.55 2067.9 0 0 -1 210221 14
1 2006.6 2270.41 1914.94 0 -1 0 153317 14
1 1907.58 1936.36 2175.07 0 1 -1 173477 14
1 1821.08 2068.18 1788.46 0 -1 0 175968 13
1 1920.1 1946.22 1987.76 1 -1 0 187177 13
1 2203.06 1793.93 2209.45 -1 0 -1 168186 14
1 1954.99 2204.37 2260.1 0 0 -1 132575 13
1 1767.47 2229.03 2085.2 0 -1 0 204577 14
1 2021.1 1769.92 1727.01 0 0 0 129493 13
1 2268.23 2163.53 2256.26 -1 -1 -1 157163 14
1 1742.49 2161.93 1986.54 1 -1 0 204603 13
1 2028.75 2258.38 2064.37 0 -1 0 172639 11
1 1966.66 1793.98 1892.99 0 0 0 151717 12
1 2198.66 1744.44 2186.45 0 0 -1 160001 11
1 2228.54 1991.96 2122.2 -1 0 -2 188124 14
1 2086.07 1821.35 1966.88 0 0 0 191512 14
1 1823.05 2275.57 1717.35 0 -1 0 135056 14
1 2002.38 1889.32 2018.73 0 0 0 140709 13
1 1974.45 1862.06 2220.11 0 0 -2 145586 13
1 2070.02 1944.47 2155.49 0 0 -1 163304 12
1 1932.56 1766.56 2164.66 0 0 -1 156986 15
1 1908.38 1764.45 1809.81 0 0 0 136265 12
1 2112.48 2265.05 1873.29 0 -1 0 120531 13
1 1734.57 2116.95 1868.06 0 0 0 183127 15
1 2071.27 1811.88 1831.48 0 1 0 181981 12
1 1891.28 2260.63 1933.88 0 -1 0 158718 12
1 2159.98 2117.2 2168.43 0 -1 0 161248 14
1 2220.86 1733.91 2038.44 1 0 0 144216 14
1 1952.47 1909.32 2167.84 0 0 -1 164457 13
1 2123.21 2247.74 2091.78 0 -1 -1 138307 14
1 2211.79 2121.36 2180.33 0 -1 -1 147834 13
1 2100.06 1979.22 1735.75 0 -1 -1 180132 13
1 2217.73 1960.38 1865.33 0 0 0 144424 14
1 2199.27 2056.94 2028.16 0 -1 -1 161976 15
1 2276.07 1837.71 2085.66 0 0 -1 166325 16
1 2017.01 1897.59 1730.72 0 1 0 145155 14
1 2085.59 2219.06 1890.96 0 -1 0 150660 13
1 1722.81 1776.19 2269.41 1 0 -1 165171 10
1 1963.89 2182.02 1947.31 0 -1 0 163925 14
1 1814.81 2148.9 1757.81 0 0 -1 238791 13
1 1852.96 2241.74 1798.4 1 -1 0 201062 13
1 2038.41 2080.07 2059.81 -1 -1 0 145205 13
1 1753.37 2037.55 2089.51 0 0 0 132453 14
1 2183.02 2070.93 2212.01 0 0 -1 189147 12
1 1827.55 1972.48 2206.66 0 0 -1 159487 11
1 2157.9 2171.78 1986.67 0 -1 0 161013 13
1 1868.78 1737.57 2279.63 0 0 -1 118976 13
1 2069.32 2223.65 2067.07 0 -1 0 127915 15
1 1974.55 2147.56 2065.22 -1 -1 -1 152969 12
1 2130.22 2274.19 1998.97 0 -1 -1 143000 13
1 1889.55 2281.5 1798.64 0 -1 0 138800 13
1 2054.95 2119.92 1767.27 0 -1 0 149925 12
1 1771.96 1924.85 1946.03 1 0 0 133886 12
1 1766.39 2144.25 2129.68 0 -1 -1 148689 14
1 2095.01 2188.59 1832.77 0 -1 0 140367 13
1 1749.44 1760.19 1906.84 1 0 0 188916 12
1 1870.33 1763.52 1849.46 1 0 0 166555 13
1 1732.76 2018.34 1964.25 1 0 0 148915 12
1 1972.3 2114.57 1730.2 1 -1 0 217350 13
1 2144.75 1879.58 1794.87 0 0 1 178159 11
1 1732.71 1779.29 1998.37 1 0 0 152184 12
1 1961.67 1886.52 1819.56 0 0 0 145330 13
1 1846.14 1733.34 2231.08 0 0 -2 131093 14
1 2084.27 2043.3 2208.71 0 -1 -1 180508 13
1 2007.28 2087.45 2151.2 0 0 -1 155278 15
1 2118.6 2084.15 1967.15 0 0 -1 151632 13
1 1993.92 2217.82 1826.87 1 -1 0 143529 11
1 2220.51 1781 2062.52 0 0 -1 121053 13
1 2217.37 1939.73 1756.26 0 0 -1 175339 13
1 1962.84 1993.82 1901.66 0 0 0 113578 12
1 1922.38 2234.54 1881 0 -1 -1 141661 13
1 2030.24 1736.96 1810.91 0 0 0 115771 12
1 1759.05 2176.87 2087.01 1 -1 0 138932 12
1 1861.72 2191.6 2108.17 0 -1 -1 162849 14
1 2134.65 1883.96 1742.33 0 0 0 152286 11
1 1784.89 1736.55 2012.68 0 0 -1 174039 15
1 2129.68 2006.12 1995.51 0 0 0 133969 13
1 1890.52 2110.56 1883.4 0 0 -1 138156 12
1 2136.45 2228.68 1904.53 -1 -1 0 138403 13
1 2043.41 1831.24 2000.02 0 0 0 117187 13
1 1783.93 2126.76 1885.29 1 0 0 150621 13
1 2223.04 2200.11 2055.51 0 -1 -1 142060 14
1 1803.83 1967.93 1944.41 1 0 -1 182084 13
1 1785.97 1739.25 1743.84 -1 1 0 155778 13
1 2182.27 1797.6 2096.81 0 0 0 168540 14
1 1752.68 1902.92 2184.12 0 0 -1 155606 12
1 1834.5 2071.73 1847.09 0 0 0 165759 13
1 2181.92 2119.28 1856.25 -1 0 0 213606 12
1 2271.52 1940.46 1749.69 -1 0 0 145735 12
1 2177.15 2264.11 1903.17 0 0 0 174446 12
1 1855.77 1766.51 2190.28 -1 1 -1 168789 14
1 2241.27 2247.68 2260.12 -1 0 -1 203251 14
1 1997.8 1820.78 1975.18 0 1 0 131293 13
1 2124.04 1960.77 2254.4 -1 0 -1 169671 13
1 2117.12 1916.78 1820.42 0 0 0 180555 11
1 2129.32 1872.67 2009.84 0 0 0 182907 14
1 1734.63 2055.68 2003.31 0 0 -1 160739 14
1 2076.37 1718.15 2067.45 0 0 0 150008 12
1 1751.48 2113.28 2037.2 0 0 0 146857 13
1 2228.06 2189.97 1800.78 -1 0 0 230962 11
1 2045.59 1753.36 2041.38 0 1 0 168105 12
1 1964.42 2204.78 1867.67 0 1 -1 151025 14
1 2136.02 1853.28 2058.62 0 0 -1 146113 12
1 2271.47 2020.83 2109.35 -1 0 0 139153 15
1 1851.01 2021.22 2277.69 0 0 -2 182618 13
1 2252.04 2158.8 2203.54 -1 0 0 137631 14
1 2076.62 2158.86 1892.22 -1 0 0 177981 14
1 1911.33 1813.1 2180.11 0 0 -1 137784 12
1 2082.32 1850.77 2079.68 -1 -1 -1 171354 12
1 1781.34 2033.04 1785.15 0 0 0 217674 13
1 2054.24 2246.98 2255.2 -1 0 -1 144926 15
1 1911.29 1982.66 1905.52 0 1 -1 128752 13
1 1797.57 1937.71 1900.47 0 0 -1 203997 12
1 2052.71 1745.27 1761.91 0 1 0 133103 12
1 2081.99 2171.68 2060.99 -1 0 0 126081 14
1 1810.87 1863.33 2251.51 0 1 -1 166963 13
1 1963.34 1902.35 1730.24 0 0 0 133963 13
1 2015.01 1963.28 2272.74 0 0 -1 130805 12
1 2086.46 2240.71 1833.89 0 0 0 130861 13
1 2006.37 2174.12 1855.73 0 0 0 135671 14
1 2206.93 2251.94 2058.17 -1 0 -1 140205 11
1 1795.04 2136.73 2084.49 1 1 -1 130069 15
1 1770.5 2002.59 2255.13 0 0 -1 166888 12
1 2145.37 1894.11 1904.73 0 0 0 215946 12
1 2040.81 1860.94 2045.68 0 1 -1 145128 13
1 1969.88 2026.09 2153.64 -1 0 -1 149478 12
1 1864.86 2116.57 1837.25 0 0 0 169010 15
1 1783.81 2076.8 1865.72 0 0 0 166971 14
1 2079.68 1901.1 2230.89 -1 0 -1 199836 14
1 1887.46 2066.97 2162.11 0 0 0 175307 16
1 2000.94 2056.62 2027.08 -1 -1 -1 138373 13
1 1944.57 2140.17 1975.82 -1 0 0 138055 13
1 2041.42 1845.41 1948.3 -1 0 0 140883 12
1 1872.18 1992.38 1872.35 1 0 0 145815 11
1 1725.6 2119.96 2082.91 1 0 -1 134825 16
1 2259.54 1969.1 2051.39 -1 -1 -1 163183 14
1 1969.47 1983.8 2249.8 0 0 -1 148144 13
1 1840.11 1737.22 1916.73 0 1 0 186244 14
1 1772.22 2237.75 1746.55 0 0 0 217275 12
1 1925.68 1812.72 1795.87 0 0 0 161340 14
1 1991.74 1859.83 1854.69 -1 0 -1 121501 13
1 1835.59 2114.06 1881.32 0 0 0 152548 12
1 2066.36 2074.14 1793.12 -1 0 0 193585 14
1 1808.96 2186.18 2103.27 0 0 0 154773 14
1 1960.07 1722.6 2246.05 -1 1 0 126969 16
1 1964.21 1860.52 1991.24 0 1 0 156740 12
1 1884.62 2212.95 1911.27 0 0 0 142958 12
1 1822.17 1760.87 2269.51 -1 1 -1 112682 13
1 2250.66 1998.12 1882.55 -1 0 0 131556 13
1 1991.26 1864.1 1945 0 0 0 130801 14
1 1719.87 2256.54 2165.71 1 0 0 186305 14
1 2245.91 1718.93 2186.87 -1 1 0 149662 12
1 1820.56 2142.3 2130.36 0 1 0 130291 12
1 1820.52 2082.68 2207.93 -1 0 -2 189619 14
1 1878.77 2095.55 2081.8 0 0 -1 139523 13
1 2156.52 2254.92 2135.06 -1 -1 -1 141487 12
1 1993 2201.05 2146.01 -1 0 0 143163 14
1 1866.27 1735.04 2050.13 0 1 0 236561 14
1 1916.8 1747.33 2042.1 0 0 0 221200 11
1 1866.82 1865.98 2273.51 0 1 -1 160384 13
1 2070.04 1724.94 1844.83 0 1 -1 129917 12
1 1753.65 1953.82 2167.15 0 0 -1 197799 14
1 2195.31 1893.86 1782.59 -1 0 0 190245 13
1 1885.62 2110.13 1944.53 0 0 -1 151762 16
1 2142.49 1963.9 1831.89 -1 0 0 206806 11
1 1763.47 2014.18 2041.97 0 -1 0 152630 14
1 2072.75 1867.44 1803.44 0 1 0 164974 13
1 2222.72 1946.09 1953.52 -1 0 0 134992 13
1 1906.16 1769.72 2210.7 0 1 -1 137645 14
1 2117.01 1791.23 2281.17 -1 0 0 218624 11
1 2116.49 2243.4 1783.73 -1 0 0 185783 14
1 1843.97 1792.28 1950.68 0 1 0 155919 16
1 1910.56 2190.1 2085.6 0 0 -1 149737 14
1 2046.53 1810.4 2249.63 0 1 0 201616 15
1 1778.6 2262.15 1976.7 0 -1 0 202120 13
1 2082.22 2144.35 2242.78 0 0 -1 143243 14
1 2004.29 2168.04 2104.82 -1 0 -1 131057 14
1 2094.34 1945.88 2205.69 -1 0 -1 133855 12
1 1991.11 2007.07 1727.54 0 0 0 162280 12
1 1951.15 2163.57 2110.17 0 0 0 122388 12
1 2036.73 2130.56 2135.27 0 0 0 121784 12
1 2051.49 1975.78 2194.58 -1 0 -1 154342 12
1 2216.62 1990.03 1923.03 -1 0 0 149915 16
1 2268.84 2005.81 2006.61 -1 -1 0 138997 13
1 1750.09 2066.94 2133.71 1 -1 0 120977 12
1 2122.32 1844.24 1923.12 0 -1 1 221916 12
1 1885.49 2000.97 2052.63 0 -1 0 178416 12
1 2027.24 1906.17 2245.04 0 0 -1 147590 13
1 1752.82 1781.67 1748.41 0 0 1 194285 15
1 2141.9 1831.92 2106.99 -1 0 0 185027 13
1 1745.42 1779.34 2086.76 1 -1 0 209519 13
1 2247.15 2147.72 2150.72 -1 -1 0 122090 12
1 2228.23 2070.14 2184.24 0 -1 0 144447 12
1 2128.45 1726.55 2060.03 0 0 0 140026 13
1 1998.71 1760.9 2245.01 -1 0 0 151560 13
1 1962.13 2078.36 1933.26 0 -1 0 121170 13
1 2069.86 2097.2 2159.34 -1 -1 0 160406 15
1 1777.6 2066.13 2033.07 -1 0 0 141532 13
1 2194.3 2030.41 2169.89 -1 0 0 174632 12
1 1966.98 1740.3 1891.55 0 0 0 150595 13
1 2166.11 1964.75 1880.73 -1 -1 0 163188 13
1 1841.62 1816.09 1860.15 0 0 0 186617 12
1 2051.69 2039.91 2026.72 -1 -1 0 131179 14
1 2010.48 2240.88 1871.19 -1 -1 0 130831 12
1 2058.34 1943.89 1733.62 -1 -1 1 151364 14
1 1925.11 2030.18 2072.87 0 0 0 168210 14
1 1928.94 2251.34 2267.32 -1 -1 0 118618 13
1 1942.59 1930.65 1842.78 0 0 0 160398 13
1 2018.92 2027.9 1985.62 -1 0 1 135631 14
1 1794.62 1723.27 2239.44 0 0 0 154287 12
1 2166.99 2086.61 2059.45 -1 0 0 142535 12
1 1847.88 1892.56 2225.74 0 0 0 175887 11
1 2266.26 1922.52 2169.26 0 0 0 189602 12
1 2241.91 1902.32 1925.76 0 0 0 186731 13
1 1951.18 1940.55 1895.32 -1 0 0 140644 13
1 1750.7 1930.07 1775.51 0 0 1 228002 12
1 2275.01 2158.99 1891.72 -1 0 0 226925 14
1 2241.5 2131.3 2099.88 -1 -1 0 119377 13
1 2196.59 2129 2129.59 0 0 0 136421 14
1 1758.82 1870.38 2263.55 0 -1 -1 152272 13
1 2135.3 2207.22 2127.33 -1 -1 0 133078 12
1 2185.89 1897.8 1730.58 -1 0 1 178838 14
1 1774.39 1985.11 2205.63 0 -1 -1 164735 12
1 1998.3 1864.83 2077.25 0 0 0 174481 13
1 2033.98 1932.71 2014.84 0 0 -1 175897 14
1 1890.38 1925.37 2115.62 0 0 0 198304 10
1 1941.56 1771.06 1766.2 0 -1 0 133690 14
1 2109.44 2118.84 2127.48 -1 0 0 149396 13
1 2059.4 2264.35 2020.21 -1 -1 0 142105 15
1 2046.05 1988.89 2010.07 0 -1 0 140158 11
1 2246.99 1805.82 2280.21 -1 0 -1 186721 13
1 1926.2 2134.28 1917.78 0 0 1 140168 14
1 1870.53 1941.6 2213.19 1 -1 0 156861 13
1 1857.02 1783.35 1898.01 0 -1 0 169318 13
1 2263.86 1791.63 1889.39 -1 0 0 246981 12
1 2089.36 2247.61 1977.46 0 -1 1 142686 13
1 1862 1810.75 2160.82 0 0 0 156856 11
1 1931.56 2047.88 2185.72 0 0 0 158307 12
1 1831.64 1835.66 2197.23 0 0 0 166118 14
1 1741.9 2014.75 2146.12 0 -1 0 153404 14
1 1777.45 2153.69 1930.02 0 -1 0 191012 14
1 1831.54 2158.9 2045.57 -1 0 0 139290 13
1 1763.69 1857.73 2157 0 0 0 180661 13
1 2249.97 1906.98 1977.27 -1 0 0 148674 13
1 2188.57 2226.19 2102.38 0 0 0 164263 17
1 1991.54 1963.8 1869.1 -1 -1 0 127320 15
1 1985.71 1734.1 2174.6 -1 0 0 169529 17
1 1890.34 1969.1 1828.83 0 -1 1 205381 13
1 2048.67 2207.74 1854.11 -1 -1 0 140148 12
1 2065.66 2025.59 1771.71 0 0 1 184850 13
1 1942.28 1772.98 2249.92 0 0 -1 128435 14
1 2119.66 2110.86 2261.03 0 0 0 184257 13
1 2021.88 2128.98 2280.61 0 0 0 138426 13
1 2024.98 2266.03 1773.01 0 -1 1 123900 13
1 2037.22 1717.07 2157.51 0 0 0 174212 12
1 2250.71 2184.79 2011.3 0 -1 0 164597 12
1 1983.64 1821.31 2103 0 1 0 147827 11
1 2087.05 1992.81 2230.86 0 -1 -1 161777 13
1 2187.57 2133.23 2076.4 -1 -1 0 128770 15
1 1903.47 2203.62 2272.47 0 -1 0 175715 12
1 1736.42 2276.77 1921.97 0 -1 1 206639 12
1 1816.33 2054.8 2253.74 1 0 0 191709 12
1 1890.35 1753.93 1760.29 0 0 1 135174 15
1 1828.32 2198.21 2164.01 0 0 0 209830 13
1 1833.22 1772.99 2008.42 0 1 0 180061 14
1 2008.17 2204.93 2255.52 0 -1 0 122200 13
1 1730.76 1886.66 2083.3 0 0 0 190151 12
1 1963.21 2262.82 1860.37 0 -1 1 137379 14
1 1986.16 1800.18 1763.95 0 0 0 131366 14
1 2044.89 1728.9 1979.17 0 0 0 191835 16
1 2193.55 1775.14 2015.86 -1 0 0 149301 13
1 1762.84 2029.34 1734.08 0 0 1 210984 14
1 1924.1 1768.03 1873.21 -1 -1 0 167642 12
1 1879.44 2044.54 1858.74 0 -1 0 161667 15
1 2011.56 1813.68 1870.07 0 0 1 136662 13
1 1759.08 1744.93 1965.83 0 0 0 129281 12
1 1836.67 2050.26 2167.8 0 0 0 178438 12
1 1945.55 1819.48 2140.14 0 0 0 147487 12
1 2233.77 2184.05 2105.55 -1 0 0 155669 13
1 1742.96 2158.52 1835.78 0 -1 0 181253 11
1 1722.92 2114.29 2136.38 0 0 0 119034 14
1 1885.12 2161.67 1896.05 0 0 0 154954 13
1 1906.69 1721.28 2234.96 0 0 -1 126192 13
1 2158.56 2134.23 2030.41 0 0 0 126158 12
1 2133.2 2221.02 1851.7 0 0 0 178695 16
1 2251.54 2015.13 2170.71 -1 0 -1 159115 12
1 1791.04 1826.04 1780.94 1 0 0 164082 12
1 1974.51 1805.15 2278.15 0 1 -1 128673 16
1 2040.35 1954.57 1909.05 1 1 0 147844 15
1 1911.81 1788.57 1725.24 -1 1 0 132342 13
1 2166.8 2168.4 1934.24 0 -1 0 187430 13
1 2019.19 1858.1 1900.6 0 0 0 115481 12
1 1996.41 1813.79 2231.01 0 0 -1 136046 14
1 2077.93 2197.84 2252.47 1 0 -1 137763 14
1 1972.02 1929.56 2250.41 0 0 -1 144768 15
1 2273.59 1955.39 1860.4 -1 1 0 176919 13
1 2098.43 1928.1 2114.01 0 0 0 197539 13
1 2240.83 2233.1 2179.79 -1 -1 -1 149223 13
1 1800.75 2013.69 2080.92 1 0 -1 175219 12
1 2215.83 2076.37 1853.08 0 0 -1 193402 13
1 2244.48 1772.12 2183.31 0 0 -1 147587 11
1 2267.58 1951.78 2000.19 -1 1 0 128421 13
1 1719.37 1935.9 1948.61 1 0 -1 135845 12
1 1750.67 2095.69 1914.21 1 0 0 145827 12
1 1905.31 1999.34 1962.66 0 1 0 141909 15
1 1834.56 1834.27 1737.47 0 0 0 150820 12
1 1843.52 1738.03 1810.65 0 0 1 154739 13
1 1784.44 1887 1983.06 1 1 -1 167678 14
1 1730.49 1827.37 2273.27 0 0 -1 141366 12
1 2100.09 2169.56 2112.1 -1 0 -1 119814 13
1 2171.03 1758.58 2061.85 0 1 0 141783 13
1 2258.34 2046.69 1863.15 0 0 0 155152 13
1 2132.75 2160.48 2153.58 0 0 -1 159946 14
1 1881.81 2117.65 2131.06 1 0 -1 136781 15
1 1791.51 2098.91 2143.12 1 0 0 139917 14
1 2146.09 1787.96 1916.19 0 0 0 235354 13
1 2043.52 1907.07 1776.1 0 1 0 133693 12
1 1944.62 1889.52 1876.34 1 0 0 168592 12
1 2177.79 1957.24 1981.8 0 1 0 161228 12
1 1942.36 1726.01 1794.07 0 1 0 139174 13
1 1982.25 1782.08 2151.54 0 1 -1 156875 13
1 2120.72 2133.49 1989.94 0 1 0 156862 13
1 2055.15 2263.9 1890.85 1 0 0 135571 15
1 1899.38 1978.2 2111.19 0 0 -1 187960 14
1 2211.52 1834.96 2147.55 -1 1 -1 160627 14
1 2211.94 2264.82 1860.76 0 -1 0 231593 13
1 2048.75 1996.75 1730.46 0 0 0 165574 13
1 1926.87 2027.49 1880.19 0 0 -1 128339 13
1 1724.27 2005.63 1847.22 1 0 0 163503 11
1 1956.64 2111.78 2100.89 0 0 0 139807 13
1 2012.13 1947.58 1759.58 0 0 0 138887 15
1 2129.87 2220.65 2001.17 -1 0 0 143675 13
1 1929.65 2010.77 2223.73 0 0 0 180829 12
1 1799.75 2176.68 2250.84 1 1 -1 185316 12
1 1954.23 1910.42 2006.89 0 1 0 177275 12
1 2082.16 2045.62 1875.78 0 0 0 143150 12
1 1942.09 2277.57 2195.24 0 -1 -1 135153 15
1 2022.13 1821.9 1731.06 0 0 0 129158 12
1 2150.9 1722.95 2175.6 0 1 -1 163170 12
1 2075.54 2091.45 2231.36 0 0 -1 135099 12
1 1985.24 2126.38 1942.64 0 0 0 163637 15
1 2119.91 2011.3 1855.77 1 0 -1 186811 14
1 2203.61 2159.25 2012.21 0 0 0 160396 13
1 2087.41 1741.11 1892.54 0 0 1 164160 14
1 1915.03 2042.91 1995.78 0 0 0 137464 13
1 1998.28 2108.41 2039.2 0 0 0 149369 13
1 1841.23 2103.31 2162.18 0 0 0 133330 10
1 1998.74 1747.81 1769.96 0 1 0 127439 13
1 1919.77 1992.77 2013.59 1 0 0 159566 13
1 2071.23 1786.13 2006.4 1 1 0 154707 13
1 2077.07 1762.93 1806.66 0 1 0 166388 12
1 1934.56 1980.87 1856.58 0 0 0 138271 13
1 1941.14 1945.11 2119.64 0 0 0 183230 12
1 1836.15 2019.45 2041.16 0 0 -1 160917 13
1 1982.64 2247.86 2274.15 0 0 -1 119980 14
1 1931.47 2186.59 1904.9 0 0 0 127318 12
1 2180.44 1862.83 2022.05 0 1 -1 175143 13
1 1972.09 1969.68 1819.4 0 0 0 156260 16
1 2080.6 2149.98 2159.92 1 0 0 118273 13
1 1750.75 1794.97 1949.92 1 1 0 157263 13
1 2036.31 2078.04 2196.47 0 0 -1 147862 10
1 2180.41 2219.75 1933.02 0 0 0 191633 12
1 2171.95 1814.47 2045.89 0 0 -1 166209 15
1 1981.78 2044.14 1897 0 0 0 132062 14
1 2153.79 1903.3 2055.94 0 0 0 198445 12
1 1866.77 1975.64 1766.53 1 0 0 237727 15
1 1859.32 2154.76 2163.56 1 0 0 145951 12
1 2082.09 2205.97 2018.8 0 0 -1 127144 13
1 1947.1 2224.98 1742.61 0 0 0 137553 11
1 2168.73 2176.37 2099.92 0 0 -1 144988 13
1 2111.13 2190.17 1781.43 0 0 0 170913 15
1 2097.36 2260.17 1924.57 0 0 0 142911 13
1 2016.22 2002.36 1897.34 0 0 0 142967 15
1 2253.11 1862.46 2127.75 -1 0 -1 165237 14
1 2080.32 2008.36 1974.35 1 0 0 129555 14
1 2009.64 1857.99 2260.59 1 0 -1 146789 14
1 2236.43 1892.46 1746.67 -1 0 0 139347 11
1 2051.06 1884.33 1998.13 0 0 0 174881 16
1 1854.96 2177.06 1936.67 0 0 -1 177936 13
1 1863.54 2266.67 1752.51 0 -1 0 126849 12
1 2040.63 1772.1 1849.03 1 1 0 150380 13
1 2036 1906.87 1882.34 0 1 0 134166 13
1 1921.68 1736.33 1717.96 0 1 0 125045 13
1 2139.93 1837.8 1717.59 0 0 1 179410 12
1 1937.75 2187.04 2213.01 0 -1 0 166004 13
1 2069.35 2129.49 2092.3 0 -1 0 147498 16
1 2028.41 2230.11 1732.87 0 -1 0 127823 13
1 1959.21 2041.98 1754.01 0 -1 0 203331 12
1 1956.05 2061.09 1852.67 0 -1 1 160231 12
1 2054.82 2155.64 1843.23 1 -1 1 131131 13
1 2031.65 2219.78 2026.81 0 -1 0 163504 12
1 1910.73 2136.42 2090.16 0 0 0 134481 14
1 1760.83 2247.91 2214.72 1 -1 0 179081 13
1 1728.58 2069.38 2055.29 0 -1 0 120028 13
1 1956.6 1814.58 1941.87 0 0 0 169363 12
1 1749.2 1839.52 1979.32 1 0 0 149064 14
1 1992.74 1909.09 2203.96 0 0 0 145024 11
1 2206.29 2109.83 2032.89 0 -1 0 145978 13
1 2241.84 2271.2 1805.69 0 -1 1 281769 12
1 2020.05 1828.37 1819.28 1 0 0 134718 13
1 1991.53 1913.03 1854.32 0 0 0 122801 13
1 1770.95 2088.47 2081.97 0 0 0 133490 15
1 1830.2 1961.07 1865.71 1 -1 0 210213 12
1 1955.96 2029.48 2026.85 -1 0 0 152086 12
1 2167.63 2005.84 1958.19 0 0 0 138506 13
1 2106.66 2249 2039.81 0 -1 0 119194 14
1 2120.67 2033.56 1950.91 1 -1 0 116335 14
1 2010.82 2274.13 2236.27 0 -1 0 145935 14
1 1824.43 1811.34 2251.04 0 0 0 149356 15
1 1800.19 1878.55 2190.75 0 0 0 160636 13
1 1837.26 1746.54 1757.54 0 0 1 120066 13
1 2070.23 1872.73 1902.54 0 0 0 180311 14
1 1862.54 2035.02 1996.33 1 -1 1 140689 13
1 1919.66 2100.52 2192.05 0 0 0 179885 12
1 1880.08 2215.96 1964.3 0 -1 0 166243 13
1 2056.8 1950.55 2242.79 0 0 0 136835 14
1 2021.73 1882.39 1817.6 0 0 0 120704 13
1 2049.34 2030.49 2079.88 0 0 0 167739 12
1 2129.62 2044.17 1899.14 -1 -1 1 155684 14
1 1842.69 2120.54 1985.33 0 -1 -1 158422 13
1 1965.23 1991.7 2112.9 0 -1 0 151153 11
1 2264.75 2110 2183.75 0 0 -1 128273 12
1 2270.1 1873.68 2275.54 0 0 0 142016 14
1 1797.95 1823.5 1833.36 1 0 1 198584 11
1 1915.16 2071.67 1908.84 1 0 0 130403 15
1 1812.36 2265.42 1768.35 0 -1 0 144997 12
1 1958.64 1872 2043.65 0 0 0 172736 11
1 2183.34 2081.19 1893.96 -1 -1 1 173989 13
1 2205.18 1794.84 1944.33 0 0 0 231306 12
1 1796.94 1780.25 1926.39 0 0 0 142360 13
1 1722.73 2068.78 1953.14 1 -1 0 168267 11
1 1724.22 2159 2037 0 -1 0 142022 12
1 1954.4 2230.23 2171.53 1 0 0 147348 13
1 2250.03 1923.29 2271.48 0 -1 0 169943 14
1 1750.99 2096.77 2178.32 0 -1 0 153903 13
1 2182.02 2010.28 2009.08 0 0 0 146196 13
1 2097.97 2200.49 2164.9 0 -1 0 132316 14
1 1986.8 2229.43 1776.28 1 -1 1 152532 15
1 2103.43 1763.01 2187.77 0 0 0 243505 13
1 2212.56 1851.45 1721.9 0 0 1 176150 13
1 2072.76 2107.31 1833.56 0 0 1 157836 14
1 1993.86 1911.02 1969.97 0 -1 0 149868 14
1 1916.22 2265.42 1755.83 1 -1 1 130497 14
1 2171.97 1906.64 2180.66 0 -1 0 190725 10
1 2093.38 1739.48 2021.79 0 0 0 138567 12
1 2279.05 2018.29 2057.45 0 0 0 129034 14
1 2081.91 2098.32 2002.94 0 0 0 139561 13
1 1968.86 2273.42 1752.22 0 -1 0 129398 16
1 1937.08 2198.46 1991.59 0 -1 0 170050 13
1 1773.5 2046.8 2177.76 0 -1 0 158597 13
1 2029.81 2091.43 2000.42 -1 0 1 142954 14
1 1902.45 2168.15 2133.89 0 -1 0 130988 12
1 2273.17 1972.42 2147.71 0 -1 0 172349 13
1 2262.99 2197.81 2148.38 -1 -1 -1 161166 14
1 1812.15 2024.41 2208.38 0 0 0 166878 15
1 2232.14 1827.59 2041.21 0 0 0 140327 14
1 2045.01 1806.74 2047.37 0 -1 1 141037 12
1 1941.4 1827.08 1747.31 0 0 0 122913 12
1 2172.37 2281.51 2029.52 0 -1 0 142248 14
1 2052.27 2128.38 2200.05 0 -1 0 130176 13
1 2011.8 2008.21 2047.26 0 0 0 149281 13
1 1977.58 2012.55 1852.69 0 0 0 131847 12
1 2029.18 2176.97 2059.02 0 -1 0 156039 15
1 1899.53 2117.38 1797.63 1 -1 1 189888 11
1 1763.67 2046.09 1929.47 1 0 1 178544 14
1 1926.58 1718.05 2143.77 0 0 0 197383 12
1 2260.64 1765.27 2095.46 0 -1 0 160131 13
1 2125.67 2074.86 2223.13 0 -1 0 168470 12
1 2106.43 2122.07 2199.21 0 0 0 154567 15
1 1864.78 1881.88 1760.15 1 0 0 204374 13
1 2118.55 2142.73 1846.42 -1 0 1 192552 15
1 2010.09 2070.53 1954.79 0 -1 0 132133 13
1 1806.78 1788.84 1746.49 0 0 1 126433 12
1 1988.24 1902.15 1906.64 0 0 0 132055 14
1 2252.26 1952.1 1909.42 0 -1 0 126809 12
1 1821.35 2067.57 2062.66 0 -1 0 135871 14
1 1730.03 1893.01 2136.22 1 0 0 166775 13
1 2223.74 1980.69 1993.93 0 0 0 145200 13
1 2223.12 1830.99 2240.5 0 0 0 151044 13
1 2272.53 1795.58 2221.89 -1 0 0 174889 14
1 2272.33 2074.5 2104.3 0 0 0 124517 15
1 2013.86 1935.71 1811.32 0 -1 1 140593 14
1 1749.5 1843.76 1754.06 1 -1 0 173242 11
1 1941.44 2213.38 2122.21 0 0 0 175441 13
1 1770.83 2130.73 2253.26 0 0 0 191298 14
1 1825.69 2131.95 1936.18 -1 0 0 161487 13
1 1939.62 2158.45 2026.62 0 0 0 168037 14
1 1782.33 2269.78 2055.15 0 0 0 213241 13
1 2029.16 2134.98 1884.72 -1 0 0 145904 13
1 2126.63 1988.54 1923.55 0 0 0 142769 14
1 2020.52 2282.73 1722.52 0 -1 0 132898 14
1 2070.37 2107.01 2282.55 -1 0 0 166425 12
1 2171.67 2184.29 2047.09 0 0 0 137877 14
1 1987.84 2056.91 2192.54 0 0 0 175766 13
1 1876.04 1807.83 1992.59 0 0 0 176027 10
1 1804.02 2087.44 1915.78 0 0 1 144861 12
1 1920.95 2072.35 2105.85 0 0 0 156743 12
1 2281.62 1921.39 2043.85 -1 0 0 164619 13
1 2260.43 1983.56 1953.15 -1 0 1 139716 13
1 2044.64 1923.94 2197.78 0 0 0 152488 13
1 1993.08 2190.68 1739.34 0 0 1 148561 14
1 1993.32 1793.18 2057.38 0 1 0 179346 13
1 2035.03 1828.98 2093.32 -1 1 0 158165 12
1 1990.53 2122.62 1851.2 0 0 0 155956 13
1 2154.51 1997.36 2152.9 0 0 0 217658 13
1 1895.38 1827.29 2121.77 0 0 0 214395 13
1 1724.39 2118.92 2275.48 0 0 0 201356 10
1 2240.01 2206.24 2226.17 -1 0 0 138226 12
1 2068.18 1996.26 1859.93 0 0 0 166838 14
1 2160.35 2281.88 1855.82 -1 -1 1 171854 11
1 2042.13 2178.27 1721.49 0 0 0 135373 15
1 2007.33 1957.95 2220.17 -1 0 0 130237 12
1 1908.2 1833.39 2262.57 0 0 0 148098 15
1 1910.26 1832.82 1959.62 0 0 0 195356 12
1 1865.11 2028.08 1761.91 0 0 1 189900 12
1 2248.88 2095.91 2060.79 -1 0 0 128954 14
1 1732.45 2018.54 2197.7 0 0 0 173723 13
1 2068.98 2178.64 2203.71 0 0 0 127583 13
1 2189.91 2077.79 2146.31 -1 0 0 135902 12
1 2081.19 1964.9 1942.21 -1 0 0 143461 12
1 2230.95 1864.9 2003.48 -1 0 0 154432 11
1 2275.13 2195.75 2072.28 -1 0 0 169536 15
1 2080.36 1951.28 1994.66 -1 0 0 177383 16
1 1859.09 1787.58 1730.7 0 0 1 129364 13
1 1868.57 2121.65 2204.5 0 0 0 185231 12
1 2124.69 2180.55 1884.26 -1 0 0 164358 12
1 2132.41 2238.42 2180.19 -1 -1 0 171172 13
1 1956.17 1855.42 2269.67 0 0 -1 138275 13
1 1835.83 2073.62 1957.63 0 0 0 158271 14
1 1968.08 2234.28 1910.79 0 0 0 146414 14
1 1746.09 1963.97 2026.22 0 1 0 147613 12
1 2010.14 2116.14 2090.77 -1 0 -1 136396 13
1 2005.67 2092.06 1905.5 0 0 1 141837 13
1 1986.14 1856.69 1747.33 0 1 0 115776 12
1 1841.03 1903.57 2014.33 0 0 0 270916 14
1 2217.73 2038.38 1898.05 -1 0 0 155998 12
1 2081.18 2032.6 1823.53 0 0 1 174043 11
1 2158.28 2117.4 2222.89 -1 0 0 179345 11
1 2050.78 2181.31 2128.21 -1 0 0 129604 15
1 2049.16 2211.31 1977.91 -1 0 0 183458 13
1 1886.59 2201.05 1859.47 0 0 0 206953 12
1 1965.4 2049.22 1978 0 0 0 136860 14
1 1860.5 1724.46 1965.37 0 1 0 180727 12
1 1717.33 1876.51 2004.35 0 0 0 132607 14
1 1730.61 2153.58 2173.2 0 -1 0 146758 14
1 2079.17 2014.05 1920.06 -1 0 1 138481 15
1 2171.41 2011.76 1905.7 0 0 1 143283 13
1 1737.41 1885.58 1955.49 0 0 0 151313 12
1 2051.07 1951.75 2105.23 0 0 0 187884 11
1 2241.32 2276.86 1994.66 -1 -1 0 190855 13
1 2121.69 1956.56 2161.86 0 0 0 160358 12
1 2142.22 1922.85 2003.37 -1 0 0 183265 12
1 1917.42 2235.85 2217.58 0 0 -1 148766 14
1 2040.69 1951.6 1854.81 -1 0 0 136322 11
1 2019.2 1998.33 1775.3 0 0 0 149862 13
1 2234.16 1810.16 2105.25 -1 1 -1 144436 11
1 1869.9 1988.14 2240.73 0 0 0 173900 13
1 2045.3 2082.03 2113.26 0 0 0 166754 13
1 2031.59 1786.19 1788.94 -1 1 0 148817 14
1 1858.08 2204.23 2056.58 0 0 0 168728 13
1 1924.46 2023.17 2127.14 0 0 0 151625 12
1 1854.34 2010.58 1949.66 1 0 0 165335 13
1 1829.11 1922.97 2186.56 0 0 0 168257 14
1 2016.91 1991.81 2098.07 0 1 0 172092 12
1 1961.65 1989.74 2060.34 0 0 0 180905 14
1 2261.02 2227.71 1981.33 -1 0 0 188927 12
1 2239.56 2148.63 2049.79 0 0 0 136667 14
1 2139.89 1735.63 1902.67 -1 1 1 168632 12
1 2035.82 2219.83 2212.38 0 0 0 134679 16
1 2152.83 1941.88 1927.38 -1 0 0 163074 15
1 1774.34 2024.19 1841.79 1 0 0 205283 13
1 2079.69 2213.2 1737.62 -1 0 1 149024 14
1 1971.17 1752.92 1724.29 0 1 0 120567 13
1 1980.52 2157.93 2264.09 -1 0 0 168506 14
1 2270.56 1824.16 2004.87 -1 1 0 142354 15
1 1977.37 2150.97 1895.22 -1 0 0 147849 13
1 2035.48 2251.02 1824.26 -1 0 1 130060 13
1 1996.6 1836.71 2026.85 0 0 0 132576 13
1 2133.87 2138.73 2083.3 -1 0 0 141110 16
1 1964.59 1991.38 1771.31 0 0 1 158879 11
1 1812.11 1746.62 1966.25 0 1 0 135031 12
1 1882.88 1756.35 2002.89 0 1 0 173281 11
1 2026.04 2215.41 2095.88 -1 0 0 144078 14
1 2087.36 2066.46 1925.19 0 0 0 138330 10