ITEM: TIMESTEP
0
ITEM: NUMBER OF ATOMS
1000
ITEM: BOX BOUNDS pp pp pp
-1.0000000000000000e+02 5.1000000000000000e+03
-1.0000000000000000e+02 5.1000000000000000e+03
-1.0000000000000000e+02 5.1000000000000000e+03
ITEM: ATOMS type x y z ix iy iz
1 1262.85 1942.35 1782.65 0 0 0
1 4433.51 4999.94 730.82 0 0 0
1 2452.51 858.121 3218.23 0 0 0
1 2294.02 2472.66 1067.77 0 0 0
1 1145.49 3566.52 467.324 0 0 0
1 741.55 3067 391.161 0 0 0
1 3171.5 974.881 2018.59 0 0 0
1 3464.07 0.059 1589.13 0 0 0
1 728.569 596.074 2392.44 0 0 0
1 2665.85 2670.4 2739.32 0 0 0
1 2872.69 2628.55 1778.51 0 0 0
1 3345.74 2308.06 514.394 0 0 0
1 2273.8 3484.04 2331.98 0 0 0
1 933.807 2819.99 131.285 0 0 0
1 986.048 2576.92 393.869 0 0 0
1 1951.31 757.094 2834.56 0 0 0
1 3050.66 3377.64 1089.5 0 0 0
1 2231.69 1165.9 1866.2 0 0 0
1 3965.5 2046.82 1226.23 0 0 0
1 1615.18 1862.4 591.703 0 0 0
1 2060.31 899.683 801.259 0 0 0
1 3379.89 3736 0.142 0 0 0
1 1593.83 2860.99 1113.18 0 0 0
1 3449.9 2825.94 3645.97 0 0 0
1 2299.13 2061.79 1437.92 0 0 0
1 170.792 944.505 116.965 0 0 0
1 1736.44 1113.57 866.548 0 0 0
1 1773.98 2344.71 1673.95 0 0 0
1 1315.28 1616.44 89.232 0 0 0
1 1174.91 2461.25 0 0 0 0
1 1258.11 83.985 1700.43 0 0 0
1 1693.03 403.973 2481.04 0 0 0
1 4133.77 4863.31 2448.51 0 0 0
1 2949.62 2449.02 1239.75 0 0 0
1 3528.16 0 1037.58 0 0 0
1 2374.32 3197.83 1638.44 0 0 0
1 1188.61 1021.74 1560.77 0 0 0
1 561.67 1081.39 827.052 0 0 0
1 0 391.541 511.709 0 0 0
1 1835.9 340.979 674.237 0 0 0
1 3746.13 94.818 144.618 0 0 0
1 1171.04 3560.87 40.446 0 0 0
1 119.093 734.317 715.03 0 0 0
1 0 743.778 737.308 0 0 0
1 1359.25 1134.39 931.647 0 0 0
1 1810.9 3210.84 1415.97 0 0 0
1 292.344 106.82 140.176 0 0 0
1 4373.16 0 1827.93 0 0 0
1 2635.11 562.421 786.069 0 0 0
1 2099.99 818.678 1552.32 0 0 0
1 467.693 487.041 995.282 0 0 0
1 514.22 558.565 1085.57 0 0 0
1 342.188 1157.81 531.371 0 0 0
1 1195.49 3414.11 1983.1 0 0 0
1 50.555 466.378 284.758 0 0 0
1 34.085 484.167 173.49 0 0 0
1 944.284 698.631 526.977 0 0 0
1 78.399 530.596 753.977 0 0 0
1 133.629 796.709 962.015 0 0 0
1 859.714 782.732 693.773 0 0 0
1 778.195 1015.16 0.955 0 0 0
1 525.108 617.482 938.734 0 0 0
1 2044.93 1437.67 0 0 0 0
1 334.794 863.145 841.79 0 0 0
1 900.546 739.341 424.392 0 0 0
1 545.214 688.541 768.763 0 0 0
1 252.543 647.29 821.082 0 0 0
1 962.078 479.041 975.784 0 0 0
1 1047.68 124.696 752.739 0 0 0
1 1472.15 131.809 863.805 0 0 0
1 2244.51 2155.04 1039.24 0 0 0
1 444.65 394.358 841.444 0 0 0
1 390.928 535.816 310.372 0 0 0
1 1018.04 2512.72 1446.41 0 0 0
1 612.546 981.878 798.6 0 0 0
1 1445.58 788.018 0 0 0 0
1 508.198 1070.37 454.134 0 0 0
1 352.562 466.134 954.832 0 0 0
1 739.231 443.293 1112.66 0 0 0
1 169.838 434.157 572.101 0 0 0
1 0 0 2062.95 0 0 0
1 226.432 728.721 745.55 0 0 0
1 603.587 964.909 292.924 0 0 0
1 1070.52 228.63 806.511 0 0 0
1 254.885 112.451 748.406 0 0 0
1 203.435 414.329 466.778 0 0 0
1 356.967 40.769 1045.27 0 0 0
1 821.69 29.767 863.56 0 0 0
1 937.062 418.82 738.807 0 0 0
1 145.669 229.88 413.395 0 0 0
1 206.578 856.23 900.845 0 0 0
1 688.916 1414.08 655.402 0 0 0
1 1076.01 1647.42 64.857 0 0 0
1 143.568 1594.82 102.567 0 0 0
1 384.792 410.759 426.427 0 0 0
1 158.478 794.224 236.435 0 0 0
1 996.045 796.078 894.012 0 0 0
1 691.454 62.66 245.669 0 0 0
1 693.131 132.352 682.187 0 0 0
1 417.214 145.144 471.276 0 0 0
1 2157.7 4919.63 4440.99 0 0 0
1 625.238 5.755 3.922 0 0 0
1 332.531 274.957 850.14 0 0 0
1 1389.74 1493.94 399.732 0 0 0
1 585.772 458.417 252.571 0 0 0
1 794.295 759.598 1061.12 0 0 0
1 237.281 336.499 1002.4 0 0 0
1 468.694 623.885 646.884 0 0 0
1 519.265 402.937 923.949 0 0 0
1 1648.45 1479.89 499.95 0 0 0
1 116.016 158.632 538.325 0 0 0
1 1753.48 0 428.513 0 0 0
1 456.444 417.915 0 0 0 0
1 0 912.681 289.005 0 0 0
1 737.731 648.415 94.404 0 0 0
1 3362.75 1779.28 1270.35 0 0 0
1 373.036 1046.54 561.236 0 0 0
1 696.919 1257.55 276.133 0 0 0
1 2621.09 2149 4501.5 0 0 0
1 978.201 579.785 243.669 0 0 0
1 932.36 1406.37 703.101 0 0 0
1 853.767 528.065 1029.56 0 0 0
1 1597.27 2336.64 672.309 0 0 0
1 259.21 958.103 556.946 0 0 0
1 5000 0.001 3151.32 0 0 0
1 513.129 781.297 332.101 0 0 0
1 0 2067.88 1486.36 0 0 0
1 506.231 583.542 444.853 0 0 0
1 930.792 913.012 788.734 0 0 0
1 328.676 605.193 372.36 0 0 0
1 2315.97 365.343 565.802 0 0 0
1 602.076 987.106 1104.26 0 0 0
1 666.873 919.862 173.658 0 0 0
1 1690.33 841.216 1549.93 0 0 0
1 1248.43 487.252 1481.87 0 0 0
1 781.997 285.246 236.786 0 0 0
1 1517.2 1018.68 250.537 0 0 0
1 1269.8 2002.26 2117.58 0 0 0
1 683.297 537.103 114.58 0 0 0
1 738.355 1787.07 1680.26 0 0 0
1 76.668 309.049 245.284 0 0 0
1 863.991 710.201 1285.81 0 0 0
1 886.555 685.613 738.793 0 0 0
1 214.538 569.96 359.668 0 0 0
1 1577.19 89.998 1615.87 0 0 0
1 244.098 741.112 451.612 0 0 0
1 515.273 1394.81 1101.83 0 0 0
1 2199.06 740.289 540.325 0 0 0
1 483.242 623.897 836.763 0 0 0
1 489.964 1002.79 360.952 0 0 0
1 699.609 265.166 71.5 0 0 0
1 496.006 1043.31 911.018 0 0 0
1 550.198 36.167 636.328 0 0 0
1 694.181 730.931 1124.43 0 0 0
1 777.061 1023.66 1017.6 0 0 0
1 396.127 622.278 729.941 0 0 0
1 1366.92 935.272 1769.82 0 0 0
1 294.661 441.676 145.344 0 0 0
1 242.849 1888.78 1750.56 0 0 0
1 698.285 1035.29 612.242 0 0 0
1 622.163 330.144 0 0 0 0
1 217.303 357.527 121.551 0 0 0
1 559.964 330.1 835.662 0 0 0
1 654.835 569.127 232.374 0 0 0
1 417.465 319.293 525.492 0 0 0
1 510.07 0 1930.07 0 0 0
1 365.807 1952.99 1771.15 0 0 0
1 971.971 1541.68 439.967 0 0 0
1 1111.56 1750.96 2627.35 0 0 0
1 930.846 673.601 79.22 0 0 0
1 394.378 524.137 423.918 0 0 0
1 3466.56 194.778 0 0 0 0
1 326.074 588.969 937.5 0 0 0
1 486.051 931.181 269.864 0 0 0
1 857.49 1061.12 602.672 0 0 0
1 0 987.327 1051.65 0 0 0
1 3021.93 1373.97 300.07 0 0 0
1 72.098 385.012 910.006 0 0 0
1 278.41 751.934 4.651 0 0 0
1 573.059 361.237 730.934 0 0 0
1 437.294 1141.59 825.059 0 0 0
1 759.276 578.763 183.281 0 0 0
1 1245.95 1117.96 710.646 0 0 0
1 264.314 1010.94 774.419 0 0 0
1 936.721 505.708 553.037 0 0 0
1 721.711 690.612 998.379 0 0 0
1 247.795 1068.56 567.483 0 0 0
1 677.585 1007.3 84.771 0 0 0
1 220.829 954.972 0 0 0 0
1 459.152 1027.79 1036.07 0 0 0
1 255.327 361.382 657.546 0 0 0
1 1014.7 2628.05 1562.86 0 0 0
1 1053.68 1054.17 418.573 0 0 0
1 695.142 696.287 232.128 0 0 0
1 800.73 282.942 1114.96 0 0 0
1 218.275 2054.81 775.361 0 0 0
1 3880.35 3125.85 1251.4 0 0 0
1 51.859 332.176 1021.98 0 0 0
1 595.151 832.809 875.565 0 0 0
1 763.503 866.175 1002.85 0 0 0
1 539.327 672.638 341.001 0 0 0
1 921.09 794.519 169.216 0 0 0
1 256.23 860.071 507.138 0 0 0
1 563.945 1049.25 1010.19 0 0 0
1 1706.34 289.11 13.315 0 0 0
1 858.845 1138.65 384.967 0 0 0
1 447.493 492.457 1148.48 0 0 0
1 756.937 878.393 123.488 0 0 0
1 3369.72 1864.31 629.548 0 0 0
1 341.18 1141.92 879.079 0 0 0
1 2276.59 1744.67 1.801 0 0 0
1 168.547 604.518 265.907 0 0 0
1 431.579 772.142 1016.51 0 0 0
1 453.121 399.752 1073.52 0 0 0
1 388.024 586.386 1140.6 0 0 0
1 226.303 1640.06 1258.71 0 0 0
1 1037.27 67.028 641.59 0 0 0
1 2422.1 2302.78 4745.35 0 0 0
1 976.091 889.082 0.095 0 0 0
1 680.09 936.273 656.857 0 0 0
1 375.019 371.648 672.736 0 0 0
1 1377.52 381.861 360.819 0 0 0
1 1155.76 1161.59 1879.33 0 0 0
1 407.135 202.815 329.605 0 0 0
1 625.516 624.633 561.872 0 0 0
1 584.811 189.915 926.62 0 0 0
1 549.414 295.105 502.793 0 0 0
1 779.592 216.773 146.888 0 0 0
1 874.812 72.614 558.287 0 0 0
1 459.992 953.404 473.573 0 0 0
1 738.988 328.203 923.47 0 0 0
1 686.086 900.895 929.774 0 0 0
1 641.458 1032.32 516.172 0 0 0
1 497.41 564.41 310.691 0 0 0
1 189.701 27.366 712.36 0 0 0
1 343.768 956.332 701.303 0 0 0
1 795.31 0 582.052 0 0 0
1 1001.86 407.074 897.309 0 0 0
1 35.262 46.664 1918.09 0 0 0
1 768.545 440.28 893.621 0 0 0
1 324.341 992 1218.78 0 0 0
1 1522.55 939.842 1278.85 0 0 0
1 3350.1 1256.04 972.649 0 0 0
1 294.073 116.78 272.451 0 0 0
1 407.605 175.664 871.1 0 0 0
1 1220.88 2109.95 2146.14 0 0 0
1 482.255 235.229 0 0 0 0
1 42.13 2212.95 296.232 0 0 0
1 1373.54 919.541 1186.42 0 0 0
1 619.312 189.487 1067.15 0 0 0
1 2574.17 2566.62 1529.83 0 0 0
1 358.712 793.684 387.571 0 0 0
1 823.887 804.583 360.498 0 0 0
1 361.466 1085.07 971.595 0 0 0
1 4397.06 1812.83 1313.04 0 0 0
1 367.523 837.742 505.96 0 0 0
1 461.736 16.944 465.323 0 0 0
1 357.026 2368.79 743.874 0 0 0
1 467.105 884.854 379.215 0 0 0
1 0 103.766 2876.78 0 0 0
1 1378.95 719.513 395.308 0 0 0
1 1286.66 2093.01 1071.94 0 0 0
1 995.315 23.003 173.529 0 0 0
1 258.576 142.023 382.767 0 0 0
1 2167.19 2246.32 1958.59 0 0 0
1 841.408 684.911 637.658 0 0 0
1 1556.13 1339.08 1157.16 0 0 0
1 2398.75 2343.74 1001.89 0 0 0
1 39.305 25.297 983.233 0 0 0
1 389.744 60.332 213.223 0 0 0
1 639.907 105.939 976.488 0 0 0
1 528.664 715.066 570.228 0 0 0
1 659.579 5.39 1088.71 0 0 0
1 1602.02 693.469 790.615 0 0 0
1 396.058 50.539 382.085 0 0 0
1 343.486 427.948 527.368 0 0 0
1 1049.59 544.073 990.356 0 0 0
1 206.341 82.619 205.038 0 0 0
1 989.328 933.103 183.349 0 0 0
1 309.215 349.739 758.116 0 0 0
1 4621.71 350.469 2710.35 0 0 0
1 430.649 559.921 919.472 0 0 0
1 473.856 433.286 740.692 0 0 0
1 170.699 292.955 315.028 0 0 0
1 370.938 1446.61 0 0 0 0
1 463.859 502.095 829.547 0 0 0
1 352.602 623.354 245.464 0 0 0
1 218.444 596.891 964.385 0 0 0
1 1025.89 1830.22 248.982 0 0 0
1 1000.7 678.972 182.484 0 0 0
1 423.21 587.024 1030.7 0 0 0
1 615.732 0 918.781 0 0 0
1 672.189 414.889 428.672 0 0 0
1 810.48 601.429 762.402 0 0 0
1 1951.96 264.54 3663.66 0 0 0
1 383.219 681.372 1070.7 0 0 0
1 480.272 445.416 470.129 0 0 0
1 1163.8 1520.26 760.385 0 0 0
1 828.075 280.725 844.426 0 0 0
1 611.955 727.681 493.469 0 0 0
1 757.767 439.924 495.853 0 0 0
1 332.627 445.749 335.721 0 0 0
1 1643.54 0 1250.6 0 0 0
1 1659.57 2.218 737.802 0 0 0
1 0 1430.87 221.316 0 0 0
1 486.827 762.49 893.293 0 0 0
1 932.845 481.883 270.433 0 0 0
1 159.026 1379.79 617.048 0 0 0
1 754.594 805.295 249.788 0 0 0
1 483.225 1295.64 795.077 0 0 0
1 639.782 174.905 104.781 0 0 0
1 827.812 513.686 294.372 0 0 0
1 218.76 51.809 608.186 0 0 0
1 1109.97 524.532 680.462 0 0 0
1 156.328 677.398 1176.61 0 0 0
1 170.182 1068.57 66.245 0 0 0
1 494.711 0 286.388 0 0 0
1 141.498 802.269 426.748 0 0 0
1 560.449 504.008 897.438 0 0 0
1 637.549 891.601 2410.64 0 0 0
1 520.94 2457.58 322.025 0 0 0
1 1031.55 892.411 851.941 0 0 0
1 265.206 805.066 199.138 0 0 0
1 91.986 879.054 214.424 0 0 0
1 0 2306.32 2640.07 0 0 0
1 767.949 608.287 289.03 0 0 0
1 137.219 467.458 683.414 0 0 0
1 916.422 794.625 1114.56 0 0 0
1 1581.65 1562.73 998.067 0 0 0
1 890.725 850.039 1008.53 0 0 0
1 0 933.27 2943.35 0 0 0
1 734.738 328.21 463.914 0 0 0
1 713.606 756.307 894.098 0 0 0
1 1583.67 1658.46 3338.06 0 0 0
1 2209.13 338.356 1556.26 0 0 0
1 740.127 890.087 389.436 0 0 0
1 419.047 1242.22 348.483 0 0 0
1 551.909 473.356 358.42 0 0 0
1 260.399 218.345 788.779 0 0 0
1 2027.21 1762.45 0 0 0 0
1 422.896 788.46 598.85 0 0 0
1 110.76 640.881 1032.05 0 0 0
1 682.001 1.519 550.938 0 0 0
1 242.389 467.711 1059.62 0 0 0
1 310.438 858.428 614.747 0 0 0
1 872.111 1507.68 483.557 0 0 0
1 371.437 976.803 384.837 0 0 0
1 155.567 762.872 118.954 0 0 0
1 878.927 1856.54 98.441 0 0 0
1 643.087 877.563 55.669 0 0 0
1 292.33 823.641 92.545 0 0 0
1 878.48 93.902 955.662 0 0 0
1 347.887 947.611 492.549 0 0 0
1 522.975 370.625 1166.85 0 0 0
1 401.255 945.317 978.393 0 0 0
1 1127.69 640.649 1770.02 0 0 0
1 877.818 195.869 488.774 0 0 0
1 140.418 664.882 382.67 0 0 0
1 221.941 543.798 168.664 0 0 0
1 972.689 502.656 801.303 0 0 0
1 1120.52 685.013 580.986 0 0 0
1 718.059 803.59 0 0 0 0
1 86.688 566.801 351.624 0 0 0
1 712.362 449.755 268.627 0 0 0
1 901.826 438.42 636.3 0 0 0
1 927.477 0 905.722 0 0 0
1 1107.26 216.912 926.525 0 0 0
1 896.275 742.158 2948.16 0 0 0
1 2183.3 689.585 3695.38 0 0 0
1 585.512 1717.93 420.186 0 0 0
1 2749.35 642.378 1302.13 0 0 0
1 805.02 636.155 1055.34 0 0 0
1 305.265 20.518 804.246 0 0 0
1 762.356 159.941 941.348 0 0 0
1 233.676 984.428 447.845 0 0 0
1 960.581 803.214 491.913 0 0 0
1 261.021 346.939 545.173 0 0 0
1 1253.76 471.987 1372.89 0 0 0
1 899.826 413.956 0 0 0 0
1 1634.82 1380.4 1691.01 0 0 0
1 1799.83 3019.93 2663.24 0 0 0
1 414.783 894.691 772.014 0 0 0
1 433.101 849.162 934.9 0 0 0
1 0 1362.86 1331.19 0 0 0
1 1545.01 1776.71 1003.29 0 0 0
1 4843.52 354.881 3285.86 0 0 0
1 25.206 321.814 2260.49 0 0 0
1 889.068 896.024 129.399 0 0 0
1 1805.11 1628.52 411.47 0 0 0
1 11.044 181.382 210.244 0 0 0
1 1058.45 687.857 672.117 0 0 0
1 272.744 228.402 290.377 0 0 0
1 662.738 393.7 650.072 0 0 0
1 150.89 326.207 587.896 0 0 0
1 459.819 321.733 65.668 0 0 0
1 2068.75 1600.04 1309.29 0 0 0
1 820.509 434.619 214.885 0 0 0
1 713.6 865.156 2843.82 0 0 0
1 1939.01 1250.77 1802.78 0 0 0
1 974.713 233.482 865.97 0 0 0
1 435.295 567.707 1328.16 0 0 0
1 257.439 21.586 973.382 0 0 0
1 3796.82 3485.05 3497.59 0 0 0
1 459.926 599.299 1223.08 0 0 0
1 1430.68 1966.17 1242.51 0 0 0
1 72.163 576.228 220.128 0 0 0
1 604.119 898.579 727.092 0 0 0
1 703.009 697.956 1588.18 0 0 0
1 751.75 0 1208.74 0 0 0
1 425.818 670.982 313.71 0 0 0
1 1176.88 1385.04 429.486 0 0 0
1 1036.32 226.642 258.952 0 0 0
1 83.93 492.049 64.402 0 0 0
1 529.358 921.457 855.3 0 0 0
1 1052.37 971.687 331.552 0 0 0
1 1029.3 759.308 1038.38 0 0 0
1 748.742 174.702 806.923 0 0 0
1 1053.78 647.664 783.043 0 0 0
1 1015.96 360.873 2765.34 0 0 0
1 538.633 144.655 655.532 0 0 0
1 440.874 1263.46 1703.38 0 0 0
1 775.895 999.1 303.577 0 0 0
1 2478 1188.18 4950.63 0 0 0
1 611.301 308.762 934.123 0 0 0
1 966.096 821.091 607.531 0 0 0
1 647.644 706.319 122.888 0 0 0
1 1782.09 852.965 625.543 0 0 0
1 528.701 884.423 82.309 0 0 0
1 4048.65 4682.22 1419.73 0 0 0
1 1215.99 819.243 1022.4 0 0 0
1 409.635 881.183 1068.08 0 0 0
1 28.69 842.025 533.3 0 0 0
1 231.844 243.854 1088.62 0 0 0
1 376.282 809.353 706.142 0 0 0
1 504.646 0 1048.21 0 0 0
1 693.84 1012.94 231.618 0 0 0
1 1687.37 115.138 2.974 0 0 0
1 883.026 335.1 240.397 0 0 0
1 1106.31 797.267 836.672 0 0 0
1 740.461 104.369 1046.44 0 0 0
1 442.415 1165.7 477.856 0 0 0
1 3045.39 1066.71 729.301 0 0 0
1 975.235 723.591 344.035 0 0 0
1 954.032 712.813 636.936 0 0 0
1 1222.27 999.648 2668.75 0 0 0
1 768.062 425.629 655.843 0 0 0
1 940.258 325.447 809.888 0 0 0
1 530.668 223.09 295.164 0 0 0
1 0 791.062 1062.4 0 0 0
1 281.919 1061.84 278.069 0 0 0
1 1174.19 582.724 1.367 0 0 0
1 2358.93 0 223.075 0 0 0
1 1130.17 1667.72 1263.72 0 0 0
1 1902.04 1644.35 1508.23 0 0 0
1 3527.45 1915.62 1361.17 0 0 0
1 552.408 673.301 195.162 0 0 0
1 3295.25 137.479 853.864 0 0 0
1 807.491 662.953 402.39 0 0 0
1 255.484 1150.86 968.281 0 0 0
1 941.461 1009.73 410.023 0 0 0
1 156.016 1840.49 250.845 0 0 0
1 96.414 758.129 1988.34 0 0 0
1 323.96 261.782 1016.94 0 0 0
1 898.516 864.506 416.374 0 0 0
1 154.001 486.479 400.047 0 0 0
1 743.505 474.056 1006.13 0 0 0
1 1434.39 3.924 248.591 0 0 0
1 179.058 683.039 23.306 0 0 0
1 672.256 1109.96 992.932 0 0 0
1 1491.8 3354.27 200.478 0 0 0
1 1286.6 152.403 1070.89 0 0 0
1 930.965 208.718 1286.05 0 0 0
1 3926.45 514.136 2685.93 0 0 0
1 514.997 933.201 1054.07 0 0 0
1 1086.34 2428.84 2172.26 0 0 0
1 650.873 180.451 372.976 0 0 0
1 348.303 0 909.709 0 0 0
1 3383.4 692.956 727.162 0 0 0
1 2995.44 1282.04 359.549 0 0 0
1 1115.01 2399.37 3416.85 0 0 0
1 1290.47 1608.57 520.006 0 0 0
1 2242.73 2896.88 2063.92 0 0 0
1 350.7 428.981 36.131 0 0 0
1 1493.45 1289.89 2484.13 0 0 0
1 137.179 1471.17 233.127 0 0 0
1 1907.3 2082.2 1608.81 0 0 0
1 2818.08 1283.3 2018.86 0 0 0
1 21.533 4496.71 3348.16 0 0 0
1 2843.89 243.129 865.288 0 0 0
1 1208.7 359.33 1580.72 0 0 0
1 2419.24 1743.47 3485.96 0 0 0
1 345.883 506.211 1065.05 0 0 0
1 1249.32 653.359 599.182 0 0 0
1 562.404 382.03 427.517 0 0 0
1 776.921 1479.82 811.23 0 0 0
1 0 166.551 325.796 0 0 0
1 804.884 9.466 990.862 0 0 0
1 756.623 2138.04 520.927 0 0 0
1 2780.02 1356.44 2305.88 0 0 0
1 842.945 338.809 749.373 0 0 0
2 781.272 2369.19 1169.3 0 0 0
2 4793.84 0.306 2757.15 0 0 0
2 4999.7 4982.6 3742.32 0 0 0
2 92.146 303.086 4125.13 0 0 0
2 4999.65 2697.79 603.058 0 0 0
2 856.48 4038.52 4999.96 0 0 0
2 1071.03 625.268 4677.57 0 0 0
2 2443.64 3189.92 2786.01 0 0 0
2 2373.17 4398.63 4935.72 0 0 0
2 4154.07 4664.95 2051.64 0 0 0
2 484.441 0.647 0.374 0 0 0
2 5000 5000 2913.43 0 0 0
2 4649.31 4999.67 2215.58 0 0 0
2 1772.36 0.652 4999.12 0 0 0
2 2779.06 0.041 4665.74 0 0 0
2 4998.66 0.286 0.311 0 0 0
2 3687.24 4687.77 4096.67 0 0 0
2 0.074 4982.6 4159.75 0 0 0
2 4.214 1.915 4997.78 0 0 0
2 3023.38 3235.92 5000 0 0 0
2 4442.37 4999.95 3364.2 0 0 0
2 4853.09 1977.35 44.255 0 0 0
2 1447.67 2652.38 4122.12 0 0 0
2 4999.84 971.256 4999.05 0 0 0
2 2653.27 1566.91 3932.46 0 0 0
2 5000 1703.22 3078.84 0 0 0
2 1190.98 4999.99 3719.58 0 0 0
2 22.358 5000 5000 0 0 0
2 3088.48 4220.48 534.217 0 0 0
2 4999.43 4183.47 4998.17 0 0 0
2 1355.78 996.453 2164.38 0 0 0
2 1864.57 2338.31 2517.76 0 0 0
2 4911.08 380.086 4445.11 0 0 0
2 174.194 3.546 4992.86 0 0 0
2 494.075 4999.9 2435.34 0 0 0
2 4474.58 3962.16 2786.43 0 0 0
2 0 592.325 3046.06 0 0 0
2 0.276 4090.38 1154.15 0 0 0
2 3515.01 273.634 2011.25 0 0 0
2 4487.56 1012.37 4909.78 0 0 0
2 2666.47 1672.66 258.771 0 0 0
2 353.499 2708.24 3166.93 0 0 0
2 2202.41 5000 4089.56 0 0 0
2 1729.25 111.153 3178 0 0 0
2 67.326 3845.25 418.973 0 0 0
2 52.62 872.677 30.931 0 0 0
2 2590.2 4109.26 3402.53 0 0 0
2 23.834 317.087 374.81 0 0 0
2 2704.48 777.673 1283.81 0 0 0
2 0 4143.61 1641.49 0 0 0
2 51.195 4.712 1609.82 0 0 0
2 4991.85 4025.48 0.288 0 0 0
2 424.045 4566.31 0 0 0 0
2 75.803 522.153 1907.52 0 0 0
2 1673.12 4082.36 431.297 0 0 0
2 162.158 1409.6 909.697 0 0 0
2 1040.83 1150.75 1032.66 0 0 0
2 342.104 1113.46 393.559 0 0 0
2 0 4373.54 4137.76 0 0 0
2 836.029 886.513 0.091 0 0 0
2 402.702 0 594.32 0 0 0
2 1137.71 298.785 1041.92 0 0 0
2 343.705 800.502 1206.57 0 0 0
2 3.781 185.598 1176.69 0 0 0
2 1605.13 3454.39 287.277 0 0 0
2 1613.01 243.177 599.998 0 0 0
2 1239.61 1882.89 916.24 0 0 0
2 4730.15 2572.06 3170.01 0 0 0
2 1800.52 215.753 577.973 0 0 0
2 154.752 308.302 770.165 0 0 0
2 435.456 1323.13 1011.28 0 0 0
2 353.462 357.079 2233.12 0 0 0
2 0 1012.27 912.426 0 0 0
2 1591.29 509.645 539.694 0 0 0
2 594.394 109.798 1593.8 0 0 0
2 1172.6 575.981 1263.51 0 0 0
2 1755.9 698.728 1600.16 0 0 0
2 849.466 383.176 385.863 0 0 0
2 525.327 1034.09 180.867 0 0 0
2 674.363 1215.88 5000 0 0 0
2 647.952 1074.83 382.757 0 0 0
2 978.876 2244.59 442.571 0 0 0
2 4004.39 3538.26 3325.03 0 0 0
2 446.602 987.846 2.186 0 0 0
2 264.191 978.188 967.886 0 0 0
2 776.553 575.618 556.197 0 0 0
2 284.049 723.139 972.525 0 0 0
2 1669.61 2130.74 1652.2 0 0 0
2 0 1692.02 560.142 0 0 0
2 4412.97 147.993 1378.43 0 0 0
2 818.061 1412.53 285.955 0 0 0
2 319.154 698.556 629.999 0 0 0
2 1572.7 3837.51 1942.39 0 0 0
2 1435.79 342.892 175.462 0 0 0
2 2576.74 2195.06 3.025 0 0 0
2 3050.05 18.598 3.694 0 0 0
2 1128.48 946.943 200.806 0 0 0
2 757.107 351.411 1240.67 0 0 0
2 229.388 882.013 352.474 0 0 0
2 545.306 358.144 1352.39 0 0 0
2 402.215 824.043 222.293 0 0 0
2 345.089 1315.05 452.398 0 0 0
2 4997.74 2140.7 2222.38 0 0 0
2 8.149 1852.19 725.791 0 0 0
2 530.634 2442.31 498.869 0 0 0
2 4461.89 9.664 2.976 0 0 0
2 0 3659.93 1461.83 0 0 0
2 15.959 711.835 925.909 0 0 0
2 118.244 142.892 746.32 0 0 0
2 1056.47 832.425 1168.39 0 0 0
2 1018.8 375.473 300.251 0 0 0
2 207.54 473.676 1232.85 0 0 0
2 505.602 279.947 638.87 0 0 0
2 3100.82 0 3628 0 0 0
2 1112.65 517.421 839.795 0 0 0
2 360.965 1281.41 862.957 0 0 0
2 56.668 348.02 1324.07 0 0 0
2 3254.64 2887.36 0 0 0 0
2 372.421 1055.42 1377.79 0 0 0
2 2536.59 1989.75 3550.25 0 0 0
2 523.146 58.787 1351.36 0 0 0
2 1225.88 478.027 1038.66 0 0 0
2 162.708 790.615 588.506 0 0 0
2 1015.24 1100.68 560.434 0 0 0
2 1873.46 1846.17 4344.59 0 0 0
2 153.846 0 1854.1 0 0 0
2 2372.21 0 3339.79 0 0 0
2 521.424 1130.51 1116.62 0 0 0
2 397.006 1179.15 217.547 0 0 0
2 1512.42 1197.63 956.159 0 0 0
2 0 4380.52 618.2 0 0 0
2 3804.65 3069.29 4696.9 0 0 0
2 429.948 412.609 172.405 0 0 0
2 490.928 1558.51 503.693 0 0 0
2 466.709 342.731 332.272 0 0 0
2 2906.66 2146.9 3120.72 0 0 0
2 4265.64 1782.25 1622.77 0 0 0
2 178.186 608.512 676.339 0 0 0
2 459.294 1276.13 598.982 0 0 0
2 887.94 541.148 142.895 0 0 0
2 1256.85 222.29 543.128 0 0 0
2 347.403 1338.52 249.905 0 0 0
2 2326.31 1531.63 23.588 0 0 0
2 238.011 598.648 506.487 0 0 0
2 597.503 1390.25 906.08 0 0 0
2 1230.36 649.709 380.263 0 0 0
2 277.587 155.46 928.105 0 0 0
2 5000 1045.42 3310.78 0 0 0
2 2016.69 1155.69 436.898 0 0 0
2 950.458 639.338 1128.31 0 0 0
2 22.193 25.356 489.053 0 0 0
2 3601.28 2882.36 677.249 0 0 0
2 590.15 436.338 1041.73 0 0 0
2 147.291 2202.08 1517.5 0 0 0
2 914.71 1886.26 4138.15 0 0 0
2 0 1297.27 1543.72 0 0 0
2 559.825 1401.89 717.953 0 0 0
2 754.704 1284.22 908.682 0 0 0
2 1581.11 867.746 42.075 0 0 0
2 0 1338.18 620.48 0 0 0
2 3285.5 2940.47 1326.95 0 0 0
2 348.88 678.147 1329.12 0 0 0
2 4691.69 5000 5000 0 0 0
2 1365.37 650.704 516.664 0 0 0
2 203.348 1259.5 560.775 0 0 0
2 172.783 813.571 1107.85 0 0 0
2 2618.2 2950.05 1949.01 0 0 0
2 2089.84 258.136 1289.67 0 0 0
2 674.486 284.616 1455.43 0 0 0
2 803.908 24.961 720.083 0 0 0
2 1307.37 1205.86 338.381 0 0 0
2 1440.7 865.923 977.395 0 0 0
2 3.721 2247.69 34.259 0 0 0
2 1602.97 95.8 825.605 0 0 0
2 973.566 1367.28 115.582 0 0 0
2 711.568 461.709 0 0 0 0
2 793.158 1232.13 521.003 0 0 0
2 5000 0 2801.53 0 0 0
2 22.899 0 297.334 0 0 0
2 2110.99 1039.25 2190.73 0 0 0
2 2456.95 469.199 665.916 0 0 0
2 742.558 1135.79 1202.89 0 0 0
2 3827.28 237.072 4410.75 0 0 0
2 444.571 1841.39 379.551 0 0 0
2 1142.16 1254.84 576.086 0 0 0
2 453.629 928.161 612.36 0 0 0
2 0 370.063 1895.39 0 0 0
2 2074.67 978.331 1153.52 0 0 0
2 1151.99 1052.79 5.042 0 0 0
2 5000 1118.7 2423.23 0 0 0
2 524.537 1191.16 932.993 0 0 0
2 184.367 1270.61 746.985 0 0 0
2 1051.44 355.473 1314.78 0 0 0
2 2053.14 5000 4488.02 0 0 0
2 4547.3 0 1647.61 0 0 0
2 645.018 1233.95 1062.11 0 0 0
2 469.86 964.508 1184.22 0 0 0
2 4652.4 1560.26 137.867 0 0 0
2 1206.01 2697.44 4196.33 0 0 0
2 4158.06 1753.98 0 0 0 0
2 716.667 1113.84 849.48 0 0 0
2 697.445 300.863 763.209 0 0 0
2 24.019 697.387 271.347 0 0 0
2 659.742 2154.17 1384.47 0 0 0
2 412.737 425.798 1269.95 0 0 0
2 1252.71 839.577 843.344 0 0 0
2 1065.91 468.236 1186.42 0 0 0
2 1479.59 1113.25 3408.24 0 0 0
2 670.125 652.935 1260.89 0 0 0
2 12.077 777.433 1376.43 0 0 0
2 255.69 709.605 305.423 0 0 0
2 0 853.09 1952.46 0 0 0
2 2639.8 1268.62 311.922 0 0 0
2 1281.38 672.764 0 0 0 0
2 1148.57 681.293 1108.01 0 0 0
2 1366.39 1096.74 502.201 0 0 0
2 2079.36 2259 38.943 0 0 0
2 312.871 1071.25 100.02 0 0 0
2 526.542 1361.66 306.207 0 0 0
2 36.892 2588.31 4443.55 0 0 0
2 0.324 1649.28 395.474 0 0 0
2 17.946 1181.12 899.892 0 0 0
2 2047.81 341.608 2189.64 0 0 0
2 1198.47 0 1245.3 0 0 0
2 606.974 2276.38 1042.21 0 0 0
2 1222.32 279.295 2090.22 0 0 0
2 1325.32 536.805 636.513 0 0 0
2 3484.08 6.596 93.925 0 0 0
2 4059.01 812.294 4499.16 0 0 0
2 3115.81 4501.81 126.651 0 0 0
2 1385.73 195.131 1544.63 0 0 0
2 351.623 1361.54 710.975 0 0 0
2 51.586 1615.54 842.202 0 0 0
2 1071.46 1469.97 3213.61 0 0 0
2 1174.24 73.78 689.867 0 0 0
2 88.54 461.704 1060.56 0 0 0
2 156.595 179.414 1674.37 0 0 0
2 1047.8 805.229 91.274 0 0 0
2 1204.62 250.489 711.49 0 0 0
2 4095.28 1487.18 3202.21 0 0 0
2 312.135 372.27 1139.79 0 0 0
2 470.631 477.549 607.863 0 0 0
2 1474.09 29.938 1018.92 0 0 0
2 403.029 1512.41 649.888 0 0 0
2 808.876 918.223 587.669 0 0 0
2 27.004 1889.5 299.596 0 0 0
2 1024.39 683.558 1290.15 0 0 0
2 2989.11 1988.51 3044.38 0 0 0
2 747.366 1154.54 5.221 0 0 0
2 2630.63 1126.21 3406.61 0 0 0
2 557.734 1495.9 179.786 0 0 0
2 1206.99 784.766 501.975 0 0 0
2 155.12 970.487 650.481 0 0 0
2 288.323 572.358 1687.82 0 0 0
2 4163.08 1332.75 1948.73 0 0 0
2 123.684 1255.41 1076.46 0 0 0
2 135.48 128.351 317.459 0 0 0
2 269.304 295.548 415.043 0 0 0
2 902.269 1285.38 362.174 0 0 0
2 1389.32 171.054 21.471 0 0 0
2 550.9 833.632 1401.7 0 0 0
2 1797.75 0 3551.87 0 0 0
2 864.088 1240.16 1050.21 0 0 0
2 335.026 320.214 2685.49 0 0 0
2 1737.56 2145.63 5000 0 0 0
2 902.954 343.498 1424.93 0 0 0
2 -0 1263.76 198.742 0 0 0
2 1770.6 66.304 163.27 0 0 0
2 236.875 849.184 1616.07 0 0 0
2 2172.47 2325.7 1588.04 0 0 0
2 795.392 1029.09 459.496 0 0 0
2 917.482 572.235 408.49 0 0 0
2 1399 5000 3696.08 0 0 0
2 2410.01 2589.61 1317.35 0 0 0
2 16.407 674.695 1138.49 0 0 0
2 1343.62 2376.95 1694.29 0 0 0
2 3487.23 1564.32 15.485 0 0 0
2 179.651 1115.95 447.686 0 0 0
2 1897.83 3766.29 2010.83 0 0 0
2 1477.19 0 3048.21 0 0 0
2 748.346 1345.18 85.341 0 0 0
2 696.391 4391.82 418.771 0 0 0
2 1367.53 672.286 960.758 0 0 0
2 559.931 1259.33 17.975 0 0 0
2 588.031 1207.22 766.554 0 0 0
2 250.527 603.69 1103.42 0 0 0
2 268.927 674.679 138.073 0 0 0
2 993.882 780.502 754.868 0 0 0
2 4749.14 3152.44 0 0 0 0
2 2811.9 965.689 177.508 0 0 0
2 1715.31 2404.32 1033.96 0 0 0
2 164.306 1298.56 381.39 0 0 0
2 1060.54 1208.04 414.105 0 0 0
2 386.791 193.494 726.204 0 0 0
2 1248.73 1097.44 850.096 0 0 0
2 4713.86 2181.35 115.771 0 0 0
2 1.278 894.395 1579.82 0 0 0
2 81.74 842.165 838.747 0 0 0
2 2364.18 5000 186.619 0 0 0
2 1297.52 386.503 813.039 0 0 0
2 4187.55 512.659 27.576 0 0 0
2 326.382 883.627 1388.76 0 0 0
2 1195.19 784.789 173.517 0 0 0
2 1225.29 973.955 716.185 0 0 0
2 596.329 614.109 3863 0 0 0
2 0 1788.76 4051.05 0 0 0
2 1613.88 582.413 353.198 0 0 0
2 4107.91 3205.67 108.01 0 0 0
2 2278.31 90.109 91.037 0 0 0
2 318.775 490.121 815.225 0 0 0
2 893.414 1397.74 1146.53 0 0 0
2 1279.05 0 577.964 0 0 0
2 2432.61 835.575 2024.79 0 0 0
2 633.416 858.466 1056.44 0 0 0
2 4253.26 5000 2490.38 0 0 0
2 1200.76 635.079 737.493 0 0 0
2 947.111 1321.12 4070.91 0 0 0
2 1105.44 4502.58 433.359 0 0 0
2 1071.34 692.183 450.1 0 0 0
2 0 536.916 2284.96 0 0 0
2 1333.21 501.519 422.489 0 0 0
2 1571.92 34.835 633.408 0 0 0
2 912.943 1167.39 710.844 0 0 0
2 1110.38 1669.24 2183.91 0 0 0
2 162.738 4.85 857.568 0 0 0
2 994.105 299.762 465.049 0 0 0
2 4855.12 4811.43 0 0 0 0
2 0 1225.56 476.224 0 0 0
2 2510.72 1764.19 4042.86 0 0 0
2 2508.33 300.263 839.667 0 0 0
2 2094.9 0 1676.32 0 0 0
2 876.18 686.421 246.146 0 0 0
2 589.545 809.976 214.004 0 0 0
2 3412.07 4557.61 4436.41 0 0 0
2 1044.02 1528.15 1998.86 0 0 0
2 1304.93 798.053 305.103 0 0 0
2 884.67 904.564 272.797 0 0 0
2 1100.81 674.175 927.349 0 0 0
2 2963.53 0 1506.94 0 0 0
2 1627.82 0 2052.24 0 0 0
2 1199.99 1071.44 558.354 0 0 0
2 2438.51 0 1439.03 0 0 0
2 1671.75 3128 3975.02 0 0 0
2 434.003 248.938 1138.93 0 0 0
2 1041.38 951.461 690.819 0 0 0
2 0 132.227 3899.92 0 0 0
2 0 697.877 1707.81 0 0 0
2 879.367 1097.45 929.256 0 0 0
2 1147.04 74.131 991.399 0 0 0
2 1369.87 347.295 520.698 0 0 0
2 835.483 0.058 4052.1 0 0 0
2 3909.39 0 0 0 0 0
2 2694.93 4087.2 1498.37 0 0 0
2 739.828 139.038 1197.38 0 0 0
2 3574.39 3478.45 3568.09 0 0 0
2 16.132 1067.14 1168.17 0 0 0
2 409.874 1245.75 1180.56 0 0 0
2 3759.74 4954.08 654.814 0 0 0
2 1503.61 450.049 321.794 0 0 0
2 804.801 711.756 1434.76 0 0 0
2 741.23 1151.02 679.285 0 0 0
2 705.387 1322.94 399.773 0 0 0
2 3291.43 2047.33 825.449 0 0 0
2 1075.61 1471.99 1803.9 0 0 0
2 301.871 495.26 645.892 0 0 0
2 932.478 1205.91 12.401 0 0 0
2 339.823 1082.16 1112.8 0 0 0
2 964.001 580.402 681.297 0 0 0
2 371.437 729.255 820.987 0 0 0
2 280.875 2471.76 1591.9 0 0 0
2 3567.87 1051.68 0 0 0 0
2 436.706 653.462 105.397 0 0 0
2 1192.76 3303.62 144.425 0 0 0
2 3250.86 2938.4 3001.29 0 0 0
2 679.255 2888.18 0 0 0 0
2 1190.88 0 145.249 0 0 0
2 1393.94 2260.19 875.146 0 0 0
2 1716.25 2408.45 690.027 0 0 0
2 1754.76 2985.29 4334.79 0 0 0
2 1092.54 874.676 984.473 0 0 0
2 1553.04 1437.25 618.481 0 0 0
2 557.382 1044.78 679.743 0 0 0
2 598.075 2937.88 4999.42 0 0 0
2 1276.96 181.585 883.355 0 0 0
2 133.272 316.673 1160.81 0 0 0
2 1715.59 656.753 1770.72 0 0 0
2 174.669 747.624 1332.55 0 0 0
2 1994.14 4090.1 28.377 0 0 0
2 1062.7 833.23 311.988 0 0 0
2 1369.22 2082.64 805.65 0 0 0
2 0 1087.21 319.734 0 0 0
2 533.61 704.729 1165.8 0 0 0
2 1096.94 161.911 1135.94 0 0 0
2 1160.44 804.755 670.045 0 0 0
2 1193.8 917.616 383.552 0 0 0
2 2402.06 2955.08 1618.76 0 0 0
2 3949.84 4353.94 0 0 0 0
2 1364.21 696.75 787.248 0 0 0
2 2365.01 1278.58 1871.2 0 0 0
2 669.461 639.615 398.419 0 0 0
2 859.683 90.984 1464.05 0 0 0
2 307.423 159.855 1286.94 0 0 0
2 2691.74 612.395 336.882 0 0 0
2 991.314 172.33 995.567 0 0 0
2 195.668 448.413 928.869 0 0 0
2 1436.8 614.317 319.975 0 0 0
2 1438.46 480.269 770.959 0 0 0
2 574.774 544.578 750.867 0 0 0
2 959.387 1280.57 864.076 0 0 0
2 500.108 216.68 1460.36 0 0 0
2 5000 1265.31 1959.03 0 0 0
2 2332.88 0 700.296 0 0 0
2 1440.79 1130.51 2103.4 0 0 0
2 159.287 1323.1 213.194 0 0 0
2 313.145 315.587 1377.63 0 0 0
2 3275.04 3336.06 3431.28 0 0 0
2 2458.77 4781.69 1308.74 0 0 0
2 230.316 1137.32 1240.89 0 0 0
2 3329.98 404.413 898.516 0 0 0
2 828.06 1604.43 938.124 0 0 0
2 792.716 537.943 1201.91 0 0 0
2 968.372 2235.85 1076.19 0 0 0
2 1036.21 4999.71 4854.42 0 0 0
2 1350.24 1660.99 1949.76 0 0 0
2 657.741 591.022 1080.65 0 0 0
2 271.506 910.912 2260.4 0 0 0
2 0 367.04 1530.94 0 0 0
2 791.919 752.294 523.741 0 0 0
2 594.866 1074.3 1281.69 0 0 0
2 1088.05 450.823 115.153 0 0 0
2 1126.83 345.85 862.422 0 0 0
2 1172.67 1153.12 223.944 0 0 0
2 2757.84 3629.03 2598.68 0 0 0