LAMMPS data file, Author: Jerry Qin

1000 atoms
0 bonds
0 angles

2 atom types

-100 4100 xlo xhi
-100 4100 ylo yhi
-100 4100 zlo zhi

Masses

1 221851
2 422051

Atoms

1 1  237.477 590.077 142.247
2 1  618.992 633.110 326.646
3 1  50.454 792.841 341.826
4 1  642.905 850.297 946.538
5 1  86.946 530.270 775.342
6 1  730.923 21.617 765.762
7 1  403.270 1018.438 568.291
8 1  723.650 343.609 718.531
9 1  487.298 796.958 391.197
10 1  377.203 751.358 599.490
11 1  191.202 827.842 183.720
12 1  469.870 679.639 738.074
13 1  910.920 775.461 774.522
14 1  544.537 124.195 245.379
15 1  790.522 295.648 958.372
16 1  617.306 833.673 25.102
17 1  356.481 615.532 83.714
18 1  78.593 293.707 23.939
19 1  681.072 88.461 432.418
20 1  298.251 859.958 27.707
21 1  497.824 334.342 172.703
22 1  122.485 66.780 513.997
23 1  763.809 804.075 572.509
24 1  307.658 962.356 368.996
25 1  281.491 907.267 706.383
26 1  19.391 1.908 895.312
27 1  784.801 616.399 590.521
28 1  493.487 572.847 153.536
29 1  586.702 46.659 694.679
30 1  558.819 765.148 809.698
31 1  409.357 366.447 604.229
32 1  577.149 465.643 386.842
33 1  65.310 412.846 351.285
34 1  776.047 337.908 216.244
35 1  0.380 303.813 344.046
36 1  877.661 177.494 960.527
37 1  878.453 972.288 413.235
38 1  772.932 652.240 109.962
39 1  780.482 232.467 716.991
40 1  6.828 920.379 608.657
41 1  374.772 492.525 439.609
42 1  518.396 453.463 207.162
43 1  801.503 851.799 262.816
44 1  450.299 89.349 626.135
45 1  439.898 437.028 316.351
46 1  220.236 792.284 826.462
47 1  126.448 892.959 387.830
48 1  302.261 499.825 956.091
49 1  303.643 277.438 674.058
50 1  803.839 810.005 442.118
51 1  362.579 379.624 201.440
52 1  557.164 790.699 621.955
53 1  738.043 921.362 866.614
54 1  376.829 748.887 111.457
55 1  548.116 424.860 530.855
56 1  573.812 372.605 771.697
57 1  548.939 283.585 385.881
58 1  427.467 505.246 752.353
59 1  236.885 201.626 221.736
60 1  208.809 310.880 133.031
61 1  364.754 672.376 848.538
62 1  777.471 836.738 956.951
63 1  909.804 347.236 441.175
64 1  166.038 967.642 11.346
65 1  446.606 169.867 317.783
66 1  446.702 4.872 290.026
67 1  258.975 218.469 922.900
68 1  734.180 220.000 564.571
69 1  113.899 293.130 904.751
70 1  429.929 955.859 941.783
71 1  488.481 539.664 591.516
72 1  611.392 167.410 613.258
73 1  772.683 670.940 713.925
74 1  740.344 700.275 328.333
75 1  585.314 919.585 829.859
76 1  258.359 774.922 707.228
77 1  970.362 936.097 522.540
78 1  446.525 879.874 265.984
79 1  348.485 500.878 187.938
80 1  673.984 430.178 116.429
81 1  261.142 97.779 433.095
82 1  155.858 513.895 362.765
83 1  453.554 692.309 250.110
84 1  573.772 624.952 801.371
85 1  300.723 796.983 324.182
86 1  134.861 681.906 327.902
87 1  46.005 968.618 319.394
88 1  951.243 661.890 280.006
89 1  124.029 645.342 175.620
90 1  173.338 454.324 818.507
91 1  168.058 654.759 754.104
92 1  934.560 432.830 886.227
93 1  647.862 892.916 127.467
94 1  438.589 482.211 83.840
95 1  486.202 582.341 468.022
96 1  873.931 794.774 625.775
97 1  614.002 591.017 154.406
98 1  64.597 531.327 26.568
99 1  924.998 828.340 452.364
100 1  299.167 334.835 324.070
101 1  196.110 415.590 72.143
102 1  317.401 213.108 547.166
103 1  743.931 832.299 27.044
104 1  281.810 489.379 636.209
105 1  597.945 308.652 605.627
106 1  92.278 161.430 54.171
107 1  753.641 446.556 281.266
108 1  652.875 867.682 304.280
109 1  234.994 369.437 466.034
110 1  750.817 162.175 81.134
111 1  144.681 151.205 429.149
112 1  30.560 401.674 497.013
113 1  260.237 947.141 221.535
114 1  3274.708 381.101 926.889
115 1  2311.203 982.733 428.506
116 1  2958.718 0.000 1941.478
117 1  4000.000 1846.782 0.000
118 1  2965.766 399.582 0.000
119 1  2673.740 1447.927 1254.622
120 1  2162.414 938.268 1246.688
121 1  2857.767 257.225 109.212
122 1  2454.001 103.574 618.044
123 1  2818.988 293.517 642.425
124 1  3206.290 486.299 626.061
125 1  2348.197 995.521 594.756
126 1  2752.183 29.790 796.833
127 1  2895.484 815.387 384.924
128 1  3120.919 901.148 887.925
129 1  3909.013 427.115 534.787
130 1  2610.689 357.782 780.388
131 1  3200.594 378.703 558.862
132 1  2713.595 620.363 65.870
133 1  2532.498 16.697 298.592
134 1  3005.516 265.225 180.865
135 1  3515.372 212.338 637.239
136 1  2577.426 522.301 800.427
137 1  2549.329 876.532 248.824
138 1  2516.664 888.943 93.830
139 1  3477.645 201.217 451.147
140 1  2925.646 301.428 747.011
141 1  2268.799 540.043 771.455
142 1  2502.542 83.769 0.000
143 1  3249.135 803.406 842.052
144 1  3211.442 331.920 818.127
145 1  2594.966 334.702 0.000
146 1  3281.093 1252.409 188.930
147 1  2792.348 178.643 416.706
148 1  3153.381 674.069 545.289
149 1  2143.227 0.000 1355.208
150 1  3201.196 326.900 403.387
151 1  2947.973 386.706 526.553
152 1  2991.004 811.174 880.557
153 1  4000.000 2000.000 342.127
154 1  3138.341 181.163 295.245
155 1  2589.400 771.992 20.305
156 1  3094.318 201.163 960.622
157 1  2951.318 10.091 279.521
158 1  3675.116 1197.978 0.000
159 1  2471.853 390.374 797.659
160 1  2608.419 1142.702 852.072
161 1  2454.419 1024.082 222.878
162 1  2004.310 8.658 1930.596
163 1  2828.854 87.858 936.683
164 1  2704.696 116.315 196.091
165 1  3037.137 5.566 560.034
166 1  3105.168 757.483 11.687
167 1  3282.414 997.686 858.805
168 1  3090.678 39.124 853.481
169 1  2256.848 339.847 411.922
170 1  2880.024 111.412 91.847
171 1  2658.704 774.855 158.111
172 1  2825.866 0.000 0.000
173 1  2786.172 110.000 687.547
174 1  3114.861 972.941 32.989
175 1  2492.070 1157.803 596.175
176 1  2555.050 769.542 714.636
177 1  2873.415 1295.024 0.000
178 1  2576.742 490.691 924.329
179 1  2467.714 933.430 436.763
180 1  2631.605 279.747 681.645
181 1  3103.875 211.631 717.154
182 1  2516.858 815.358 915.244
183 1  2910.365 587.949 969.960
184 1  2370.828 0.000 131.625
185 1  2847.291 49.812 351.480
186 1  2000.000 330.226 648.266
187 1  3275.525 1394.326 510.012
188 1  2787.878 301.124 759.116
189 1  2699.215 749.616 462.188
190 1  2739.256 463.517 538.718
191 1  2877.425 472.637 406.752
192 1  3203.475 168.651 95.633
193 1  2047.436 272.253 1201.101
194 1  4000.000 511.032 0.000
195 1  2760.450 841.451 512.417
196 1  2754.174 133.989 26.957
197 1  3102.346 134.954 587.599
198 1  2144.457 641.587 399.000
199 1  2861.562 0.000 693.073
200 1  2444.609 708.661 694.599
201 1  3206.325 230.780 925.599
202 1  2605.009 17.839 106.095
203 1  2797.480 315.007 524.523
204 1  3143.956 733.392 292.866
205 1  2925.597 270.083 1034.073
206 1  3000.888 868.816 470.239
207 1  2793.211 590.656 774.855
208 1  3182.425 803.136 453.051
209 1  2783.763 998.593 589.193
210 1  2465.214 686.230 118.759
211 1  2924.667 953.666 846.581
212 1  2995.856 114.672 1091.506
213 1  3098.040 518.777 983.728
214 1  3193.857 360.964 245.783
215 1  2869.396 28.620 537.352
216 1  2433.892 985.338 747.891
217 1  2523.340 498.730 478.572
218 1  3081.489 592.193 367.766
219 1  2718.900 333.918 873.028
220 1  2710.033 571.353 401.304
221 1  2818.906 613.271 246.450
222 1  2646.399 1101.083 125.999
223 1  2695.211 602.905 953.637
224 1  2403.856 469.570 570.278
225 1  2895.779 1047.872 0.000
226 1  131.186 2702.919 631.039
227 1  232.171 2495.433 198.498
228 1  465.271 2811.089 406.958
229 1  663.130 2928.908 195.585
230 1  591.608 2499.525 394.530
231 1  386.367 3109.261 1.114
232 1  738.152 3058.328 140.156
233 1  516.988 2955.715 934.345
234 1  738.202 2872.353 604.496
235 1  729.367 2623.851 375.192
236 1  678.207 3189.640 444.993
237 1  253.957 3144.373 104.078
238 1  338.726 2395.621 543.581
239 1  974.979 2937.915 403.595
240 1  730.000 2576.222 500.104
241 1  645.589 2810.543 683.068
242 1  12.754 2714.688 178.761
243 1  326.904 3085.919 809.546
244 1  78.365 2995.306 485.412
245 1  966.285 2628.049 614.225
246 1  18.278 2822.661 22.216
247 1  876.112 3042.903 673.106
248 1  527.672 2887.645 541.847
249 1  655.666 2803.281 964.130
250 1  253.015 2697.343 462.875
251 1  193.773 2732.140 357.439
252 1  819.075 2397.044 865.429
253 1  683.709 2647.086 208.304
254 1  668.237 2885.402 22.631
255 1  2.451 2617.645 795.337
256 1  532.724 2490.431 607.516
257 1  496.878 2566.783 69.221
258 1  754.449 3046.262 733.211
259 1  949.581 2975.612 87.118
260 1  431.922 3061.538 939.155
261 1  161.456 3160.258 756.265
262 1  268.280 2908.800 849.421
263 1  785.525 2792.843 66.115
264 1  318.167 2614.898 600.401
265 1  222.330 2907.606 688.523
266 1  792.644 2948.142 29.194
267 1  909.946 2824.187 316.554
268 1  711.629 2424.141 958.870
269 1  898.899 2427.776 712.574
270 1  397.809 2830.577 298.466
271 1  33.215 2577.457 345.488
272 1  703.253 3147.847 54.683
273 1  792.872 2722.712 521.402
274 1  407.237 2579.311 866.999
275 1  519.675 2742.983 5.319
276 1  844.220 2613.382 469.082
277 1  753.413 2655.938 979.741
278 1  63.129 2869.715 519.832
279 1  611.524 3048.434 402.972
280 1  693.202 2895.514 331.969
281 1  947.250 2715.574 242.601
282 1  928.379 2695.630 997.090
283 1  902.571 3139.364 20.185
284 1  565.153 2545.545 845.104
285 1  701.447 3084.858 501.436
286 1  99.877 3071.298 843.955
287 1  965.878 2472.959 921.883
288 1  204.060 2854.260 505.712
289 1  713.772 2520.533 623.550
290 1  873.940 3190.274 136.983
291 1  720.776 2493.348 276.642
292 1  19.713 2793.835 743.945
293 1  93.494 2901.567 353.705
294 1  475.398 2909.064 123.049
295 1  423.382 2460.865 89.097
296 1  909.746 3223.681 688.350
297 1  489.828 2756.446 158.979
298 1  808.884 2607.841 815.871
299 1  489.008 2400.802 497.261
300 1  873.225 2916.624 787.298
301 1  270.135 2759.016 586.349
302 1  957.705 2447.073 598.081
303 1  810.414 2636.491 194.308
304 1  165.370 3147.372 472.758
305 1  300.372 2569.971 325.509
306 1  65.537 2435.008 64.674
307 1  129.439 3145.987 347.487
308 1  468.732 2943.451 432.949
309 1  442.716 2629.580 652.436
310 1  575.767 3044.255 286.480
311 1  561.016 3061.454 821.613
312 1  371.920 2959.953 586.837
313 1  166.227 2624.232 964.544
314 1  503.147 2807.565 772.250
315 1  293.637 2427.014 400.267
316 1  853.737 2406.869 486.943
317 1  665.068 3009.063 653.642
318 1  30.198 3199.217 551.471
319 1  326.850 2727.376 348.139
320 1  955.051 2554.523 475.618
321 1  931.099 2501.971 803.684
322 1  631.879 3096.183 980.766
323 1  82.086 2900.213 885.259
324 1  212.970 3234.917 876.069
325 1  639.787 2901.459 827.928
326 1  895.948 2883.205 158.128
327 1  320.577 3104.193 327.971
328 1  872.638 2560.701 320.920
329 1  55.127 2496.306 245.617
330 1  780.997 2975.940 425.616
331 1  232.695 2487.995 582.603
332 1  263.706 3055.553 189.739
333 1  99.985 2645.358 518.186
334 1  148.865 2646.039 231.006
335 1  387.082 2774.340 949.833
336 1  310.170 2979.216 448.320
337 1  244.113 2689.428 164.030
338 1  96.020 3061.936 686.449
339 1  362.653 146.766 2467.245
340 1  64.125 611.679 2791.248
341 1  374.047 719.158 2781.153
342 1  692.332 221.874 2852.083
343 1  60.653 758.770 3017.390
344 1  488.713 873.883 2402.419
345 1  110.912 770.515 2588.909
346 1  15.961 20.556 2448.982
347 1  914.337 181.606 2877.444
348 1  143.506 560.606 2917.340
349 1  795.279 209.705 2525.460
350 1  882.444 93.600 2544.203
351 1  810.684 438.246 2830.845
352 1  608.428 263.848 2420.307
353 1  323.547 841.858 2406.324
354 1  886.248 829.271 2548.266
355 1  82.334 852.874 2685.000
356 1  562.228 934.968 2570.479
357 1  425.270 152.041 2818.697
358 1  946.614 887.569 2911.398
359 1  103.808 332.939 3197.951
360 1  220.843 484.233 2578.951
361 1  260.696 182.508 2687.050
362 1  961.435 572.920 2775.526
363 1  923.258 576.645 2574.373
364 1  201.354 0.000 2656.310
365 1  502.466 546.896 2402.056
366 1  511.060 690.408 2438.554
367 1  121.538 197.740 2855.179
368 1  861.232 526.808 2904.073
369 1  948.126 388.126 2586.976
370 1  595.746 0.000 2947.853
371 1  873.447 527.192 3202.451
372 1  308.190 549.019 2831.257
373 1  940.894 238.343 3061.262
374 1  595.723 614.414 2482.713
375 1  85.437 263.390 2406.384
376 1  19.488 953.337 2613.703
377 1  691.001 346.418 2566.924
378 1  0.000 207.792 2938.882
379 1  523.502 191.968 3046.417
380 1  756.912 552.280 2811.698
381 1  922.826 280.799 2489.549
382 1  252.691 388.057 2736.775
383 1  762.750 515.362 2467.681
384 1  295.426 644.202 2692.239
385 1  172.410 739.654 2957.206
386 1  230.397 806.282 2868.013
387 1  406.385 620.833 2846.040
388 1  626.720 636.524 2744.745
389 1  16.599 38.601 3133.281
390 1  835.372 911.270 2665.072
391 1  541.035 360.804 2681.173
392 1  92.001 648.034 2518.643
393 1  414.080 274.278 3158.135
394 1  401.281 196.388 2951.103
395 1  876.668 331.787 3140.998
396 1  319.731 17.850 2747.265
397 1  654.934 166.548 3139.872
398 1  682.431 5.665 3053.228
399 1  293.012 915.519 2731.805
400 1  780.950 669.566 3157.702
401 1  663.336 750.028 2825.713
402 1  514.453 145.889 3189.985
403 1  983.335 540.872 2936.672
404 1  791.323 592.664 2597.235
405 1  693.862 984.933 2603.238
406 1  128.435 287.627 2969.731
407 1  491.180 1001.669 2421.458
408 1  95.106 458.322 2561.085
409 1  659.330 218.477 3021.523
410 1  572.613 185.849 2862.639
411 1  78.639 745.671 2829.068
412 1  352.746 366.875 2661.263
413 1  332.703 415.175 2931.180
414 1  6.788 280.975 3057.917
415 1  195.320 701.945 2814.986
416 1  971.892 685.820 2597.009
417 1  243.695 735.707 3204.438
418 1  103.554 487.514 2786.316
419 1  63.099 372.804 2745.921
420 1  729.525 866.076 2898.527
421 1  507.506 732.296 2855.270
422 1  940.702 697.951 2897.756
423 1  506.770 79.500 2899.990
424 1  0.000 128.926 2510.946
425 1  51.051 962.596 3154.313
426 1  822.146 261.706 2755.898
427 1  207.916 691.724 3096.389
428 1  875.313 469.549 2474.221
429 1  437.555 103.451 3103.335
430 1  931.742 898.511 3215.685
431 1  551.964 492.722 2772.299
432 1  302.538 596.434 3007.302
433 1  378.112 520.651 2639.408
434 1  450.657 652.482 2676.153
435 1  1034.235 88.365 2522.921
436 1  832.273 797.395 2895.363
437 1  189.583 85.058 2754.430
438 1  212.415 270.888 2780.377
439 1  199.590 138.798 3139.827
440 1  460.642 923.185 2741.206
441 1  858.518 578.241 2710.665
442 1  309.108 157.121 3087.747
443 1  956.877 261.252 2626.635
444 1  197.260 353.957 2553.680
445 1  66.780 289.225 2632.742
446 1  732.465 741.359 2615.374
447 1  54.002 0.000 2817.200
448 1  219.227 829.319 2507.061
449 1  251.893 180.588 2430.089
450 1  123.229 135.010 2490.078
451 1  2676.136 3179.367 151.525
452 1  2603.583 2876.436 1006.896
453 1  2742.780 2570.924 449.061
454 1  2621.856 2905.221 1169.135
455 1  3232.575 2593.519 421.623
456 1  2670.276 3273.294 731.101
457 1  2557.780 2750.803 424.892
458 1  3112.831 2829.498 734.475
459 1  2753.047 2476.147 152.191
460 1  2631.526 3546.403 815.859
461 1  3263.004 2473.805 573.811
462 1  2677.174 2722.659 623.788
463 1  2874.937 3036.270 345.418
464 1  2335.232 3138.222 1062.135
465 1  3037.493 2802.375 953.538
466 1  3305.499 3126.705 475.466
467 1  2530.816 3134.144 118.914
468 1  2708.427 2977.426 268.063
469 1  2488.043 2548.529 629.060
470 1  2824.882 2492.673 287.757
471 1  2543.646 2793.638 598.355
472 1  3190.626 3299.276 252.734
473 1  3320.493 3412.404 230.820
474 1  3213.272 2580.976 132.650
475 1  2842.909 3263.476 191.473
476 1  3258.707 3271.900 871.556
477 1  3360.755 3023.973 851.744
478 1  2680.422 2819.923 912.938
479 1  3073.832 2466.967 188.986
480 1  3137.822 3199.459 1035.332
481 1  3328.014 3209.488 288.174
482 1  2479.909 3255.631 157.237
483 1  2492.083 3092.635 565.249
484 1  3237.603 2665.681 909.247
485 1  2669.396 2513.367 961.310
486 1  2820.312 2960.392 703.960
487 1  2871.506 2888.666 292.051
488 1  2683.707 2675.925 398.392
489 1  2588.041 2607.778 507.898
490 1  3275.070 2981.375 399.700
491 1  2831.972 2591.393 70.493
492 1  3130.970 2034.098 231.608
493 1  3330.079 2803.082 46.602
494 1  3301.654 2934.865 577.834
495 1  2681.463 3320.593 920.503
496 1  3007.540 2920.744 215.435
497 1  2544.588 2144.302 562.542
498 1  2398.565 2810.813 374.953
499 1  2346.607 2976.424 1056.840
500 1  2898.366 2570.650 830.269
501 1  2464.056 2594.637 259.831
502 1  2452.272 2646.190 43.922
503 1  2829.611 3127.941 763.692
504 1  3181.587 3027.422 92.517
505 1  2603.906 2647.326 104.345
506 1  2899.513 2839.271 750.586
507 1  3234.088 2719.828 728.975
508 1  2486.858 2749.898 804.015
509 1  2659.441 3207.987 879.570
510 1  2955.513 3265.538 987.892
511 1  2956.930 3043.088 224.057
512 1  2803.374 2822.952 919.637
513 1  2463.442 2757.535 244.101
514 1  3079.670 2483.220 1102.890
515 1  2916.021 2805.268 414.618
516 1  2585.732 2913.066 772.530
517 1  2751.839 3044.812 462.177
518 1  2566.077 2303.411 637.642
519 1  3137.347 3028.151 986.722
520 1  3016.364 2623.708 270.848
521 1  2805.833 3220.757 878.678
522 1  2953.396 3111.566 398.562
523 1  2665.349 2476.463 405.348
524 1  2437.059 2426.607 859.691
525 1  2995.012 2444.445 912.016
526 1  3020.521 3455.580 775.236
527 1  2711.333 2990.414 792.455
528 1  2717.003 3221.604 286.276
529 1  2525.333 3116.124 897.244
530 1  3121.410 2973.988 768.478
531 1  2892.896 3125.433 944.529
532 1  2859.693 2960.103 90.941
533 1  2941.536 2941.702 578.979
534 1  2556.188 3190.901 429.807
535 1  2763.138 3051.814 36.635
536 1  2413.141 2689.188 539.977
537 1  3228.471 2938.453 848.746
538 1  2584.362 2759.106 273.514
539 1  3052.151 3008.587 670.115
540 1  2728.961 2893.886 171.750
541 1  2782.818 3325.235 560.456
542 1  2882.013 3248.493 314.257
543 1  3229.890 2338.636 159.353
544 1  2808.867 2973.518 897.692
545 1  2444.726 2738.877 690.671
546 1  3138.445 2481.134 857.468
547 1  3304.392 2904.663 695.230
548 1  2612.663 3077.934 517.551
549 1  2582.362 3278.465 263.528
550 1  2935.090 2841.746 129.275
551 1  2984.214 3131.100 8.344
552 1  3161.828 2781.693 884.148
553 1  2837.310 2731.135 742.061
554 1  2650.880 2455.342 813.841
555 1  2795.078 2807.310 113.526
556 1  2813.940 2681.988 393.382
557 1  3107.619 2865.498 498.167
558 1  3174.128 2900.791 16.183
559 1  3110.771 3145.066 29.089
560 1  2536.646 3270.267 598.814
561 1  2718.819 2598.545 148.922
562 1  2866.000 2766.447 4.952
563 1  2523.543 2578.023 888.853
564 1  2960.781 58.074 2406.807
565 1  3809.771 1019.108 4000.000
566 1  3495.099 22.699 4000.000
567 1  2198.018 627.557 2000.000
568 1  2984.627 885.193 2723.889
569 1  2000.000 561.577 3388.494
570 1  4000.000 0.000 4000.000
571 1  2851.015 2000.000 2000.000
572 1  2396.304 63.962 2980.978
573 1  3142.598 442.802 2923.818
574 1  3004.341 42.867 3094.987
575 1  3089.170 232.353 3161.080
576 1  3001.650 852.408 3151.520
577 1  3284.973 136.846 2650.392
578 1  3110.570 702.031 2814.639
579 1  3020.711 344.059 2866.214
580 1  2684.274 853.863 3008.286
581 1  2899.304 66.319 2963.539
582 1  2803.015 275.810 2917.348
583 1  2628.095 711.776 2561.932
584 1  2853.742 573.573 3132.510
585 1  2786.938 199.216 2563.260
586 1  3162.668 488.885 2710.026
587 1  3162.766 651.255 2648.067
588 1  2699.011 481.593 2631.894
589 1  2664.497 300.080 2552.686
590 1  2397.794 845.300 2378.159
591 1  3174.898 212.992 2721.104
592 1  2557.970 237.979 3132.879
593 1  2376.411 863.940 3163.774
594 1  2962.335 720.494 3125.201
595 1  2000.000 852.550 2000.000
596 1  3385.565 1618.728 2381.812
597 1  3649.150 586.755 2000.000
598 1  2692.402 501.441 3257.786
599 1  2282.785 2000.000 4000.000
600 1  2775.395 108.026 2981.933
601 1  3310.045 657.963 2437.005
602 1  2951.119 231.488 2774.694
603 1  2558.094 587.714 2922.250
604 1  3104.307 746.225 2961.674
605 1  3105.274 830.158 2570.043
606 1  2570.234 77.045 2538.283
607 1  2670.972 639.015 2861.542
608 1  2732.456 881.490 2418.876
609 1  2511.126 622.758 2615.310
610 1  3173.305 903.967 2957.459
611 1  2431.690 856.237 2719.105
612 1  2993.617 662.825 2905.243
613 1  2939.935 999.594 3178.183
614 1  2725.945 61.117 2621.081
615 1  2498.060 736.922 2514.461
616 1  2787.306 583.830 2945.935
617 1  2734.953 774.610 2514.213
618 1  2927.404 495.551 2445.821
619 1  2583.590 721.081 2963.340
620 1  2704.838 898.948 3157.994
621 1  2587.308 508.016 3066.483
622 1  3093.529 974.234 2835.964
623 1  3222.608 640.732 3117.843
624 1  3068.155 325.534 3022.042
625 1  2685.606 270.630 2888.497
626 1  2570.542 442.859 2445.526
627 1  2775.648 88.327 2486.241
628 1  2794.843 765.452 3161.997
629 1  3152.258 32.017 2788.605
630 1  2622.526 1008.202 2797.357
631 1  2399.709 1017.637 3101.876
632 1  4000.000 0.000 2000.000
633 1  3200.185 354.972 2803.784
634 1  2925.599 402.121 2969.155
635 1  2507.971 216.349 2925.027
636 1  2642.959 652.972 2715.055
637 1  3003.133 296.544 2386.140
638 1  2603.712 779.652 2436.931
639 1  3159.819 24.110 3047.495
640 1  3009.491 540.708 2784.754
641 1  2008.076 1563.690 2003.202
642 1  3042.024 138.559 2988.862
643 1  2725.416 908.225 2000.000
644 1  2920.752 117.416 2546.056
645 1  3063.894 23.508 2700.640
646 1  2319.085 1200.854 2845.598
647 1  2796.662 369.607 3090.353
648 1  2821.357 607.807 2742.701
649 1  2645.843 23.017 2443.700
650 1  2857.606 1.457 2614.703
651 1  2791.052 966.359 2657.855
652 1  2517.214 359.020 2894.001
653 1  2899.885 618.281 2589.081
654 1  2831.075 458.196 2769.862
655 1  2418.618 180.856 3178.034
656 1  2446.952 662.639 2744.400
657 1  3066.637 932.775 3086.974
658 1  2479.327 317.024 3022.244
659 1  2752.193 741.491 2702.012
660 1  2630.575 833.140 2573.907
661 1  2646.171 1022.185 2975.384
662 1  2647.191 77.097 3022.668
663 1  2813.605 899.337 2764.165
664 1  3021.762 404.993 2747.295
665 1  2506.339 579.696 2468.958
666 1  2919.554 812.594 3049.837
667 1  2526.411 72.076 2884.673
668 1  2642.995 702.342 3077.185
669 1  2536.939 658.010 2377.045
670 1  2550.987 851.476 2847.611
671 1  3178.439 83.885 3151.906
672 1  2915.433 549.260 2909.259
673 1  2385.634 701.860 2559.253
674 1  2693.933 182.059 2803.968
675 1  2438.780 94.198 3091.561
676 1  391.056 2852.014 3012.778
677 1  484.085 2517.036 2628.855
678 1  444.808 2930.066 2786.021
679 1  290.853 2904.055 2387.988
680 1  518.691 2803.644 3019.343
681 1  371.918 2970.409 3031.087
682 1  503.130 2959.641 2434.907
683 1  158.811 2688.057 2666.514
684 1  556.384 3055.339 2837.789
685 1  883.847 2642.746 3004.248
686 1  196.862 2606.474 2565.648
687 1  295.956 2670.770 2855.429
688 1  497.480 2476.422 2405.726
689 1  118.629 2862.720 2776.016
690 1  898.006 2887.702 2599.361
691 1  106.916 2421.233 2861.700
692 1  148.545 2826.253 2932.102
693 1  476.885 2593.798 3092.005
694 1  747.506 2539.405 3061.948
695 1  5.974 2873.432 2488.217
696 1  592.369 2556.132 2699.251
697 1  49.039 3003.343 2734.275
698 1  409.964 2785.790 2684.057
699 1  866.734 2667.533 3129.197
700 1  778.039 2680.118 2732.919
701 1  432.866 3036.785 2843.131
702 1  785.277 2482.928 2564.501
703 1  418.608 2377.101 3068.748
704 1  479.261 2838.450 2897.707
705 1  712.104 2814.867 2847.729
706 1  107.910 3044.737 2550.447
707 1  840.424 2508.697 2987.776
708 1  957.502 2563.679 2790.913
709 1  397.415 2794.547 2818.705
710 1  903.369 2920.266 2737.658
711 1  558.595 3015.558 2705.725
712 1  177.309 2465.236 2953.426
713 1  683.307 2391.000 2939.034
714 1  613.268 2885.181 2724.278
715 1  915.384 2778.366 3100.580
716 1  416.714 2585.587 2916.440
717 1  805.230 2841.115 3047.645
718 1  192.678 2994.598 2439.039
719 1  860.192 2994.009 2827.414
720 1  724.050 2970.330 2962.524
721 1  566.288 2988.575 3076.135
722 1  71.457 2674.569 2514.710
723 1  600.022 2844.998 2883.111
724 1  3.051 2572.183 3109.507
725 1  273.981 2399.010 2537.802
726 1  275.381 2424.800 3187.957
727 1  149.214 2690.666 3121.637
728 1  660.268 2867.588 3000.029
729 1  721.944 2442.559 2435.654
730 1  92.104 2911.291 2376.241
731 1  465.997 2694.719 2565.976
732 1  386.627 2636.601 2421.719
733 1  455.051 2624.486 2693.533
734 1  600.096 2767.934 2594.383
735 1  860.566 2898.923 2905.268
736 1  918.550 3136.800 3007.052
737 1  777.658 2407.835 2683.301
738 1  60.754 2956.554 2976.211
739 1  280.610 2863.666 2508.891
740 1  156.396 3009.563 2675.721
741 1  650.063 2680.607 2928.209
742 1  168.302 2937.041 2544.774
743 1  28.843 2774.827 2693.763
744 1  941.273 2735.146 2508.093
745 1  536.980 2572.682 2973.330
746 1  360.101 2804.424 2389.290
747 1  554.271 3071.714 2974.820
748 1  7.883 2372.599 3064.207
749 1  658.225 2559.997 2920.314
750 1  955.861 2520.921 2925.278
751 1  373.899 3027.658 2553.708
752 1  73.046 2767.565 3027.466
753 1  103.955 2646.980 2987.346
754 1  524.508 2731.062 2433.289
755 1  35.678 2865.096 2606.815
756 1  483.153 2685.440 2822.225
757 1  737.390 2707.078 2575.744
758 1  712.158 3109.195 2973.033
759 1  930.827 3017.579 2670.666
760 1  45.783 2617.239 2875.979
761 1  894.489 2459.557 2775.195
762 1  378.686 2508.481 2783.435
763 1  205.594 2737.735 3022.468
764 1  376.791 2499.681 2534.681
765 1  276.916 3169.932 2665.741
766 1  694.789 2570.450 2763.022
767 1  1.916 2598.716 2623.030
768 1  148.039 2407.602 2570.136
769 1  171.666 2559.365 2877.510
770 1  282.677 3030.089 3086.963
771 1  894.327 2716.089 2906.754
772 1  772.942 2737.409 2918.020
773 1  256.084 3015.651 2602.671
774 1  644.776 2724.283 2699.249
775 1  915.578 2412.732 3002.307
776 1  576.144 2504.189 3096.402
777 1  253.066 2610.493 2675.389
778 1  763.345 2411.855 2823.263
779 1  779.497 2905.119 2752.797
780 1  833.899 2780.958 2647.766
781 1  783.202 2601.035 2377.996
782 1  383.138 3128.961 3101.643
783 1  115.797 3085.879 3107.483
784 1  225.898 2729.057 2474.796
785 1  275.538 2639.050 3009.280
786 1  347.218 2560.241 3100.991
787 1  371.255 2465.638 2398.512
788 1  655.406 2567.251 2412.712
789 1  2685.520 2557.858 2606.987
790 1  2660.713 2918.468 2929.367
791 1  2964.852 2653.839 3068.512
792 1  2726.589 2697.664 2905.680
793 1  2977.996 2647.915 2836.927
794 1  2793.125 2660.726 3155.873
795 1  2804.600 2867.115 3015.477
796 1  2347.223 2645.552 2522.153
797 1  2928.720 2727.883 2662.089
798 1  2567.343 2444.800 2718.909
799 1  2725.515 2815.579 2937.701
800 1  2431.819 3070.013 2425.247
801 1  2755.220 2799.040 3135.020
802 1  3102.767 2505.008 2475.406
803 1  2988.369 2798.536 3116.197
804 1  2510.518 2845.669 3139.894
805 1  2812.555 2982.852 2671.537
806 1  2945.728 2551.563 3143.305
807 1  3102.046 2529.635 2712.429
808 1  2657.079 2614.285 2991.851
809 1  2632.024 2864.131 2446.652
810 1  2743.847 2868.683 2543.601
811 1  2594.460 3114.927 3060.635
812 1  2516.470 2952.131 3237.979
813 1  2474.807 2445.568 2492.007
814 1  2896.779 2676.888 2438.392
815 1  3031.657 2781.056 2474.923
816 1  2413.204 2793.472 2810.970
817 1  2764.591 3120.085 2704.675
818 1  3005.691 2454.228 3063.487
819 1  2496.005 2949.588 2638.167
820 1  2922.347 2916.044 2956.313
821 1  2915.367 3135.427 2826.820
822 1  2598.390 2715.730 2538.187
823 1  2929.126 3120.657 2653.483
824 1  2660.960 3152.033 2796.355
825 1  3057.840 3113.293 2860.727
826 1  3071.492 2678.802 2752.776
827 1  2995.987 2771.107 2988.945
828 1  2804.587 2745.739 2507.140
829 1  2392.414 3081.343 2605.527
830 1  2857.210 2400.498 2442.029
831 1  2752.615 3029.835 3050.918
832 1  2619.215 2439.878 2864.948
833 1  2448.009 2470.314 3058.882
834 1  3037.900 2979.116 2956.838
835 1  2477.309 2687.450 2516.055
836 1  2588.971 2813.615 2948.744
837 1  3195.089 2755.284 2866.751
838 1  2815.483 2841.736 2656.381
839 1  2570.036 2997.699 2551.544
840 1  2572.375 2444.666 3155.315
841 1  3005.914 2578.312 2420.287
842 1  2614.899 2565.266 2705.083
843 1  3087.182 2667.071 3128.900
844 1  2820.184 3054.808 2557.377
845 1  3123.815 2467.459 3123.554
846 1  2482.070 2387.865 2641.018
847 1  3019.266 2842.467 2698.233
848 1  2992.591 3143.966 3130.103
849 1  2943.376 2592.344 2579.671
850 1  2931.156 2914.589 2401.356
851 1  3130.265 3052.840 2434.327
852 1  2779.141 2951.597 2414.686
853 1  2708.582 2479.428 3053.742
854 1  3060.896 3143.020 2610.926
855 1  2873.960 2770.508 2855.105
856 1  2821.789 2423.941 2562.506
857 1  2442.072 2654.348 2665.798
858 1  3068.051 2683.473 2580.424
859 1  2420.279 2900.175 2553.003
860 1  2555.793 3020.295 2890.262
861 1  2543.972 2960.092 2751.903
862 1  2682.025 2828.770 2818.358
863 1  2644.242 3058.908 2714.896
864 1  2610.788 2427.563 2606.451
865 1  3122.138 3136.603 3171.998
866 1  2567.862 2550.392 2449.486
867 1  2609.751 2718.064 3061.323
868 1  2802.546 2348.502 2992.197
869 1  3020.682 2486.836 2872.098
870 1  3109.437 2879.422 2804.589
871 1  2503.600 2528.385 2856.612
872 1  2477.062 2929.392 2992.280
873 1  2427.869 2890.668 2720.902
874 1  2961.058 2437.990 2559.782
875 1  2689.994 2793.964 2658.080
876 1  2526.166 2955.230 2401.873
877 1  2704.182 3121.998 2977.834
878 1  2923.045 2966.007 3104.462
879 1  3145.863 2846.535 2609.160
880 1  2528.407 2582.061 3005.912
881 1  2932.833 2504.101 2663.797
882 1  2407.889 3018.895 2824.353
883 1  2380.741 2520.412 2625.939
884 1  3114.623 2952.308 2527.261
885 1  2507.828 3130.889 2683.902
886 1  3141.003 3124.039 2738.702
887 1  3153.931 2852.377 2453.669
888 1  2873.614 2666.658 2765.817
889 1  3089.329 3006.418 3063.155
890 1  2772.507 2299.783 2829.622
891 1  2847.856 2593.958 2666.876
892 1  3005.477 2784.209 2819.945
893 1  2906.042 2937.268 2808.934
894 1  2849.543 2418.285 2684.620
895 1  2793.259 2999.210 2924.088
896 1  2746.885 2626.280 2760.796
897 1  2392.747 2770.131 2600.232
898 1  2714.177 2439.018 2433.914
899 1  2518.890 2360.525 2806.133
900 1  2503.123 2733.821 2905.372
901 2  811.973 110.186 421.756
902 2  560.374 677.589 459.272
903 2  396.628 813.020 491.170
904 2  204.483 733.592 445.917
905 2  228.472 432.787 231.682
906 2  723.851 201.805 419.712
907 2  962.132 218.299 331.629
908 2  11.394 476.718 137.810
909 2  569.478 779.890 180.042
910 2  657.011 649.167 545.113
911 2  1.589 205.656 467.439
912 2  61.784 158.226 322.327
913 2  666.620 839.063 497.474
914 2  3550.976 485.204 722.732
915 2  3341.394 519.847 478.919
916 2  3771.418 563.944 176.891
917 2  3240.834 201.106 590.806
918 2  3571.413 50.020 263.365
919 2  3410.969 484.556 692.961
920 2  3106.428 573.851 192.984
921 2  3424.894 441.587 557.898
922 2  2992.506 653.496 176.538
923 2  3796.332 749.462 759.041
924 2  3075.726 492.556 667.671
925 2  3600.056 519.711 286.727
926 2  436.402 3906.368 657.279
927 2  175.179 3871.470 46.267