LAMMPS (23 Jun 2022 - Update 1)
OMP_NUM_THREADS environment is not set. Defaulting to 1 thread. (src/comm.cpp:98)
  using 1 OpenMP thread(s) per MPI task

# Init #
dimension   3
boundary    p p p
units       real
atom_style  atomic

# Atom Definition #
read_data ${input_data}
read_data ./pgnpmf/91/dat91.dat
Reading data file ...
  orthogonal box = (-100 -100 -100) to (4100 4100 4100)
  1 by 2 by 2 MPI processor grid
  reading atoms ...
  1000 atoms
  read_data CPU = 0.006 seconds

# Settings #
pair_style table spline 9941

pair_coeff 1 1 ./pgnpmf/N20.txt DE_GNP 75.6
pair_coeff 2 2 ./pgnpmf/N100.txt DE_GNP 115.92
WARNING: 3 of 9941 force values in table DE_GNP are inconsistent with -dE/dr.
WARNING:  Should only be flagged at inflection points (src/pair_table.cpp:463)
pair_coeff 1 2 ./pgnpmf/mixed_potential.txt DE_GNP 95.66
WARNING: 1562 of 9941 force values in table DE_GNP are inconsistent with -dE/dr.
WARNING:  Should only be flagged at inflection points (src/pair_table.cpp:463)

# Neighbor list calc frequency #
neigh_modify delay 0 every 1 check yes

# Saving frequency #
variable ts_save equal floor(${steps_gen}*0.01)
variable ts_save equal floor(5000*0.01)

# Dump #
dump 1 all custom 10000 ./pgnpmf/${folder}/generation/trajectory/trajectory_${usic}_${trial}.gen.custom type x y z ix iy iz
dump 1 all custom 10000 ./pgnpmf/91/generation/trajectory/trajectory_${usic}_${trial}.gen.custom type x y z ix iy iz
dump 1 all custom 10000 ./pgnpmf/91/generation/trajectory/trajectory_1_${trial}.gen.custom type x y z ix iy iz
dump 1 all custom 10000 ./pgnpmf/91/generation/trajectory/trajectory_1_1.gen.custom type x y z ix iy iz
dump_modify 1 first no sort id
dump 2 all cfg 10000 ./pgnpmf/${folder}/generation/trajectory/dumpgen.tens_*.cfg mass type xs ys zs fx fy fz
dump 2 all cfg 10000 ./pgnpmf/91/generation/trajectory/dumpgen.tens_*.cfg mass type xs ys zs fx fy fz
dump_modify 2 element N20 N100

# Fix #
fix 1 all momentum 1000 linear 1 1 1 angular

variable T equal ${Temp}
variable T equal 300

variable nts equal ${steps_gen}/${ts}
variable nts equal 5000/${ts}
variable nts equal 5000/1
variable long equal ${nts}*5
variable long equal 5000*5

# Velocity #
velocity all create ${T} ${Vseed} mom yes rot yes dist gaussian
velocity all create 300 ${Vseed} mom yes rot yes dist gaussian
velocity all create 300 97531 mom yes rot yes dist gaussian

fix 2 all nvt temp ${T} 370000 100.0 #iso 1.0 1.0 1000.0
fix 2 all nvt temp 300 370000 100.0 
run ${nts}
run 5000
Generated 0 of 1 mixed pair_coeff terms from geometric mixing rule
Neighbor list info ...
  update every 1 steps, delay 0 steps, check yes
  max neighbors/atom: 2000, page size: 100000
  master list distance cutoff = 117.92
  ghost atom cutoff = 117.92
  binsize = 58.96, bins = 72 72 72
  1 neighbor lists, perpetual/occasional/extra = 1 0 0
  (1) pair table, perpetual
      attributes: half, newton on
      pair build: half/bin/atomonly/newton
      stencil: half/bin/3d
      bin: standard
Per MPI rank memory allocation (min/avg/max) = 6.14 | 6.143 | 6.146 Mbytes
   Step          Temp          E_pair         E_mol          TotEng         Press     
         0   300            0              0              893.34877      0.00055119596
      5000   357462.58     -15130.088      0              1049332.4      0.65327587   
Loop time of 0.0882729 on 4 procs for 5000 steps with 1000 atoms

Performance: 4893.916 ns/day, 0.005 hours/ns, 56642.547 timesteps/s
100.0% CPU use with 4 MPI tasks x 1 OpenMP threads

MPI task timing breakdown:
Section |  min time  |  avg time  |  max time  |%varavg| %total
---------------------------------------------------------------
Pair    | 0.0050946  | 0.0057339  | 0.0061175  |   0.5 |  6.50
Neigh   | 0.0018664  | 0.0020923  | 0.0022246  |   0.3 |  2.37
Comm    | 0.03471    | 0.0352     | 0.036159   |   0.3 | 39.88
Output  | 2.0413e-05 | 2.3844e-05 | 3.396e-05  |   0.0 |  0.03
Modify  | 0.030949   | 0.032343   | 0.033395   |   0.5 | 36.64
Other   |            | 0.01288    |            |       | 14.59

Nlocal:            250 ave         267 max         231 min
Histogram: 1 0 0 0 0 2 0 0 0 1
Nghost:          37.25 ave          47 max          31 min
Histogram: 1 1 0 0 1 0 0 0 0 1
Neighs:           0.75 ave           1 max           0 min
Histogram: 1 0 0 0 0 0 0 0 0 3

Total # of neighbors = 3
Ave neighs/atom = 0.003
Neighbor list builds = 17
Dangerous builds = 0

unfix 2

fix 3 all nvt temp 370000 370000 100.0
run ${long}
run 25000
Generated 0 of 1 mixed pair_coeff terms from geometric mixing rule
Per MPI rank memory allocation (min/avg/max) = 6.14 | 6.143 | 6.146 Mbytes
   Step          Temp          E_pair         E_mol          TotEng         Press     
      5000   357462.58     -15130.088      0              1049332.4      0.65327587   
     30000   369505.62     -62254.876      0              1038069.8      0.68677179   
Loop time of 0.45334 on 4 procs for 25000 steps with 1000 atoms

Performance: 4764.635 ns/day, 0.005 hours/ns, 55146.234 timesteps/s
99.9% CPU use with 4 MPI tasks x 1 OpenMP threads

MPI task timing breakdown:
Section |  min time  |  avg time  |  max time  |%varavg| %total
---------------------------------------------------------------
Pair    | 0.028078   | 0.031053   | 0.033633   |   1.2 |  6.85
Neigh   | 0.015433   | 0.016753   | 0.017701   |   0.6 |  3.70
Comm    | 0.17349    | 0.17759    | 0.18235    |   0.8 | 39.17
Output  | 0.0057928  | 0.0059231  | 0.006181   |   0.2 |  1.31
Modify  | 0.15311    | 0.15701    | 0.16307    |   1.0 | 34.63
Other   |            | 0.06501    |            |       | 14.34

Nlocal:            250 ave         268 max         231 min
Histogram: 1 0 0 0 0 2 0 0 0 1
Nghost:           33.5 ave          41 max          26 min
Histogram: 1 0 0 1 0 0 1 0 0 1
Neighs:           7.25 ave          13 max           3 min
Histogram: 1 0 1 0 0 1 0 0 0 1

Total # of neighbors = 29
Ave neighs/atom = 0.029
Neighbor list builds = 141
Dangerous builds = 0

unfix 3

fix 4 all nvt temp 370000 3700000 $(100*dt)
fix 4 all nvt temp 370000 3700000 100
run ${long}
run 25000
Generated 0 of 1 mixed pair_coeff terms from geometric mixing rule
Per MPI rank memory allocation (min/avg/max) = 6.142 | 6.145 | 6.147 Mbytes
   Step          Temp          E_pair         E_mol          TotEng         Press     
     30000   369505.62     -62254.876      0              1038069.8      0.68677179   
     55000   3658523.9     -51220.216      0              10843239       6.8397396    
Loop time of 0.448924 on 4 procs for 25000 steps with 1000 atoms

Performance: 4811.509 ns/day, 0.005 hours/ns, 55688.760 timesteps/s
99.9% CPU use with 4 MPI tasks x 1 OpenMP threads

MPI task timing breakdown:
Section |  min time  |  avg time  |  max time  |%varavg| %total
---------------------------------------------------------------
Pair    | 0.031587   | 0.037106   | 0.043233   |   2.2 |  8.27
Neigh   | 0.032783   | 0.034041   | 0.035034   |   0.5 |  7.58
Comm    | 0.16698    | 0.17278    | 0.18073    |   1.2 | 38.49
Output  | 0.0035379  | 0.0036815  | 0.0039618  |   0.3 |  0.82
Modify  | 0.13684    | 0.14221    | 0.14872    |   1.2 | 31.68
Other   |            | 0.05911    |            |       | 13.17

Nlocal:            250 ave         267 max         233 min
Histogram: 1 0 0 0 1 1 0 0 0 1
Nghost:          41.75 ave          46 max          39 min
Histogram: 1 0 2 0 0 0 0 0 0 1
Neighs:             14 ave          22 max          10 min
Histogram: 2 0 1 0 0 0 0 0 0 1

Total # of neighbors = 56
Ave neighs/atom = 0.056
Neighbor list builds = 319
Dangerous builds = 0

unfix 4

fix 5 all nvt temp 3700000 ${T} 100.0
fix 5 all nvt temp 3700000 300 100.0
run ${nts}
run 5000
Generated 0 of 1 mixed pair_coeff terms from geometric mixing rule
Per MPI rank memory allocation (min/avg/max) = 6.142 | 6.145 | 6.148 Mbytes
   Step          Temp          E_pair         E_mol          TotEng         Press     
     55000   3658523.9     -51220.216      0              10843239       6.8397396    
     60000   70342.91      -80674.36       0              128794.81      0.12938447   
Loop time of 0.0909927 on 4 procs for 5000 steps with 1000 atoms

Performance: 4747.636 ns/day, 0.005 hours/ns, 54949.490 timesteps/s
99.8% CPU use with 4 MPI tasks x 1 OpenMP threads

MPI task timing breakdown:
Section |  min time  |  avg time  |  max time  |%varavg| %total
---------------------------------------------------------------
Pair    | 0.0067372  | 0.007438   | 0.0084562  |   0.8 |  8.17
Neigh   | 0.0061213  | 0.0063594  | 0.0065507  |   0.2 |  6.99
Comm    | 0.033869   | 0.035311   | 0.036592   |   0.6 | 38.81
Output  | 0.0019749  | 0.0019785  | 0.0019889  |   0.0 |  2.17
Modify  | 0.027375   | 0.028358   | 0.029011   |   0.4 | 31.17
Other   |            | 0.01155    |            |       | 12.69

Nlocal:            250 ave         266 max         232 min
Histogram: 1 0 0 0 0 1 1 0 0 1
Nghost:          42.25 ave          49 max          39 min
Histogram: 1 1 1 0 0 0 0 0 0 1
Neighs:          14.75 ave          20 max           9 min
Histogram: 1 0 0 1 0 0 0 1 0 1

Total # of neighbors = 59
Ave neighs/atom = 0.059
Neighbor list builds = 60
Dangerous builds = 0

# Thermo #
thermo_style custom step temp press pe ke etotal epair lx ly lz xlo xhi ylo yhi zlo zhi vol density dt time

# Run stle #
run_style verlet

# Run #
timestep ${ts}
timestep 1
thermo ${ts_save}
thermo 50
# run ${steps_gen}

# write restart #
write_restart ${write_restart}
write_restart ./pgnpmf/91/genpmf.res
System init for write_restart ...
Generated 0 of 1 mixed pair_coeff terms from geometric mixing rule


Total wall time: 0:00:01
