LAMMPS (23 Jun 2022 - Update 1)
OMP_NUM_THREADS environment is not set. Defaulting to 1 thread. (src/comm.cpp:98)
  using 1 OpenMP thread(s) per MPI task
# Read restart
read_restart ${read_res}
read_restart ./pgnpmf/91/equpmf38.res
Reading restart file ...
  restart file = 23 Jun 2022, LAMMPS = 23 Jun 2022
  restoring atom style atomic from restart
  orthogonal box = (1726.9434 1726.9434 1726.9434) to (2273.0566 2273.0566 2273.0566)
  2 by 1 by 2 MPI processor grid
  restoring pair style table from restart
  1000 atoms
  read_restart CPU = 0.004 seconds

# Settings

pair_style table spline 9941

pair_coeff 1 1 ./pgnpmf/N20.txt DE_GNP 75.6
pair_coeff 2 2 ./pgnpmf/N100.txt DE_GNP 115.92
WARNING: 3 of 9941 force values in table DE_GNP are inconsistent with -dE/dr.
WARNING:  Should only be flagged at inflection points (src/pair_table.cpp:463)
pair_coeff 1 2 ./pgnpmf/mixed_potential.txt DE_GNP 95.66
WARNING: 1562 of 9941 force values in table DE_GNP are inconsistent with -dE/dr.
WARNING:  Should only be flagged at inflection points (src/pair_table.cpp:463)

#Neigh_list Calc Frequency

neigh_modify delay 0 every 1 check yes

# Saving Frequency (50 frames)

variable ts_save equal ${steps_equ}
variable ts_save equal 5000

variable nts equal ${steps_equ}/${ts}
variable nts equal 5000/${ts}
variable nts equal 5000/0.25
variable medium equal ${nts}*3
variable medium equal 20000*3
variable long equal ${nts}*5
variable long equal 20000*5

# Dump
#dump 1 all custom ${ts_save} ./pgnpmf/${folder}/equilibration/trajectory/trajectory_${usic}_${trial}.equ.custom type x y z ix iy iz
#dump_modify 1 first no sort id
dump 2 all cfg 50000 ./pgnpmf/${folder}/equilibration/trajectory/dumpequ.tens_*.cfg mass type xs ys zs fx fy fz
dump 2 all cfg 50000 ./pgnpmf/91/equilibration/trajectory/dumpequ.tens_*.cfg mass type xs ys zs fx fy fz
dump_modify 2 element N20 N100

# thermo_style
thermo_style custom step temp press pe density ke etotal lx ly lz xlo xhi ylo yhi zlo zhi vol dt time cpu tpcpu spcpu cpuremain

# run info
timestep ${ts}
timestep 0.25
thermo 5000

# fix

fix 1 all momentum 1000 linear 1 1 1 angular
variable T equal ${temp}
variable T equal 300
fix 2 all nvt temp ${T} 370000 100.0
fix 2 all nvt temp 300 370000 100.0

run ${nts}
run 20000
Generated 0 of 1 mixed pair_coeff terms from geometric mixing rule
Unused restart file global fix info:
  fix style: npt, fix ID: 5
Neighbor list info ...
  update every 1 steps, delay 0 steps, check yes
  max neighbors/atom: 2000, page size: 100000
  master list distance cutoff = 117.92
  ghost atom cutoff = 117.92
  binsize = 58.96, bins = 10 10 10
  1 neighbor lists, perpetual/occasional/extra = 1 0 0
  (1) pair table, perpetual
      attributes: half, newton on
      pair build: half/bin/atomonly/newton
      stencil: half/bin/3d
      bin: standard
Per MPI rank memory allocation (min/avg/max) = 3.095 | 3.095 | 3.095 Mbytes
   Step          Temp          Press          PotEng        Density         KinEng         TotEng           Lx             Ly             Lz            Xlo            Xhi            Ylo            Yhi            Zlo            Zhi           Volume           Dt            Time           CPU           T/CPU          S/CPU         CPULeft    
   7660000   325.87199      3.0495721     -9949119.8      2.4659527      970.39115     -9948149.4      546.11324      546.11324      546.11324      1726.9434      2273.0566      1726.9434      2273.0566      1726.9434      2273.0566      1.6287263e+08  0.25           1960000        0              0              0              0            
   7665000   90244.848     -279.01028     -10020204       2.4659527      268733.75     -9751469.8      546.11324      546.11324      546.11324      1726.9434      2273.0566      1726.9434      2273.0566      1726.9434      2273.0566      1.6287263e+08  0.25           1961250        0.40300275     3101.7111      12406.814      1.2090156    
   7670000   179558.64     -155.76698     -9957757.4      2.4659527      534694.97     -9423062.4      546.11324      546.11324      546.11324      1726.9434      2273.0566      1726.9434      2273.0566      1726.9434      2273.0566      1.6287263e+08  0.25           1962500        0.80424245     3115.3443      12461.377      0.80424495   
   7675000   275970.54      742.75991     -9769588.2      2.4659527      821793.16     -8947795        546.11324      546.11324      546.11324      1726.9434      2273.0566      1726.9434      2273.0566      1726.9434      2273.0566      1.6287263e+08  0.25           1963750        1.2316303      2924.7444      11698.978      0.41054424   
   7680000   372517.74      1803.0506     -9549574.7      2.4659527      1109294.2     -8440280.5      546.11324      546.11324      546.11324      1726.9434      2273.0566      1726.9434      2273.0566      1726.9434      2273.0566      1.6287263e+08  0.25           1965000        1.6541939      2958.1341      11832.537      0            
Loop time of 1.65423 on 4 procs for 20000 steps with 1000 atoms

Performance: 261.149 ns/day, 0.092 hours/ns, 12090.252 timesteps/s
99.0% CPU use with 4 MPI tasks x 1 OpenMP threads

MPI task timing breakdown:
Section |  min time  |  avg time  |  max time  |%varavg| %total
---------------------------------------------------------------
Pair    | 0.809      | 0.87546    | 0.94946    |   6.4 | 52.92
Neigh   | 0.0033701  | 0.003782   | 0.0041713  |   0.5 |  0.23
Comm    | 0.50366    | 0.57675    | 0.6407     |   7.7 | 34.87
Output  | 0.00015467 | 0.00017806 | 0.00024784 |   0.0 |  0.01
Modify  | 0.13063    | 0.13351    | 0.13503    |   0.5 |  8.07
Other   |            | 0.06454    |            |       |  3.90

Nlocal:            250 ave         269 max         234 min
Histogram: 1 0 1 0 0 1 0 0 0 1
Nghost:         978.75 ave         991 max         958 min
Histogram: 1 0 0 0 0 0 1 0 1 1
Neighs:           1670 ave        1851 max        1534 min
Histogram: 1 1 0 0 0 1 0 0 0 1

Total # of neighbors = 6680
Ave neighs/atom = 6.68
Neighbor list builds = 17
Dangerous builds = 0

unfix 2

fix 3 all nvt temp 370000 370000 $(100.0*dt) #iso 1.0 1.0 $(1000.0*dt)
fix 3 all nvt temp 370000 370000 25 

run ${long}
run 100000
Generated 0 of 1 mixed pair_coeff terms from geometric mixing rule
Per MPI rank memory allocation (min/avg/max) = 3.095 | 3.095 | 3.095 Mbytes
   Step          Temp          Press          PotEng        Density         KinEng         TotEng           Lx             Ly             Lz            Xlo            Xhi            Ylo            Yhi            Zlo            Zhi           Volume           Dt            Time           CPU           T/CPU          S/CPU         CPULeft    
   7680000   372517.74      1803.0506     -9549574.7      2.4659527      1109294.2     -8440280.5      546.11324      546.11324      546.11324      1726.9434      2273.0566      1726.9434      2273.0566      1726.9434      2273.0566      1.6287263e+08  0.25           1965000        0              0              0              0            
   7685000   359859.68      2688.7697     -9341987.2      2.4659527      1071600.7     -8270386.5      546.11324      546.11324      546.11324      1726.9434      2273.0566      1726.9434      2273.0566      1726.9434      2273.0566      1.6287263e+08  0.25           1966250        0.4083105      3061.3911      12245.535      7.7579466    
   7690000   354172.85      2952.1241     -9305243.9      2.4659527      1054666.3     -8250577.7      546.11324      546.11324      546.11324      1726.9434      2273.0566      1726.9434      2273.0566      1726.9434      2273.0566      1.6287263e+08  0.25           1967500        0.81460944     3076.5525      12306.211      7.3315068    
   7695000   356078.3       3019.4161     -9278761.5      2.4659527      1060340.4     -8218421.2      546.11324      546.11324      546.11324      1726.9434      2273.0566      1726.9434      2273.0566      1726.9434      2273.0566      1.6287263e+08  0.25           1968750        1.222838       3062.0107      12248.043      6.9294282    
   7700000   358249.84      3181.3773     -9262296.6      2.4659527      1066806.9     -8195489.8      546.11324      546.11324      546.11324      1726.9434      2273.0566      1726.9434      2273.0566      1726.9434      2273.0566      1.6287263e+08  0.25           1970000        1.6355395      3028.8232      12115.293      6.5421675    
   7705000   357070.28      3156.1391     -9254601.2      2.4659527      1063294.3     -8191306.9      546.11324      546.11324      546.11324      1726.9434      2273.0566      1726.9434      2273.0566      1726.9434      2273.0566      1.6287263e+08  0.25           1971250        2.0469132      3038.6         12154.397      6.1407469    
   7710000   355773.62      3016.6255     -9271541.3      2.4659527      1059433.1     -8212108.2      546.11324      546.11324      546.11324      1726.9434      2273.0566      1726.9434      2273.0566      1726.9434      2273.0566      1.6287263e+08  0.25           1972500        2.4557769      3057.2539      12229.018      5.7301514    
   7715000   375524.76      3028.0046     -9277354.3      2.4659527      1118248.6     -8159105.7      546.11324      546.11324      546.11324      1726.9434      2273.0566      1726.9434      2273.0566      1726.9434      2273.0566      1.6287263e+08  0.25           1973750        2.8657405      3049.0504      12196.202      5.3220939    
   7720000   376079.71      3112.1002     -9284453        2.4659527      1119901.2     -8164551.8      546.11324      546.11324      546.11324      1726.9434      2273.0566      1726.9434      2273.0566      1726.9434      2273.0566      1.6287263e+08  0.25           1975000        3.277731       3034.0505      12136.202      4.9166001    
   7725000   370516.91      3230.9791     -9252453.7      2.4659527      1103336.1     -8149117.6      546.11324      546.11324      546.11324      1726.9434      2273.0566      1726.9434      2273.0566      1726.9434      2273.0566      1.6287263e+08  0.25           1976250        3.6894826      3035.8119      12143.248      4.5093704    
   7730000   372553.19      3209.398      -9249885.2      2.4659527      1109399.8     -8140485.4      546.11324      546.11324      546.11324      1726.9434      2273.0566      1726.9434      2273.0566      1726.9434      2273.0566      1.6287263e+08  0.25           1977500        4.0999341      3045.4263      12181.702      4.0999365    
   7735000   370364.96      3020.3215     -9332681.3      2.4659527      1102883.6     -8229797.7      546.11324      546.11324      546.11324      1726.9434      2273.0566      1726.9434      2273.0566      1726.9434      2273.0566      1.6287263e+08  0.25           1978750        4.5097207      3050.3681      12201.474      3.6897734    
   7740000   354099.33      2912.45       -9287340.7      2.4659527      1054447.3     -8232893.4      546.11324      546.11324      546.11324      1726.9434      2273.0566      1726.9434      2273.0566      1726.9434      2273.0566      1.6287263e+08  0.25           1980000        4.9159611      3076.9965      12307.988      3.2773089    
   7745000   353172.12      2862.5697     -9293557.6      2.4659527      1051686.3     -8241871.4      546.11324      546.11324      546.11324      1726.9434      2273.0566      1726.9434      2273.0566      1726.9434      2273.0566      1.6287263e+08  0.25           1981250        5.3221255      3077.5713      12310.284      2.8657611    
   7750000   353439.79      2967.7755     -9273042.9      2.4659527      1052483.3     -8220559.6      546.11324      546.11324      546.11324      1726.9434      2273.0566      1726.9434      2273.0566      1726.9434      2273.0566      1.6287263e+08  0.25           1982500        5.7294521      3068.79        12275.163      2.4554805    
   7755000   355120.76      2956.9603     -9284842.7      2.4659527      1057489       -8227353.8      546.11324      546.11324      546.11324      1726.9434      2273.0566      1726.9434      2273.0566      1726.9434      2273.0566      1.6287263e+08  0.25           1983750        6.1361906      3073.2279      12292.908      2.0453976    
   7760000   378526.41      2966.0424     -9303132.5      2.4659527      1127187       -8175945.5      546.11324      546.11324      546.11324      1726.9434      2273.0566      1726.9434      2273.0566      1726.9434      2273.0566      1.6287263e+08  0.25           1985000        6.5448753      3058.5929      12234.37       1.6362194    
   7765000   368592.25      3066.8185     -9282872.1      2.4659527      1097604.8     -8185267.3      546.11324      546.11324      546.11324      1726.9434      2273.0566      1726.9434      2273.0566      1726.9434      2273.0566      1.6287263e+08  0.25           1986250        6.9557249      3042.4758      12169.905      1.2274813    
   7770000   364749.42      3024.6463     -9318496.8      2.4659527      1086161.5     -8232335.3      546.11324      546.11324      546.11324      1726.9434      2273.0566      1726.9434      2273.0566      1726.9434      2273.0566      1.6287263e+08  0.25           1987500        7.3662627      3044.7865      12179.146      0.81847389   
   7775000   380391.79      3106.584      -9280505        2.4659527      1132741.8     -8147763.2      546.11324      546.11324      546.11324      1726.9434      2273.0566      1726.9434      2273.0566      1726.9434      2273.0566      1.6287263e+08  0.25           1988750        7.7778549      3036.9862      12147.944      0.40936091   
   7780000   383702.69      3106.1241     -9277165        2.4659527      1142601.1     -8134564        546.11324      546.11324      546.11324      1726.9434      2273.0566      1726.9434      2273.0566      1726.9434      2273.0566      1.6287263e+08  0.25           1990000        8.1880503      3047.3275      12189.312      0            
Loop time of 8.18809 on 4 procs for 100000 steps with 1000 atoms

Performance: 263.798 ns/day, 0.091 hours/ns, 12212.854 timesteps/s
99.9% CPU use with 4 MPI tasks x 1 OpenMP threads

MPI task timing breakdown:
Section |  min time  |  avg time  |  max time  |%varavg| %total
---------------------------------------------------------------
Pair    | 4.1089     | 4.4538     | 4.8734     |  15.3 | 54.39
Neigh   | 0.023673   | 0.027028   | 0.030634   |   1.6 |  0.33
Comm    | 2.3663     | 2.7733     | 3.0968     |  18.5 | 33.87
Output  | 0.0045936  | 0.0046812  | 0.0049395  |   0.2 |  0.06
Modify  | 0.61337    | 0.61965    | 0.62894    |   0.7 |  7.57
Other   |            | 0.3096     |            |       |  3.78

Nlocal:            250 ave         270 max         236 min
Histogram: 1 1 0 0 1 0 0 0 0 1
Nghost:          987.5 ave         995 max         980 min
Histogram: 1 0 0 0 1 0 1 0 0 1
Neighs:           1688 ave        1894 max        1548 min
Histogram: 1 1 0 0 1 0 0 0 0 1

Total # of neighbors = 6752
Ave neighs/atom = 6.752
Neighbor list builds = 122
Dangerous builds = 0

unfix 3

fix 4 all nvt temp 370000 ${T} 100.0
fix 4 all nvt temp 370000 300 100.0

run ${nts}
run 20000
Generated 0 of 1 mixed pair_coeff terms from geometric mixing rule
Per MPI rank memory allocation (min/avg/max) = 4.362 | 4.362 | 4.362 Mbytes
   Step          Temp          Press          PotEng        Density         KinEng         TotEng           Lx             Ly             Lz            Xlo            Xhi            Ylo            Yhi            Zlo            Zhi           Volume           Dt            Time           CPU           T/CPU          S/CPU         CPULeft    
   7780000   383702.69      3106.1241     -9277165        2.4659527      1142601.1     -8134564        546.11324      546.11324      546.11324      1726.9434      2273.0566      1726.9434      2273.0566      1726.9434      2273.0566      1.6287263e+08  0.25           1990000        0              0              0              0            
   7785000   281896.43      2735.2589     -9322936.8      2.4659527      839439.42     -8483497.3      546.11324      546.11324      546.11324      1726.9434      2273.0566      1726.9434      2273.0566      1726.9434      2273.0566      1.6287263e+08  0.25           1991250        0.40980522     3050.2247      12200.869      1.229423     
   7790000   191528.72      2145.9609     -9460645        2.4659527      570339.83     -8890305.2      546.11324      546.11324      546.11324      1726.9434      2273.0566      1726.9434      2273.0566      1726.9434      2273.0566      1.6287263e+08  0.25           1992500        0.81751124     3065.9353      12263.743      0.81751355   
   7795000   100339.72      1384.3989     -9644436.8      2.4659527      298794.57     -9345642.3      546.11324      546.11324      546.11324      1726.9434      2273.0566      1726.9434      2273.0566      1726.9434      2273.0566      1.6287263e+08  0.25           1993750        1.2272866      3050.4521      12201.81       0.40909628   
   7800000   9561.3979      678.07253     -9785745.4      2.4659527      28472.21      -9757273.2      546.11324      546.11324      546.11324      1726.9434      2273.0566      1726.9434      2273.0566      1726.9434      2273.0566      1.6287263e+08  0.25           1995000        1.6355884      3061.461       12245.841      0            
Loop time of 1.63563 on 4 procs for 20000 steps with 1000 atoms

Performance: 264.119 ns/day, 0.091 hours/ns, 12227.735 timesteps/s
99.9% CPU use with 4 MPI tasks x 1 OpenMP threads

MPI task timing breakdown:
Section |  min time  |  avg time  |  max time  |%varavg| %total
---------------------------------------------------------------
Pair    | 0.82151    | 0.88722    | 0.97652    |   6.7 | 54.24
Neigh   | 0.0031052  | 0.0035442  | 0.0040211  |   0.6 |  0.22
Comm    | 0.4734     | 0.55866    | 0.61902    |   8.0 | 34.16
Output  | 0.0016953  | 0.0017127  | 0.0017628  |   0.1 |  0.10
Modify  | 0.12162    | 0.12382    | 0.12744    |   0.7 |  7.57
Other   |            | 0.06068    |            |       |  3.71

Nlocal:            250 ave         268 max         234 min
Histogram: 1 0 0 1 0 1 0 0 0 1
Nghost:         977.25 ave         988 max         971 min
Histogram: 1 1 0 1 0 0 0 0 0 1
Neighs:        1688.75 ave        1892 max        1546 min
Histogram: 1 0 1 0 1 0 0 0 0 1

Total # of neighbors = 6755
Ave neighs/atom = 6.755
Neighbor list builds = 16
Dangerous builds = 0

unfix 4

fix 5 all npt temp ${T} ${T} $(100.0*dt) iso 1.0 1.0 $(1000.0*dt)
fix 5 all npt temp 300 ${T} $(100.0*dt) iso 1.0 1.0 $(1000.0*dt)
fix 5 all npt temp 300 300 $(100.0*dt) iso 1.0 1.0 $(1000.0*dt)
fix 5 all npt temp 300 300 25 iso 1.0 1.0 $(1000.0*dt)
fix 5 all npt temp 300 300 25 iso 1.0 1.0 250

run ${medium}
run 60000
Generated 0 of 1 mixed pair_coeff terms from geometric mixing rule
Per MPI rank memory allocation (min/avg/max) = 4.362 | 4.362 | 4.362 Mbytes
   Step          Temp          Press          PotEng        Density         KinEng         TotEng           Lx             Ly             Lz            Xlo            Xhi            Ylo            Yhi            Zlo            Zhi           Volume           Dt            Time           CPU           T/CPU          S/CPU         CPULeft    
   7800000   9561.3979      678.07253     -9785745.4      2.4659527      28472.21      -9757273.2      546.11324      546.11324      546.11324      1726.9434      2273.0566      1726.9434      2273.0566      1726.9434      2273.0566      1.6287263e+08  0.25           1995000        0              0              0              0            
   7805000   322.57619      1.1508719     -9776718.7      2.4378346      960.57682     -9775758.1      548.20485      548.20485      548.20485      1725.8976      2274.1024      1725.8976      2274.1024      1725.8976      2274.1024      1.6475121e+08  0.25           1996250        0.48203587     2593.1644      10372.636      5.3024223    
   7810000   320.91356      4.6967685     -9797946.8      2.441948       955.62577     -9796991.1      547.89686      547.89686      547.89686      1726.0516      2273.9484      1726.0516      2273.9484      1726.0516      2273.9484      1.6447369e+08  0.25           1997500        0.95546319     2640.3213      10561.284      4.7773284    
   7815000   320.1554       0.24621976    -9812822.4      2.4455108      953.3681      -9811869.1      547.63066      547.63066      547.63066      1726.1847      2273.8153      1726.1847      2273.8153      1726.1847      2273.8153      1.6423408e+08  0.25           1998750        1.4284227      2642.9327      10571.732      4.2852751    
   7820000   320.62179      4.5736094     -9832087.1      2.4491621      954.75695     -9831132.3      547.35839      547.35839      547.35839      1726.3208      2273.6792      1726.3208      2273.6792      1726.3208      2273.6792      1.6398923e+08  0.25           2000000        1.9011809      2644.0584      10576.233      3.8023662    
   7825000   322.43598      7.0169292     -9855384.5      2.4523819      960.15929     -9854424.4      547.11873      547.11873      547.11873      1726.4406      2273.5594      1726.4406      2273.5594      1726.4406      2273.5594      1.6377392e+08  0.25           2001250        2.3737839      2644.9251      10579.7        3.3233009    
   7830000   326.4406       2.2495814     -9868854.3      2.4555888      972.08436     -9867882.2      546.88046      546.88046      546.88046      1726.5598      2273.4402      1726.5598      2273.4402      1726.5598      2273.4402      1.6356004e+08  0.25           2002500        2.8472001      2640.3832      10561.534      2.8472024    
   7835000   329.50641      2.3452214     -9881941.2      2.4583375      981.21383     -9880960        546.67656      546.67656      546.67656      1726.6617      2273.3383      1726.6617      2273.3383      1726.6617      2273.3383      1.6337716e+08  0.25           2003750        3.3205291      2640.869       10563.474      2.3718082    
   7840000   330.42238     -6.2910133     -9893967.7      2.461166       983.94142     -9892983.8      546.46705      546.46705      546.46705      1726.7665      2273.2335      1726.7665      2273.2335      1726.7665      2273.2335      1.631894e+08   0.25           2005000        3.7936465      2642.0506      10568.203      1.8968244    
   7845000   329.16308     -0.74074703    -9905054.3      2.4644658      980.19144     -9904074.1      546.22305      546.22305      546.22305      1726.8885      2273.1115      1726.8885      2273.1115      1726.8885      2273.1115      1.629709e+08   0.25           2006250        4.2689071      2630.1357      10520.543      1.4229698    
   7850000   327.43477      1.9236001     -9915111.8      2.4669868      975.04484     -9914136.8      546.03692      546.03692      546.03692      1726.9815      2273.0185      1726.9815      2273.0185      1726.9815      2273.0185      1.6280436e+08  0.25           2007500        4.7444791      2628.4143      10513.657      0.94889628   
   7855000   326.58711     -3.2639152     -9921658.1      2.4693748      972.52066     -9920685.6      545.86085      545.86085      545.86085      1727.0696      2272.9304      1727.0696      2272.9304      1727.0696      2272.9304      1.6264692e+08  0.25           2008750        5.2199554      2628.9427      10515.771      0.47454161   
   7860000   325.37191      0.005546474   -9930740.4      2.4716374      968.90199     -9929771.5      545.69424      545.69424      545.69424      1727.1529      2272.8471      1727.1529      2272.8471      1727.1529      2272.8471      1.6249803e+08  0.25           2010000        5.6957055      2627.4296      10509.719      0            
Loop time of 5.69575 on 4 procs for 60000 steps with 1000 atoms

Performance: 227.538 ns/day, 0.105 hours/ns, 10534.179 timesteps/s
99.9% CPU use with 4 MPI tasks x 1 OpenMP threads

MPI task timing breakdown:
Section |  min time  |  avg time  |  max time  |%varavg| %total
---------------------------------------------------------------
Pair    | 2.7639     | 2.9264     | 3.1614     |   9.7 | 51.38
Neigh   | 0.0070928  | 0.0080071  | 0.00906    |   0.8 |  0.14
Comm    | 1.4017     | 1.6278     | 1.7871     |  12.3 | 28.58
Output  | 0.0025841  | 0.0026491  | 0.0028409  |   0.2 |  0.05
Modify  | 0.9197     | 0.93067    | 0.94521    |   1.0 | 16.34
Other   |            | 0.2002     |            |       |  3.51

Nlocal:            250 ave         267 max         237 min
Histogram: 1 0 1 0 0 1 0 0 0 1
Nghost:         978.25 ave         985 max         971 min
Histogram: 1 0 0 0 0 2 0 0 0 1
Neighs:        1684.25 ave        1881 max        1564 min
Histogram: 1 1 0 1 0 0 0 0 0 1

Total # of neighbors = 6737
Ave neighs/atom = 6.737
Neighbor list builds = 36
Dangerous builds = 11

# run_style
run_style verlet

# write restart
write_restart ${write_res}
write_restart ./pgnpmf/91/equpmf39.res
System init for write_restart ...
Generated 0 of 1 mixed pair_coeff terms from geometric mixing rule

Total wall time: 0:00:17
