LAMMPS data file, Author: Jerry Qin

996 atoms
0 bonds
0 angles

2 atom types

-100 5100 xlo xhi
-100 5100 ylo yhi
-100 5100 zlo zhi

Masses

1 221851
2 422051

Atoms

1 1  136.953 509.505 890.703
2 1  54.121 91.933 955.290
3 1  809.213 519.897 191.040
4 1  692.307 702.950 591.005
5 1  299.457 272.822 87.356
6 1  447.179 564.168 47.126
7 1  479.266 208.543 173.587
8 1  46.402 800.264 444.010
9 1  25.481 377.001 457.406
10 1  184.865 624.433 134.712
11 1  710.824 484.102 444.781
12 1  129.708 395.453 523.960
13 1  528.611 630.358 831.948
14 1  120.654 857.552 782.200
15 1  831.404 66.999 443.607
16 1  921.853 483.306 128.641
17 1  885.279 582.515 725.475
18 1  743.936 769.194 128.620
19 1  878.555 353.338 858.426
20 1  562.619 615.097 603.663
21 1  147.618 857.975 258.704
22 1  635.049 570.281 35.008
23 1  30.657 909.707 394.862
24 1  519.726 191.429 914.059
25 1  291.699 173.381 2.015
26 1  276.493 494.119 477.898
27 1  519.830 413.083 449.637
28 1  973.481 678.627 290.709
29 1  265.622 767.236 814.474
30 1  136.149 586.743 688.812
31 1  825.808 794.935 954.799
32 1  153.687 506.674 112.475
33 1  545.522 325.631 79.224
34 1  619.293 1010.215 908.431
35 1  847.057 693.295 564.522
36 1  297.021 420.189 1046.019
37 1  119.566 506.221 574.229
38 1  67.728 33.004 193.882
39 1  3653.319 756.897 881.568
40 1  3603.699 680.014 437.824
41 1  3550.113 811.722 423.316
42 1  3660.439 705.173 30.717
43 1  3673.074 453.214 366.414
44 1  3081.258 708.322 809.585
45 1  3608.253 644.523 216.843
46 1  3193.279 488.618 638.384
47 1  3196.540 369.347 543.299
48 1  3557.677 920.413 353.905
49 1  3159.112 620.684 260.876
50 1  3414.689 643.995 755.777
51 1  3288.000 970.072 668.257
52 1  3470.718 537.601 189.103
53 1  3531.132 559.705 740.375
54 1  3096.079 702.417 166.156
55 1  3567.581 109.150 578.421
56 1  3432.911 556.668 305.067
57 1  3720.141 986.181 804.666
58 1  3326.521 712.707 326.587
59 1  3083.555 463.587 436.502
60 1  3100.035 275.513 720.452
61 1  3342.068 222.877 422.190
62 1  3728.511 857.956 41.739
63 1  3735.889 624.536 280.388
64 1  3366.072 161.764 572.349
65 1  3539.779 857.404 216.472
66 1  3565.397 462.582 310.795
67 1  3111.461 106.901 883.632
68 1  3214.932 429.243 362.293
69 1  3591.635 456.053 622.730
70 1  3073.648 866.807 254.324
71 1  3519.140 714.556 802.367
72 1  3429.531 273.071 282.411
73 1  3280.355 662.738 46.044
74 1  3581.173 296.539 416.193
75 1  3391.028 746.083 685.382
76 1  754.262 4057.647 837.002
77 1  464.654 3988.783 197.991
78 1  216.692 4002.598 800.801
79 1  237.311 3218.820 822.711
80 1  781.742 3261.373 734.413
81 1  766.660 3382.085 233.257
82 1  152.904 3434.099 753.476
83 1  537.592 3800.447 377.983
84 1  1019.694 3186.074 350.747
85 1  906.964 4057.504 282.518
86 1  495.369 3412.081 606.233
87 1  439.575 3774.928 125.903
88 1  306.625 3291.160 576.015
89 1  864.024 3231.384 239.635
90 1  953.976 3563.164 628.627
91 1  812.097 3509.381 155.190
92 1  899.361 4026.679 129.646
93 1  805.693 3641.895 800.025
94 1  646.118 3913.176 848.460
95 1  552.474 3940.461 588.432
96 1  33.047 3746.726 922.776
97 1  474.668 3220.568 154.520
98 1  272.978 3600.093 520.415
99 1  980.969 3944.039 943.881
100 1  359.013 3417.569 551.155
101 1  81.810 3423.655 530.172
102 1  81.665 3257.793 176.722
103 1  84.440 3453.185 176.589
104 1  262.645 3983.843 632.479
105 1  778.430 3366.716 590.431
106 1  257.683 3361.780 264.705
107 1  303.367 3811.970 611.911
108 1  66.813 3872.511 909.301
109 1  1011.980 3694.274 617.221
110 1  917.165 3628.037 1022.086
111 1  159.196 4016.235 941.789
112 1  394.091 3450.348 831.265
113 1  686.066 3960.326 683.452
114 1  2.982 2.018 3427.735
115 1  1422.571 1293.966 4640.340
116 1  1473.238 2364.619 4844.417
117 1  237.902 692.279 3245.800
118 1  1162.038 1159.576 3437.037
119 1  668.767 378.310 3577.762
120 1  59.942 139.438 3467.867
121 1  725.000 895.256 3872.687
122 1  579.715 907.065 3547.619
123 1  196.188 31.404 3473.938
124 1  993.284 42.943 3243.217
125 1  444.536 454.712 3406.654
126 1  377.649 385.863 3861.969
127 1  761.107 404.178 3232.876
128 1  431.964 418.511 3624.003
129 1  939.687 455.290 3216.085
130 1  98.867 71.711 3641.733
131 1  4.633 280.406 3601.038
132 1  706.120 902.601 3305.179
133 1  141.820 852.107 3201.663
134 1  328.136 111.350 3838.357
135 1  988.267 262.781 3437.460
136 1  837.286 400.648 3387.468
137 1  123.046 518.399 3653.447
138 1  0.000 2500.000 4585.314
139 1  972.150 886.045 3849.550
140 1  750.497 218.999 3791.080
141 1  828.827 134.693 3848.430
142 1  502.023 638.764 3307.867
143 1  53.801 798.854 3289.278
144 1  529.320 92.859 3205.110
145 1  63.261 628.454 3594.541
146 1  551.945 407.347 3743.460
147 1  209.056 109.818 3682.783
148 1  820.241 568.863 3186.344
149 1  869.339 261.892 3286.295
150 1  859.278 880.271 3407.081
151 1  4999.966 3541.829 2499.929
152 1  4070.211 3327.716 1943.720
153 1  2748.365 4391.126 884.290
154 1  2500.001 3304.989 0.001
155 1  4648.786 4989.991 2480.256
156 1  5000.000 5000.000 1397.349
157 1  3680.893 3479.053 332.770
158 1  3520.858 3928.451 926.112
159 1  3267.150 3532.357 78.121
160 1  3637.124 3522.915 142.263
161 1  3560.621 3533.910 858.952
162 1  3495.143 3449.309 443.768
163 1  3213.617 3734.950 543.705
164 1  3653.989 3266.735 602.413
165 1  3666.736 3549.370 435.502
166 1  3816.817 3782.240 713.500
167 1  3812.587 3880.623 384.867
168 1  3900.786 3806.253 938.860
169 1  3412.485 3568.909 314.225
170 1  3113.380 4607.996 0.000
171 1  4999.992 4750.495 2491.655
172 1  3936.668 3230.266 312.737
173 1  3868.274 4045.582 623.656
174 1  3408.918 3143.737 99.281
175 1  3354.194 4042.841 414.470
176 1  3780.136 3936.262 571.646
177 1  3321.219 3097.733 480.918
178 1  3876.711 3919.903 271.884
179 1  4017.116 3412.506 140.477
180 1  3552.336 3585.162 969.239
181 1  3413.283 3279.667 451.840
182 1  3957.509 3676.363 0.000
183 1  3920.653 3262.464 568.996
184 1  4232.744 3748.506 400.254
185 1  3286.428 3937.024 861.174
186 1  3068.505 3462.228 1697.711
187 1  3967.309 4331.795 1907.914
188 1  3046.757 3627.024 457.730
189 1  3306.190 1584.148 3377.655
190 1  4835.153 2303.324 2805.535
191 1  4999.992 2499.979 4999.978
192 1  3245.833 2042.630 4941.717
193 1  4999.724 44.505 4866.981
194 1  3144.734 210.776 3159.906
195 1  3380.607 99.937 3343.818
196 1  3205.748 52.143 3800.006
197 1  4961.385 1371.348 3327.101
198 1  3479.968 263.721 3822.814
199 1  3635.335 511.020 3712.044
200 1  2791.546 518.211 3185.427
201 1  3480.310 422.383 3709.658
202 1  3268.570 783.209 3459.195
203 1  3777.589 311.276 3689.945
204 1  3073.298 696.768 3472.419
205 1  3762.726 197.716 3355.048
206 1  3352.067 553.490 3709.198
207 1  3779.808 525.735 3490.847
208 1  3772.013 890.275 3251.152
209 1  3632.696 865.894 3462.015
210 1  2768.465 0.000 4843.400
211 1  3233.132 742.473 3301.646
212 1  3667.034 240.812 3811.284
213 1  3675.879 638.815 3364.114
214 1  3153.418 147.126 3424.575
215 1  3091.646 201.466 3304.157
216 1  2500.000 1821.279 2500.000
217 1  3459.971 831.879 3144.849
218 1  3767.635 1999.571 2500.000
219 1  3141.981 788.534 3743.832
220 1  3161.255 532.702 3151.877
221 1  3767.628 644.509 3585.501
222 1  3460.385 115.191 3437.232
223 1  3459.467 852.785 3270.137
224 1  4999.989 2499.941 4442.064
225 1  3255.599 141.927 3679.177
226 1  515.418 3821.808 3656.628
227 1  625.142 3909.087 4049.787
228 1  353.868 3547.545 3231.572
229 1  568.440 3457.878 3336.610
230 1  303.591 3414.808 3239.314
231 1  250.631 3325.720 3908.809
232 1  901.766 3441.064 3720.043
233 1  343.667 3224.804 4017.492
234 1  610.121 3844.798 3481.597
235 1  507.186 3286.931 3474.796
236 1  343.992 3830.151 3906.372
237 1  314.074 3505.922 3950.934
238 1  931.619 3645.740 3210.770
239 1  358.321 3635.609 3937.240
240 1  870.664 3208.268 3498.857
241 1  417.688 3622.087 3372.237
242 1  652.493 3853.292 3310.660
243 1  895.453 3311.764 3776.862
244 1  548.401 3870.653 3237.519
245 1  321.539 3916.238 3540.245
246 1  807.401 3272.590 3980.393
247 1  663.893 3348.911 3607.476
248 1  307.818 3709.541 3714.527
249 1  286.956 3203.491 3257.705
250 1  206.772 3510.575 3339.339
251 1  219.084 3828.722 3362.205
252 1  543.506 3664.472 3750.387
253 1  353.712 3798.716 3619.268
254 1  85.210 3438.111 3637.958
255 1  406.142 3186.453 3785.591
256 1  142.669 3828.153 3477.910
257 1  481.684 3267.387 3984.090
258 1  635.488 3723.908 3680.334
259 1  224.851 3332.948 3405.799
260 1  57.892 3606.905 3337.820
261 1  854.584 3841.586 3787.797
262 1  79.361 3490.437 3984.032
263 1  593.125 3627.172 3556.143
264 1  3332.613 3620.759 3294.456
265 1  3335.821 3369.922 3553.850
266 1  3511.775 3689.312 3559.890
267 1  3485.432 3219.897 3334.426
268 1  3790.308 3296.359 3275.647
269 1  3662.408 3686.889 3265.157
270 1  3792.298 3642.421 3823.193
271 1  3332.353 3656.361 3750.444
272 1  3518.120 3264.215 3833.976
273 1  3434.131 3359.978 3438.868
274 1  3314.978 3353.758 3792.986
275 1  3228.724 3453.025 3840.249
276 1  3426.479 3251.224 3755.229
277 1  3431.233 3776.912 3394.528
278 1  3622.140 3045.993 3212.805
279 1  3529.560 3538.558 3454.842
280 1  3422.161 3570.066 3370.938
281 1  3177.254 3117.652 3150.056
282 1  3509.692 3094.246 3185.965
283 1  3794.933 3244.648 3519.521
284 1  3630.174 3191.862 3395.232
285 1  3739.998 3192.907 3321.452
286 1  3652.877 3071.227 3612.044
287 1  3272.375 3252.242 3059.413
288 1  3454.052 3719.571 3682.908
289 1  3827.514 3474.445 3314.577
290 1  3671.598 3697.316 3134.264
291 1  3541.118 3405.356 3130.319
292 1  3391.034 3604.454 3488.451
293 1  3839.729 3731.468 3686.763
294 1  3270.650 3754.093 3662.730
295 1  3719.464 3407.651 3495.573
296 1  3236.725 3126.982 3835.374
297 1  3223.677 3630.255 3539.785
298 1  3518.405 3592.934 3659.879
299 1  3351.746 3236.238 3268.151
300 1  3626.010 3220.167 3129.887
301 2  0.070 0.423 2375.340
302 2  2480.355 486.459 1265.702
303 2  0.001 0.002 0.001
304 2  299.736 2499.978 0.092
305 2  1.321 2495.483 6.103
306 2  520.724 266.193 1558.108
307 2  2196.162 697.698 1871.620
308 2  917.155 451.459 752.881
309 2  1123.011 166.035 679.943
310 2  31.528 9.198 2499.199
311 2  435.450 923.068 778.244
312 2  256.557 699.501 438.087
313 2  350.420 368.854 445.528
314 2  115.442 395.117 85.299
315 2  153.308 728.546 791.185
316 2  647.737 53.276 673.689
317 2  627.198 403.087 287.470
318 2  810.033 479.748 716.205
319 2  105.071 253.847 873.611
320 2  405.089 678.410 961.592
321 2  264.214 74.783 485.610
322 2  745.331 547.621 782.307
323 2  260.225 812.191 931.372
324 2  288.502 826.974 386.382
325 2  451.373 253.724 370.720
326 2  892.620 65.751 609.879
327 2  929.346 744.512 909.541
328 2  666.052 499.037 127.839
329 2  47.142 494.590 990.511
330 2  703.803 73.202 184.513
331 2  567.532 512.242 696.936
332 2  229.072 375.965 142.079
333 2  488.368 404.068 6.914
334 2  934.293 215.893 927.954
335 2  552.057 729.269 562.572
336 2  75.669 511.378 375.814
337 2  8.825 763.505 963.591
338 2  387.090 327.346 209.665
339 2  894.226 78.663 929.307
340 2  665.106 743.121 710.241
341 2  200.819 375.094 938.015
342 2  742.322 836.248 726.683
343 2  670.019 364.915 696.625
344 2  149.299 708.119 920.669
345 2  259.615 236.571 502.269
346 2  569.349 400.075 888.249
347 2  379.755 712.276 433.205
348 2  392.642 632.294 588.759
349 2  480.722 430.910 580.518
350 2  46.515 207.948 757.076
351 2  825.118 233.536 607.343
352 2  287.676 118.717 367.498
353 2  346.356 831.044 595.520
354 2  375.176 696.801 836.567
355 2  570.752 903.703 418.456
356 2  694.729 959.461 278.578
357 2  349.703 149.478 143.119
358 2  999.713 604.119 798.118
359 2  516.138 461.351 131.462
360 2  250.714 44.022 188.319
361 2  80.437 431.162 796.466
362 2  466.789 102.390 102.838
363 2  666.026 510.946 866.041
364 2  379.511 357.927 940.996
365 2  602.759 181.619 637.498
366 2  1054.214 488.220 548.613
367 2  493.186 772.099 921.468
368 2  834.048 170.047 257.879
369 2  49.136 666.218 832.706
370 2  834.335 612.946 80.889
371 2  782.173 393.592 325.983
372 2  536.325 653.463 160.874
373 2  17.427 921.667 660.734
374 2  20.154 173.754 369.417
375 2  172.986 936.780 956.082
376 2  847.936 602.184 857.882
377 2  862.920 295.487 247.880
378 2  803.810 321.968 497.751
379 2  218.853 983.754 493.587
380 2  879.108 191.500 790.430
381 2  0.000 1971.282 2500.000
382 2  1652.126 1508.720 470.939
383 2  197.459 1336.643 -0.000
384 2  1316.001 1389.962 487.721
385 2  2427.254 102.905 2442.483
386 2  29.661 217.775 2496.414
387 2  387.626 848.515 153.556
388 2  3717.977 2042.150 201.203
389 2  3271.403 1541.885 860.443
390 2  2837.631 1374.588 1.694
391 2  3992.998 968.115 2490.883
392 2  4987.726 2498.810 2005.493
393 2  3400.751 1971.993 491.211
394 2  2500.121 1828.706 0.043
395 2  2500.000 456.169 451.482
396 2  2818.084 1718.264 0.000
397 2  4156.385 2429.750 831.520
398 2  4408.976 2500.000 0.000
399 2  2500.002 0.025 0.010
400 2  2525.058 2336.139 2478.404
401 2  2843.043 465.231 577.238
402 2  2886.774 102.795 275.428
403 2  2806.143 471.552 729.015
404 2  2937.830 699.746 708.416
405 2  2879.820 706.213 838.990
406 2  2680.425 135.169 215.408
407 2  2828.811 604.072 48.594
408 2  2708.012 448.628 662.025
409 2  2812.134 439.058 906.830
410 2  2708.368 781.683 774.241
411 2  2897.473 635.635 196.008
412 2  2708.472 256.759 675.707
413 2  2641.030 363.698 590.461
414 2  2802.407 861.823 730.996
415 2  2755.024 245.879 92.905
416 2  2663.388 749.380 616.596
417 2  2747.292 692.887 246.468
418 2  2861.126 291.359 150.913
419 2  2777.023 117.934 36.644
420 2  2867.663 0.000 446.493
421 2  2857.548 578.651 638.316
422 2  2871.749 608.806 471.042
423 2  2835.232 89.812 771.346
424 2  2704.195 1.325 757.874
425 2  2611.357 250.325 488.998
426 2  2797.430 662.045 709.789
427 2  2695.563 96.933 341.781
428 2  2668.388 72.406 106.408
429 2  2858.151 572.468 805.494
430 2  2669.512 58.154 471.983
431 2  2732.452 674.255 77.422
432 2  2643.549 173.214 31.617
433 2  2703.211 345.403 155.418
434 2  2769.651 703.098 888.965
435 2  2885.628 808.979 590.695
436 2  2788.994 204.781 221.088
437 2  2694.000 668.109 400.242
438 2  2679.984 921.803 764.844
439 2  2627.442 526.549 587.004
440 2  2800.697 510.719 457.560
441 2  2768.039 851.877 200.777
442 2  2668.663 818.821 292.761
443 2  2715.940 186.162 447.419
444 2  2626.282 359.768 783.373
445 2  2896.442 143.992 450.467
446 2  2764.144 390.217 430.233
447 2  2778.744 65.859 228.472
448 2  2649.376 291.030 252.026
449 2  2819.722 236.374 735.156
450 2  2820.653 367.182 655.039
451 2  2871.712 339.000 778.603
452 2  2846.816 943.075 411.033
453 2  2619.915 802.042 496.374
454 2  2865.917 639.688 969.498
455 2  2664.893 532.509 157.274
456 2  2898.624 798.295 179.570
457 2  2921.088 669.856 319.170
458 2  2688.790 461.666 857.938
459 2  2787.079 899.988 68.433
460 2  2653.020 637.987 699.988
461 2  2659.860 262.799 369.238
462 2  2785.320 771.402 647.832
463 2  2777.721 912.158 323.266
464 2  2761.540 330.462 536.112
465 2  2782.273 552.607 243.162
466 2  2827.463 92.858 627.260
467 2  2747.656 566.555 871.312
468 2  4996.847 2258.404 745.099
469 2  2799.363 632.515 352.558
470 2  2717.972 859.621 438.397
471 2  4224.026 334.858 0.000
472 2  2520.791 2158.929 2392.090
473 2  4974.077 2497.309 1004.403
474 2  2870.774 77.948 132.107
475 2  1812.812 4781.457 2100.143
476 2  1202.036 2902.600 1622.801
477 2  765.365 2786.350 1114.927
478 2  2076.339 3822.367 797.547
479 2  1836.420 3043.531 775.146
480 2  1668.301 2707.596 2052.038
481 2  2499.482 2500.025 1007.229
482 2  2497.492 4987.770 1131.078
483 2  0.000 3637.755 657.520
484 2  2499.999 3474.139 2028.086
485 2  0.000 4246.068 2.784
486 2  983.911 3305.818 1878.422
487 2  807.263 2506.645 2499.824
488 2  0.000 3943.252 1067.439
489 2  115.464 2634.541 378.581
490 2  236.213 2696.909 390.407
491 2  655.227 2568.245 692.517
492 2  563.648 2737.484 818.955
493 2  628.331 2681.119 727.321
494 2  822.989 2659.233 928.374
495 2  417.316 2577.578 112.533
496 2  444.484 2551.503 522.346
497 2  140.975 2610.641 107.235
498 2  393.002 2695.906 871.637
499 2  158.437 2530.927 643.983
500 2  470.122 2738.152 344.871
501 2  628.590 2643.562 602.567
502 2  47.646 2663.147 247.783
503 2  281.913 2656.644 496.226
504 2  177.506 2576.296 205.293
505 2  337.115 2551.064 466.542
506 2  943.701 2551.477 264.996
507 2  868.578 2590.761 65.046
508 2  196.311 2685.896 714.061
509 2  950.419 2602.227 730.991
510 2  398.947 2669.598 568.722
511 2  864.583 4778.839 403.457
512 2  84.617 2575.464 923.703
513 2  257.901 2569.997 110.866
514 2  583.578 2564.859 477.400
515 2  10.045 2710.799 539.900
516 2  483.624 2546.138 225.281
517 2  540.307 2586.994 768.825
518 2  525.379 2600.599 591.539
519 2  940.111 2658.431 866.618
520 2  163.641 2720.618 170.295
521 2  810.948 2707.434 803.424
522 2  0.000 2634.495 88.545
523 2  455.669 2508.130 805.547
524 2  753.006 2558.042 520.261
525 2  883.051 2566.713 509.149
526 2  744.447 2633.061 422.879
527 2  0.000 2799.580 52.950
528 2  252.348 2524.818 549.103
529 2  31.935 2655.431 768.437
530 2  866.122 2684.476 441.064
531 2  238.389 2603.000 310.800
532 2  663.250 2528.418 858.532
533 2  713.729 2591.432 113.643
534 2  351.240 2566.199 357.202
535 2  262.330 2563.119 697.008
536 2  364.551 2721.637 415.214
537 2  396.540 2630.059 773.634
538 2  535.106 2577.810 125.845
539 2  792.000 2561.945 863.222
540 2  286.338 2500.000 927.823
541 2  892.535 2706.644 703.388
542 2  977.259 2611.795 398.919
543 2  244.064 2664.466 845.234
544 2  650.250 2549.497 219.792
545 2  415.380 2546.097 923.854
546 2  522.528 2634.078 287.001
547 2  556.142 2596.558 905.847
548 2  263.530 2654.413 617.518
549 2  330.559 2720.964 106.242
550 2  48.854 2500.125 678.889
551 2  446.679 2659.514 678.989
552 2  605.640 2549.803 325.453
553 2  476.595 2667.205 443.246
554 2  114.624 2643.406 635.558
555 2  266.029 2709.587 255.660
556 2  1821.267 4883.358 0.000
557 2  0.000 2500.000 1622.839
558 2  1048.812 4999.986 2499.912
559 2  2499.955 4999.964 0.033
560 2  2216.341 4993.274 2.315
561 2  831.049 2583.269 192.526
562 2  2382.696 0.000 2500.004
563 2  2260.664 58.374 2560.983
564 2  2498.074 629.372 4999.398
565 2  187.456 1423.006 4117.173
566 2  2392.395 1266.305 4988.637
567 2  0.120 0.000 4999.977
568 2  397.505 1612.922 3079.819
569 2  0.000 891.187 2500.000
570 2  1137.195 60.454 3996.556
571 2  2476.929 2442.174 4901.404
572 2  1339.737 -0.000 2500.000
573 2  959.907 1694.048 4401.893
574 2  1.360 2491.047 3802.587
575 2  771.642 873.986 2655.402
576 2  501.190 96.089 2536.085
577 2  865.632 522.182 2691.175
578 2  234.513 439.760 2691.647
579 2  599.272 266.823 2847.036
580 2  315.766 607.475 2685.560
581 2  651.948 821.966 2732.973
582 2  173.606 289.343 2709.259
583 2  712.846 110.309 2512.376
584 2  255.696 591.325 2563.791
585 2  462.578 570.598 2547.968
586 2  226.413 1864.894 2769.065
587 2  739.931 741.292 2711.563
588 2  1108.233 546.811 2664.824
589 2  58.403 718.592 2724.070
590 2  619.396 274.017 2654.857
591 2  776.224 750.995 2583.807
592 2  48.026 169.247 2648.216
593 2  715.210 350.717 2500.152
594 2  864.524 124.313 2725.554
595 2  770.508 242.914 2500.078
596 2  1016.922 415.734 2694.632
597 2  424.058 494.490 2691.838
598 2  343.023 472.025 2568.875
599 2  216.927 288.291 2549.840
600 2  0.000 1520.076 2500.000
601 2  393.237 75.295 2634.146
602 2  1077.939 814.497 2590.201
603 2  935.285 284.985 2571.360
604 2  1136.908 614.502 2804.315
605 2  597.942 158.796 2619.292
606 2  537.640 942.062 2576.723
607 2  247.727 953.035 2634.228
608 2  824.913 358.622 2557.711
609 2  824.840 961.738 2724.036
610 2  646.416 233.406 2500.418
611 2  471.195 630.688 2670.478
612 2  921.914 129.925 2546.712
613 2  922.588 55.224 2644.625
614 2  675.939 1739.822 2612.407
615 2  1324.710 2393.505 2711.299
616 2  694.817 466.371 2529.429
617 2  808.474 947.890 2560.391
618 2  824.574 289.489 2684.715
619 2  577.734 717.298 2577.675
620 2  117.435 386.398 2633.027
621 2  133.867 229.586 4910.835
622 2  519.035 442.898 2746.316
623 2  685.316 757.129 2500.717
624 2  679.171 566.738 2628.513
625 2  705.853 1031.085 2651.831
626 2  617.505 1.744 2615.028
627 2  0.000 635.672 2625.080
628 2  642.430 404.374 2709.455
629 2  928.275 623.285 2553.307
630 2  247.972 820.968 2668.142
631 2  658.269 878.989 2565.082
632 2  54.148 561.660 2542.946
633 2  283.038 173.251 2579.004
634 2  641.849 101.829 2721.384
635 2  480.315 195.507 2652.342
636 2  533.680 230.256 2545.147
637 2  979.780 478.592 2584.003
638 2  877.472 835.275 2657.752
639 2  952.607 887.863 2547.406
640 2  341.634 322.007 2518.443
641 2  141.777 541.845 2643.336
642 2  286.157 40.904 2580.746
643 2  1820.169 2129.531 3207.416
644 2  0.000 0.000 3198.576
645 2  168.705 405.216 3020.808
646 2  439.566 2137.958 4085.764
647 2  1651.753 0.000 2500.019
648 2  713.476 523.459 2767.953
649 2  2500.017 3124.085 0.390
650 2  2572.601 4787.397 2494.565
651 2  2500.601 4968.206 2353.589
652 2  4999.970 3383.741 0.023
653 2  2519.390 3092.223 1140.699
654 2  3016.472 2500.024 1225.952
655 2  4912.120 4207.824 -0.000
656 2  3166.649 4999.917 0.037
657 2  4602.113 3074.217 459.813
658 2  2506.316 3424.914 2.700
659 2  4999.889 4867.476 1373.201
660 2  3765.089 2503.276 2494.199
661 2  2811.756 2556.573 733.773
662 2  2511.145 2604.822 328.627
663 2  2579.100 2709.303 507.462
664 2  2643.654 2849.647 119.895
665 2  2931.333 2792.893 403.083
666 2  2654.856 2661.528 1014.377
667 2  4615.804 4533.393 1236.891
668 2  2847.591 2663.793 178.118
669 2  2699.205 2811.947 924.359
670 2  2766.526 2609.878 16.363
671 2  2754.756 2825.550 730.872
672 2  2631.683 2678.402 33.926
673 2  2623.851 2593.522 371.530
674 2  2832.055 2530.127 848.665
675 2  2522.434 2921.259 814.025
676 2  2608.516 2524.579 1132.926
677 2  3632.790 4384.801 0.076
678 2  2825.095 2500.000 604.111
679 2  2500.000 4240.299 0.000
680 2  2575.211 2777.441 0.000
681 2  2720.686 2707.832 164.286
682 2  2693.392 2739.662 826.245
683 2  2530.307 2545.682 682.268
684 2  2667.899 2597.516 531.681
685 2  2728.377 3297.050 386.624
686 2  2595.133 2772.614 259.820
687 2  3072.434 2771.798 354.513
688 2  2805.999 5000.000 2500.000
689 2  2929.011 2681.962 326.078
690 2  2647.227 3008.297 929.816
691 2  2751.859 2904.782 534.984
692 2  2784.467 2672.149 1022.169
693 2  2634.879 2827.758 701.576
694 2  2871.545 2838.816 511.532
695 2  4890.309 2501.515 506.589
696 2  2827.506 2500.000 982.544
697 2  2976.636 2680.516 563.228
698 2  2690.192 2501.977 705.336
699 2  2846.863 2804.442 45.292
700 2  2545.570 2839.129 515.205
701 2  3011.116 5000.000 0.000
702 2  5000.000 3375.114 774.923
703 2  2616.942 4984.421 2496.961
704 2  2868.967 2713.006 502.465
705 2  2618.285 3002.104 134.657
706 2  2500.000 2567.421 168.775
707 2  2650.622 2971.767 644.810
708 2  2686.919 2500.000 318.049
709 2  2863.956 2870.487 757.488
710 2  2679.003 2608.039 794.081
711 2  2768.182 2876.138 107.659
712 2  2500.000 2940.993 468.363
713 2  4970.714 2513.101 61.455
714 2  2607.653 2591.911 102.401
715 2  2795.266 2534.793 154.442
716 2  2889.925 2722.538 697.872
717 2  2763.364 2921.068 655.192
718 2  2754.766 2717.551 35.579
719 2  2681.294 2500.000 186.676
720 2  2927.970 2733.427 829.434
721 2  2794.708 2544.185 266.092
722 2  2500.000 2627.246 450.110
723 2  2777.032 2795.418 615.818
724 2  2503.024 2625.441 570.848
725 2  2862.123 2589.260 495.926
726 2  2826.280 2520.991 47.548
727 2  2523.550 2603.378 780.273
728 2  2907.237 2813.564 166.509
729 2  2856.038 2609.705 954.082
730 2  2554.840 2850.955 933.686
731 2  4999.930 4826.851 0.166
732 2  2500.012 3962.045 2499.960
733 2  4999.971 4411.072 0.022
734 2  2500.000 3821.286 1809.553
735 2  2796.984 2817.923 237.246
736 2  2500.085 1832.459 4999.980
737 2  2508.319 474.096 3978.053
738 2  4996.037 309.651 4996.330
739 2  2589.813 387.654 4963.848
740 2  2503.243 2040.304 2999.282
741 2  4834.995 2499.369 4995.395
742 2  5000.000 1951.416 2500.000
743 2  2695.154 1183.913 3857.346
744 2  4941.666 2475.773 2500.037
745 2  3230.865 494.827 2787.452
746 2  3806.597 0.000 2538.065
747 2  4641.170 0.000 2500.000
748 2  2652.773 869.931 2770.259
749 2  2651.186 434.149 2775.310
750 2  2925.899 270.412 2646.156
751 2  2797.931 540.049 2838.631
752 2  2556.257 1098.507 2572.116
753 2  2702.676 213.320 2765.650
754 2  2665.962 585.983 2841.638
755 2  2724.303 801.161 2903.974
756 2  2555.609 823.916 2840.158
757 2  3756.848 2500.000 3515.215
758 2  2698.893 154.173 2539.850
759 2  2761.298 361.289 2786.464
760 2  2559.471 987.980 2785.878
761 2  2644.346 377.880 2500.000
762 2  2666.232 1107.503 2698.118
763 2  2749.818 802.246 2744.923
764 2  2924.811 145.796 2642.965
765 2  2563.692 368.985 2611.815
766 2  2877.455 647.614 2619.325
767 2  2932.305 501.340 2605.773
768 2  2896.228 170.768 2789.485
769 2  2725.403 38.130 2501.576
770 2  4858.382 55.155 4994.353
771 2  2588.511 267.458 2533.133
772 2  2585.376 884.383 2656.274
773 2  2744.233 923.758 2903.980
774 2  2954.153 735.099 2500.000
775 2  2798.446 535.408 2518.708
776 2  2807.408 249.856 2705.083
777 2  2897.592 385.435 2604.132
778 2  4999.998 0.003 4999.997
779 2  2755.484 2.493 2658.851
780 2  2706.517 682.132 2740.160
781 2  2841.489 640.135 2775.074
782 2  2792.646 817.979 2620.748
783 2  2548.338 622.470 2829.244
784 2  2539.553 508.042 2788.708
785 2  2599.226 164.376 2633.567
786 2  2606.994 747.735 2719.245
787 2  2773.332 455.646 2624.818
788 2  2648.199 25.434 2680.082
789 2  2805.005 190.263 2869.212
790 2  2618.600 495.774 2639.624
791 2  2850.988 749.916 2704.089
792 2  2632.439 122.215 2903.066
793 2  3235.669 959.382 3658.334
794 2  2500.010 0.043 4896.866
795 2  2866.113 528.903 2719.112
796 2  2722.814 628.000 2500.000
797 2  2578.372 347.184 2733.327
798 2  2544.593 81.546 2743.039
799 2  2639.338 375.286 2937.131
800 2  2698.894 741.887 2629.576
801 2  2500.000 248.244 2611.625
802 2  2697.932 121.015 2703.381
803 2  2800.097 298.870 2546.872
804 2  2852.703 298.043 2839.857
805 2  2554.443 1469.397 4885.511
806 2  2649.799 1042.132 2839.125
807 2  2665.047 252.371 2640.326
808 2  2867.296 881.026 2540.711
809 2  2674.275 872.174 2573.324
810 2  2557.248 782.742 2590.888
811 2  2882.407 808.781 2815.286
812 2  3422.173 2466.517 2540.098
813 2  2751.102 569.581 2718.414
814 2  2839.220 894.874 2737.145
815 2  2774.490 1050.982 2831.035
816 2  2821.955 1056.046 2727.110
817 2  4791.408 101.322 4452.634
818 2  2501.754 125.620 4992.946
819 2  2973.770 1848.828 3875.536
820 2  2514.162 2407.385 2731.399
821 2  2522.811 584.446 3912.960
822 2  2698.500 986.189 2731.909
823 2  2313.900 4970.831 2655.886
824 2  1636.058 4997.550 2505.832
825 2  2000.985 2833.958 2830.957
826 2  1.443 4391.584 4154.307
827 2  2499.999 3550.778 4999.977
828 2  1670.939 3160.358 2500.000
829 2  2401.911 2575.682 2658.715
830 2  0.098 4999.944 4414.077
831 2  1912.452 3722.256 2823.179
832 2  813.663 3679.910 2813.471
833 2  1054.690 4343.996 3021.187
834 2  451.114 2587.460 2981.085
835 2  34.234 4082.490 2556.050
836 2  0.001 2500.000 4999.998
837 2  969.783 2964.172 2500.000
838 2  97.284 2554.556 4979.233
839 2  287.416 2500.000 3061.287
840 2  788.339 2501.219 2965.919
841 2  985.207 2851.367 2500.000
842 2  1160.149 3007.208 2698.331
843 2  69.110 2884.685 2890.349
844 2  396.483 2500.000 3118.711
845 2  0.000 2995.723 3252.406
846 2  403.271 2687.918 4927.110
847 2  161.108 2796.138 2528.217
848 2  0.000 2804.235 2971.936
849 2  1569.258 3117.175 2500.000
850 2  476.370 2519.643 2733.303
851 2  8.225 3105.113 2547.157
852 2  1117.429 2880.499 2500.000
853 2  376.828 2576.835 2500.000
854 2  778.277 3035.124 2914.719
855 2  232.036 2777.231 2627.114
856 2  832.961 2743.554 2747.939
857 2  781.357 2949.722 2791.679
858 2  1005.226 2608.513 2503.832
859 2  102.845 2925.586 2589.222
860 2  339.213 2501.905 2695.821
861 2  540.579 2903.961 3109.993
862 2  717.029 3025.067 2500.000
863 2  1470.664 4054.108 3710.823
864 2  676.877 2500.000 2961.042
865 2  385.036 2827.612 3056.750
866 2  1022.887 2500.000 2500.000
867 2  163.811 3036.821 2600.566
868 2  22.060 2848.256 2671.970
869 2  2060.650 3451.248 2626.532
870 2  729.003 2982.199 2651.400
871 2  613.103 2996.790 2711.379
872 2  0.000 2605.327 3058.198
873 2  134.641 2602.853 3289.714
874 2  602.248 2500.000 2829.949
875 2  478.456 3096.330 2500.000
876 2  902.523 2500.000 2694.568
877 2  713.131 2654.215 3105.358
878 2  628.550 2667.185 2836.967
879 2  631.880 2887.848 2566.675
880 2  599.707 3051.183 2566.639
881 2  445.120 2500.000 2552.508
882 2  2500.000 3761.555 3950.864
883 2  532.308 2500.000 3666.556
884 2  404.925 2694.188 2512.062
885 2  902.195 2631.475 3019.050
886 2  514.845 2639.019 2873.301
887 2  0.089 2705.075 3989.560
888 2  601.633 3028.228 2827.831
889 2  569.886 2972.439 2951.222
890 2  19.473 4906.443 2602.360
891 2  374.034 2649.682 2635.213
892 2  1128.453 2500.003 4999.988
893 2  1003.317 2507.824 2811.978
894 2  339.812 2941.897 2539.521
895 2  107.165 2775.299 2668.867
896 2  723.271 2634.877 2545.645
897 2  435.053 2991.531 2770.511
898 2  310.047 2643.035 2994.942
899 2  296.755 3028.634 2954.694
900 2  2499.991 4182.146 2500.030
901 2  2500.000 5000.000 2879.655
902 2  818.901 2955.980 2500.000
903 2  372.397 3151.032 2569.294
904 2  350.123 2831.693 2500.000
905 2  292.551 2508.957 2919.276
906 2  1.388 4278.475 3200.810
907 2  1698.185 2505.280 5000.000
908 2  359.144 4432.033 2622.178
909 2  497.955 2953.866 2500.916
910 2  4999.984 4999.998 2500.004
911 2  4999.945 2501.139 3175.451
912 2  2764.004 4816.253 2675.497
913 2  4999.979 4999.579 4998.700
914 2  2524.724 2565.959 4658.959
915 2  4994.360 4888.699 4999.995
916 2  3923.768 4390.501 3986.844
917 2  3739.361 3314.113 2768.233
918 2  3923.698 3986.617 4316.916
919 2  4422.953 3286.100 3220.325
920 2  4555.085 2651.977 4978.840
921 2  3778.342 4999.999 4999.998
922 2  2624.833 2691.347 2500.662
923 2  4892.354 2500.001 2630.690
924 2  2995.852 2747.406 2629.498
925 2  3026.167 2983.625 2504.042
926 2  2611.154 2824.904 2693.736
927 2  3664.048 2502.784 2713.667