LAMMPS (23 Jun 2022 - Update 1)
# Read restart
read_restart ${read_res}
read_restart ./pgnpmf/37/equpmf23.res
Reading restart file ...
  restart file = 23 Jun 2022, LAMMPS = 23 Jun 2022
  restoring atom style atomic from restart
  orthogonal box = (1962.6903 1962.6903 1962.6903) to (3037.3097 3037.3097 3037.3097)
  1 by 2 by 2 MPI processor grid
  restoring pair style table from restart
  996 atoms
  read_restart CPU = 0.005 seconds

# Settings

pair_style table spline 9941

pair_coeff 1 1 ./pgnpmf/N20.txt DE_GNP 75.6
pair_coeff 2 2 ./pgnpmf/N100.txt DE_GNP 115.92
WARNING: 3 of 9941 force values in table DE_GNP are inconsistent with -dE/dr.
WARNING:  Should only be flagged at inflection points (../pair_table.cpp:463)
pair_coeff 1 2 ./pgnpmf/mixed_potential.txt DE_GNP 95.66
WARNING: 1562 of 9941 force values in table DE_GNP are inconsistent with -dE/dr.
WARNING:  Should only be flagged at inflection points (../pair_table.cpp:463)

#Neigh_list Calc Frequency

neigh_modify delay 0 every 1 check yes

# Saving Frequency (50 frames)

variable ts_save equal ${steps_equ}
variable ts_save equal 5000

# Dump
#dump 1 all custom ${ts_save} ./pgnpmf/${folder}/equilibration/trajectory/trajectory_${usic}_${trial}.equ.custom type x y z ix iy iz
#dump_modify 1 first no sort id
dump 2 all cfg 50000 ./pgnpmf/${folder}/equilibration/trajectory/dumpgen.tens_*.cfg mass type xs ys zs fx fy fz
dump 2 all cfg 50000 ./pgnpmf/37/equilibration/trajectory/dumpgen.tens_*.cfg mass type xs ys zs fx fy fz
dump_modify 2 element N20 N100

# thermo_style
thermo_style custom step temp press pe density ke etotal lx ly lz xlo xhi ylo yhi zlo zhi vol dt time cpu tpcpu spcpu cpuremain

# run info
timestep ${ts}
timestep 0.5
thermo 200

# fix

fix 1 all momentum 1000 linear 1 1 1 angular
variable T equal ${temp}
variable T equal 300
fix 2 all nvt temp ${T} 370000 100.0
fix 2 all nvt temp 300 370000 100.0

run 100000
Generated 0 of 1 mixed pair_coeff terms from geometric mixing rule
Unused restart file global fix info:
  fix style: npt, fix ID: 5
Neighbor list info ...
  update every 1 steps, delay 0 steps, check yes
  max neighbors/atom: 2000, page size: 100000
  master list distance cutoff = 117.92
  ghost atom cutoff = 117.92
  binsize = 58.96, bins = 19 19 19
  1 neighbor lists, perpetual/occasional/extra = 1 0 0
  (1) pair table, perpetual
      attributes: half, newton on
      pair build: half/bin/atomonly/newton
      stencil: half/bin/3d
      bin: standard
Per MPI rank memory allocation (min/avg/max) = 3.081 | 3.081 | 3.083 Mbytes
   Step          Temp          Press          PotEng        Density         KinEng         TotEng           Lx             Ly             Lz            Xlo            Xhi            Ylo            Yhi            Zlo            Zhi           Volume           Dt            Time           CPU           T/CPU          S/CPU         CPULeft    
  16105000   305.05035      1.5314473     -34493265       0.48211731     904.75065     -34492360       1074.6193      1074.6193      1074.6193      1962.6903      3037.3097      1962.6903      3037.3097      1962.6903      3037.3097      1.2409777e+09  0.5            8055000        0              0              0              0            
  16105200   383.44016      1.349336      -34493331       0.48211731     1137.2475     -34492194       1074.6193      1074.6193      1074.6193      1962.6903      3037.3097      1962.6903      3037.3097      1962.6903      3037.3097      1.2409777e+09  0.5            8055100        0.01840878     5431.9329      10863.272      9.1874114    
  16105400   561.16584      1.133287      -34493409       0.48211731     1664.3651     -34491745       1074.6193      1074.6193      1074.6193      1962.6903      3037.3097      1962.6903      3037.3097      1962.6903      3037.3097      1.2409777e+09  0.5            8055200        0.036626023    5489.2883      10978.549      9.1206195    
  16105600   864.75501      0.90787268    -34493506       0.48211731     2564.7821     -34490942       1074.6193      1074.6193      1074.6193      1962.6903      3037.3097      1962.6903      3037.3097      1962.6903      3037.3097      1.2409777e+09  0.5            8055300        0.054400094    5626.2215      11252.411      9.0127454    
  16105800   1353.6352      0.72089875    -34493625       0.48211731     4014.7548     -34489610       1074.6193      1074.6193      1074.6193      1962.6903      3037.3097      1962.6903      3037.3097      1962.6903      3037.3097      1.2409777e+09  0.5            8055400        0.07243955     5543.3973      11086.883      8.9828394    
  16106000   2105.4441      0.44360848    -34493771       0.48211731     6244.5494     -34487527       1074.6193      1074.6193      1074.6193      1962.6903      3037.3097      1962.6903      3037.3097      1962.6903      3037.3097      1.2409777e+09  0.5            8055500        0.090302694    5598.1209      11196.276      8.940231     
  16106200   3187.7095      0.11575217    -34493949       0.48211731     9454.4468     -34484495       1074.6193      1074.6193      1074.6193      1962.6903      3037.3097      1962.6903      3037.3097      1962.6903      3037.3097      1.2409777e+09  0.5            8055600        0.10794813     5667.2392      11334.46       8.8879382    
  16106400   4586.9586     -0.30475632    -34494162       0.48211731     13604.488     -34480558       1074.6193      1074.6193      1074.6193      1962.6903      3037.3097      1962.6903      3037.3097      1962.6903      3037.3097      1.2409777e+09  0.5            8055700        0.12573156     5623.2286      11246.431      8.8552759    
  16106600   6100.1062     -0.73109026    -34494405       0.48211731     18092.342     -34476312       1074.6193      1074.6193      1074.6193      1962.6903      3037.3097      1962.6903      3037.3097      1962.6903      3037.3097      1.2409777e+09  0.5            8055800        0.14357606     5603.9491      11207.897      8.8300862    
  16106800   7298.4555     -1.2501747     -34494671       0.48211731     21646.533     -34473024       1074.6193      1074.6193      1074.6193      1962.6903      3037.3097      1962.6903      3037.3097      1962.6903      3037.3097      1.2409777e+09  0.5            8055900        0.16183956     5475.4081      10950.792      8.8293887    
  16107000   7838.54       -1.8944226     -34494937       0.48211731     23248.373     -34471689       1074.6193      1074.6193      1074.6193      1962.6903      3037.3097      1962.6903      3037.3097      1962.6903      3037.3097      1.2409777e+09  0.5            8056000        0.18013823     5464.8888      10929.762      8.8269029    
  16107200   8134.4487     -2.6594019     -34502575       0.48211731     24126.01      -34478449       1074.6193      1074.6193      1074.6193      1962.6903      3037.3097      1962.6903      3037.3097      1962.6903      3037.3097      1.2409777e+09  0.5            8056100        0.19794051     5617.2653      11234.572      8.7994688    
  16107400   8930.4051     -3.2380253     -34502824       0.48211731     26486.742     -34476337       1074.6193      1074.6193      1074.6193      1962.6903      3037.3097      1962.6903      3037.3097      1962.6903      3037.3097      1.2409777e+09  0.5            8056200        0.21616043     5488.4866      10976.95       8.7906261    
  16107600   10100.987     -3.8071502     -34503070       0.48211731     29958.577     -34473111       1074.6193      1074.6193      1074.6193      1962.6903      3037.3097      1962.6903      3037.3097      1962.6903      3037.3097      1.2409777e+09  0.5            8056300        0.23382952     5659.6058      11319.217      8.7597095    
  16107800   10928.449     -4.4490538     -34503309       0.48211731     32412.751     -34470897       1074.6193      1074.6193      1074.6193      1962.6903      3037.3097      1962.6903      3037.3097      1962.6903      3037.3097      1.2409777e+09  0.5            8056400        0.2517413      5582.9209      11165.915      8.7391025    
  16108000   11288.202     -5.0867167     -34503528       0.48211731     33479.747     -34470048       1074.6193      1074.6193      1074.6193      1962.6903      3037.3097      1962.6903      3037.3097      1962.6903      3037.3097      1.2409777e+09  0.5            8056500        0.26993916     5495.142       10990.192      8.7281154    
  16108200   11823.316     -5.8087848     -34503718       0.48211731     35066.845     -34468651       1074.6193      1074.6193      1074.6193      1962.6903      3037.3097      1962.6903      3037.3097      1962.6903      3037.3097      1.2409777e+09  0.5            8056600        0.28971905     5055.6335      10111.327      8.7640765    
  16108400   12876.481     -6.2903475     -34501990       0.48211731     38190.431     -34463800       1074.6193      1074.6193      1074.6193      1962.6903      3037.3097      1962.6903      3037.3097      1962.6903      3037.3097      1.2409777e+09  0.5            8056700        0.3073931      5658.0255      11316.006      8.733652     
  16108600   13910.786     -6.790704      -34502127       0.48211731     41258.085     -34460869       1074.6193      1074.6193      1074.6193      1962.6903      3037.3097      1962.6903      3037.3097      1962.6903      3037.3097      1.2409777e+09  0.5            8056800        0.32517681     5623.1404      11246.333      8.7075778    
  16108800   14435.113     -7.4565774     -34504123       0.48211731     42813.188     -34461309       1074.6193      1074.6193      1074.6193      1962.6903      3037.3097      1962.6903      3037.3097      1962.6903      3037.3097      1.2409777e+09  0.5            8056900        0.34350331     5456.5444      10913.05       8.6961215    
  16109000   14816.527     -8.326698      -34511573       0.48211731     43944.428     -34467629       1074.6193      1074.6193      1074.6193      1962.6903      3037.3097      1962.6903      3037.3097      1962.6903      3037.3097      1.2409777e+09  0.5            8057000        0.36142903     5578.6088      11157.233      8.6743556    
  16109200   15660.527     -8.5501759     -34504239       0.48211731     46447.652     -34457791       1074.6193      1074.6193      1074.6193      1962.6903      3037.3097      1962.6903      3037.3097      1962.6903      3037.3097      1.2409777e+09  0.5            8057100        0.37978427     5448.0249      10896.033      8.6627543    
  16109400   16787.574     -8.9812178     -34504246       0.48211731     49790.366     -34454456       1074.6193      1074.6193      1074.6193      1962.6903      3037.3097      1962.6903      3037.3097      1962.6903      3037.3097      1.2409777e+09  0.5            8057200        0.39777844     5557.341       11114.699      8.6426947    
  16109600   17543.015     -9.2788023     -34504214       0.48211731     52030.934     -34452183       1074.6193      1074.6193      1074.6193      1962.6903      3037.3097      1962.6903      3037.3097      1962.6903      3037.3097      1.2409777e+09  0.5            8057300        0.41607086     5466.7426      10933.459      8.6290005    
  16109800   17900.334     -10.078817     -34511515       0.48211731     53090.707     -34458424       1074.6193      1074.6193      1074.6193      1962.6903      3037.3097      1962.6903      3037.3097      1962.6903      3037.3097      1.2409777e+09  0.5            8057400        0.43381816     5634.6914      11269.41       8.6041072    
  16110000   18508.847     -10.750509     -34511411       0.48211731     54895.501     -34456515       1074.6193      1074.6193      1074.6193      1962.6903      3037.3097      1962.6903      3037.3097      1962.6903      3037.3097      1.2409777e+09  0.5            8057500        0.45158452     5628.6074      11257.25       8.5801522    
  16110200   19589.476     -11.135729     -34511271       0.48211731     58100.544     -34453170       1074.6193      1074.6193      1074.6193      1962.6903      3037.3097      1962.6903      3037.3097      1962.6903      3037.3097      1.2409777e+09  0.5            8057600        0.47025379     5356.3912      10712.739      8.5731333    
  16110400   20567.245     -11.43336      -34510735       0.48211731     61000.516     -34449735       1074.6193      1074.6193      1074.6193      1962.6903      3037.3097      1962.6903      3037.3097      1962.6903      3037.3097      1.2409777e+09  0.5            8057700        0.48819626     5573.3624      11146.701      8.5525194    
  16110600   21042.256     -11.842619     -34510914       0.48211731     62409.355     -34448505       1074.6193      1074.6193      1074.6193      1962.6903      3037.3097      1962.6903      3037.3097      1962.6903      3037.3097      1.2409777e+09  0.5            8057800        0.50606459     5596.4028      11192.804      8.5308501    
  16110800   21464.436     -12.339104     -34521886       0.48211731     63661.5       -34458225       1074.6193      1074.6193      1074.6193      1962.6903      3037.3097      1962.6903      3037.3097      1962.6903      3037.3097      1.2409777e+09  0.5            8057900        0.5239173      5601.4567      11202.967      8.5091801    
  16111000   22370.387     -12.677908     -34514298       0.48211731     66348.465     -34447949       1074.6193      1074.6193      1074.6193      1962.6903      3037.3097      1962.6903      3037.3097      1962.6903      3037.3097      1.2409777e+09  0.5            8058000        0.5420542      5513.6551      11027.288      8.4922206    
  16111200   23486.705     -13.196065     -34514092       0.48211731     69659.359     -34444433       1074.6193      1074.6193      1074.6193      1962.6903      3037.3097      1962.6903      3037.3097      1962.6903      3037.3097      1.2409777e+09  0.5            8058100        0.55972371     5659.4947      11319.002      8.468113     
  16111400   24176.916     -13.769999     -34513893       0.48211731     71706.46      -34442186       1074.6193      1074.6193      1074.6193      1962.6903      3037.3097      1962.6903      3037.3097      1962.6903      3037.3097      1.2409777e+09  0.5            8058200        0.57797716     5478.4011      10956.812      8.4529504    
  16111600   24523.705     -14.162004     -34506334       0.48211731     72735.004     -34433599       1074.6193      1074.6193      1074.6193      1962.6903      3037.3097      1962.6903      3037.3097      1962.6903      3037.3097      1.2409777e+09  0.5            8058300        0.59588204     5585.0505      11170.104      8.4326672    
  16111800   25192.525     -14.508533     -34513553       0.48211731     74718.662     -34438835       1074.6193      1074.6193      1074.6193      1962.6903      3037.3097      1962.6903      3037.3097      1962.6903      3037.3097      1.2409777e+09  0.5            8058400        0.61432115     5423.2494      10846.46       8.4198481    
  16112000   26308.858     -14.822719     -34504142       0.48211731     78029.6       -34426112       1074.6193      1074.6193      1074.6193      1962.6903      3037.3097      1962.6903      3037.3097      1962.6903      3037.3097      1.2409777e+09  0.5            8058500        0.63226923     5571.6474      11143.326      8.4001803    
  16112200   27240.457     -15.365863     -34504030       0.48211731     80792.634     -34423238       1074.6193      1074.6193      1074.6193      1962.6903      3037.3097      1962.6903      3037.3097      1962.6903      3037.3097      1.2409777e+09  0.5            8058600        0.65001375     5635.5325      11271.033      8.3779864    
  16112400   27651.03      -15.884488     -34504293       0.48211731     82010.357     -34422283       1074.6193      1074.6193      1074.6193      1962.6903      3037.3097      1962.6903      3037.3097      1962.6903      3037.3097      1.2409777e+09  0.5            8058700        0.66865678     5363.9326      10727.898      8.3672763    
  16112600   28091.146     -16.169381     -34496818       0.48211731     83315.7       -34413502       1074.6193      1074.6193      1074.6193      1962.6903      3037.3097      1962.6903      3037.3097      1962.6903      3037.3097      1.2409777e+09  0.5            8058800        0.68640497     5634.3821      11268.721      8.3452695    
  16112800   29070.9       -16.346534     -34489337       0.48211731     86221.557     -34403115       1074.6193      1074.6193      1074.6193      1962.6903      3037.3097      1962.6903      3037.3097      1962.6903      3037.3097      1.2409777e+09  0.5            8058900        0.70426984     5597.5835      11195.164      8.3248602    
  16113000   30189.86      -16.847897     -34481846       0.48211731     89540.288     -34392306       1074.6193      1074.6193      1074.6193      1962.6903      3037.3097      1962.6903      3037.3097      1962.6903      3037.3097      1.2409777e+09  0.5            8059000        0.72431349     4989.0996      9978.2101      8.3296341    
  16113200   30801.209     -17.224744     -34481711       0.48211731     91353.491     -34390358       1074.6193      1074.6193      1074.6193      1962.6903      3037.3097      1962.6903      3037.3097      1962.6903      3037.3097      1.2409777e+09  0.5            8059100        0.74220442     5589.4337      11178.881      8.3090969    
  16113400   31107.366     -17.621837     -34474161       0.48211731     92261.522     -34381900       1074.6193      1074.6193      1074.6193      1962.6903      3037.3097      1962.6903      3037.3097      1962.6903      3037.3097      1.2409777e+09  0.5            8059200        0.75990155     5650.6452      11301.277      8.2865716    
  16113600   31842.466     -18.062883     -34475845       0.48211731     94441.76      -34381403       1074.6193      1074.6193      1074.6193      1962.6903      3037.3097      1962.6903      3037.3097      1962.6903      3037.3097      1.2409777e+09  0.5            8059300        0.77873455     5309.7978      10619.552      8.2763461    
  16113800   33022.311     -18.616686     -34473691       0.48211731     97941.069     -34375750       1074.6193      1074.6193      1074.6193      1962.6903      3037.3097      1962.6903      3037.3097      1962.6903      3037.3097      1.2409777e+09  0.5            8059400        0.79659037     5600.3954      11200.824      8.2556       
  16114000   33901.091     -19.005319     -34473379       0.48211731     100547.45     -34372831       1074.6193      1074.6193      1074.6193      1962.6903      3037.3097      1962.6903      3037.3097      1962.6903      3037.3097      1.2409777e+09  0.5            8059500        0.81429373     5648.702       11297.357      8.2334404    
  16114200   34237.965     -19.421812     -34465638       0.48211731     101546.59     -34364092       1074.6193      1074.6193      1074.6193      1962.6903      3037.3097      1962.6903      3037.3097      1962.6903      3037.3097      1.2409777e+09  0.5            8059600        0.83238465     5527.6122      11055.318      8.2152984    
  16114400   34711.845     -19.829463     -34465232       0.48211731     102952.07     -34362280       1074.6193      1074.6193      1074.6193      1962.6903      3037.3097      1962.6903      3037.3097      1962.6903      3037.3097      1.2409777e+09  0.5            8059700        0.84998517     5681.6613      11363.259      8.1924347    
  16114600   35782.116     -20.007875     -34464782       0.48211731     106126.39     -34358656       1074.6193      1074.6193      1074.6193      1962.6903      3037.3097      1962.6903      3037.3097      1962.6903      3037.3097      1.2409777e+09  0.5            8059800        0.86816163     5501.5868      11003.202      8.1752121    
  16114800   36894.103     -20.376438     -34462402       0.48211731     109424.44     -34352978       1074.6193      1074.6193      1074.6193      1962.6903      3037.3097      1962.6903      3037.3097      1962.6903      3037.3097      1.2409777e+09  0.5            8059900        0.88647133     5461.6006      10923.242      8.1591774    
  16115000   37423.216     -20.885013     -34461903       0.48211731     110993.74     -34350909       1074.6193      1074.6193      1074.6193      1962.6903      3037.3097      1962.6903      3037.3097      1962.6903      3037.3097      1.2409777e+09  0.5            8060000        0.90447397     5554.7473      11102.207      8.1403934    
  16115200   37723.402     -21.242484     -34461405       0.48211731     111884.06     -34349521       1074.6193      1074.6193      1074.6193      1962.6903      3037.3097      1962.6903      3037.3097      1962.6903      3037.3097      1.2409777e+09  0.5            8060100        0.9237332      5192.2994      10390.879      8.1324987    
  16115400   38550.833     -21.437276     -34453549       0.48211731     114338.15     -34339211       1074.6193      1074.6193      1074.6193      1962.6903      3037.3097      1962.6903      3037.3097      1962.6903      3037.3097      1.2409777e+09  0.5            8060200        0.94195933     5486.6421      10973.336      8.115364     
  16115600   39767.623     -21.964544     -34460470       0.48211731     117947.03     -34342523       1074.6193      1074.6193      1074.6193      1962.6903      3037.3097      1962.6903      3037.3097      1962.6903      3037.3097      1.2409777e+09  0.5            8060300        0.95979556     5606.5443      11213.051      8.0949024    
  16115800   40570.749     -22.340601     -34460053       0.48211731     120329.03     -34339724       1074.6193      1074.6193      1074.6193      1962.6903      3037.3097      1962.6903      3037.3097      1962.6903      3037.3097      1.2409777e+09  0.5            8060400        0.97838553     5379.2694      10758.574      8.0807607    
  16116000   40846.879     -22.906123     -34460050       0.48211731     121148        -34338902       1074.6193      1074.6193      1074.6193      1962.6903      3037.3097      1962.6903      3037.3097      1962.6903      3037.3097      1.2409777e+09  0.5            8060500        0.99617965     5619.845       11239.643      8.0600199    
  16116200   41382.185     -23.542759     -34461631       0.48211731     122735.67     -34338895       1074.6193      1074.6193      1074.6193      1962.6903      3037.3097      1962.6903      3037.3097      1962.6903      3037.3097      1.2409777e+09  0.5            8060600        1.0138586      5656.3089      11312.703      8.0384726    
  16116400   42555.259     -23.965855     -34461394       0.48211731     126214.9      -34335179       1074.6193      1074.6193      1074.6193      1962.6903      3037.3097      1962.6903      3037.3097      1962.6903      3037.3097      1.2409777e+09  0.5            8060700        1.0317237      5597.6314      11195.24       8.018504     
  16116600   43634.557     -24.372924     -34461216       0.48211731     129415.99     -34331800       1074.6193      1074.6193      1074.6193      1962.6903      3037.3097      1962.6903      3037.3097      1962.6903      3037.3097      1.2409777e+09  0.5            8060800        1.0493919      5659.881       11319.779      7.9971093    
  16116800   44039.76      -24.86087      -34453726       0.48211731     130617.79     -34323109       1074.6193      1074.6193      1074.6193      1962.6903      3037.3097      1962.6903      3037.3097      1962.6903      3037.3097      1.2409777e+09  0.5            8060900        1.0675083      5519.865       11039.73       7.9791905    
  16117000   44308.67      -25.531316     -34457474       0.48211731     131415.35     -34326058       1074.6193      1074.6193      1074.6193      1962.6903      3037.3097      1962.6903      3037.3097      1962.6903      3037.3097      1.2409777e+09  0.5            8061000        1.0852665      5631.2223      11262.424      7.9586396    
  16117200   45288.467     -26.260271     -34455601       0.48211731     134321.34     -34321279       1074.6193      1074.6193      1074.6193      1962.6903      3037.3097      1962.6903      3037.3097      1962.6903      3037.3097      1.2409777e+09  0.5            8061100        1.1032221      5569.2922      11138.642      7.9395988    
  16117400   46628.263     -26.45881      -34448286       0.48211731     138295.04     -34309991       1074.6193      1074.6193      1074.6193      1962.6903      3037.3097      1962.6903      3037.3097      1962.6903      3037.3097      1.2409777e+09  0.5            8061200        1.1214925      5473.3264      10946.613      7.9228195    
  16117600   47298.965     -27.178739     -34448374       0.48211731     140284.28     -34308090       1074.6193      1074.6193      1074.6193      1962.6903      3037.3097      1962.6903      3037.3097      1962.6903      3037.3097      1.2409777e+09  0.5            8061300        1.139373       5592.6673      11185.303      7.9032876    
  16117800   47327.472     -27.995844     -34455849       0.48211731     140368.83     -34315480       1074.6193      1074.6193      1074.6193      1962.6903      3037.3097      1962.6903      3037.3097      1962.6903      3037.3097      1.2409777e+09  0.5            8061400        1.1577308      5447.2898      10894.597      7.887058     
  16118000   47970.944     -28.537762     -34448571       0.48211731     142277.31     -34306293       1074.6193      1074.6193      1074.6193      1962.6903      3037.3097      1962.6903      3037.3097      1962.6903      3037.3097      1.2409777e+09  0.5            8061500        1.1760955      5441.7451      10883.513      7.8708879    
  16118200   50029.314     -28.775927     -34448662       0.48211731     148382.24     -34300280       1074.6193      1074.6193      1074.6193      1962.6903      3037.3097      1962.6903      3037.3097      1962.6903      3037.3097      1.2409777e+09  0.5            8061600        1.1942482      5512.3747      11024.701      7.8531034    
  16118400   51052.382     -29.23224      -34448724       0.48211731     151416.57     -34297308       1074.6193      1074.6193      1074.6193      1962.6903      3037.3097      1962.6903      3037.3097      1962.6903      3037.3097      1.2409777e+09  0.5            8061700        1.2121615      5582.4795      11164.977      7.8338354    
  16118600   49217.255     -30.252289     -34441377       0.48211731     145973.75     -34295404       1074.6193      1074.6193      1074.6193      1962.6903      3037.3097      1962.6903      3037.3097      1962.6903      3037.3097      1.2409777e+09  0.5            8061800        1.2305343      5442.798       10885.614      7.8175279    
  16118800   47815.297     -31.096144     -34448761       0.48211731     141815.68     -34306945       1074.6193      1074.6193      1074.6193      1962.6903      3037.3097      1962.6903      3037.3097      1962.6903      3037.3097      1.2409777e+09  0.5            8061900        1.2491703      5365.944       10731.839      7.8028054    
  16119000   51362.099     -31.670145     -34452530       0.48211731     152335.16     -34300195       1074.6193      1074.6193      1074.6193      1962.6903      3037.3097      1962.6903      3037.3097      1962.6903      3037.3097      1.2409777e+09  0.5            8062000        1.2672193      5540.4916      11080.989      7.7843628    
  16119200   52786.449     -32.328146     -34459830       0.48211731     156559.65     -34303271       1074.6193      1074.6193      1074.6193      1962.6903      3037.3097      1962.6903      3037.3097      1962.6903      3037.3097      1.2409777e+09  0.5            8062100        1.2852215      5554.8794      11109.801      7.7656493    
  16119400   53828.887     -32.784479     -34459697       0.48211731     159651.42     -34300045       1074.6193      1074.6193      1074.6193      1962.6903      3037.3097      1962.6903      3037.3097      1962.6903      3037.3097      1.2409777e+09  0.5            8062200        1.3031512      5577.2822      11154.551      7.7465257    
  16119600   54697.332     -33.199384     -34463288       0.48211731     162227.15     -34301061       1074.6193      1074.6193      1074.6193      1962.6903      3037.3097      1962.6903      3037.3097      1962.6903      3037.3097      1.2409777e+09  0.5            8062300        1.3257519      4424.6333      8849.2321      7.7547572    
  16119800   55530.898     -33.810033     -34479678       0.48211731     164699.42     -34314979       1074.6193      1074.6193      1074.6193      1962.6903      3037.3097      1962.6903      3037.3097      1962.6903      3037.3097      1.2409777e+09  0.5            8062400        1.3436503      5587.1309      11174.269      7.7350839    
  16120000   56567.308     -34.085832     -34488644       0.48211731     167773.32     -34320870       1074.6193      1074.6193      1074.6193      1962.6903      3037.3097      1962.6903      3037.3097      1962.6903      3037.3097      1.2409777e+09  0.5            8062500        1.3619795      5455.7683      10911.544      7.7178992    
  16120200   57087.427     -34.561098     -34488274       0.48211731     169315.94     -34318958       1074.6193      1074.6193      1074.6193      1962.6903      3037.3097      1962.6903      3037.3097      1962.6903      3037.3097      1.2409777e+09  0.5            8062600        1.3802629      5469.4264      10938.838      7.7004298    
  16120400   56712.96      -34.972191     -34485945       0.48211731     168205.31     -34317740       1074.6193      1074.6193      1074.6193      1962.6903      3037.3097      1962.6903      3037.3097      1962.6903      3037.3097      1.2409777e+09  0.5            8062700        1.3986135      5449.4086      10898.872      7.6833073    
  16120600   57195.413     -35.126883     -34490924       0.48211731     169636.22     -34321287       1074.6193      1074.6193      1074.6193      1962.6903      3037.3097      1962.6903      3037.3097      1962.6903      3037.3097      1.2409777e+09  0.5            8062800        1.4166495      5544.4903      11089          7.6644531    
  16120800   59902.858     -34.605816     -34468204       0.48211731     177666.25     -34290538       1074.6193      1074.6193      1074.6193      1962.6903      3037.3097      1962.6903      3037.3097      1962.6903      3037.3097      1.2409777e+09  0.5            8062900        1.4347781      5516.1555      11032.248      7.6461103    
  16121000   60587.351     -34.661261     -34460109       0.48211731     179696.39     -34280413       1074.6193      1074.6193      1074.6193      1962.6903      3037.3097      1962.6903      3037.3097      1962.6903      3037.3097      1.2409777e+09  0.5            8063000        1.4528476      5534.2101      11068.456      7.6274633    
  16121200   58630.792     -34.765673     -34451900       0.48211731     173893.42     -34278007       1074.6193      1074.6193      1074.6193      1962.6903      3037.3097      1962.6903      3037.3097      1962.6903      3037.3097      1.2409777e+09  0.5            8063100        1.4710185      5503.3102      11006.682      7.6093546    
  16121400   56592.411     -35.041832     -34450939       0.48211731     167847.77     -34283091       1074.6193      1074.6193      1074.6193      1962.6903      3037.3097      1962.6903      3037.3097      1962.6903      3037.3097      1.2409777e+09  0.5            8063200        1.4893361      5459.223       10918.321      7.5919951    
  16121600   60737.869     -34.480155     -34449832       0.48211731     180142.81     -34269689       1074.6193      1074.6193      1074.6193      1962.6903      3037.3097      1962.6903      3037.3097      1962.6903      3037.3097      1.2409777e+09  0.5            8063300        1.5071758      5605.4619      11210.917      7.5722101    
  16121800   62667.914     -34.298602     -34455901       0.48211731     185867.14     -34270034       1074.6193      1074.6193      1074.6193      1962.6903      3037.3097      1962.6903      3037.3097      1962.6903      3037.3097      1.2409777e+09  0.5            8063400        1.5254794      5463.3846      10926.832      7.5547691    
  16122000   63481.614     -33.760707     -34454398       0.48211731     188280.5      -34266117       1074.6193      1074.6193      1074.6193      1962.6903      3037.3097      1962.6903      3037.3097      1962.6903      3037.3097      1.2409777e+09  0.5            8063500        1.5433683      5590.0524      11180.084      7.5352821    
  16122200   64021.4       -33.359941     -34454619       0.48211731     189881.45     -34264738       1074.6193      1074.6193      1074.6193      1962.6903      3037.3097      1962.6903      3037.3097      1962.6903      3037.3097      1.2409777e+09  0.5            8063600        1.5617168      5450.0519      10900.154      7.518045     
  16122400   65256.498     -32.876475     -34452787       0.48211731     193544.64     -34259242       1074.6193      1074.6193      1074.6193      1962.6903      3037.3097      1962.6903      3037.3097      1962.6903      3037.3097      1.2409777e+09  0.5            8063700        1.5801203      5433.7207      10867.385      7.5010445    
  16122600   67135.214     -32.263671     -34443789       0.48211731     199116.74     -34244672       1074.6193      1074.6193      1074.6193      1962.6903      3037.3097      1962.6903      3037.3097      1962.6903      3037.3097      1.2409777e+09  0.5            8063800        1.5984101      5467.4662      10934.947      7.4834798    
  16122800   67251.641     -31.768504     -34439773       0.48211731     199462.05     -34240310       1074.6193      1074.6193      1074.6193      1962.6903      3037.3097      1962.6903      3037.3097      1962.6903      3037.3097      1.2409777e+09  0.5            8063900        1.6163435      5576.2851      11152.57       7.4642502    
  16123000   64645.244     -31.547409     -34435708       0.48211731     191731.72     -34243977       1074.6193      1074.6193      1074.6193      1962.6903      3037.3097      1962.6903      3037.3097      1962.6903      3037.3097      1.2409777e+09  0.5            8064000        1.6345622      5488.7721      10971.434      7.4463988    
  16123200   64559.604     -31.018627     -34433562       0.48211731     191477.72     -34242084       1074.6193      1074.6193      1074.6193      1962.6903      3037.3097      1962.6903      3037.3097      1962.6903      3037.3097      1.2409777e+09  0.5            8064100        1.6524138      5601.8596      11210.122      7.4267941    
  16123400   68343.443     -30.194134     -34431400       0.48211731     202700.23     -34228700       1074.6193      1074.6193      1074.6193      1962.6903      3037.3097      1962.6903      3037.3097      1962.6903      3037.3097      1.2409777e+09  0.5            8064200        1.6706159      5493.8444      10987.676      7.40883      
  16123600   69180.838     -29.275325     -34414494       0.48211731     205183.86     -34209310       1074.6193      1074.6193      1074.6193      1962.6903      3037.3097      1962.6903      3037.3097      1962.6903      3037.3097      1.2409777e+09  0.5            8064300        1.6887414      5517.0773      11034.131      7.3905251    
  16123800   69712.12      -28.717741     -34405049       0.48211731     206759.6      -34198290       1074.6193      1074.6193      1074.6193      1962.6903      3037.3097      1962.6903      3037.3097      1962.6903      3037.3097      1.2409777e+09  0.5            8064400        1.7066842      5573.2801      11146.653      7.3714342    
  16124000   71481.235     -28.188102     -34395718       0.48211731     212006.62     -34183711       1074.6193      1074.6193      1074.6193      1962.6903      3037.3097      1962.6903      3037.3097      1962.6903      3037.3097      1.2409777e+09  0.5            8064500        1.7250367      5448.8967      10897.77       7.354114     
  16124200   73834.79      -27.587236     -34393871       0.48211731     218987.05     -34174884       1074.6193      1074.6193      1074.6193      1962.6903      3037.3097      1962.6903      3037.3097      1962.6903      3037.3097      1.2409777e+09  0.5            8064600        1.7428929      5600.2446      11200.458      7.3346853    
  16124400   72843.97      -27.651172     -34392153       0.48211731     216048.37     -34176104       1074.6193      1074.6193      1074.6193      1962.6903      3037.3097      1962.6903      3037.3097      1962.6903      3037.3097      1.2409777e+09  0.5            8064700        1.7612455      5448.8293      10897.672      7.3173501    
  16124600   68488.73      -27.722139     -34390614       0.48211731     203131.14     -34187483       1074.6193      1074.6193      1074.6193      1962.6903      3037.3097      1962.6903      3037.3097      1962.6903      3037.3097      1.2409777e+09  0.5            8064800        1.7796041      5447.0432      10894.067      7.3000194    
  16124800   70931.184     -26.938065     -34389264       0.48211731     210375.22     -34178888       1074.6193      1074.6193      1074.6193      1962.6903      3037.3097      1962.6903      3037.3097      1962.6903      3037.3097      1.2409777e+09  0.5            8064900        1.797324       5643.3644      11286.752      7.2800804    
  16125000   73934.575     -26.368102     -34378766       0.48211731     219283        -34159483       1074.6193      1074.6193      1074.6193      1962.6903      3037.3097      1962.6903      3037.3097      1962.6903      3037.3097      1.2409777e+09  0.5            8065000        1.8154869      5505.7287      11011.436      7.2619583    
  16125200   75199.151     -26.029865     -34379530       0.48211731     223033.61     -34156497       1074.6193      1074.6193      1074.6193      1962.6903      3037.3097      1962.6903      3037.3097      1962.6903      3037.3097      1.2409777e+09  0.5            8065100        1.8332024      5644.8059      11289.635      7.2420669    
  16125400   76266.114     -26.471247     -34395144       0.48211731     226198.12     -34168946       1074.6193      1074.6193      1074.6193      1962.6903      3037.3097      1962.6903      3037.3097      1962.6903      3037.3097      1.2409777e+09  0.5            8065200        1.8511271      5578.8871      11157.769      7.2230353    
  16125600   77358.945     -26.489033     -34398337       0.48211731     229439.36     -34168898       1074.6193      1074.6193      1074.6193      1962.6903      3037.3097      1962.6903      3037.3097      1962.6903      3037.3097      1.2409777e+09  0.5            8065300        1.8695466      5429.0299      10858.074      7.2059318    
  16125800   78664.916     -26.375753     -34390046       0.48211731     233312.75     -34156734       1074.6193      1074.6193      1074.6193      1962.6903      3037.3097      1962.6903      3037.3097      1962.6903      3037.3097      1.2409777e+09  0.5            8065400        1.8873782      5608.0311      11216.064      7.1865645    
  16126000   78552.832     -26.056052     -34385384       0.48211731     232980.31     -34152404       1074.6193      1074.6193      1074.6193      1962.6903      3037.3097      1962.6903      3037.3097      1962.6903      3037.3097      1.2409777e+09  0.5            8065500        1.9054398      5536.5596      11073.033      7.1680932    
  16126200   76807.863     -25.931551     -34377171       0.48211731     227804.9      -34149366       1074.6193      1074.6193      1074.6193      1962.6903      3037.3097      1962.6903      3037.3097      1962.6903      3037.3097      1.2409777e+09  0.5            8065600        1.9244031      5273.3493      10546.767      7.1529796    
  16126400   77857.76      -26.260339     -34376375       0.48211731     230918.8      -34145456       1074.6193      1074.6193      1074.6193      1962.6903      3037.3097      1962.6903      3037.3097      1962.6903      3037.3097      1.2409777e+09  0.5            8065700        1.9426889      5468.7214      10937.357      7.135308     
  16126600   82143.619     -25.79659      -34375593       0.48211731     243630.25     -34131962       1074.6193      1074.6193      1074.6193      1962.6903      3037.3097      1962.6903      3037.3097      1962.6903      3037.3097      1.2409777e+09  0.5            8065800        1.960519       5608.4869      11217.08       7.1159674    
  16126800   81866.151     -26.041534     -34369677       0.48211731     242807.31     -34126869       1074.6193      1074.6193      1074.6193      1962.6903      3037.3097      1962.6903      3037.3097      1962.6903      3037.3097      1.2409777e+09  0.5            8065900        1.9788439      5457.1054      10914.202      7.0984306    
  16127000   79859.196     -26.291094     -34366987       0.48211731     236854.87     -34130132       1074.6193      1074.6193      1074.6193      1962.6903      3037.3097      1962.6903      3037.3097      1962.6903      3037.3097      1.2409777e+09  0.5            8066000        1.9970498      5492.7029      10985.399      7.0804583    
  16127200   81121.048     -26.251584     -34365481       0.48211731     240597.4      -34124883       1074.6193      1074.6193      1074.6193      1962.6903      3037.3097      1962.6903      3037.3097      1962.6903      3037.3097      1.2409777e+09  0.5            8066100        2.0147999      5633.7685      11259.92       7.0609269    
  16127400   86421.86      -25.677756     -34364704       0.48211731     256319.11     -34108385       1074.6193      1074.6193      1074.6193      1962.6903      3037.3097      1962.6903      3037.3097      1962.6903      3037.3097      1.2409777e+09  0.5            8066200        2.0329801      5500.4826      11008.271      7.0428323    
  16127600   84531.523     -26.043857     -34363896       0.48211731     250712.55     -34113183       1074.6193      1074.6193      1074.6193      1962.6903      3037.3097      1962.6903      3037.3097      1962.6903      3037.3097      1.2409777e+09  0.5            8066300        2.0507864      5615.9895      11231.907      7.0234989    
  16127800   81619.897     -26.37058      -34370474       0.48211731     242076.94     -34128397       1074.6193      1074.6193      1074.6193      1962.6903      3037.3097      1962.6903      3037.3097      1962.6903      3037.3097      1.2409777e+09  0.5            8066400        2.0687994      5551.5347      11103.1        7.0048913    
  16128000   84254.043     -26.493639     -34371553       0.48211731     249889.57     -34121663       1074.6193      1074.6193      1074.6193      1962.6903      3037.3097      1962.6903      3037.3097      1962.6903      3037.3097      1.2409777e+09  0.5            8066500        2.0869325      5514.7939      11029.599      6.9866959    
  16128200   88103.937     -25.836777     -34363293       0.48211731     261308        -34101985       1074.6193      1074.6193      1074.6193      1962.6903      3037.3097      1962.6903      3037.3097      1962.6903      3037.3097      1.2409777e+09  0.5            8066600        2.1047148      5623.5818      11247.148      6.9673407    
  16128400   86880.299     -25.934453     -34360453       0.48211731     257678.8      -34102775       1074.6193      1074.6193      1074.6193      1962.6903      3037.3097      1962.6903      3037.3097      1962.6903      3037.3097      1.2409777e+09  0.5            8066700        2.122872       5507.4222      11014.863      6.9492394    
  16128600   85856.364     -25.941988     -34361347       0.48211731     254641.9      -34106705       1074.6193      1074.6193      1074.6193      1962.6903      3037.3097      1962.6903      3037.3097      1962.6903      3037.3097      1.2409777e+09  0.5            8066800        2.1405122      5668.9346      11337.864      6.9294625    
  16128800   88692.61      -25.39995      -34360270       0.48211731     263053.94     -34097216       1074.6193      1074.6193      1074.6193      1962.6903      3037.3097      1962.6903      3037.3097      1962.6903      3037.3097      1.2409777e+09  0.5            8066900        2.1585416      5546.4726      11092.949      6.9109689    
  16129000   92545.908     -25.080778     -34366441       0.48211731     274482.46     -34091958       1074.6193      1074.6193      1074.6193      1962.6903      3037.3097      1962.6903      3037.3097      1962.6903      3037.3097      1.2409777e+09  0.5            8067000        2.1768153      5472.3548      10944.683      6.8932563    
  16129200   90143.566     -25.055367     -34372482       0.48211731     267357.34     -34105124       1074.6193      1074.6193      1074.6193      1962.6903      3037.3097      1962.6903      3037.3097      1962.6903      3037.3097      1.2409777e+09  0.5            8067100        2.1950882      5472.5665      10945.138      6.8755322    
  16129400   88582.457     -25.249319     -34371419       0.48211731     262727.24     -34108691       1074.6193      1074.6193      1074.6193      1962.6903      3037.3097      1962.6903      3037.3097      1962.6903      3037.3097      1.2409777e+09  0.5            8067200        2.2129785      5589.6078      11179.205      6.8566136    
  16129600   89691.202     -24.427776     -34362513       0.48211731     266015.67     -34096497       1074.6193      1074.6193      1074.6193      1962.6903      3037.3097      1962.6903      3037.3097      1962.6903      3037.3097      1.2409777e+09  0.5            8067300        2.231211       5484.7234      10969.457      6.8387602    
  16129800   91855.83      -24.219972     -34360864       0.48211731     272435.76     -34088428       1074.6193      1074.6193      1074.6193      1962.6903      3037.3097      1962.6903      3037.3097      1962.6903      3037.3097      1.2409777e+09  0.5            8067400        2.2490765      5597.3905      11194.8        6.8197883    
  16130000   93403.061     -23.608939     -34344349       0.48211731     277024.7      -34067325       1074.6193      1074.6193      1074.6193      1962.6903      3037.3097      1962.6903      3037.3097      1962.6903      3037.3097      1.2409777e+09  0.5            8067500        2.2673494      5472.5974      10945.195      6.8020556    
  16130200   93959.405     -23.27513      -34342508       0.48211731     278674.76     -34063833       1074.6193      1074.6193      1074.6193      1962.6903      3037.3097      1962.6903      3037.3097      1962.6903      3037.3097      1.2409777e+09  0.5            8067600        2.285688       5452.9112      10905.784      6.7845107    
  16130400   96699.901     -22.742047     -34347965       0.48211731     286802.82     -34061162       1074.6193      1074.6193      1074.6193      1962.6903      3037.3097      1962.6903      3037.3097      1962.6903      3037.3097      1.2409777e+09  0.5            8067700        2.3035563      5596.5578      11193.155      6.7655702    
  16130600   97861.876     -21.670985     -34345999       0.48211731     290249.12     -34055750       1074.6193      1074.6193      1074.6193      1962.6903      3037.3097      1962.6903      3037.3097      1962.6903      3037.3097      1.2409777e+09  0.5            8067800        2.3217159      5506.7283      11013.447      6.7474943    
  16130800   93598.082     -21.920913     -34344051       0.48211731     277603.11     -34066448       1074.6193      1074.6193      1074.6193      1962.6903      3037.3097      1962.6903      3037.3097      1962.6903      3037.3097      1.2409777e+09  0.5            8067900        2.3394779      5630.0226      11260.064      6.7282727    
  16131000   92399         -21.792849     -34356955       0.48211731     274046.75     -34082908       1074.6193      1074.6193      1074.6193      1962.6903      3037.3097      1962.6903      3037.3097      1962.6903      3037.3097      1.2409777e+09  0.5            8068000        2.3575633      5529.3192      11051.642      6.7100272    
  16131200   98193.691     -20.705036     -34357047       0.48211731     291233.26     -34065814       1074.6193      1074.6193      1074.6193      1962.6903      3037.3097      1962.6903      3037.3097      1962.6903      3037.3097      1.2409777e+09  0.5            8068100        2.3757896      5486.5641      10979.995      6.6921167    
  16131400   98646.127     -20.688476     -34371940       0.48211731     292575.14     -34079365       1074.6193      1074.6193      1074.6193      1962.6903      3037.3097      1962.6903      3037.3097      1962.6903      3037.3097      1.2409777e+09  0.5            8068200        2.3941366      5450.4672      10900.955      6.6745697    
  16131600   97509.916     -20.44826      -34370257       0.48211731     289205.25     -34081052       1074.6193      1074.6193      1074.6193      1962.6903      3037.3097      1962.6903      3037.3097      1962.6903      3037.3097      1.2409777e+09  0.5            8068300        2.4120282      5589.2135      11178.411      6.6557541    
  16131800   98793.374     -19.904126     -34359395       0.48211731     293011.86     -34066383       1074.6193      1074.6193      1074.6193      1962.6903      3037.3097      1962.6903      3037.3097      1962.6903      3037.3097      1.2409777e+09  0.5            8068400        2.4301704      5511.9836      11023.985      6.6376368    
  16132000   103971.39     -18.778255     -34357883       0.48211731     308369.38     -34049513       1074.6193      1074.6193      1074.6193      1962.6903      3037.3097      1962.6903      3037.3097      1962.6903      3037.3097      1.2409777e+09  0.5            8068500        2.4480051      5607.0551      11214.023      6.6186877    
  16132200   102857.57     -18.387403     -34354542       0.48211731     305065.89     -34049476       1074.6193      1074.6193      1074.6193      1962.6903      3037.3097      1962.6903      3037.3097      1962.6903      3037.3097      1.2409777e+09  0.5            8068600        2.4662309      5486.739       10973.498      6.6008016    
  16132400   97445.269     -18.749954     -34353216       0.48211731     289013.51     -34064203       1074.6193      1074.6193      1074.6193      1962.6903      3037.3097      1962.6903      3037.3097      1962.6903      3037.3097      1.2409777e+09  0.5            8068700        2.4842844      5539.0743      11078.155      6.5824542    
  16132600   99166.896     -18.354518     -34359372       0.48211731     294119.69     -34065252       1074.6193      1074.6193      1074.6193      1962.6903      3037.3097      1962.6903      3037.3097      1962.6903      3037.3097      1.2409777e+09  0.5            8068800        2.5022307      5572.2047      11144.46       6.5638295    
  16132800   105732.88     -16.548627     -34345330       0.48211731     313593.78     -34031736       1074.6193      1074.6193      1074.6193      1962.6903      3037.3097      1962.6903      3037.3097      1962.6903      3037.3097      1.2409777e+09  0.5            8068900        2.5204736      5481.5849      10963.167      6.5459849    
  16133000   103691.58     -16.766948     -34344173       0.48211731     307539.48     -34036633       1074.6193      1074.6193      1074.6193      1962.6903      3037.3097      1962.6903      3037.3097      1962.6903      3037.3097      1.2409777e+09  0.5            8069000        2.5382073      5638.9856      11277.923      6.5268256    
  16133200   101776.52     -17.0104       -34367055       0.48211731     301859.59     -34065196       1074.6193      1074.6193      1074.6193      1962.6903      3037.3097      1962.6903      3037.3097      1962.6903      3037.3097      1.2409777e+09  0.5            8069100        2.5563712      5505.4532      11010.903      6.5087812    
  16133400   104807.98     -16.073251     -34364021       0.48211731     310850.62     -34053171       1074.6193      1074.6193      1074.6193      1962.6903      3037.3097      1962.6903      3037.3097      1962.6903      3037.3097      1.2409777e+09  0.5            8069200        2.5746369      5474.7387      10949.519      6.4909924    
  16133600   108611.76     -15.212064     -34350344       0.48211731     322132.28     -34028211       1074.6193      1074.6193      1074.6193      1962.6903      3037.3097      1962.6903      3037.3097      1962.6903      3037.3097      1.2409777e+09  0.5            8069300        2.5928727      5483.6942      10967.39       6.4731222    
  16133800   107379.67     -14.962896     -34345307       0.48211731     318478        -34026829       1074.6193      1074.6193      1074.6193      1962.6903      3037.3097      1962.6903      3037.3097      1962.6903      3037.3097      1.2409777e+09  0.5            8069400        2.6107086      5606.6389      11213.268      6.4542587    
  16134000   102621.49     -15.37428      -34364634       0.48211731     304365.69     -34060268       1074.6193      1074.6193      1074.6193      1962.6903      3037.3097      1962.6903      3037.3097      1962.6903      3037.3097      1.2409777e+09  0.5            8069500        2.6284868      5624.8943      11249.816      6.4352671    
  16134200   102088.07     -15.074079     -34355919       0.48211731     302783.61     -34053136       1074.6193      1074.6193      1074.6193      1962.6903      3037.3097      1962.6903      3037.3097      1962.6903      3037.3097      1.2409777e+09  0.5            8069600        2.6465922      5523.2312      11046.462      6.4170857    
  16134400   109811.5      -14.011083     -34361841       0.48211731     325690.58     -34036150       1074.6193      1074.6193      1074.6193      1962.6903      3037.3097      1962.6903      3037.3097      1962.6903      3037.3097      1.2409777e+09  0.5            8069700        2.6643317      5637.1352      11274.25       6.3980274    
  16134600   110972.44     -13.408707     -34360215       0.48211731     329133.82     -34031081       1074.6193      1074.6193      1074.6193      1962.6903      3037.3097      1962.6903      3037.3097      1962.6903      3037.3097      1.2409777e+09  0.5            8069800        2.6831457      5315.1592      10630.315      6.3815421    
  16134800   109706.6      -13.350531     -34373237       0.48211731     325379.45     -34047857       1074.6193      1074.6193      1074.6193      1962.6903      3037.3097      1962.6903      3037.3097      1962.6903      3037.3097      1.2409777e+09  0.5            8069900        2.7012334      5528.6372      11057.273      6.3633143    
  16135000   109461.42     -12.80465      -34364032       0.48211731     324652.28     -34039379       1074.6193      1074.6193      1074.6193      1962.6903      3037.3097      1962.6903      3037.3097      1962.6903      3037.3097      1.2409777e+09  0.5            8070000        2.7192086      5563.1886      11126.349      6.3448266    
  16135200   114160        -11.643602     -34363975       0.48211731     338587.84     -34025387       1074.6193      1074.6193      1074.6193      1962.6903      3037.3097      1962.6903      3037.3097      1962.6903      3037.3097      1.2409777e+09  0.5            8070100        2.7374978      5467.7322      10935.506      6.3270703    
  16135400   115983.4      -11.140959     -34376660       0.48211731     343995.87     -34032664       1074.6193      1074.6193      1074.6193      1962.6903      3037.3097      1962.6903      3037.3097      1962.6903      3037.3097      1.2409777e+09  0.5            8070200        2.7554274      5577.3867      11154.783      6.3084843    
  16135600   110904.65     -11.160185     -34374525       0.48211731     328932.77     -34045592       1074.6193      1074.6193      1074.6193      1962.6903      3037.3097      1962.6903      3037.3097      1962.6903      3037.3097      1.2409777e+09  0.5            8070300        2.7739166      5408.5751      10817.157      6.291176     
  16135800   106362.91     -10.844235     -34357672       0.48211731     315462.4      -34042210       1074.6193      1074.6193      1074.6193      1962.6903      3037.3097      1962.6903      3037.3097      1962.6903      3037.3097      1.2409777e+09  0.5            8070400        2.7919326      5550.5773      11101.062      6.2727897    
  16136000   115250.38     -9.3554431     -34348196       0.48211731     341821.8      -34006375       1074.6193      1074.6193      1074.6193      1962.6903      3037.3097      1962.6903      3037.3097      1962.6903      3037.3097      1.2409777e+09  0.5            8070500        2.8098893      5568.8934      11137.8        6.2542765    
  16136200   117209.29     -8.8989678     -34355318       0.48211731     347631.74     -34007686       1074.6193      1074.6193      1074.6193      1962.6903      3037.3097      1962.6903      3037.3097      1962.6903      3037.3097      1.2409777e+09  0.5            8070600        2.82831        5428.6889      10857.373      6.2367927    
  16136400   115852.7      -7.9399324     -34329156       0.48211731     343608.21     -33985548       1074.6193      1074.6193      1074.6193      1962.6903      3037.3097      1962.6903      3037.3097      1962.6903      3037.3097      1.2409777e+09  0.5            8070700        2.8461714      5598.7493      11197.548      6.2180741    
  16136600   115164.41     -7.5105914     -34330862       0.48211731     341566.81     -33989295       1074.6193      1074.6193      1074.6193      1962.6903      3037.3097      1962.6903      3037.3097      1962.6903      3037.3097      1.2409777e+09  0.5            8070800        2.8643621      5497.2514      10994.49       6.2000812    
  16136800   119057.04     -6.5334477     -34328863       0.48211731     353111.99     -33975751       1074.6193      1074.6193      1074.6193      1962.6903      3037.3097      1962.6903      3037.3097      1962.6903      3037.3097      1.2409777e+09  0.5            8070900        2.882832       5414.2203      10828.487      6.1826833    
  16137000   122116.96     -5.302099      -34326869       0.48211731     362187.41     -33964682       1074.6193      1074.6193      1074.6193      1962.6903      3037.3097      1962.6903      3037.3097      1962.6903      3037.3097      1.2409777e+09  0.5            8071000        2.901114       5469.8623      10939.707      6.1648731    
  16137200   118184.1      -5.4822257     -34326812       0.48211731     350522.94     -33976289       1074.6193      1074.6193      1074.6193      1962.6903      3037.3097      1962.6903      3037.3097      1962.6903      3037.3097      1.2409777e+09  0.5            8071100        2.9190268      5582.651       11165.202      6.1462795    
  16137400   111465.07     -5.6541403     -34324970       0.48211731     330594.91     -33994375       1074.6193      1074.6193      1074.6193      1962.6903      3037.3097      1962.6903      3037.3097      1962.6903      3037.3097      1.2409777e+09  0.5            8071200        2.9380299      5262.2993      10524.697      6.1299688    
  16137600   118113.94     -4.303036      -34323214       0.48211731     350314.83     -33972899       1074.6193      1074.6193      1074.6193      1962.6903      3037.3097      1962.6903      3037.3097      1962.6903      3037.3097      1.2409777e+09  0.5            8071300        2.9561308      5524.6079      11049.225      6.1117601    
  16137800   121389.98     -3.6174432     -34328830       0.48211731     360031.28     -33968799       1074.6193      1074.6193      1074.6193      1962.6903      3037.3097      1962.6903      3037.3097      1962.6903      3037.3097      1.2409777e+09  0.5            8071400        2.9745624      5425.4505      10846.018      6.0942478    
  16138000   122976.01     -2.7716682     -34327077       0.48211731     364735.27     -33962342       1074.6193      1074.6193      1074.6193      1962.6903      3037.3097      1962.6903      3037.3097      1962.6903      3037.3097      1.2409777e+09  0.5            8071500        2.9929024      5452.5811      10910.09       6.0765038    
  16138200   123884.03     -1.9367046     -34327180       0.48211731     367428.39     -33959751       1074.6193      1074.6193      1074.6193      1962.6903      3037.3097      1962.6903      3037.3097      1962.6903      3037.3097      1.2409777e+09  0.5            8071600        3.0109059      5554.4555      11108.884      6.0580931    
  16138400   123887.9      -1.7087563     -34325328       0.48211731     367439.85     -33957888       1074.6193      1074.6193      1074.6193      1962.6903      3037.3097      1962.6903      3037.3097      1962.6903      3037.3097      1.2409777e+09  0.5            8071700        3.0292991      5436.7611      10873.546      6.0404641    
  16138600   124325.14     -0.9754246     -34314157       0.48211731     368736.69     -33945421       1074.6193      1074.6193      1074.6193      1962.6903      3037.3097      1962.6903      3037.3097      1962.6903      3037.3097      1.2409777e+09  0.5            8071800        3.0472818      5560.9209      11121.789      6.0220146    
  16138800   126988.2       0.18260152    -34297100       0.48211731     376635.05     -33920465       1074.6193      1074.6193      1074.6193      1962.6903      3037.3097      1962.6903      3037.3097      1962.6903      3037.3097      1.2409777e+09  0.5            8071900        3.0653726      5527.6938      11055.449      6.003782     
  16139000   128907.37      0.88608929    -34304332       0.48211731     382327.13     -33922005       1074.6193      1074.6193      1074.6193      1962.6903      3037.3097      1962.6903      3037.3097      1962.6903      3037.3097      1.2409777e+09  0.5            8072000        3.0842831      5288.0163      10575.978      5.9871433    
  16139200   125688.58      1.1678407     -34316943       0.48211731     372780.52     -33944162       1074.6193      1074.6193      1074.6193      1962.6903      3037.3097      1962.6903      3037.3097      1962.6903      3037.3097      1.2409777e+09  0.5            8072100        3.1022211      5574.7817      11149.588      5.9686059    
  16139400   121190.26      1.3060883     -34314763       0.48211731     359438.91     -33955324       1074.6193      1074.6193      1074.6193      1962.6903      3037.3097      1962.6903      3037.3097      1962.6903      3037.3097      1.2409777e+09  0.5            8072200        3.1204568      5483.7754      10967.574      5.9506434    
  16139600   127432.07      2.8767813     -34305197       0.48211731     377951.55     -33927246       1074.6193      1074.6193      1074.6193      1962.6903      3037.3097      1962.6903      3037.3097      1962.6903      3037.3097      1.2409777e+09  0.5            8072300        3.138296       5605.6461      11211.301      5.9319283    
  16139800   131044.39      4.2213716     -34302878       0.48211731     388665.34     -33914213       1074.6193      1074.6193      1074.6193      1962.6903      3037.3097      1962.6903      3037.3097      1962.6903      3037.3097      1.2409777e+09  0.5            8072400        3.1566195      5457.4068      10914.777      5.9141314    
  16140000   129198.78      5.1002416     -34293140       0.48211731     383191.45     -33909948       1074.6193      1074.6193      1074.6193      1962.6903      3037.3097      1962.6903      3037.3097      1962.6903      3037.3097      1.2409777e+09  0.5            8072500        3.175172       5390.0792      10780.16       5.8967533    
  16140200   127858.16      6.0079991     -34289241       0.48211731     379215.28     -33910026       1074.6193      1074.6193      1074.6193      1962.6903      3037.3097      1962.6903      3037.3097      1962.6903      3037.3097      1.2409777e+09  0.5            8072600        3.1935632      5435.4603      10870.937      5.8790767    
  16140400   133529.65      7.6619267     -34264371       0.48211731     396036.39     -33868335       1074.6193      1074.6193      1074.6193      1962.6903      3037.3097      1962.6903      3037.3097      1962.6903      3037.3097      1.2409777e+09  0.5            8072700        3.2115789      5552.7773      11105.555      5.8606826    
  16140600   136626.5       8.7598713     -34263868       0.48211731     405221.35     -33858646       1074.6193      1074.6193      1074.6193      1962.6903      3037.3097      1962.6903      3037.3097      1962.6903      3037.3097      1.2409777e+09  0.5            8072800        3.2298077      5485.8412      10971.69       5.8426905    
  16140800   131251.83      8.7693375     -34261530       0.48211731     389280.58     -33872249       1074.6193      1074.6193      1074.6193      1962.6903      3037.3097      1962.6903      3037.3097      1962.6903      3037.3097      1.2409777e+09  0.5            8072900        3.2474785      5659.0857      11318.162      5.8236949    
  16141000   128868.35      9.5612203     -34266676       0.48211731     382211.41     -33884464       1074.6193      1074.6193      1074.6193      1962.6903      3037.3097      1962.6903      3037.3097      1962.6903      3037.3097      1.2409777e+09  0.5            8073000        3.2656645      5498.66        10997.328      5.8056306    
  16141200   134601.5       10.947203     -34255277       0.48211731     399215.39     -33856062       1074.6193      1074.6193      1074.6193      1962.6903      3037.3097      1962.6903      3037.3097      1962.6903      3037.3097      1.2409777e+09  0.5            8073100        3.2841966      5396.0819      10792.122      5.7881744    
  16141400   136590.86      11.737069     -34260605       0.48211731     405115.65     -33855489       1074.6193      1074.6193      1074.6193      1962.6903      3037.3097      1962.6903      3037.3097      1962.6903      3037.3097      1.2409777e+09  0.5            8073200        3.3025142      5459.2126      10918.468      5.7703315    
  16141600   134595.74      12.283286     -34243931       0.48211731     399198.31     -33844732       1074.6193      1074.6193      1074.6193      1962.6903      3037.3097      1962.6903      3037.3097      1962.6903      3037.3097      1.2409777e+09  0.5            8073300        3.3204573      5573.1795      11146.366      5.7518349    
  16141800   134368.66      12.962753     -34258784       0.48211731     398524.83     -33860259       1074.6193      1074.6193      1074.6193      1962.6903      3037.3097      1962.6903      3037.3097      1962.6903      3037.3097      1.2409777e+09  0.5            8073400        3.3386009      5511.5914      11023.219      5.7336884    
  16142000   138567.95      14.078762     -34249712       0.48211731     410979.52     -33838732       1074.6193      1074.6193      1074.6193      1962.6903      3037.3097      1962.6903      3037.3097      1962.6903      3037.3097      1.2409777e+09  0.5            8073500        3.3566752      5532.7275      11065.413      5.7154242    
  16142200   141533.46      15.333673     -34246195       0.48211731     419774.92     -33826420       1074.6193      1074.6193      1074.6193      1962.6903      3037.3097      1962.6903      3037.3097      1962.6903      3037.3097      1.2409777e+09  0.5            8073600        3.3753476      5355.4719      10710.894      5.6981721    
  16142400   137064.27      15.495583     -34253891       0.48211731     406519.75     -33847372       1074.6193      1074.6193      1074.6193      1962.6903      3037.3097      1962.6903      3037.3097      1962.6903      3037.3097      1.2409777e+09  0.5            8073700        3.3932709      5579.3674      11158.784      5.6796502    
  16142600   130511         15.337127     -34245083       0.48211731     387083.36     -33858000       1074.6193      1074.6193      1074.6193      1962.6903      3037.3097      1962.6903      3037.3097      1962.6903      3037.3097      1.2409777e+09  0.5            8073800        3.4115877      5459.4716      10918.969      5.6617879    
  16142800   138008.44      16.709077     -34236372       0.48211731     409320.06     -33827052       1074.6193      1074.6193      1074.6193      1962.6903      3037.3097      1962.6903      3037.3097      1962.6903      3037.3097      1.2409777e+09  0.5            8073900        3.4294043      5612.7388      11225.393      5.6430981    
  16143000   141492.59      17.740697     -34236977       0.48211731     419653.71     -33817324       1074.6193      1074.6193      1074.6193      1962.6903      3037.3097      1962.6903      3037.3097      1962.6903      3037.3097      1.2409777e+09  0.5            8074000        3.4477292      5457.0334      10914.094      5.6252467    
  16143200   141671.7       18.327081     -34243099       0.48211731     420184.95     -33822914       1074.6193      1074.6193      1074.6193      1962.6903      3037.3097      1962.6903      3037.3097      1962.6903      3037.3097      1.2409777e+09  0.5            8074100        3.4658029      5532.9164      11065.877      5.6069836    
  16143400   141739.5       18.885257     -34229004       0.48211731     420386.02     -33808618       1074.6193      1074.6193      1074.6193      1962.6903      3037.3097      1962.6903      3037.3097      1962.6903      3037.3097      1.2409777e+09  0.5            8074200        3.4847776      5270.1358      10540.262      5.5901684    
  16143600   143959.7       19.461587     -34222324       0.48211731     426970.93     -33795353       1074.6193      1074.6193      1074.6193      1962.6903      3037.3097      1962.6903      3037.3097      1962.6903      3037.3097      1.2409777e+09  0.5            8074300        3.5029348      5507.4932      11014.964      5.5720298    
  16143800   147808.19      20.658758     -34213701       0.48211731     438385.19     -33775316       1074.6193      1074.6193      1074.6193      1962.6903      3037.3097      1962.6903      3037.3097      1962.6903      3037.3097      1.2409777e+09  0.5            8074400        3.5213241      5437.9044      10875.866      5.5542577    
  16144000   146062.03      20.909383     -34210528       0.48211731     433206.25     -33777321       1074.6193      1074.6193      1074.6193      1962.6903      3037.3097      1962.6903      3037.3097      1962.6903      3037.3097      1.2409777e+09  0.5            8074500        3.539401       5531.936       11063.786      5.5360088    
  16144200   138804.93      21.348989     -34194496       0.48211731     411682.38     -33782814       1074.6193      1074.6193      1074.6193      1962.6903      3037.3097      1962.6903      3037.3097      1962.6903      3037.3097      1.2409777e+09  0.5            8074600        3.5578605      5417.2786      10834.61       5.5183182    
  16144400   141929.48      22.315241     -34170763       0.48211731     420949.49     -33749814       1074.6193      1074.6193      1074.6193      1962.6903      3037.3097      1962.6903      3037.3097      1962.6903      3037.3097      1.2409777e+09  0.5            8074700        3.5762456      5439.1922      10878.351      5.5005239    
  16144600   149115.09      23.292303     -34184236       0.48211731     442261.33     -33741975       1074.6193      1074.6193      1074.6193      1962.6903      3037.3097      1962.6903      3037.3097      1962.6903      3037.3097      1.2409777e+09  0.5            8074800        3.5946434      5435.416       10870.815      5.482743     
  16144800   147987.25      23.714276     -34181034       0.48211731     438916.27     -33742118       1074.6193      1074.6193      1074.6193      1962.6903      3037.3097      1962.6903      3037.3097      1962.6903      3037.3097      1.2409777e+09  0.5            8074900        3.6127681      5517.309       11034.621      5.4645428    
  16145000   145858.25      24.326488     -34179683       0.48211731     432601.87     -33747081       1074.6193      1074.6193      1074.6193      1962.6903      3037.3097      1962.6903      3037.3097      1962.6903      3037.3097      1.2409777e+09  0.5            8075000        3.6312059      5423.667       10847.318      5.446813     
  16145200   148329.58      25.26807      -34185688       0.48211731     439931.59     -33745756       1074.6193      1074.6193      1074.6193      1962.6903      3037.3097      1962.6903      3037.3097      1962.6903      3037.3097      1.2409777e+09  0.5            8075100        3.6495         5466.2596      10932.55       5.4288621    
  16145400   156080.23      27.274174     -34177996       0.48211731     462919.3      -33715077       1074.6193      1074.6193      1074.6193      1962.6903      3037.3097      1962.6903      3037.3097      1962.6903      3037.3097      1.2409777e+09  0.5            8075200        3.6674342      5575.9477      11151.885      5.4103771    
  16145600   152706.25      26.809844     -34178340       0.48211731     452912.37     -33725428       1074.6193      1074.6193      1074.6193      1962.6903      3037.3097      1962.6903      3037.3097      1962.6903      3037.3097      1.2409777e+09  0.5            8075300        3.6863914      5275.037       10550.066      5.3933942    
  16145800   145819.23      26.765306     -34162002       0.48211731     432486.13     -33729516       1074.6193      1074.6193      1074.6193      1962.6903      3037.3097      1962.6903      3037.3097      1962.6903      3037.3097      1.2409777e+09  0.5            8075400        3.7045494      5507.1893      11014.357      5.3752325    
  16146000   147738.22      28.250805     -34158486       0.48211731     438177.68     -33720308       1074.6193      1074.6193      1074.6193      1962.6903      3037.3097      1962.6903      3037.3097      1962.6903      3037.3097      1.2409777e+09  0.5            8075500        3.7230354      5409.514       10819.069      5.3575425    
  16146200   151606.33      28.980244     -34158651       0.48211731     449650.11     -33709001       1074.6193      1074.6193      1074.6193      1962.6903      3037.3097      1962.6903      3037.3097      1962.6903      3037.3097      1.2409777e+09  0.5            8075600        3.7412509      5489.872       10979.627      5.3394589    
  16146400   154997.77      29.77559      -34164209       0.48211731     459708.82     -33704500       1074.6193      1074.6193      1074.6193      1962.6903      3037.3097      1962.6903      3037.3097      1962.6903      3037.3097      1.2409777e+09  0.5            8075700        3.759777       5397.7464      10795.587      5.3218139    
  16146600   155604.35      30.805064     -34167772       0.48211731     461507.86     -33706264       1074.6193      1074.6193      1074.6193      1962.6903      3037.3097      1962.6903      3037.3097      1962.6903      3037.3097      1.2409777e+09  0.5            8075800        3.7782891      5401.9161      10803.799      5.3041402    
  16146800   152319.56      31.166554     -34158392       0.48211731     451765.49     -33706626       1074.6193      1074.6193      1074.6193      1962.6903      3037.3097      1962.6903      3037.3097      1962.6903      3037.3097      1.2409777e+09  0.5            8075900        3.7967745      5409.6369      10819.214      5.286422     
  16147000   149469.38      31.608659     -34154098       0.48211731     443312.15     -33710786       1074.6193      1074.6193      1074.6193      1962.6903      3037.3097      1962.6903      3037.3097      1962.6903      3037.3097      1.2409777e+09  0.5            8076000        3.8153183      5392.6322      10785.377      5.2687765    
  16147200   157078.13      33.011488     -34166754       0.48211731     465878.96     -33700875       1074.6193      1074.6193      1074.6193      1962.6903      3037.3097      1962.6903      3037.3097      1962.6903      3037.3097      1.2409777e+09  0.5            8076100        3.8332327      5582.1368      11164.279      5.2502607    
  16147400   160587.25      34.336604     -34157138       0.48211731     476286.68     -33680851       1074.6193      1074.6193      1074.6193      1962.6903      3037.3097      1962.6903      3037.3097      1962.6903      3037.3097      1.2409777e+09  0.5            8076200        3.8513868      5508.4121      11016.829      5.2320759    
  16147600   156958.49      34.643193     -34165976       0.48211731     465524.12     -33700452       1074.6193      1074.6193      1074.6193      1962.6903      3037.3097      1962.6903      3037.3097      1962.6903      3037.3097      1.2409777e+09  0.5            8076300        3.8691635      5625.3173      11250.652      5.2133832    
  16147800   152856.08      34.958338     -34163613       0.48211731     453356.76     -33710256       1074.6193      1074.6193      1074.6193      1962.6903      3037.3097      1962.6903      3037.3097      1962.6903      3037.3097      1.2409777e+09  0.5            8076400        3.8881746      5260.0611      10520.147      5.1963489    
  16148000   159152.21      36.237432     -34163135       0.48211731     472030.51     -33691105       1074.6193      1074.6193      1074.6193      1962.6903      3037.3097      1962.6903      3037.3097      1962.6903      3037.3097      1.2409777e+09  0.5            8076500        3.9064337      5476.6705      10953.307      5.1782995    
  16148200   165185.52      37.806598     -34160662       0.48211731     489924.72     -33670737       1074.6193      1074.6193      1074.6193      1962.6903      3037.3097      1962.6903      3037.3097      1962.6903      3037.3097      1.2409777e+09  0.5            8076600        3.9263243      5027.5212      10055.065      5.1623928    
  16148400   160437.11      38.05         -34158510       0.48211731     475841.4      -33682668       1074.6193      1074.6193      1074.6193      1962.6903      3037.3097      1962.6903      3037.3097      1962.6903      3037.3097      1.2409777e+09  0.5            8076700        3.9449632      5365.152       10730.23       5.1448172    
  16148600   155608.51      37.646312     -34172689       0.48211731     461520.21     -33711169       1074.6193      1074.6193      1074.6193      1962.6903      3037.3097      1962.6903      3037.3097      1962.6903      3037.3097      1.2409777e+09  0.5            8076800        3.9631292      5504.8183      11009.676      5.12662      
  16148800   163048.29      39.040742     -34162546       0.48211731     483585.9      -33678960       1074.6193      1074.6193      1074.6193      1962.6903      3037.3097      1962.6903      3037.3097      1962.6903      3037.3097      1.2409777e+09  0.5            8076900        3.9819696      5307.7269      10615.424      5.1092886    
  16149000   168227.43      40.40021      -34160122       0.48211731     498946.75     -33661175       1074.6193      1074.6193      1074.6193      1962.6903      3037.3097      1962.6903      3037.3097      1962.6903      3037.3097      1.2409777e+09  0.5            8077000        4.000199       5485.6188      10971.251      5.0911658    
  16149200   163185.94      39.629784     -34164732       0.48211731     483994.17     -33680738       1074.6193      1074.6193      1074.6193      1962.6903      3037.3097      1962.6903      3037.3097      1962.6903      3037.3097      1.2409777e+09  0.5            8077100        4.0187521      5389.965       10779.916      5.0734505    
  16149400   160186.65      40.346106     -34169818       0.48211731     475098.56     -33694719       1074.6193      1074.6193      1074.6193      1962.6903      3037.3097      1962.6903      3037.3097      1962.6903      3037.3097      1.2409777e+09  0.5            8077200        4.0370428      5467.2312      10934.4        5.0553996    
  16149600   166780.54      41.304008     -34164045       0.48211731     494655.4      -33669390       1074.6193      1074.6193      1074.6193      1962.6903      3037.3097      1962.6903      3037.3097      1962.6903      3037.3097      1.2409777e+09  0.5            8077300        4.054832       5621.406       11242.885      5.0367229    
  16149800   172986.05      41.959328     -34176645       0.48211731     513060.38     -33663585       1074.6193      1074.6193      1074.6193      1962.6903      3037.3097      1962.6903      3037.3097      1962.6903      3037.3097      1.2409777e+09  0.5            8077400        4.073355       5398.7002      10797.417      5.0189585    
[...]
  16794400   305.73925     -0.37781258    -34674389       0.49369281     906.79387     -34673482       1066.1541      1066.1541      1066.1541      1966.923       3033.077       1966.923       3033.077       1966.923       3033.077       1.2118807e+09  0.5            8399700        32.460816      4500.2767      9000.6145      1.1889588    
  16794600   305.33805      1.6808266     -34674454       0.49376087     905.60396     -34673549       1066.1051      1066.1051      1066.1051      1966.9475      3033.0525      1966.9475      3033.0525      1966.9475      3033.0525      1.2117137e+09  0.5            8399800        32.483204      4466.7223      8933.4366      1.166524     
  16794800   305.31778      1.0656185     -34674521       0.49374549     905.54384     -34673616       1066.1161      1066.1161      1066.1161      1966.9419      3033.0581      1966.9419      3033.0581      1966.9419      3033.0581      1.2117515e+09  0.5            8399900        32.505428      4499.519       8999.027       1.1440835    
  16795000   305.42853      0.38465884    -34674587       0.49372811     905.87231     -34673681       1066.1286      1066.1286      1066.1286      1966.9357      3033.0643      1966.9357      3033.0643      1966.9357      3033.0643      1.2117941e+09  0.5            8400000        32.52767       4496.0669      8992.1281      1.1216439    
  16795200   305.38069      1.8778558     -34674650       0.49377991     905.73043     -34673744       1066.0914      1066.0914      1066.0914      1966.9543      3033.0457      1966.9543      3033.0457      1966.9543      3033.0457      1.211667e+09   0.5            8400100        32.550186      4441.3199      8882.6588      1.0992138    
  16795400   305.4242       0.30786153    -34674717       0.49373556     905.85947     -34673811       1066.1233      1066.1233      1066.1233      1966.9384      3033.0616      1966.9384      3033.0616      1966.9384      3033.0616      1.2117758e+09  0.5            8400200        32.572398      4501.9652      9003.9534      1.0767736    
  16795600   305.33427      1.227722      -34674781       0.49376858     905.59274     -34673876       1066.0995      1066.0995      1066.0995      1966.9502      3033.0498      1966.9502      3033.0498      1966.9502      3033.0498      1.2116948e+09  0.5            8400300        32.594661      4491.7617      8983.4874      1.0543353    
  16795800   305.26437      1.3363691     -34674845       0.49377639     905.38543     -34673940       1066.0939      1066.0939      1066.0939      1966.9531      3033.0469      1966.9531      3033.0469      1966.9531      3033.0469      1.2116756e+09  0.5            8400400        32.616731      4531.084       9062.2308      1.0318912    
  16796000   305.43854      0.32338682    -34674911       0.49374878     905.90201     -34674005       1066.1138      1066.1138      1066.1138      1966.9431      3033.0569      1966.9431      3033.0569      1966.9431      3033.0569      1.2117434e+09  0.5            8400500        32.638871      4516.7398      9033.4604      1.0094497    
  16796200   305.44501      1.7311742     -34674974       0.49379595     905.92118     -34674068       1066.0798      1066.0798      1066.0798      1966.9601      3033.0399      1966.9601      3033.0399      1966.9601      3033.0399      1.2116276e+09  0.5            8400600        32.661541      4411.1491      8822.2577      0.98702468   
  16796400   305.24686      0.35059618    -34675040       0.49375569     905.33348     -34674135       1066.1088      1066.1088      1066.1088      1966.9456      3033.0544      1966.9456      3033.0544      1966.9456      3033.0544      1.2117264e+09  0.5            8400700        32.683956      4461.2142      8922.3923      0.9645918    
  16796600   305.23621      1.5299592     -34675103       0.49379517     905.3019      -34674198       1066.0804      1066.0804      1066.0804      1966.9598      3033.0402      1966.9598      3033.0402      1966.9598      3033.0402      1.2116296e+09  0.5            8400800        32.706148      4506.1308      9012.3005      0.94215251   
  16796800   305.13128      0.61389384    -34675167       0.49376947     904.9907      -34674262       1066.0989      1066.0989      1066.0989      1966.9506      3033.0494      1966.9506      3033.0494      1966.9506      3033.0494      1.2116926e+09  0.5            8400900        32.728215      4531.745       9063.3787      0.91971004   
  16797000   305.32818      1.07512       -34675230       0.49378932     905.57469     -34674325       1066.0846      1066.0846      1066.0846      1966.9577      3033.0423      1966.9577      3033.0423      1966.9577      3033.0423      1.2116439e+09  0.5            8401000        32.750819      4423.8703      8847.8612      0.89728281   
  16797200   305.7306       1.1150565     -34675296       0.49379594     906.76824     -34674389       1066.0798      1066.0798      1066.0798      1966.9601      3033.0399      1966.9601      3033.0399      1966.9601      3033.0399      1.2116276e+09  0.5            8401100        32.773023      4503.7764      9007.5041      0.87484465   
  16797400   305.27181      1.1595097     -34675361       0.49380008     905.4075      -34674455       1066.0768      1066.0768      1066.0768      1966.9616      3033.0384      1966.9616      3033.0384      1966.9616      3033.0384      1.2116175e+09  0.5            8401200        32.795423      4464.2395      8928.5104      0.8524119    
  16797600   304.70801      0.24716044    -34675424       0.49377376     903.73532     -34674520       1066.0958      1066.0958      1066.0958      1966.9521      3033.0479      1966.9521      3033.0479      1966.9521      3033.0479      1.2116821e+09  0.5            8401300        32.817464      4537.035       9074.0709      0.82997012   
  16797800   305.24246      2.2474327     -34675483       0.49383976     905.32045     -34674578       1066.0483      1066.0483      1066.0483      1966.9759      3033.0241      1966.9759      3033.0241      1966.9759      3033.0241      1.2115201e+09  0.5            8401400        32.839857      4465.6575      8931.3318      0.80753755   
  16798000   305.653       -0.76399651    -34675549       0.49374953     906.53808     -34674643       1066.1132      1066.1132      1066.1132      1966.9434      3033.0566      1966.9434      3033.0566      1966.9434      3033.0566      1.2117415e+09  0.5            8401500        32.861965      4523.3095      9046.598       0.78509821   
  16798200   305.11277      3.0238394     -34675608       0.49386943     904.93581     -34674703       1066.0269      1066.0269      1066.0269      1966.9865      3033.0135      1966.9865      3033.0135      1966.9865      3033.0135      1.2114473e+09  0.5            8401600        32.884231      4491.2265      8982.4836      0.76266299   
  16798400   304.82955     -2.1403527     -34675673       0.49371125     904.09578     -34674769       1066.1408      1066.1408      1066.1408      1966.9296      3033.0704      1966.9296      3033.0704      1966.9296      3033.0704      1.2118355e+09  0.5            8401700        32.906537      4483.1102      8966.2388      0.7402289    
  16798600   305.28959     -1.7487701     -34683114       0.49373019     905.46023     -34682208       1066.1271      1066.1271      1066.1271      1966.9364      3033.0636      1966.9364      3033.0636      1966.9364      3033.0636      1.211789e+09   0.5            8401800        32.928689      4514.2139      9028.4303      0.71779164   
  16798800   305.29813     -2.7398374     -34683174       0.49370321     905.48555     -34682268       1066.1466      1066.1466      1066.1466      1966.9267      3033.0733      1966.9267      3033.0733      1966.9267      3033.0733      1.2118552e+09  0.5            8401900        32.952405      4216.5491      8433.0958      0.69538777   
  16799000   304.97157     -3.9925066     -34683231       0.49366852     904.517       -34682326       1066.1715      1066.1715      1066.1715      1966.9142      3033.0858      1966.9142      3033.0858      1966.9142      3033.0858      1.2119404e+09  0.5            8402000        32.974656      4494.0585      8988.091       0.67295223   
  16799200   305.22125     -4.2832751     -34690670       0.49366787     905.25754     -34689765       1066.172       1066.172       1066.172       1966.914       3033.086       1966.914       3033.086       1966.914       3033.086       1.211942e+09   0.5            8402100        32.996916      4492.4488      8984.8378      0.6505171    
  16799400   305.45771      4.2133074     -34698113       0.49394016     905.95885     -34697207       1065.9761      1065.9761      1065.9761      1967.012       3032.988       1967.012       3032.988       1967.012       3032.988       1.2112739e+09  0.5            8402200        33.019166      4494.4226      8988.8739      0.62808202   
  16799600   304.9621      -1.2919123     -34698185       0.49377218     904.48892     -34697280       1066.0969      1066.0969      1066.0969      1966.9515      3033.0485      1966.9515      3033.0485      1966.9515      3033.0485      1.2116859e+09  0.5            8402300        33.041941      4390.838       8781.6644      0.60565681   
  16799800   305.28662      2.6137812     -34698245       0.49389982     905.45141     -34697340       1066.0051      1066.0051      1066.0051      1966.9975      3033.0025      1966.9975      3033.0025      1966.9975      3033.0025      1.2113728e+09  0.5            8402400        33.063955      4542.5131      9085.0765      0.58321771   
  16800000   305.91291     -0.29656651    -34698315       0.493815       907.30893     -34697407       1066.0661      1066.0661      1066.0661      1966.9669      3033.0331      1966.9669      3033.0331      1966.9669      3033.0331      1.2115809e+09  0.5            8402500        33.08802       4155.3587      8310.675       0.56081395   
  16800200   305.46727      1.8896065     -34698379       0.49388626     905.98721     -34697473       1066.0148      1066.0148      1066.0148      1966.9926      3033.0074      1966.9926      3033.0074      1966.9926      3033.0074      1.2114061e+09  0.5            8402600        33.110162      4516.2474      9032.4923      0.53837668   
  16800400   304.97711      1.0967652     -34698446       0.49386475     904.53345     -34697541       1066.0303      1066.0303      1066.0303      1966.9848      3033.0152      1966.9848      3033.0152      1966.9848      3033.0152      1.2114588e+09  0.5            8402700        33.132332      4510.6166      9021.2792      0.51594022   
  16800600   305.34796      0.32936993    -34698511       0.49384444     905.63335     -34697605       1066.0449      1066.0449      1066.0449      1966.9775      3033.0225      1966.9775      3033.0225      1966.9775      3033.0225      1.2115087e+09  0.5            8402800        33.154825      4445.8513      8891.7176      0.49350894   
  16800800   305.53159      1.1704043     -34698574       0.49387438     906.17797     -34697668       1066.0234      1066.0234      1066.0234      1966.9883      3033.0117      1966.9883      3033.0117      1966.9883      3033.0117      1.2114352e+09  0.5            8402900        33.177044      4500.6111      9001.2266      0.47107369   
  16801000   305.41857      1.4649424     -34698639       0.49388794     905.84278     -34697733       1066.0136      1066.0136      1066.0136      1966.9932      3033.0068      1966.9932      3033.0068      1966.9932      3033.0068      1.211402e+09   0.5            8403000        33.199335      4486.2046      8972.4258      0.4486397    
  16801200   305.36402      1.0058071     -34698705       0.49387692     905.68099     -34697799       1066.0216      1066.0216      1066.0216      1966.9892      3033.0108      1966.9892      3033.0108      1966.9892      3033.0108      1.211429e+09   0.5            8403100        33.221379      4536.4602      9072.8944      0.42620273   
  16801400   305.23577      0.66921858    -34698770       0.49386935     905.30062     -34697865       1066.027       1066.027       1066.027       1966.9865      3033.0135      1966.9865      3033.0135      1966.9865      3033.0135      1.2114476e+09  0.5            8403200        33.243958      4428.7666      8857.5148      0.40377281   
  16801600   305.21503      0.68554085    -34698834       0.49387288     905.2391      -34697928       1066.0245      1066.0245      1066.0245      1966.9878      3033.0122      1966.9878      3033.0122      1966.9878      3033.0122      1.2114389e+09  0.5            8403300        33.266175      4501.045       9002.1147      0.38133852   
  16801800   305.34788      0.99701494    -34698897       0.49388659     905.63312     -34697991       1066.0146      1066.0146      1066.0146      1966.9927      3033.0073      1966.9927      3033.0073      1966.9927      3033.0073      1.2114053e+09  0.5            8403400        33.289031      4375.3493      8750.6921      0.35891141   
  16802000   305.47238      0.86880899    -34702751       0.4938895      906.00236     -34701845       1066.0125      1066.0125      1066.0125      1966.9937      3033.0063      1966.9937      3033.0063      1966.9937      3033.0063      1.2113981e+09  0.5            8403500        33.311096      4532.0911      9064.2133      0.33647574   
  16802200   305.26882      0.55701523    -34702816       0.49388411     905.39861     -34701911       1066.0164      1066.0164      1066.0164      1966.9918      3033.0082      1966.9918      3033.0082      1966.9918      3033.0082      1.2114114e+09  0.5            8403600        33.333258      4512.2176      9024.405       0.31404148   
  16802400   305.35907      0.71455636    -34702880       0.4938937      905.66631     -34701975       1066.0095      1066.0095      1066.0095      1966.9953      3033.0047      1966.9953      3033.0047      1966.9953      3033.0047      1.2113878e+09  0.5            8403700        33.355744      4447.0577      8894.0787      0.29161043   
  16802600   305.42007      1.2773833     -34702944       0.49391488     905.84723     -34702038       1065.9942      1065.9942      1065.9942      1967.0029      3032.9971      1967.0029      3032.9971      1967.0029      3032.9971      1.2113359e+09  0.5            8403800        33.378185      4456.1928      8912.3557      0.26917894   
  16802800   305.29439      1.3878406     -34703008       0.49392131     905.47445     -34702103       1065.9896      1065.9896      1065.9896      1967.0052      3032.9948      1967.0052      3032.9948      1967.0052      3032.9948      1.2113201e+09  0.5            8403900        33.400332      4515.3425      9030.734       0.24674525   
  16803000   305.1464       0.77816218    -34703073       0.4939044      905.03554     -34702168       1066.0018      1066.0018      1066.0018      1966.9991      3033.0009      1966.9991      3033.0009      1966.9991      3033.0009      1.2113616e+09  0.5            8404000        33.42254       4502.7839      9005.5492      0.22431237   
  16803200   305.23946      0.57940143    -34703136       0.49390086     905.31156     -34702231       1066.0043      1066.0043      1066.0043      1966.9978      3033.0022      1966.9978      3033.0022      1966.9978      3033.0022      1.2113703e+09  0.5            8404100        33.44502       4448.4876      8896.9594      0.20188143   
  16803400   305.27793      1.2719653     -34703199       0.49392479     905.42564     -34702293       1065.9871      1065.9871      1065.9871      1967.0064      3032.9936      1967.0064      3032.9936      1967.0064      3032.9936      1.2113116e+09  0.5            8404200        33.46723       4502.4685      9004.9479      0.17944897   
  16803600   305.1969       1.4932744     -34703261       0.49393583     905.18532     -34702356       1065.9792      1065.9792      1065.9792      1967.0104      3032.9896      1967.0104      3032.9896      1967.0104      3032.9896      1.2112845e+09  0.5            8404300        33.489968      4397.8195      8795.5954      0.15701929   
  16803800   305.39311      0.75320412    -34703326       0.49391687     905.76726     -34702421       1065.9928      1065.9928      1065.9928      1967.0036      3032.9964      1967.0036      3032.9964      1967.0036      3032.9964      1.211331e+09   0.5            8404400        33.512147      4508.8167      9017.7115      0.13458695   
  16804000   305.03188      0.285377      -34703389       0.49390511     904.69589     -34702484       1066.0013      1066.0013      1066.0013      1966.9994      3033.0006      1966.9994      3033.0006      1966.9994      3033.0006      1.2113598e+09  0.5            8404500        33.534071      4561.2244      9122.4441      0.11215409   
  16804200   304.99288      0.85635288    -34703451       0.49392585     904.58021     -34702546       1065.9864      1065.9864      1065.9864      1967.0068      3032.9932      1967.0068      3032.9932      1967.0068      3032.9932      1.211309e+09   0.5            8404600        33.556407      4477.111       8954.1764      0.089723021  
  16804400   305.38741      1.7967884     -34703512       0.49395766     905.75034     -34702606       1065.9635      1065.9635      1065.9635      1967.0183      3032.9817      1967.0183      3032.9817      1967.0183      3032.9817      1.211231e+09   0.5            8404700        33.578765      4472.5565      8945.1755      0.067292121  
  16804600   305.2453       1.9945505     -34703574       0.4939664      905.32887     -34702669       1065.9572      1065.9572      1065.9572      1967.0214      3032.9786      1967.0214      3032.9786      1967.0214      3032.9786      1.2112096e+09  0.5            8404800        33.601047      4487.9607      8975.921       0.044861215  
  16804800   304.90993      1.3463726     -34703637       0.49394951     904.33418     -34702733       1065.9693      1065.9693      1065.9693      1967.0153      3032.9847      1967.0153      3032.9847      1967.0153      3032.9847      1.211251e+09   0.5            8404900        33.623172      4519.8817      9039.727       0.022430403  
  16805000   305.17684      0.2361052     -34703700       0.49391925     905.12582     -34702795       1065.9911      1065.9911      1065.9911      1967.0044      3032.9956      1967.0044      3032.9956      1967.0044      3032.9956      1.2113252e+09  0.5            8405000        33.645687      4441.4379      8882.8513      0            
Loop time of 33.6457 on 4 procs for 300000 steps with 996 atoms

Performance: 385.190 ns/day, 0.062 hours/ns, 8916.437 timesteps/s
99.4% CPU use with 4 MPI tasks x no OpenMP threads

MPI task timing breakdown:
Section |  min time  |  avg time  |  max time  |%varavg| %total
---------------------------------------------------------------
Pair    | 4.3191     | 8.9473     | 18.44      | 190.3 | 26.59
Neigh   | 0.0088118  | 0.01751    | 0.035076   |   8.1 |  0.05
Comm    | 6.0311     | 15.145     | 19.58      | 139.8 | 45.01
Output  | 0.071557   | 0.080258   | 0.10462    |   5.0 |  0.24
Modify  | 6.8967     | 7.1853     | 8.002      |  17.6 | 21.36
Other   |            | 2.27       |            |       |  6.75

Nlocal:            249 ave         435 max         162 min
Histogram: 2 0 1 0 0 0 0 0 0 1
Nghost:            361 ave         401 max         304 min
Histogram: 1 0 0 0 1 0 0 0 0 2
Neighs:         1099.5 ave        2382 max         491 min
Histogram: 2 0 1 0 0 0 0 0 0 1

Total # of neighbors = 4398
Ave neighs/atom = 4.4156627
Neighbor list builds = 108
Dangerous builds = 20

# run_style
run_style verlet

# write restart
write_restart ${write_res}
write_restart ./pgnpmf/37/equpmf24.res
System init for write_restart ...
Generated 0 of 1 mixed pair_coeff terms from geometric mixing rule

Total wall time: 0:01:10
