LAMMPS (23 Jun 2022 - Update 1)
OMP_NUM_THREADS environment is not set. Defaulting to 1 thread. (src/comm.cpp:98)
  using 1 OpenMP thread(s) per MPI task
# Read restart
read_restart ${read_res}
read_restart ./pgnpmf/37/equpmf74.res
Reading restart file ...
  restart file = 23 Jun 2022, LAMMPS = 23 Jun 2022
  restoring atom style atomic from restart
  orthogonal box = (2147.2533 2147.2533 2147.2533) to (2852.7467 2852.7467 2852.7467)
  1 by 2 by 2 MPI processor grid
  restoring pair style table from restart
  996 atoms
  read_restart CPU = 0.009 seconds

# Settings

pair_style table spline 9941

pair_coeff 1 1 ./pgnpmf/N20.txt DE_GNP 75.6
pair_coeff 2 2 ./pgnpmf/N100.txt DE_GNP 115.92
WARNING: 3 of 9941 force values in table DE_GNP are inconsistent with -dE/dr.
WARNING:  Should only be flagged at inflection points (src/pair_table.cpp:463)
pair_coeff 1 2 ./pgnpmf/mixed_potential.txt DE_GNP 95.66
WARNING: 1562 of 9941 force values in table DE_GNP are inconsistent with -dE/dr.
WARNING:  Should only be flagged at inflection points (src/pair_table.cpp:463)

#Neigh_list Calc Frequency

neigh_modify delay 0 every 1 check yes

# Saving Frequency (50 frames)

variable ts_save equal ${steps_equ}
variable ts_save equal 5000

# Dump
#dump 1 all custom ${ts_save} ./pgnpmf/${folder}/equilibration/trajectory/trajectory_${usic}_${trial}.equ.custom type x y z ix iy iz
#dump_modify 1 first no sort id
dump 2 all cfg 50000 ./pgnpmf/${folder}/equilibration/trajectory/dumpgen.tens_*.cfg mass type xs ys zs fx fy fz
dump 2 all cfg 50000 ./pgnpmf/37/equilibration/trajectory/dumpgen.tens_*.cfg mass type xs ys zs fx fy fz
dump_modify 2 element N20 N100

# thermo_style
thermo_style custom step temp press pe density ke etotal lx ly lz xlo xhi ylo yhi zlo zhi vol dt time cpu tpcpu spcpu cpuremain

# run info
timestep ${ts}
timestep 0.1
thermo 200

# fix

fix 1 all momentum 1000 linear 1 1 1 angular
variable T equal ${temp}
variable T equal 300
fix 2 all nvt temp ${T} 370000 100.0
fix 2 all nvt temp 300 370000 100.0

run 100000
Generated 0 of 1 mixed pair_coeff terms from geometric mixing rule
Unused restart file global fix info:
  fix style: npt, fix ID: 5
Neighbor list info ...
  update every 1 steps, delay 0 steps, check yes
  max neighbors/atom: 2000, page size: 100000
  master list distance cutoff = 117.92
  ghost atom cutoff = 117.92
  binsize = 58.96, bins = 12 12 12
  1 neighbor lists, perpetual/occasional/extra = 1 0 0
  (1) pair table, perpetual
      attributes: half, newton on
      pair build: half/bin/atomonly/newton
      stencil: half/bin/3d
      bin: standard
Per MPI rank memory allocation (min/avg/max) = 3.081 | 3.082 | 3.083 Mbytes
   Step          Temp          Press          PotEng        Density         KinEng         TotEng           Lx             Ly             Lz            Xlo            Xhi            Ylo            Yhi            Zlo            Zhi           Volume           Dt            Time           CPU           T/CPU          S/CPU         CPULeft    
  51805000   305.2511      -0.14161022    -43602159       1.7038747      905.34606     -43601254       705.49349      705.49349      705.49349      2147.2533      2852.7467      2147.2533      2852.7467      2147.2533      2852.7467      3.5113897e+08  0.1            16385000       0              0              0              0            
  51805200   332.0811      -0.27335127    -43602224       1.7038747      984.92133     -43601239       705.49349      705.49349      705.49349      2147.2533      2852.7467      2147.2533      2852.7467      2147.2533      2852.7467      3.5113897e+08  0.1            16385020       0.016270511    1229.153       12290.809      8.1203617    
  51805400   372.35377     -0.40890467    -43602293       1.7038747      1104.3663     -43601189       705.49349      705.49349      705.49349      2147.2533      2852.7467      2147.2533      2852.7467      2147.2533      2852.7467      3.5113897e+08  0.1            16385040       0.031976642    1273.4096      12734.155      7.9627986    
  51805600   415.94766     -0.55378038    -43602366       1.7038747      1233.6617     -43601132       705.49349      705.49349      705.49349      2147.2533      2852.7467      2147.2533      2852.7467      2147.2533      2852.7467      3.5113897e+08  0.1            16385060       0.047832622    1261.3366      12613.462      7.9247536    
  51805800   468.9045      -0.70676149    -43602443       1.7038747      1390.7267     -43601052       705.49349      705.49349      705.49349      2147.2533      2852.7467      2147.2533      2852.7467      2147.2533      2852.7467      3.5113897e+08  0.1            16385080       0.063513922    1275.415       12754.034      7.8760284    
  51806000   530.73405     -0.86985679    -43602525       1.7038747      1574.1073     -43600951       705.49349      705.49349      705.49349      2147.2533      2852.7467      2147.2533      2852.7467      2147.2533      2852.7467      3.5113897e+08  0.1            16385100       0.079523417    1249.2242      12492.24       7.8731283    
  51806200   601.73132     -1.0432155     -43602612       1.7038747      1784.6785     -43600827       705.49349      705.49349      705.49349      2147.2533      2852.7467      2147.2533      2852.7467      2147.2533      2852.7467      3.5113897e+08  0.1            16385120       0.095475074    1253.8181      12538.27       7.8609756    
  51806400   682.87083     -1.2294257     -43602704       1.7038747      2025.3307     -43600679       705.49349      705.49349      705.49349      2147.2533      2852.7467      2147.2533      2852.7467      2147.2533      2852.7467      3.5113897e+08  0.1            16385140       0.11110221     1279.8106      12798.118      7.824959     
  51806600   775.25944     -1.4295815     -43602803       1.7038747      2299.3466     -43600503       705.49349      705.49349      705.49349      2147.2533      2852.7467      2147.2533      2852.7467      2147.2533      2852.7467      3.5113897e+08  0.1            16385160       0.12655332     1294.4253      12944.285      7.78317      
  51806800   880.19636     -1.6446963     -43602908       1.7038747      2610.5797     -43600297       705.49349      705.49349      705.49349      2147.2533      2852.7467      2147.2533      2852.7467      2147.2533      2852.7467      3.5113897e+08  0.1            16385180       0.14190503     1302.7855      13027.798      7.7418358    
  51807000   999.0683      -1.8758734     -43603020       1.7038747      2963.1427     -43600057       705.49349      705.49349      705.49349      2147.2533      2852.7467      2147.2533      2852.7467      2147.2533      2852.7467      3.5113897e+08  0.1            16385200       0.15785162     1254.1861      12541.78       7.734857     
  51807200   1133.6939     -2.1228872     -43603139       1.7038747      3362.4295     -43599776       705.49349      705.49349      705.49349      2147.2533      2852.7467      2147.2533      2852.7467      2147.2533      2852.7467      3.5113897e+08  0.1            16385220       0.17314173     1308.0365      13080.427      7.6970444    
  51807400   1285.8936     -2.3882315     -43603265       1.7038747      3813.8396     -43599451       705.49349      705.49349      705.49349      2147.2533      2852.7467      2147.2533      2852.7467      2147.2533      2852.7467      3.5113897e+08  0.1            16385240       0.18862281     1291.9002      12918.91       7.6707646    
  51807600   1457.7618     -2.6730678     -43603400       1.7038747      4323.5846     -43599076       705.49349      705.49349      705.49349      2147.2533      2852.7467      2147.2533      2852.7467      2147.2533      2852.7467      3.5113897e+08  0.1            16385260       0.20381814     1316.1909      13162.002      7.6354338    
  51807800   1651.6283     -2.9785051     -43603543       1.7038747      4898.5744     -43598644       705.49349      705.49349      705.49349      2147.2533      2852.7467      2147.2533      2852.7467      2147.2533      2852.7467      3.5113897e+08  0.1            16385280       0.21900794     1316.6633      13166.377      7.6028044    
  51808000   1869.9767     -3.3058396     -43603695       1.7038747      5546.1752     -43598149       705.49349      705.49349      705.49349      2147.2533      2852.7467      2147.2533      2852.7467      2147.2533      2852.7467      3.5113897e+08  0.1            16385300       0.23421508     1315.177       13151.924      7.5730416    
  51808200   2115.8119     -3.65587       -43603856       1.7038747      6275.2992     -43597581       705.49349      705.49349      705.49349      2147.2533      2852.7467      2147.2533      2852.7467      2147.2533      2852.7467      3.5113897e+08  0.1            16385320       0.25050253     1227.9206      12279.311      7.5777868    
  51808400   2392.2628     -3.8711541     -43602133       1.7038747      7095.2266     -43595038       705.49349      705.49349      705.49349      2147.2533      2852.7467      2147.2533      2852.7467      2147.2533      2852.7467      3.5113897e+08  0.1            16385340       0.26589413     1299.4355      12994.372      7.5545903    
  51808600   2702.7521     -4.2765119     -43602315       1.7038747      8016.1086     -43594299       705.49349      705.49349      705.49349      2147.2533      2852.7467      2147.2533      2852.7467      2147.2533      2852.7467      3.5113897e+08  0.1            16385360       0.28134466     1294.4624      12944.614      7.5338544    
  51808800   3051.0366     -4.8258129     -43602877       1.7038747      9049.0877     -43593828       705.49349      705.49349      705.49349      2147.2533      2852.7467      2147.2533      2852.7467      2147.2533      2852.7467      3.5113897e+08  0.1            16385380       0.2966317      1308.2947      13082.876      7.5095262    
  51809000   3441.1175     -5.2867001     -43603082       1.7038747      10206.031     -43592876       705.49349      705.49349      705.49349      2147.2533      2852.7467      2147.2533      2852.7467      2147.2533      2852.7467      3.5113897e+08  0.1            16385400       0.31169199     1327.9925      13279.833      7.4806713    
  51809200   3877.5111     -5.7641447     -43603300       1.7038747      11500.333     -43591799       705.49349      705.49349      705.49349      2147.2533      2852.7467      2147.2533      2852.7467      2147.2533      2852.7467      3.5113897e+08  0.1            16385420       0.32734445     1277.7645      12777.824      7.46662      
  51809400   4364.8505     -6.2499499     -43603530       1.7038747      12945.736     -43590584       705.49349      705.49349      705.49349      2147.2533      2852.7467      2147.2533      2852.7467      2147.2533      2852.7467      3.5113897e+08  0.1            16385440       0.34270169     1302.3066      13023.035      7.4460239    
  51809600   4908.1117     -6.7350986     -43603773       1.7038747      14556.998     -43589216       705.49349      705.49349      705.49349      2147.2533      2852.7467      2147.2533      2852.7467      2147.2533      2852.7467      3.5113897e+08  0.1            16385460       0.35834746     1278.298       12782.823      7.431868     
  51809800   5512.5232     -7.2169743     -43604030       1.7038747      16349.626     -43587681       705.49349      705.49349      705.49349      2147.2533      2852.7467      2147.2533      2852.7467      2147.2533      2852.7467      3.5113897e+08  0.1            16385480       0.37359643     1311.5707      13115.871      7.4097078    
  51810000   6183.4068     -7.6951214     -43604302       1.7038747      18339.403     -43585963       705.49349      705.49349      705.49349      2147.2533      2852.7467      2147.2533      2852.7467      2147.2533      2852.7467      3.5113897e+08  0.1            16385500       0.38913944     1286.721       12867.093      7.3937054    
  51810200   6926.499      -8.1654324     -43604589       1.7038747      20543.345     -43584045       705.49349      705.49349      705.49349      2147.2533      2852.7467      2147.2533      2852.7467      2147.2533      2852.7467      3.5113897e+08  0.1            16385520       0.40430386     1318.8973      13188.789      7.3708269    
  51810400   7747.3343     -8.6424175     -43604891       1.7038747      22977.865     -43581913       705.49349      705.49349      705.49349      2147.2533      2852.7467      2147.2533      2852.7467      2147.2533      2852.7467      3.5113897e+08  0.1            16385540       0.4195818      1309.0574      13090.943      7.3504965    
  51810600   8651.4552     -9.5324557     -43612587       1.7038747      25659.403     -43586928       705.49349      705.49349      705.49349      2147.2533      2852.7467      2147.2533      2852.7467      2147.2533      2852.7467      3.5113897e+08  0.1            16385560       0.43491457     1304.4229      13044.187      7.3314561    
  51810800   9644.147      -10.09038      -43612923       1.7038747      28603.633     -43584320       705.49349      705.49349      705.49349      2147.2533      2852.7467      2147.2533      2852.7467      2147.2533      2852.7467      3.5113897e+08  0.1            16385580       0.45045065     1287.3234      12873.283      7.3159769    
  51811000   10730.049     -10.712493     -43613277       1.7038747      31824.318     -43581453       705.49349      705.49349      705.49349      2147.2533      2852.7467      2147.2533      2852.7467      2147.2533      2852.7467      3.5113897e+08  0.1            16385600       0.46577836     1304.8287      13048.189      7.2972333    
  51811200   11913.355     -11.372867     -43613649       1.7038747      35333.892     -43578316       705.49349      705.49349      705.49349      2147.2533      2852.7467      2147.2533      2852.7467      2147.2533      2852.7467      3.5113897e+08  0.1            16385620       0.48084098     1327.791       13277.965      7.2746939    
  51811400   13196.861     -12.015835     -43614041       1.7038747      39140.649     -43574901       705.49349      705.49349      705.49349      2147.2533      2852.7467      2147.2533      2852.7467      2147.2533      2852.7467      3.5113897e+08  0.1            16385640       0.49610445     1310.3222      13103.252      7.2555598    
  51811600   14581.863     -12.583972     -43614453       1.7038747      43248.434     -43571204       705.49349      705.49349      705.49349      2147.2533      2852.7467      2147.2533      2852.7467      2147.2533      2852.7467      3.5113897e+08  0.1            16385660       0.5113173      1314.6752      13146.738      7.2359466    
  51811800   16067.645     -13.065278     -43614884       1.7038747      47655.123     -43567229       705.49349      705.49349      705.49349      2147.2533      2852.7467      2147.2533      2852.7467      2147.2533      2852.7467      3.5113897e+08  0.1            16385680       0.52655346     1312.6687      13126.673      7.2169105    
  51812000   17650.926     -13.516122     -43615334       1.7038747      52350.988     -43562983       705.49349      705.49349      705.49349      2147.2533      2852.7467      2147.2533      2852.7467      2147.2533      2852.7467      3.5113897e+08  0.1            16385700       0.54185837     1306.7697      13067.646      7.199008     
  51812200   19325.893     -14.002969     -43615802       1.7038747      57318.782     -43558483       705.49349      705.49349      705.49349      2147.2533      2852.7467      2147.2533      2852.7467      2147.2533      2852.7467      3.5113897e+08  0.1            16385720       0.55783498     1251.823       12518.239      7.1899045    
  51812400   21083.242     -14.543591     -43616289       1.7038747      62530.915     -43553758       705.49349      705.49349      705.49349      2147.2533      2852.7467      2147.2533      2852.7467      2147.2533      2852.7467      3.5113897e+08  0.1            16385740       0.5736865      1261.712       12617.102      7.1788646    
  51812600   22909.914     -15.113766     -43616794       1.7038747      67948.652     -43548845       705.49349      705.49349      705.49349      2147.2533      2852.7467      2147.2533      2852.7467      2147.2533      2852.7467      3.5113897e+08  0.1            16385760       0.58923759     1286.0805      12860.765      7.163919     
  51812800   24788.486     -16.078245     -43624696       1.7038747      73520.319     -43551175       705.49349      705.49349      705.49349      2147.2533      2852.7467      2147.2533      2852.7467      2147.2533      2852.7467      3.5113897e+08  0.1            16385780       0.60530374     1244.8182      12448.209      7.155035     
  51813000   26697.097     -16.970073     -43627502       1.7038747      79181.081     -43548321       705.49349      705.49349      705.49349      2147.2533      2852.7467      2147.2533      2852.7467      2147.2533      2852.7467      3.5113897e+08  0.1            16385800       0.62130441     1249.9774      12499.767      7.1450323    
  51813200   28608.898     -17.773466     -43629959       1.7038747      84851.303     -43545108       705.49349      705.49349      705.49349      2147.2533      2852.7467      2147.2533      2852.7467      2147.2533      2852.7467      3.5113897e+08  0.1            16385820       0.63770462     1219.4926      12194.808      7.1392119    
  51813400   30491.802     -18.175892     -43625057       1.7038747      90435.818     -43534621       705.49349      705.49349      705.49349      2147.2533      2852.7467      2147.2533      2852.7467      2147.2533      2852.7467      3.5113897e+08  0.1            16385840       0.65440906     1197.2801      11972.878      7.1362053    
  51813600   32309.404     -18.41955      -43618279       1.7038747      95826.654     -43522452       705.49349      705.49349      705.49349      2147.2533      2852.7467      2147.2533      2852.7467      2147.2533      2852.7467      3.5113897e+08  0.1            16385860       0.67076231     1223.0185      12230.064      7.1288273    
  51813800   34020.31      -19.037048     -43618892       1.7038747      100901.04     -43517991       705.49349      705.49349      705.49349      2147.2533      2852.7467      2147.2533      2852.7467      2147.2533      2852.7467      3.5113897e+08  0.1            16385880       0.68783116     1171.7224      11717.406      7.1284571    
  51814000   35581.277     -19.464365     -43617621       1.7038747      105530.72     -43512091       705.49349      705.49349      705.49349      2147.2533      2852.7467      2147.2533      2852.7467      2147.2533      2852.7467      3.5113897e+08  0.1            16385900       0.7056364      1123.2625      11232.571      7.1347944    
  51814200   36950.177     -20.130452     -43618251       1.7038747      109590.75     -43508660       705.49349      705.49349      705.49349      2147.2533      2852.7467      2147.2533      2852.7467      2147.2533      2852.7467      3.5113897e+08  0.1            16385920       0.72140332     1268.4831      12684.72       7.1199636    
  51814400   38089.748     -21.034103     -43618885       1.7038747      112970.61     -43505915       705.49349      705.49349      705.49349      2147.2533      2852.7467      2147.2533      2852.7467      2147.2533      2852.7467      3.5113897e+08  0.1            16385940       0.73690937     1289.8011      12898.144      7.1025786    
  51814600   38972.611     -22.984125     -43634277       1.7038747      115589.1      -43518688       705.49349      705.49349      705.49349      2147.2533      2852.7467      2147.2533      2852.7467      2147.2533      2852.7467      3.5113897e+08  0.1            16385960       0.75290777     1250.1267      12501.312      7.0899064    
  51814800   39586.763     -24.36874      -43634914       1.7038747      117410.62     -43517503       705.49349      705.49349      705.49349      2147.2533      2852.7467      2147.2533      2852.7467      2147.2533      2852.7467      3.5113897e+08  0.1            16385980       0.76928722     1221.056       12210.49       7.0806079    
  51815000   39941.025     -25.889717     -43635550       1.7038747      118461.33     -43517089       705.49349      705.49349      705.49349      2147.2533      2852.7467      2147.2533      2852.7467      2147.2533      2852.7467      3.5113897e+08  0.1            16386000       0.78455222     1310.1791      13101.894      7.0609936    
  51815200   40067.892     -27.243628     -43635816       1.7038747      118837.6      -43516979       705.49349      705.49349      705.49349      2147.2533      2852.7467      2147.2533      2852.7467      2147.2533      2852.7467      3.5113897e+08  0.1            16386020       0.79972381     1318.2598      13182.616      7.0407279    
  51815400   40021.039     -28.581484     -43636448       1.7038747      118698.64     -43517749       705.49349      705.49349      705.49349      2147.2533      2852.7467      2147.2533      2852.7467      2147.2533      2852.7467      3.5113897e+08  0.1            16386040       0.81487578     1319.9761      13199.708      7.0204881    
  51815600   39869.166     -29.756084     -43637075       1.7038747      118248.2      -43518827       705.49349      705.49349      705.49349      2147.2533      2852.7467      2147.2533      2852.7467      2147.2533      2852.7467      3.5113897e+08  0.1            16386060       0.82971617     1347.6643      13476.732      6.9978136    
  51815800   39687.12      -30.876559     -43637697       1.7038747      117708.27     -43519988       705.49349      705.49349      705.49349      2147.2533      2852.7467      2147.2533      2852.7467      2147.2533      2852.7467      3.5113897e+08  0.1            16386080       0.84458853     1344.7806      13447.776      6.9756941    
  51816000   39547.758     -31.680716     -43630935       1.7038747      117294.93     -43513640       705.49349      705.49349      705.49349      2147.2533      2852.7467      2147.2533      2852.7467      2147.2533      2852.7467      3.5113897e+08  0.1            16386100       0.85965138     1327.7536      13277.545      6.9553809    
  51816200   39516.612     -32.727183     -43631179       1.7038747      117202.56     -43513976       705.49349      705.49349      705.49349      2147.2533      2852.7467      2147.2533      2852.7467      2147.2533      2852.7467      3.5113897e+08  0.1            16386120       0.87443634     1352.738       13527.351      6.9330493    
  51816400   39649.01      -33.567728     -43629523       1.7038747      117595.24     -43511928       705.49349      705.49349      705.49349      2147.2533      2852.7467      2147.2533      2852.7467      2147.2533      2852.7467      3.5113897e+08  0.1            16386140       0.88910394     1363.5475      13635.5        6.9100721    
  51816600   39989.123     -34.400886     -43628235       1.7038747      118603.98     -43509631       705.49349      705.49349      705.49349      2147.2533      2852.7467      2147.2533      2852.7467      2147.2533      2852.7467      3.5113897e+08  0.1            16386160       0.90391106     1350.7082      13507.105      6.8884422    
  51816800   40567.567     -35.370785     -43628840       1.7038747      120319.59     -43508521       705.49349      705.49349      705.49349      2147.2533      2852.7467      2147.2533      2852.7467      2147.2533      2852.7467      3.5113897e+08  0.1            16386180       0.91862898     1358.8879      13588.843      6.866379     
  51817000   41398.859     -36.428145     -43629446       1.7038747      122785.12     -43506661       705.49349      705.49349      705.49349      2147.2533      2852.7467      2147.2533      2852.7467      2147.2533      2852.7467      3.5113897e+08  0.1            16386200       0.93352383     1342.7378      13427.303      6.8458596    
  51817200   42478.428     -37.582844     -43630052       1.7038747      125987.03     -43504065       705.49349      705.49349      705.49349      2147.2533      2852.7467      2147.2533      2852.7467      2147.2533      2852.7467      3.5113897e+08  0.1            16386220       0.9483411      1349.7751      13497.826      6.8249633    
  51817400   43780.512     -38.275642     -43623286       1.7038747      129848.88     -43493437       705.49349      705.49349      705.49349      2147.2533      2852.7467      2147.2533      2852.7467      2147.2533      2852.7467      3.5113897e+08  0.1            16386240       0.96334466     1333.0234      13330.246      6.8055795    
  51817600   45258.71      -38.976279     -43623902       1.7038747      134233.08     -43489669       705.49349      705.49349      705.49349      2147.2533      2852.7467      2147.2533      2852.7467      2147.2533      2852.7467      3.5113897e+08  0.1            16386260       0.97795673     1368.7331      13687.348      6.7836199    
  51817800   46852.49      -39.283729     -43622627       1.7038747      138960.08     -43483667       705.49349      705.49349      705.49349      2147.2533      2852.7467      2147.2533      2852.7467      2147.2533      2852.7467      3.5113897e+08  0.1            16386280       0.99291047     1337.4619      13374.512      6.7642182    
  51818000   48493.969     -40.191693     -43630629       1.7038747      143828.55     -43486801       705.49349      705.49349      705.49349      2147.2533      2852.7467      2147.2533      2852.7467      2147.2533      2852.7467      3.5113897e+08  0.1            16386300       1.0074808      1372.6445      13726.47       6.742388     
  51818200   50113.847     -40.926911     -43631258       1.7038747      148632.96     -43482625       705.49349      705.49349      705.49349      2147.2533      2852.7467      2147.2533      2852.7467      2147.2533      2852.7467      3.5113897e+08  0.1            16386320       1.0223878      1341.6566      13416.617      6.7229891    
  51818400   51645.328     -41.855921     -43631890       1.7038747      153175.19     -43478714       705.49349      705.49349      705.49349      2147.2533      2852.7467      2147.2533      2852.7467      2147.2533      2852.7467      3.5113897e+08  0.1            16386340       1.0372238      1348.0758      13480.753      6.7032665    
  51818600   53028.572     -42.532077     -43625146       1.7038747      157277.76     -43467868       705.49349      705.49349      705.49349      2147.2533      2852.7467      2147.2533      2852.7467      2147.2533      2852.7467      3.5113897e+08  0.1            16386360       1.0524027      1317.6145      13176.199      6.6858663    
  51818800   54212.83      -43.579751     -43625779       1.7038747      160790.16     -43464989       705.49349      705.49349      705.49349      2147.2533      2852.7467      2147.2533      2852.7467      2147.2533      2852.7467      3.5113897e+08  0.1            16386380       1.0673839      1335.0126      13349.992      6.6672962    
  51819000   55160.525     -44.987112     -43633788       1.7038747      163600.93     -43470187       705.49349      705.49349      705.49349      2147.2533      2852.7467      2147.2533      2852.7467      2147.2533      2852.7467      3.5113897e+08  0.1            16386400       1.0822205      1347.9928      13479.928      6.6479425    
  51819200   55852.794     -45.978317     -43634416       1.7038747      165654.14     -43468761       705.49349      705.49349      705.49349      2147.2533      2852.7467      2147.2533      2852.7467      2147.2533      2852.7467      3.5113897e+08  0.1            16386420       1.0968107      1370.7838      13707.948      6.627223     
  51819400   56291.211     -46.49679      -43627662       1.7038747      166954.44     -43460707       705.49349      705.49349      705.49349      2147.2533      2852.7467      2147.2533      2852.7467      2147.2533      2852.7467      3.5113897e+08  0.1            16386440       1.1114483      1366.358       13663.521      6.6069568    
  51819600   56499.13      -47.040441     -43620903       1.7038747      167571.11     -43453332       705.49349      705.49349      705.49349      2147.2533      2852.7467      2147.2533      2852.7467      2147.2533      2852.7467      3.5113897e+08  0.1            16386460       1.1259362      1380.4738      13804.822      6.5859679    
  51819800   56521.398     -47.859455     -43614508       1.7038747      167637.15     -43446871       705.49349      705.49349      705.49349      2147.2533      2852.7467      2147.2533      2852.7467      2147.2533      2852.7467      3.5113897e+08  0.1            16386480       1.1404199      1380.858       13808.564      6.5651325    
  51820000   56418.458     -48.935453     -43615117       1.7038747      167331.84     -43447785       705.49349      705.49349      705.49349      2147.2533      2852.7467      2147.2533      2852.7467      2147.2533      2852.7467      3.5113897e+08  0.1            16386500       1.1553288      1341.4882      13414.778      6.5468759    
  51820200   56259.951     -50.009685     -43615717       1.7038747      166861.73     -43448855       705.49349      705.49349      705.49349      2147.2533      2852.7467      2147.2533      2852.7467      2147.2533      2852.7467      3.5113897e+08  0.1            16386520       1.1700555      1358.0675      13580.782      6.5276902    
  51820400   56117.503     -51.254455     -43616308       1.7038747      166439.24     -43449869       705.49349      705.49349      705.49349      2147.2533      2852.7467      2147.2533      2852.7467      2147.2533      2852.7467      3.5113897e+08  0.1            16386540       1.1846035      1374.7518      13747.434      6.5076405    
  51820600   56059.34      -52.879862     -43618785       1.7038747      166266.73     -43452518       705.49349      705.49349      705.49349      2147.2533      2852.7467      2147.2533      2852.7467      2147.2533      2852.7467      3.5113897e+08  0.1            16386560       1.1994459      1347.505       13475.081      6.4893218    
  51820800   56145.449     -53.942041     -43617465       1.7038747      166522.12     -43450943       705.49349      705.49349      705.49349      2147.2533      2852.7467      2147.2533      2852.7467      2147.2533      2852.7467      3.5113897e+08  0.1            16386580       1.2140991      1364.8871      13648.908      6.4700842    
  51821000   56424.306     -54.692272     -43617664       1.7038747      167349.19     -43450315       705.49349      705.49349      705.49349      2147.2533      2852.7467      2147.2533      2852.7467      2147.2533      2852.7467      3.5113897e+08  0.1            16386600       1.2286563      1373.8915      13738.849      6.4504578    
  51821200   56931.742     -55.237686     -43618225       1.7038747      168854.19     -43449371       705.49349      705.49349      705.49349      2147.2533      2852.7467      2147.2533      2852.7467      2147.2533      2852.7467      3.5113897e+08  0.1            16386620       1.2432414      1371.2482      13712.544      6.4311003    
  51821400   57687.719     -55.495531     -43618781       1.7038747      171096.35     -43447685       705.49349      705.49349      705.49349      2147.2533      2852.7467      2147.2533      2852.7467      2147.2533      2852.7467      3.5113897e+08  0.1            16386640       1.2581238      1343.8799      13438.776      6.4133746    
  51821600   58694.076     -55.570503     -43619335       1.7038747      174081.11     -43445253       705.49349      705.49349      705.49349      2147.2533      2852.7467      2147.2533      2852.7467      2147.2533      2852.7467      3.5113897e+08  0.1            16386660       1.2725737      1384.0999      13841.043      6.3935434    
  51821800   59932.265     -55.595089     -43619884       1.7038747      177753.46     -43442130       705.49349      705.49349      705.49349      2147.2533      2852.7467      2147.2533      2852.7467      2147.2533      2852.7467      3.5113897e+08  0.1            16386680       1.2874168      1347.4224      13474.164      6.3757895    
  51822000   61364.248     -55.875563     -43622324       1.7038747      182000.59     -43440324       705.49349      705.49349      705.49349      2147.2533      2852.7467      2147.2533      2852.7467      2147.2533      2852.7467      3.5113897e+08  0.1            16386700       1.3019848      1372.856       13728.524      6.3567618    
  51822200   62935.955     -56.096637     -43622498       1.7038747      186662.13     -43435836       705.49349      705.49349      705.49349      2147.2533      2852.7467      2147.2533      2852.7467      2147.2533      2852.7467      3.5113897e+08  0.1            16386720       1.3168563      1344.87        13448.719      6.3392961    
  51822400   64581.651     -56.537035     -43623038       1.7038747      191543.11     -43431495       705.49349      705.49349      705.49349      2147.2533      2852.7467      2147.2533      2852.7467      2147.2533      2852.7467      3.5113897e+08  0.1            16386740       1.3317838      1339.8154      13398.25       6.3221561    
  51822600   66229.771     -56.905336     -43623576       1.7038747      196431.28     -43427145       705.49349      705.49349      705.49349      2147.2533      2852.7467      2147.2533      2852.7467      2147.2533      2852.7467      3.5113897e+08  0.1            16386760       1.3462279      1384.6461      13846.462      6.3028041    
  51822800   67808.505     -57.148381     -43624111       1.7038747      201113.65     -43422997       705.49349      705.49349      705.49349      2147.2533      2852.7467      2147.2533      2852.7467      2147.2533      2852.7467      3.5113897e+08  0.1            16386780       1.3614562      1313.3423      13133.429      6.2871839    
  51823000   69251.244     -57.52041      -43624641       1.7038747      205392.68     -43419248       705.49349      705.49349      705.49349      2147.2533      2852.7467      2147.2533      2852.7467      2147.2533      2852.7467      3.5113897e+08  0.1            16386800       1.3759649      1378.4807      13784.702      6.2682955    
  51823200   70501.611     -58.105837     -43625167       1.7038747      209101.15     -43416066       705.49349      705.49349      705.49349      2147.2533      2852.7467      2147.2533      2852.7467      2147.2533      2852.7467      3.5113897e+08  0.1            16386820       1.3906339      1363.4188      13634.252      6.2502217    
  51823400   71516.385     -58.7097       -43625688       1.7038747      212110.88     -43413577       705.49349      705.49349      705.49349      2147.2533      2852.7467      2147.2533      2852.7467      2147.2533      2852.7467      3.5113897e+08  0.1            16386840       1.4051259      1380.0787      13800.803      6.2314371    
  51823600   72270.147     -59.10691      -43626201       1.7038747      214346.46     -43411855       705.49349      705.49349      705.49349      2147.2533      2852.7467      2147.2533      2852.7467      2147.2533      2852.7467      3.5113897e+08  0.1            16386860       1.4196923      1373.0162      13730.124      6.2130714    
  51823800   72758.512     -59.504103     -43626704       1.7038747      215794.91     -43410909       705.49349      705.49349      705.49349      2147.2533      2852.7467      2147.2533      2852.7467      2147.2533      2852.7467      3.5113897e+08  0.1            16386880       1.4341366      1384.6279      13846.287      6.1942593    
  51824000   72999.974     -60.218356     -43627196       1.7038747      216511.06     -43410685       705.49349      705.49349      705.49349      2147.2533      2852.7467      2147.2533      2852.7467      2147.2533      2852.7467      3.5113897e+08  0.1            16386900       1.4486056      1382.276       13822.689      6.1756439    
  51824200   73035.45      -61.267561     -43628044       1.7038747      216616.28     -43411428       705.49349      705.49349      705.49349      2147.2533      2852.7467      2147.2533      2852.7467      2147.2533      2852.7467      3.5113897e+08  0.1            16386920       1.4634824      1344.3662      13443.738      6.1588312    
  51824400   72923.849     -61.866066     -43621133       1.7038747      216285.28     -43404848       705.49349      705.49349      705.49349      2147.2533      2852.7467      2147.2533      2852.7467      2147.2533      2852.7467      3.5113897e+08  0.1            16386940       1.4781175      1366.579       13665.812      6.1410538    
  51824600   72735.434     -63.283389     -43628966       1.7038747      215726.46     -43413239       705.49349      705.49349      705.49349      2147.2533      2852.7467      2147.2533      2852.7467      2147.2533      2852.7467      3.5113897e+08  0.1            16386960       1.4926164      1379.4177      13794.165      6.1227831    
  51824800   72545.594     -64.409273     -43636787       1.7038747      215163.41     -43421623       705.49349      705.49349      705.49349      2147.2533      2852.7467      2147.2533      2852.7467      2147.2533      2852.7467      3.5113897e+08  0.1            16386980       1.5071464      1376.4673      13764.701      6.1047125    
  51825000   72426.831     -64.778824     -43637218       1.7038747      214811.17     -43422407       705.49349      705.49349      705.49349      2147.2533      2852.7467      2147.2533      2852.7467      2147.2533      2852.7467      3.5113897e+08  0.1            16387000       1.5215905      1384.6358      13846.286      6.0863714    
  51825200   72444.942     -64.7286       -43630262       1.7038747      214864.89     -43415397       705.49349      705.49349      705.49349      2147.2533      2852.7467      2147.2533      2852.7467      2147.2533      2852.7467      3.5113897e+08  0.1            16387020       1.5363796      1352.3517      13523.579      6.0694686    
  51825400   72654.559     -65.61921      -43638051       1.7038747      215486.59     -43422565       705.49349      705.49349      705.49349      2147.2533      2852.7467      2147.2533      2852.7467      2147.2533      2852.7467      3.5113897e+08  0.1            16387040       1.5512132      1348.2975      13482.966      6.0527813    
  51825600   73096.462     -66.011449     -43638086       1.7038747      216797.23     -43421289       705.49349      705.49349      705.49349      2147.2533      2852.7467      2147.2533      2852.7467      2147.2533      2852.7467      3.5113897e+08  0.1            16387060       1.565647       1385.628       13856.264      6.0345894    
  51825800   73795.131     -66.415147     -43638480       1.7038747      218869.42     -43419611       705.49349      705.49349      705.49349      2147.2533      2852.7467      2147.2533      2852.7467      2147.2533      2852.7467      3.5113897e+08  0.1            16387080       1.580097       1384.0796      13840.772      6.0165315    
  51826000   74755.85      -66.76849      -43636971       1.7038747      221718.82     -43415252       705.49349      705.49349      705.49349      2147.2533      2852.7467      2147.2533      2852.7467      2147.2533      2852.7467      3.5113897e+08  0.1            16387100       1.5949358      1347.7944      13477.965      6.000006     
  51826200   75963.677     -67.371233     -43637714       1.7038747      225301.12     -43412412       705.49349      705.49349      705.49349      2147.2533      2852.7467      2147.2533      2852.7467      2147.2533      2852.7467      3.5113897e+08  0.1            16387120       1.609485       1374.6741      13746.724      5.9824336    
  51826400   77383.897     -67.723759     -43638078       1.7038747      229513.36     -43408565       705.49349      705.49349      705.49349      2147.2533      2852.7467      2147.2533      2852.7467      2147.2533      2852.7467      3.5113897e+08  0.1            16387140       1.6240379      1374.2963      13734.133      5.9649671    
  51826600   78964.673     -68.030411     -43638436       1.7038747      234201.8      -43404234       705.49349      705.49349      705.49349      2147.2533      2852.7467      2147.2533      2852.7467      2147.2533      2852.7467      3.5113897e+08  0.1            16387160       1.638484       1384.4665      13853.654      5.9470977    
  51826800   80639.85      -68.297538     -43638786       1.7038747      239170.21     -43399616       705.49349      705.49349      705.49349      2147.2533      2852.7467      2147.2533      2852.7467      2147.2533      2852.7467      3.5113897e+08  0.1            16387180       1.6533583      1344.5993      13445.995      5.9308952    
  51827000   82334.952     -68.399869     -43639130       1.7038747      244197.73     -43394932       705.49349      705.49349      705.49349      2147.2533      2852.7467      2147.2533      2852.7467      2147.2533      2852.7467      3.5113897e+08  0.1            16387200       1.6677996      1384.9187      13849.084      5.9131157    
  51827200   83973.769     -68.009333     -43639464       1.7038747      249058.3      -43390405       705.49349      705.49349      705.49349      2147.2533      2852.7467      2147.2533      2852.7467      2147.2533      2852.7467      3.5113897e+08  0.1            16387220       1.6824429      1365.816       13658.254      5.8961356    
  51827400   85483.528     -67.333973     -43639784       1.7038747      253536.11     -43386248       705.49349      705.49349      705.49349      2147.2533      2852.7467      2147.2533      2852.7467      2147.2533      2852.7467      3.5113897e+08  0.1            16387240       1.6969032      1383.0975      13831.002      5.8785656    
  51827600   86802.226     -67.149034     -43647470       1.7038747      257447.24     -43390023       705.49349      705.49349      705.49349      2147.2533      2852.7467      2147.2533      2852.7467      2147.2533      2852.7467      3.5113897e+08  0.1            16387260       1.7113845      1381.092       13810.843      5.8611205    
  51827800   87882.082     -66.563706     -43647766       1.7038747      260649.99     -43387116       705.49349      705.49349      705.49349      2147.2533      2852.7467      2147.2533      2852.7467      2147.2533      2852.7467      3.5113897e+08  0.1            16387280       1.72598        1370.2748      13702.826      5.8441148    
  51828000   88692.986     -66.363855     -43655429       1.7038747      263055.06     -43392374       705.49349      705.49349      705.49349      2147.2533      2852.7467      2147.2533      2852.7467      2147.2533      2852.7467      3.5113897e+08  0.1            16387300       1.7405945      1368.4955      13684.867      5.8272159    
  51828200   89227.477     -65.655853     -43648324       1.7038747      264640.31     -43383684       705.49349      705.49349      705.49349      2147.2533      2852.7467      2147.2533      2852.7467      2147.2533      2852.7467      3.5113897e+08  0.1            16387320       1.7557024      1323.8195      13238.232      5.8119876    
  51828400   89499.908     -65.467247     -43648584       1.7038747      265448.32     -43383135       705.49349      705.49349      705.49349      2147.2533      2852.7467      2147.2533      2852.7467      2147.2533      2852.7467      3.5113897e+08  0.1            16387340       1.7705287      1348.9465      13489.487      5.7958409    
  51828600   89547.234     -65.668261     -43656205       1.7038747      265588.68     -43390616       705.49349      705.49349      705.49349      2147.2533      2852.7467      2147.2533      2852.7467      2147.2533      2852.7467      3.5113897e+08  0.1            16387360       1.7854563      1339.8022      13398.011      5.7800438    
  51828800   89426.668     -65.740431     -43656064       1.7038747      265231.09     -43390832       705.49349      705.49349      705.49349      2147.2533      2852.7467      2147.2533      2852.7467      2147.2533      2852.7467      3.5113897e+08  0.1            16387380       1.8005398      1325.943       13259.38       5.7647615    
  51829000   89209.63      -66.255222     -43659865       1.7038747      264587.38     -43395278       705.49349      705.49349      705.49349      2147.2533      2852.7467      2147.2533      2852.7467      2147.2533      2852.7467      3.5113897e+08  0.1            16387400       1.8157856      1311.8054      13118.071      5.7499963    
  51829200   88974.644     -66.326302     -43652690       1.7038747      263890.43     -43388799       705.49349      705.49349      705.49349      2147.2533      2852.7467      2147.2533      2852.7467      2147.2533      2852.7467      3.5113897e+08  0.1            16387420       1.8313417      1285.6784      12856.81       5.7361942    
  51829400   88797.605     -66.560898     -43652879       1.7038747      263365.35     -43389514       705.49349      705.49349      705.49349      2147.2533      2852.7467      2147.2533      2852.7467      2147.2533      2852.7467      3.5113897e+08  0.1            16387440       1.8466148      1309.5185      13095.217      5.7214856    
  51829600   88749.051     -66.980882     -43653055       1.7038747      263221.34     -43389833       705.49349      705.49349      705.49349      2147.2533      2852.7467      2147.2533      2852.7467      2147.2533      2852.7467      3.5113897e+08  0.1            16387460       1.8621108      1290.6367      12906.343      5.707453     
  51829800   88889.016     -67.178866     -43645839       1.7038747      263636.47     -43382203       705.49349      705.49349      705.49349      2147.2533      2852.7467      2147.2533      2852.7467      2147.2533      2852.7467      3.5113897e+08  0.1            16387480       1.8772414      1321.8507      13218.247      5.692288     
  51830000   89263.452     -67.403179     -43645988       1.7038747      264747.01     -43381241       705.49349      705.49349      705.49349      2147.2533      2852.7467      2147.2533      2852.7467      2147.2533      2852.7467      3.5113897e+08  0.1            16387500       1.8923136      1326.933       13269.428      5.6769488    
  51830200   89902.16      -67.228275     -43646123       1.7038747      266641.36     -43379482       705.49349      705.49349      705.49349      2147.2533      2852.7467      2147.2533      2852.7467      2147.2533      2852.7467      3.5113897e+08  0.1            16387520       1.9077646      1294.426       12944.383      5.6627365    
  51830400   90814.92      -66.746239     -43646245       1.7038747      269348.51     -43376897       705.49349      705.49349      705.49349      2147.2533      2852.7467      2147.2533      2852.7467      2147.2533      2852.7467      3.5113897e+08  0.1            16387540       1.9231083      1303.4362      13034.406      5.6481917    
  51830600   91990.575     -66.447745     -43653732       1.7038747      272835.4      -43380897       705.49349      705.49349      705.49349      2147.2533      2852.7467      2147.2533      2852.7467      2147.2533      2852.7467      3.5113897e+08  0.1            16387560       1.9384954      1299.8189      12998.18       5.6337588    
  51830800   93396.512     -65.576172     -43653828       1.7038747      277005.28     -43376823       705.49349      705.49349      705.49349      2147.2533      2852.7467      2147.2533      2852.7467      2147.2533      2852.7467      3.5113897e+08  0.1            16387580       1.9540179      1288.4473      12884.498      5.6197014    
  51831000   94979.961     -64.664462     -43653907       1.7038747      281701.63     -43372206       705.49349      705.49349      705.49349      2147.2533      2852.7467      2147.2533      2852.7467      2147.2533      2852.7467      3.5113897e+08  0.1            16387600       1.9694051      1299.7911      12997.838      5.6052367    
  51831200   96674.666     -63.964223     -43653969       1.7038747      286727.97     -43367241       705.49349      705.49349      705.49349      2147.2533      2852.7467      2147.2533      2852.7467      2147.2533      2852.7467      3.5113897e+08  0.1            16387620       1.9846328      1313.3909      13133.969      5.5903078    
  51831400   98406.417     -64.278332     -43668776       1.7038747      291864.18     -43376911       705.49349      705.49349      705.49349      2147.2533      2852.7467      2147.2533      2852.7467      2147.2533      2852.7467      3.5113897e+08  0.1            16387640       2.0000027      1301.2399      13012.418      5.5757713    
  51831600   100096.81     -63.678327     -43661438       1.7038747      296877.73     -43364560       705.49349      705.49349      705.49349      2147.2533      2852.7467      2147.2533      2852.7467      2147.2533      2852.7467      3.5113897e+08  0.1            16387660       2.0152865      1308.5725      13085.737      5.5609849    
  51831800   101668.98     -63.213156     -43661463       1.7038747      301540.63     -43359922       705.49349      705.49349      705.49349      2147.2533      2852.7467      2147.2533      2852.7467      2147.2533      2852.7467      3.5113897e+08  0.1            16387680       2.0304734      1316.9328      13169.303      5.5459259    
  51832000   103054.62     -61.942476     -43655986       1.7038747      305650.32     -43350336       705.49349      705.49349      705.49349      2147.2533      2852.7467      2147.2533      2852.7467      2147.2533      2852.7467      3.5113897e+08  0.1            16387700       2.0455714      1324.6732      13246.635      5.5306257    
  51832200   104201.98     -60.645764     -43655975       1.7038747      309053.28     -43346922       705.49349      705.49349      705.49349      2147.2533      2852.7467      2147.2533      2852.7467      2147.2533      2852.7467      3.5113897e+08  0.1            16387720       2.061429       1261.2242      12612.265      5.5173609    
  51832400   105076.61     -59.27565      -43655949       1.7038747      311647.35     -43344301       705.49349      705.49349      705.49349      2147.2533      2852.7467      2147.2533      2852.7467      2147.2533      2852.7467      3.5113897e+08  0.1            16387740       2.0766076      1317.6425      13176.351      5.502259     
  51832600   105665.73     -58.161389     -43655908       1.7038747      313394.62     -43342513       705.49349      705.49349      705.49349      2147.2533      2852.7467      2147.2533      2852.7467      2147.2533      2852.7467      3.5113897e+08  0.1            16387760       2.0917311      1322.4506      13224.635      5.4870107    
  51832800   105980.38     -57.637654     -43655854       1.7038747      314327.85     -43341526       705.49349      705.49349      705.49349      2147.2533      2852.7467      2147.2533      2852.7467      2147.2533      2852.7467      3.5113897e+08  0.1            16387780       2.107036       1306.7432      13067.467      5.4722367    
  51833000   106054.05     -57.005351     -43651995       1.7038747      314546.34     -43337449       705.49349      705.49349      705.49349      2147.2533      2852.7467      2147.2533      2852.7467      2147.2533      2852.7467      3.5113897e+08  0.1            16387800       2.1223203      1308.5545      13085.435      5.4574018    
  51833200   105941.58     -56.720725     -43650017       1.7038747      314212.78     -43335805       705.49349      705.49349      705.49349      2147.2533      2852.7467      2147.2533      2852.7467      2147.2533      2852.7467      3.5113897e+08  0.1            16387820       2.1376061      1308.3822      13083.935      5.4425638    
  51833400   105712.66     -57.068064     -43649920       1.7038747      313533.81     -43336387       705.49349      705.49349      705.49349      2147.2533      2852.7467      2147.2533      2852.7467      2147.2533      2852.7467      3.5113897e+08  0.1            16387840       2.1532779      1276.2094      12762.078      5.4286919    
  51833600   105444.94     -57.581209     -43649807       1.7038747      312739.77     -43337068       705.49349      705.49349      705.49349      2147.2533      2852.7467      2147.2533      2852.7467      2147.2533      2852.7467      3.5113897e+08  0.1            16387860       2.1684326      1319.7244      13197.2        5.4135053    
  51833800   105218.45     -57.839385     -43651574       1.7038747      312068.03     -43339506       705.49349      705.49349      705.49349      2147.2533      2852.7467      2147.2533      2852.7467      2147.2533      2852.7467      3.5113897e+08  0.1            16387880       2.1836483      1314.4288      13144.258      5.3984695    
  51834000   105108.94     -56.82964      -43644054       1.7038747      311743.25     -43332310       705.49349      705.49349      705.49349      2147.2533      2852.7467      2147.2533      2852.7467      2147.2533      2852.7467      3.5113897e+08  0.1            16387900       2.1990892      1295.2509      12952.49       5.3839833    
  51834200   105181.71     -55.849227     -43643897       1.7038747      311959.05     -43331938       705.49349      705.49349      705.49349      2147.2533      2852.7467      2147.2533      2852.7467      2147.2533      2852.7467      3.5113897e+08  0.1            16387920       2.2146563      1284.7668      12847.573      5.3697893    
  51834400   105488.32     -55.108644     -43643727       1.7038747      312868.45     -43330858       705.49349      705.49349      705.49349      2147.2533      2852.7467      2147.2533      2852.7467      2147.2533      2852.7467      3.5113897e+08  0.1            16387940       2.2301867      1287.7999      12878.13       5.3554881    
  51834600   106063.14     -54.412565     -43643543       1.7038747      314573.32     -43328969       705.49349      705.49349      705.49349      2147.2533      2852.7467      2147.2533      2852.7467      2147.2533      2852.7467      3.5113897e+08  0.1            16387960       2.2459066      1272.2675      12722.597      5.3416215    
  51834800   106920.15     -53.702391     -43643343       1.7038747      317115.13     -43326228       705.49349      705.49349      705.49349      2147.2533      2852.7467      2147.2533      2852.7467      2147.2533      2852.7467      3.5113897e+08  0.1            16387980       2.2619584      1245.9691      12459.826      5.3285113    
  51835000   108052.39     -53.395692     -43650507       1.7038747      320473.24     -43330034       705.49349      705.49349      705.49349      2147.2533      2852.7467      2147.2533      2852.7467      2147.2533      2852.7467      3.5113897e+08  0.1            16388000       2.2778881      1255.5207      12555.033      5.315078     
  51835200   109430.81     -52.557746     -43657656       1.7038747      324561.5      -43333094       705.49349      705.49349      705.49349      2147.2533      2852.7467      2147.2533      2852.7467      2147.2533      2852.7467      3.5113897e+08  0.1            16388020       2.2937485      1260.9975      12610.123      5.3014504    
  51835400   111005.34     -50.690548     -43657044       1.7038747      329231.4      -43327812       705.49349      705.49349      705.49349      2147.2533      2852.7467      2147.2533      2852.7467      2147.2533      2852.7467      3.5113897e+08  0.1            16388040       2.3091298      1300.2759      13002.772      5.2866976    
  51835600   112710.36     -48.665272     -43649407       1.7038747      334288.34     -43315119       705.49349      705.49349      705.49349      2147.2533      2852.7467      2147.2533      2852.7467      2147.2533      2852.7467      3.5113897e+08  0.1            16388060       2.3245551      1296.5748      12965.729      5.2720353    
  51835800   114469.4      -47.333206     -43649135       1.7038747      339505.49     -43309630       705.49349      705.49349      705.49349      2147.2533      2852.7467      2147.2533      2852.7467      2147.2533      2852.7467      3.5113897e+08  0.1            16388080       2.3399816      1296.4644      12964.581      5.2573667    
  51836000   116200.25     -46.016623     -43648847       1.7038747      344639.02     -43304208       705.49349      705.49349      705.49349      2147.2533      2852.7467      2147.2533      2852.7467      2147.2533      2852.7467      3.5113897e+08  0.1            16388100       2.3556845      1273.6557      12736.451      5.2433036    
  51836200   117823.69     -44.775177     -43655916       1.7038747      349453.98     -43306462       705.49349      705.49349      705.49349      2147.2533      2852.7467      2147.2533      2852.7467      2147.2533      2852.7467      3.5113897e+08  0.1            16388120       2.3709962      1306.1988      13062.164      5.2283553    
  51836400   119269.31     -43.559677     -43655589       1.7038747      353741.55     -43301847       705.49349      705.49349      705.49349      2147.2533      2852.7467      2147.2533      2852.7467      2147.2533      2852.7467      3.5113897e+08  0.1            16388140       2.3861511      1319.6973      13196.899      5.2130614    
  51836600   120481.2      -43.535891     -43662993       1.7038747      357335.93     -43305657       705.49349      705.49349      705.49349      2147.2533      2852.7467      2147.2533      2852.7467      2147.2533      2852.7467      3.5113897e+08  0.1            16388160       2.4013284      1317.7564      13177.625      5.1978171    
  51836800   121420.72     -42.911564     -43662636       1.7038747      360122.46     -43302514       705.49349      705.49349      705.49349      2147.2533      2852.7467      2147.2533      2852.7467      2147.2533      2852.7467      3.5113897e+08  0.1            16388180       2.4166189      1307.999       13080.014      5.1828166    
  51837000   122069.68     -41.878346     -43664528       1.7038747      362047.19     -43302481       705.49349      705.49349      705.49349      2147.2533      2852.7467      2147.2533      2852.7467      2147.2533      2852.7467      3.5113897e+08  0.1            16388200       2.4319634      1303.4118      13034.059      5.1679271    
  51837200   122433.2      -40.521616     -43666033       1.7038747      363125.38     -43302908       705.49349      705.49349      705.49349      2147.2533      2852.7467      2147.2533      2852.7467      2147.2533      2852.7467      3.5113897e+08  0.1            16388220       2.4472155      1311.2815      13112.824      5.1528376    
  51837400   122541.65     -39.930628     -43674901       1.7038747      363447.01     -43311454       705.49349      705.49349      705.49349      2147.2533      2852.7467      2147.2533      2852.7467      2147.2533      2852.7467      3.5113897e+08  0.1            16388240       2.4627366      1288.5729      12885.775      5.1383073    
  51837600   122447.7      -38.906626     -43674484       1.7038747      363168.36     -43311316       705.49349      705.49349      705.49349      2147.2533      2852.7467      2147.2533      2852.7467      2147.2533      2852.7467      3.5113897e+08  0.1            16388260       2.4778313      1324.9749      13249.768      5.1228828    
  51837800   122219.21     -37.692657     -43674057       1.7038747      362490.7      -43311567       705.49349      705.49349      705.49349      2147.2533      2852.7467      2147.2533      2852.7467      2147.2533      2852.7467      3.5113897e+08  0.1            16388280       2.49292        1325.4699      13254.691      5.1074508    
  51838000   121933.86     -36.965133     -43680997       1.7038747      361644.36     -43319352       705.49349      705.49349      705.49349      2147.2533      2852.7467      2147.2533      2852.7467      2147.2533      2852.7467      3.5113897e+08  0.1            16388300       2.5082315      1306.2257      13062.114      5.092475     
  51838200   121673.69     -35.86578      -43680547       1.7038747      360872.74     -43319674       705.49349      705.49349      705.49349      2147.2533      2852.7467      2147.2533      2852.7467      2147.2533      2852.7467      3.5113897e+08  0.1            16388320       2.5238415      1281.2358      12812.496      5.078095     
  51838400   121516.8      -34.615524     -43679716       1.7038747      360407.42     -43319309       705.49349      705.49349      705.49349      2147.2533      2852.7467      2147.2533      2852.7467      2147.2533      2852.7467      3.5113897e+08  0.1            16388340       2.5389454      1324.1555      13236.733      5.062703     
  51838600   121532.56     -33.14567      -43671862       1.7038747      360454.16     -43311408       705.49349      705.49349      705.49349      2147.2533      2852.7467      2147.2533      2852.7467      2147.2533      2852.7467      3.5113897e+08  0.1            16388360       2.5545433      1282.2199      12826.702      5.0482687    
  51838800   121777.4      -31.846901     -43671375       1.7038747      361180.33     -43310194       705.49349      705.49349      705.49349      2147.2533      2852.7467      2147.2533      2852.7467      2147.2533      2852.7467      3.5113897e+08  0.1            16388380       2.5697688      1313.5919      13135.9        5.0331021    
  51839000   122289.54     -30.304652     -43670873       1.7038747      362699.29     -43308174       705.49349      705.49349      705.49349      2147.2533      2852.7467      2147.2533      2852.7467      2147.2533      2852.7467      3.5113897e+08  0.1            16388400       2.5850094      1312.2815      13122.705      5.0179645    
  51839200   123088.29     -28.927063     -43670357       1.7038747      365068.28     -43305289       705.49349      705.49349      705.49349      2147.2533      2852.7467      2147.2533      2852.7467      2147.2533      2852.7467      3.5113897e+08  0.1            16388420       2.6003639      1302.5518      13025.675      5.0030436    
  51839400   124171.21     -26.88993      -43662451       1.7038747      368280.14     -43294171       705.49349      705.49349      705.49349      2147.2533      2852.7467      2147.2533      2852.7467      2147.2533      2852.7467      3.5113897e+08  0.1            16388440       2.6156495      1308.4233      13084.253      4.9879869    
  51839600   125512.53     -25.103843     -43667393       1.7038747      372258.36     -43295135       705.49349      705.49349      705.49349      2147.2533      2852.7467      2147.2533      2852.7467      2147.2533      2852.7467      3.5113897e+08  0.1            16388460       2.6307717      1322.5559      13225.458      4.9726194    
  51839800   127065.15     -22.963285     -43664945       1.7038747      376863.28     -43288081       705.49349      705.49349      705.49349      2147.2533      2852.7467      2147.2533      2852.7467      2147.2533      2852.7467      3.5113897e+08  0.1            16388480       2.6460371      1310.155       13101.554      4.957522     
  51840000   128764.67     -21.059038     -43665905       1.7038747      381903.91     -43284001       705.49349      705.49349      705.49349      2147.2533      2852.7467      2147.2533      2852.7467      2147.2533      2852.7467      3.5113897e+08  0.1            16388500       2.6615874      1286.1503      12861.531      4.9429523    
  51840200   130536.57     -19.222494     -43672709       1.7038747      387159.21     -43285550       705.49349      705.49349      705.49349      2147.2533      2852.7467      2147.2533      2852.7467      2147.2533      2852.7467      3.5113897e+08  0.1            16388520       2.6770446      1293.901       12938.821      4.9282003    
  51840400   132298.53     -16.505706     -43664749       1.7038747      392385.02     -43272364       705.49349      705.49349      705.49349      2147.2533      2852.7467      2147.2533      2852.7467      2147.2533      2852.7467      3.5113897e+08  0.1            16388540       2.6925072      1293.4158      12934.241      4.9134503    
  51840600   133967.82     -14.655442     -43664154       1.7038747      397335.97     -43266818       705.49349      705.49349      705.49349      2147.2533      2852.7467      2147.2533      2852.7467      2147.2533      2852.7467      3.5113897e+08  0.1            16388560       2.7081076      1282.0397      12820.478      4.8989404    
  51840800   135469.61     -13.447015     -43670922       1.7038747      401790.13     -43269132       705.49349      705.49349      705.49349      2147.2533      2852.7467      2147.2533      2852.7467      2147.2533      2852.7467      3.5113897e+08  0.1            16388580       2.7236374      1287.8493      12878.432      4.8842926    
  51841000   136741.84     -11.663365     -43670293       1.7038747      405563.45     -43264729       705.49349      705.49349      705.49349      2147.2533      2852.7467      2147.2533      2852.7467      2147.2533      2852.7467      3.5113897e+08  0.1            16388600       2.7391935      1285.6592      12856.672      4.8696817    
  51841200   137742.65     -9.4480609     -43668122       1.7038747      408531.74     -43259590       705.49349      705.49349      705.49349      2147.2533      2852.7467      2147.2533      2852.7467      2147.2533      2852.7467      3.5113897e+08  0.1            16388620       2.7551072      1256.7771      12567.769      4.8556905    
  51841400   138450.35     -7.1530455     -43667464       1.7038747      410630.73     -43256833       705.49349      705.49349      705.49349      2147.2533      2852.7467      2147.2533      2852.7467      2147.2533      2852.7467      3.5113897e+08  0.1            16388640       2.7708996      1266.4113      12664.123      4.8414666    
  51841600   138866.07     -5.1218466     -43666794       1.7038747      411863.71     -43254930       705.49349      705.49349      705.49349      2147.2533      2852.7467      2147.2533      2852.7467      2147.2533      2852.7467      3.5113897e+08  0.1            16388660       2.786495       1282.4245      12824.222      4.8268841    
  51841800   139015.7      -3.6353781     -43673489       1.7038747      412307.49     -43261182       705.49349      705.49349      705.49349      2147.2533      2852.7467      2147.2533      2852.7467      2147.2533      2852.7467      3.5113897e+08  0.1            16388680       2.8022121      1272.5231      12725.263      4.8124992    
  51842000   138948.25     -1.6591211     -43663528       1.7038747      412107.45     -43251421       705.49349      705.49349      705.49349      2147.2533      2852.7467      2147.2533      2852.7467      2147.2533      2852.7467      3.5113897e+08  0.1            16388700       2.8179977      1266.9666      12669.614      4.7982168    
  51842200   138729.95     -0.066158398   -43655457       1.7038747      411459.98     -43243997       705.49349      705.49349      705.49349      2147.2533      2852.7467      2147.2533      2852.7467      2147.2533      2852.7467      3.5113897e+08  0.1            16388720       2.8338151      1264.4441      12644.477      4.7839715    
  51842400   138437.73      1.1621955     -43654758       1.7038747      410593.3      -43244165       705.49349      705.49349      705.49349      2147.2533      2852.7467      2147.2533      2852.7467      2147.2533      2852.7467      3.5113897e+08  0.1            16388740       2.8498084      1250.5262      12505.248      4.7700041    
  51842600   138153.98      2.4036455     -43659168       1.7038747      409751.71     -43249416       705.49349      705.49349      705.49349      2147.2533      2852.7467      2147.2533      2852.7467      2147.2533      2852.7467      3.5113897e+08  0.1            16388760       2.8661492      1223.9384      12239.376      4.7565919    
  51842800   137959.3       3.6411552     -43660353       1.7038747      409174.32     -43251178       705.49349      705.49349      705.49349      2147.2533      2852.7467      2147.2533      2852.7467      2147.2533      2852.7467      3.5113897e+08  0.1            16388780       2.8820301      1259.3596      12593.566      4.7423923    
  51843000   137925.54      5.3415275     -43658108       1.7038747      409074.17     -43249034       705.49349      705.49349      705.49349      2147.2533      2852.7467      2147.2533      2852.7467      2147.2533      2852.7467      3.5113897e+08  0.1            16388800       2.8979611      1255.3914      12553.735      4.7282575    
  51843200   138113.2       7.4099818     -43655485       1.7038747      409630.77     -43245855       705.49349      705.49349      705.49349      2147.2533      2852.7467      2147.2533      2852.7467      2147.2533      2852.7467      3.5113897e+08  0.1            16388820       2.9137963      1263.0381      12630.576      4.7139466    
  51843400   138566.46      9.4246307     -43654750       1.7038747      410975.08     -43243775       705.49349      705.49349      705.49349      2147.2533      2852.7467      2147.2533      2852.7467      2147.2533      2852.7467      3.5113897e+08  0.1            16388840       2.9297847      1250.9097      12509.131      4.699867     
  51843600   139308.56      11.294894     -43654009       1.7038747      413176.11     -43240833       705.49349      705.49349      705.49349      2147.2533      2852.7467      2147.2533      2852.7467      2147.2533      2852.7467      3.5113897e+08  0.1            16388860       2.9453924      1281.418       12814.174      4.6851617    
  51843800   140339.04      13.506467     -43652885       1.7038747      416232.4      -43236653       705.49349      705.49349      705.49349      2147.2533      2852.7467      2147.2533      2852.7467      2147.2533      2852.7467      3.5113897e+08  0.1            16388880       2.9612855      1258.4084      12584.02       4.6708975    
  51844000   141636.21      15.689908     -43652119       1.7038747      420079.7      -43232039       705.49349      705.49349      705.49349      2147.2533      2852.7467      2147.2533      2852.7467      2147.2533      2852.7467      3.5113897e+08  0.1            16388900       2.9767382      1294.2692      12942.683      4.6559278    
  51844200   143159.45      17.402796     -43653244       1.7038747      424597.48     -43228647       705.49349      705.49349      705.49349      2147.2533      2852.7467      2147.2533      2852.7467      2147.2533      2852.7467      3.5113897e+08  0.1            16388920       2.99212        1300.238       13002.477      4.6408429    
  51844400   144846.3       18.735959     -43659848       1.7038747      429600.51     -43230247       705.49349      705.49349      705.49349      2147.2533      2852.7467      2147.2533      2852.7467      2147.2533      2852.7467      3.5113897e+08  0.1            16388940       3.0074761      1302.4125      13024.069      4.6257161    
  51844600   146619.04      20.594754     -43659062       1.7038747      434858.28     -43224204       705.49349      705.49349      705.49349      2147.2533      2852.7467      2147.2533      2852.7467      2147.2533      2852.7467      3.5113897e+08  0.1            16388960       3.0230484      1284.3311      12843.362      4.6109159    
  51844800   148395.53      22.779267     -43660160       1.7038747      440127.18     -43220033       705.49349      705.49349      705.49349      2147.2533      2852.7467      2147.2533      2852.7467      2147.2533      2852.7467      3.5113897e+08  0.1            16388980       3.0384167      1301.3783      13013.721      4.5958       
  51845000   150093.59      25.46812      -43659354       1.7038747      445163.47     -43214190       705.49349      705.49349      705.49349      2147.2533      2852.7467      2147.2533      2852.7467      2147.2533      2852.7467      3.5113897e+08  0.1            16389000       3.0537061      1308.0952      13080.998      4.5805635    
  51845200   151638.68      28.048028     -43651163       1.7038747      449746.08     -43201417       705.49349      705.49349      705.49349      2147.2533      2852.7467      2147.2533      2852.7467      2147.2533      2852.7467      3.5113897e+08  0.1            16389020       3.0693799      1276.0181      12760.183      4.5658971    
  51845400   152966.41      29.911688     -43650343       1.7038747      453684        -43196659       705.49349      705.49349      705.49349      2147.2533      2852.7467      2147.2533      2852.7467      2147.2533      2852.7467      3.5113897e+08  0.1            16389040       3.0846315      1311.3378      13113.369      4.5505986    
  51845600   154028.47      32.304193     -43644029       1.7038747      456833.97     -43187195       705.49349      705.49349      705.49349      2147.2533      2852.7467      2147.2533      2852.7467      2147.2533      2852.7467      3.5113897e+08  0.1            16389060       3.0999195      1308.2096      13082.149      4.5353539    
  51845800   154798.32      34.241807     -43643189       1.7038747      459117.28     -43184072       705.49349      705.49349      705.49349      2147.2533      2852.7467      2147.2533      2852.7467      2147.2533      2852.7467      3.5113897e+08  0.1            16389080       3.1153261      1298.1459      12981.425      4.5202805    
  51846000   155273.47      36.315042     -43640451       1.7038747      460526.52     -43179925       705.49349      705.49349      705.49349      2147.2533      2852.7467      2147.2533      2852.7467      2147.2533      2852.7467      3.5113897e+08  0.1            16389100       3.1306445      1305.6167      13056.157      4.5050774    
  51846200   155474.24      38.689449     -43637706       1.7038747      461121.98     -43176584       705.49349      705.49349      705.49349      2147.2533      2852.7467      2147.2533      2852.7467      2147.2533      2852.7467      3.5113897e+08  0.1            16389120       3.146126       1291.8589      12918.582      4.4901061    
  51846400   155444.02      40.644089     -43636851       1.7038747      461032.36     -43175819       705.49349      705.49349      705.49349      2147.2533      2852.7467      2147.2533      2852.7467      2147.2533      2852.7467      3.5113897e+08  0.1            16389140       3.1619245      1265.9506      12659.508      4.4755777    
  51846600   155245.7       41.920642     -43637890       1.7038747      460444.16     -43177446       705.49349      705.49349      705.49349      2147.2533      2852.7467      2147.2533      2852.7467      2147.2533      2852.7467      3.5113897e+08  0.1            16389160       3.1773948      1292.8042      12928.049      4.4605768    
  51846800   154954.41      42.872112     -43637031       1.7038747      459580.23     -43177451       705.49349      705.49349      705.49349      2147.2533      2852.7467      2147.2533      2852.7467      2147.2533      2852.7467      3.5113897e+08  0.1            16389180       3.1927131      1305.6127      13056.075      4.4453602    
  51847000   154652.36      44.195487     -43628791       1.7038747      458684.38     -43170107       705.49349      705.49349      705.49349      2147.2533      2852.7467      2147.2533      2852.7467      2147.2533      2852.7467      3.5113897e+08  0.1            16389200       3.2080329      1305.5192      13055.198      4.4301441    
  51847200   154422.38      45.630577     -43622442       1.7038747      458002.27     -43164439       705.49349      705.49349      705.49349      2147.2533      2852.7467      2147.2533      2852.7467      2147.2533      2852.7467      3.5113897e+08  0.1            16389220       3.2235453      1289.2661      12892.7        4.4151914    
  51847400   154339.81      47.100691     -43621570       1.7038747      457757.36     -43163813       705.49349      705.49349      705.49349      2147.2533      2852.7467      2147.2533      2852.7467      2147.2533      2852.7467      3.5113897e+08  0.1            16389240       3.2389701      1296.648       12966.449      4.4001135    
  51847600   154468.23      49.068448     -43618797       1.7038747      458138.26     -43160659       705.49349      705.49349      705.49349      2147.2533      2852.7467      2147.2533      2852.7467      2147.2533      2852.7467      3.5113897e+08  0.1            16389260       3.2544381      1292.9605      12929.637      4.3850915    
  51847800   154856.83      50.583946     -43625291       1.7038747      459290.81     -43166001       705.49349      705.49349      705.49349      2147.2533      2852.7467      2147.2533      2852.7467      2147.2533      2852.7467      3.5113897e+08  0.1            16389280       3.2700544      1280.7299      12807.304      4.3702627    
  51848000   155534.76      52.619336     -43624038       1.7038747      461301.49     -43162737       705.49349      705.49349      705.49349      2147.2533      2852.7467      2147.2533      2852.7467      2147.2533      2852.7467      3.5113897e+08  0.1            16389300       3.2858844      1263.4236      12634.178      4.3557107    
  51848200   156509.27      55.136372     -43621626       1.7038747      464191.77     -43157435       705.49349      705.49349      705.49349      2147.2533      2852.7467      2147.2533      2852.7467      2147.2533      2852.7467      3.5113897e+08  0.1            16389320       3.3013526      1292.9909      12929.951      4.3406704    
  51848400   157762.03      58.044901     -43619212       1.7038747      467907.36     -43151305       705.49349      705.49349      705.49349      2147.2533      2852.7467      2147.2533      2852.7467      2147.2533      2852.7467      3.5113897e+08  0.1            16389340       3.3167766      1296.6689      12966.704      4.3255689    
  51848600   159251.8       61.15571      -43612835       1.7038747      472325.87     -43140509       705.49349      705.49349      705.49349      2147.2533      2852.7467      2147.2533      2852.7467      2147.2533      2852.7467      3.5113897e+08  0.1            16389360       3.3323472      1284.4475      12844.483      4.3106544    
  51848800   160918.63      64.109946     -43611932       1.7038747      477269.54     -43134662       705.49349      705.49349      705.49349      2147.2533      2852.7467      2147.2533      2852.7467      2147.2533      2852.7467      3.5113897e+08  0.1            16389380       3.3477807      1295.909       12958.995      4.2955575    
  51849000   162688.35      66.817303     -43618399       1.7038747      482518.34     -43135880       705.49349      705.49349      705.49349      2147.2533      2852.7467      2147.2533      2852.7467      2147.2533      2852.7467      3.5113897e+08  0.1            16389400       3.3636382      1261.2243      12612.325      4.2809973    
  51849200   164479.71      69.990192     -43615586       1.7038747      487831.36     -43127754       705.49349      705.49349      705.49349      2147.2533      2852.7467      2147.2533      2852.7467      2147.2533      2852.7467      3.5113897e+08  0.1            16389420       3.3792234      1283.28        12832.791      4.2660813    
  51849400   166207.81      73.18264      -43614657       1.7038747      492956.76     -43121700       705.49349      705.49349      705.49349      2147.2533      2852.7467      2147.2533      2852.7467      2147.2533      2852.7467      3.5113897e+08  0.1            16389440       3.3947836      1285.2995      12853          4.2511292    
  51849600   167793.45      75.807785     -43621094       1.7038747      497659.6      -43123435       705.49349      705.49349      705.49349      2147.2533      2852.7467      2147.2533      2852.7467      2147.2533      2852.7467      3.5113897e+08  0.1            16389460       3.4104814      1274.091       12740.851      4.2363409    
  51849800   169172.04      78.137573     -43612771       1.7038747      501748.38     -43111023       705.49349      705.49349      705.49349      2147.2533      2852.7467      2147.2533      2852.7467      2147.2533      2852.7467      3.5113897e+08  0.1            16389480       3.4261978      1272.5198      12725.265      4.2215686    
[...]
  52494400   305.79646     -0.28098628    -43527761       1.7060759      906.96356     -43526854       705.18995      705.18995      705.18995      2147.405       2852.595       2147.405       2852.595       2147.405       2852.595       3.5068594e+08  0.1            16453940       25.506939      1144.2582      11442.587      0.93425563   
  52494600   305.74094      4.392491      -43527829       1.7062171      906.7989      -43526922       705.1705       705.1705       705.1705       2147.4147      2852.5853      2147.4147      2852.5853      2147.4147      2852.5853      3.5065692e+08  0.1            16453960       25.523978      1173.7503      11737.518      0.91660704   
  52494800   305.71543      5.9269597     -43527898       1.7062671      906.72323     -43526991       705.16361      705.16361      705.16361      2147.4182      2852.5818      2147.4182      2852.5818      2147.4182      2852.5818      3.5064664e+08  0.1            16453980       25.540597      1203.4313      12034.329      0.89894451   
  52495000   305.56689      1.1314369     -43527968       1.7061329      906.28266     -43527062       705.18209      705.18209      705.18209      2147.409       2852.591       2147.409       2852.591       2147.409       2852.591       3.5067421e+08  0.1            16454000       25.557328      1195.4106      11954.056      0.88128726   
  52495200   305.67437     -5.1495868     -43528036       1.7059553      906.60144     -43527130       705.20656      705.20656      705.20656      2147.3967      2852.6033      2147.3967      2852.6033      2147.3967      2852.6033      3.5071072e+08  0.1            16454020       25.574132      1190.1984      11902.034      0.86363376   
  52495400   305.76528     -6.4296765     -43528105       1.7059233      906.87108     -43527198       705.21098      705.21098      705.21098      2147.3945      2852.6055      2147.3945      2852.6055      2147.3945      2852.6055      3.507173e+08   0.1            16454040       25.590811      1199.0864      11990.85       0.84597732   
  52495600   305.70905     -1.8897192     -43528176       1.706061       906.70432     -43527269       705.192        705.192        705.192        2147.404       2852.596       2147.404       2852.596       2147.404       2852.596       3.5068899e+08  0.1            16454060       25.607496      1198.7317      11987.302      0.82832238   
  52495800   305.69984      4.3040882     -43528244       1.706247       906.677       -43527338       705.16637      705.16637      705.16637      2147.4168      2852.5832      2147.4168      2852.5832      2147.4168      2852.5832      3.5065076e+08  0.1            16454080       25.624469      1178.3149      11783.145      0.81067792   
  52496000   305.58188      7.9149133     -43528312       1.7063578      906.32712     -43527405       705.15112      705.15112      705.15112      2147.4244      2852.5756      2147.4244      2852.5756      2147.4244      2852.5756      3.50628e+08    0.1            16454100       25.641216      1194.2711      11942.711      0.79302736   
  52496200   305.70929      7.7202417     -43528381       1.7063576      906.70502     -43527474       705.15115      705.15115      705.15115      2147.4244      2852.5756      2147.4244      2852.5756      2147.4244      2852.5756      3.5062804e+08  0.1            16454120       25.657993      1192.105       11921.058      0.77537897   
  52496400   305.7946       5.0818291     -43528451       1.706286       906.95805     -43527544       705.161        705.161        705.161        2147.4195      2852.5805      2147.4195      2852.5805      2147.4195      2852.5805      3.5064275e+08  0.1            16454140       25.67469       1197.7633      11977.637      0.75772944   
  52496600   305.71202      1.9608039     -43528521       1.7062003      906.71312     -43527614       705.17282      705.17282      705.17282      2147.4136      2852.5864      2147.4136      2852.5864      2147.4136      2852.5864      3.5066037e+08  0.1            16454160       25.691376      1198.6444      11986.462      0.74008086   
  52496800   305.67343     -0.43308729    -43528590       1.7061356      906.59865     -43527683       705.18172      705.18172      705.18172      2147.4091      2852.5909      2147.4091      2852.5909      2147.4091      2852.5909      3.5067366e+08  0.1            16454180       25.708001      1203.0224      12030.183      0.72243189   
  52497000   305.54026     -1.8056898     -43528659       1.7061007      906.2037      -43527753       705.18653      705.18653      705.18653      2147.4067      2852.5933      2147.4067      2852.5933      2147.4067      2852.5933      3.5068084e+08  0.1            16454200       25.725059      1172.4786      11724.749      0.7047962    
  52497200   305.66464     -2.3653321     -43528728       1.7060895      906.57259     -43527821       705.18808      705.18808      705.18808      2147.406       2852.594       2147.406       2852.594       2147.406       2852.594       3.5068314e+08  0.1            16454220       25.74183       1192.5296      11925.29       0.68715364   
  52497400   305.75777     -2.4344801     -43528796       1.7060926      906.8488      -43527890       705.18765      705.18765      705.18765      2147.4062      2852.5938      2147.4062      2852.5938      2147.4062      2852.5938      3.506825e+08   0.1            16454240       25.758525      1197.9259      11979.284      0.6695103    
  52497600   305.68767     -2.2725857     -43528865       1.7061024      906.64089     -43527959       705.18631      705.18631      705.18631      2147.4068      2852.5932      2147.4068      2852.5932      2147.4068      2852.5932      3.5068049e+08  0.1            16454260       25.775234      1196.9459      11969.428      0.65186861   
  52497800   305.65931     -2.0465102     -43528934       1.7061139      906.55679     -43528028       705.18471      705.18471      705.18471      2147.4076      2852.5924      2147.4076      2852.5924      2147.4076      2852.5924      3.5067811e+08  0.1            16454280       25.791951      1196.4291      11964.293      0.63422836   
  52498000   305.53422     -1.8497416     -43529003       1.7061246      906.18578     -43528097       705.18324      705.18324      705.18324      2147.4084      2852.5916      2147.4084      2852.5916      2147.4084      2852.5916      3.5067592e+08  0.1            16454300       25.808907      1179.5104      11795.112      0.61659511   
  52498200   305.6595      -1.7268583     -43529072       1.706133       906.55735     -43528166       705.18208      705.18208      705.18208      2147.409       2852.591       2147.409       2852.591       2147.409       2852.591       3.5067418e+08  0.1            16454320       25.825823      1182.3015      11823.025      0.59896185   
  52498400   305.75227     -1.6893636     -43529141       1.7061389      906.8325      -43528234       705.18127      705.18127      705.18127      2147.4094      2852.5906      2147.4094      2852.5906      2147.4094      2852.5906      3.5067298e+08  0.1            16454340       25.842501      1199.2341      11992.379      0.5813242    
  52498600   305.68299     -1.7268714     -43529210       1.7061425      906.62701     -43528303       705.18077      705.18077      705.18077      2147.4096      2852.5904      2147.4096      2852.5904      2147.4096      2852.5904      3.5067224e+08  0.1            16454360       25.859214      1196.6101      11966.082      0.56368865   
  52498800   305.65477     -1.8155131     -43529279       1.7061445      906.54333     -43528372       705.1805       705.1805       705.1805       2147.4098      2852.5902      2147.4098      2852.5902      2147.4098      2852.5902      3.5067183e+08  0.1            16454380       25.875867      1201.0308      12010.289      0.54605306   
  52499000   305.53078     -1.9232025     -43529347       1.7061459      906.17557     -43528441       705.1803       705.1803       705.1803       2147.4098      2852.5902      2147.4098      2852.5902      2147.4098      2852.5902      3.5067154e+08  0.1            16454400       25.892583      1195.773       11957.651      0.52842031   
  52499200   305.65412     -2.0174638     -43529416       1.7061476      906.54138     -43528510       705.18007      705.18007      705.18007      2147.41        2852.59        2147.41        2852.59        2147.41        2852.59        3.5067119e+08  0.1            16454420       25.909679      1170.5025      11705.126      0.5107959    
  52499400   305.74595     -2.077079      -43529485       1.7061503      906.81376     -43528578       705.1797       705.1797       705.1797       2147.4102      2852.5898      2147.4102      2852.5898      2147.4102      2852.5898      3.5067064e+08  0.1            16454440       25.926383      1197.3167      11973.168      0.49316494   
  52499600   305.67784     -2.1090676     -43529554       1.7061537      906.61173     -43528647       705.17923      705.17923      705.17923      2147.4104      2852.5896      2147.4104      2852.5896      2147.4104      2852.5896      3.5066994e+08  0.1            16454460       25.943059      1199.3299      11993.312      0.47553473   
  52499800   305.65041     -2.1783617     -43529622       1.706156       906.5304      -43528716       705.17892      705.17892      705.17892      2147.4105      2852.5895      2147.4105      2852.5895      2147.4105      2852.5895      3.5066948e+08  0.1            16454480       25.959833      1192.3378      11923.387      0.45790754   
  52500000   305.52728     -2.4022685     -43529691       1.7061536      906.16518     -43528785       705.17925      705.17925      705.17925      2147.4104      2852.5896      2147.4104      2852.5896      2147.4104      2852.5896      3.5066996e+08  0.1            16454500       25.978311      1082.3368      10823.371      0.4403104    
  52500200   305.64875     -2.7181964     -43529760       1.7061485      906.52546     -43528853       705.17995      705.17995      705.17995      2147.41        2852.59        2147.41        2852.59        2147.41        2852.59        3.5067102e+08  0.1            16454520       25.995227      1182.3304      11823.301      0.42268666   
  52500400   305.74033     -2.6435562     -43529828       1.7061548      906.79709     -43528922       705.17909      705.17909      705.17909      2147.4105      2852.5895      2147.4105      2852.5895      2147.4105      2852.5895      3.5066972e+08  0.1            16454540       26.012662      1147.125       11471.232      0.40507196   
  52500600   305.67501     -2.000263      -43529897       1.7061777      906.60334     -43528991       705.17593      705.17593      705.17593      2147.412       2852.588       2147.412       2852.588       2147.412       2852.588       3.5066502e+08  0.1            16454560       26.029764      1169.4718      11694.724      0.38745254   
  52500800   305.6504      -1.2825614     -43529966       1.7062026      906.53036     -43529060       705.17249      705.17249      705.17249      2147.4138      2852.5862      2147.4138      2852.5862      2147.4138      2852.5862      3.5065988e+08  0.1            16454580       26.04667       1182.9749      11829.753      0.36983105   
  52501000   305.52976     -0.9596516     -43530035       1.706216       906.17256     -43529129       705.17065      705.17065      705.17065      2147.4147      2852.5853      2147.4147      2852.5853      2147.4147      2852.5853      3.5065714e+08  0.1            16454600       26.063524      1186.6547      11866.488      0.35220982   
  52501200   305.65041     -1.1407564     -43530104       1.7062145      906.53038     -43529197       705.17086      705.17086      705.17086      2147.4146      2852.5854      2147.4146      2852.5854      2147.4146      2852.5854      3.5065745e+08  0.1            16454620       26.080434      1182.765       11827.705      0.33459034   
  52501400   305.73876     -1.6911224     -43530172       1.7062021      906.79241     -43529265       705.17256      705.17256      705.17256      2147.4137      2852.5863      2147.4137      2852.5863      2147.4137      2852.5863      3.5065999e+08  0.1            16454640       26.097215      1191.7973      11917.995      0.31697026   
  52501600   305.66852     -2.4193525     -43530241       1.7061845      906.58408     -43529334       705.17499      705.17499      705.17499      2147.4125      2852.5875      2147.4125      2852.5875      2147.4125      2852.5875      3.5066361e+08  0.1            16454660       26.114286      1171.6092      11716.101      0.29935462   
  52501800   305.63859     -3.1382487     -43530309       1.7061671      906.49533     -43529403       705.17739      705.17739      705.17739      2147.4113      2852.5887      2147.4113      2852.5887      2147.4113      2852.5887      3.5066719e+08  0.1            16454680       26.131563      1157.5717      11575.717      0.28174195   
  52502000   305.51551     -3.6164437     -43530378       1.7061567      906.13027     -43529472       705.17882      705.17882      705.17882      2147.4106      2852.5894      2147.4106      2852.5894      2147.4106      2852.5894      3.5066933e+08  0.1            16454700       26.148617      1172.7407      11727.336      0.26412748   
  52502200   305.63548     -3.5396942     -43530446       1.7061625      906.48612     -43529540       705.17802      705.17802      705.17802      2147.411       2852.589       2147.411       2852.589       2147.411       2852.589       3.5066813e+08  0.1            16454720       26.165549      1181.2211      11812.24       0.2465126    
  52502400   305.72783     -2.5752226     -43530515       1.7061942      906.75999     -43529609       705.17365      705.17365      705.17365      2147.4132      2852.5868      2147.4132      2852.5868      2147.4132      2852.5868      3.5066161e+08  0.1            16454740       26.182687      1167.0011      11670.019      0.22890045   
  52502600   305.66662     -0.60142675    -43530584       1.7062553      906.57848     -43529678       705.16523      705.16523      705.16523      2147.4174      2852.5826      2147.4174      2852.5826      2147.4174      2852.5826      3.5064905e+08  0.1            16454760       26.20005       1151.8873      11518.893      0.21129074   
  52502800   305.64776      1.9594819     -43530653       1.7063334      906.52252     -43529746       705.15447      705.15447      705.15447      2147.4228      2852.5772      2147.4228      2852.5772      2147.4228      2852.5772      3.50633e+08    0.1            16454780       26.217954      1117.0561      11170.558      0.19368537   
  52503000   305.5336       3.9691399     -43530721       1.7063954      906.18393     -43529815       705.14594      705.14594      705.14594      2147.427       2852.573       2147.427       2852.573       2147.427       2852.573       3.5062028e+08  0.1            16454800       26.235591      1133.9302      11339.248      0.17607781   
  52503200   305.65183      4.0066398     -43530789       1.7063998      906.53458     -43529883       705.14533      705.14533      705.14533      2147.4273      2852.5727      2147.4273      2852.5727      2147.4273      2852.5727      3.5061937e+08  0.1            16454820       26.253163      1138.1867      11381.846      0.15846982   
  52503400   305.73132      1.6421134     -43530858       1.7063342      906.77035     -43529952       705.15436      705.15436      705.15436      2147.4228      2852.5772      2147.4228      2852.5772      2147.4228      2852.5772      3.5063284e+08  0.1            16454840       26.271053      1117.9365      11179.441      0.14086357   
  52503600   305.65242     -1.3186993     -43530927       1.7062514      906.53635     -43530020       705.16577      705.16577      705.16577      2147.4171      2852.5829      2147.4171      2852.5829      2147.4171      2852.5829      3.5064985e+08  0.1            16454860       26.288671      1135.2497      11352.494      0.12325567   
  52503800   305.62298     -1.7052432     -43530995       1.7062436      906.44902     -43530089       705.16685      705.16685      705.16685      2147.4166      2852.5834      2147.4166      2852.5834      2147.4166      2852.5834      3.5065146e+08  0.1            16454880       26.306615      1114.5888      11145.888      0.10564907   
  52504000   305.51267      1.3579968     -43531064       1.7063361      906.12186     -43530158       705.15411      705.15411      705.15411      2147.4229      2852.5771      2147.4229      2852.5771      2147.4229      2852.5771      3.5063246e+08  0.1            16454900       26.324507      1117.7517      11177.481      0.088041841  
  52504200   305.63514      2.9928936     -43531132       1.706387       906.48511     -43530225       705.14709      705.14709      705.14709      2147.4265      2852.5735      2147.4265      2852.5735      2147.4265      2852.5735      3.50622e+08    0.1            16454920       26.341849      1153.285       11532.907      0.070432759  
  52504400   305.7237       3.3126635     -43531200       1.7063997      906.74775     -43530293       705.14535      705.14535      705.14535      2147.4273      2852.5727      2147.4273      2852.5727      2147.4273      2852.5727      3.5061939e+08  0.1            16454940       26.359663      1122.7136      11227.139      0.052824982  
  52504600   305.65064      2.0546818     -43531269       1.7063666      906.53105     -43530362       705.1499       705.1499       705.1499       2147.425       2852.575       2147.425       2852.575       2147.425       2852.575       3.5062619e+08  0.1            16454960       26.3773        1133.9983      11339.971      0.035216693  
  52504800   305.62235      1.9102166     -43531337       1.7063659      906.44716     -43530430       705.15         705.15         705.15         2147.425       2852.575       2147.425       2852.575       2147.425       2852.575       3.5062634e+08  0.1            16454980       26.394952      1133.0588      11330.571      0.017608375  
  52505000   305.49879      1.1918539     -43531405       1.7063485      906.0807      -43530499       705.15239      705.15239      705.15239      2147.4238      2852.5762      2147.4238      2852.5762      2147.4238      2852.5762      3.506299e+08   0.1            16455000       26.413042      1105.5767      11055.683      0            
Loop time of 26.4131 on 4 procs for 300000 steps with 996 atoms

Performance: 98.133 ns/day, 0.245 hours/ns, 11357.995 timesteps/s
99.5% CPU use with 4 MPI tasks x 1 OpenMP threads

MPI task timing breakdown:
Section |  min time  |  avg time  |  max time  |%varavg| %total
---------------------------------------------------------------
Pair    | 11.408     | 12.386     | 13.681     |  24.8 | 46.89
Neigh   | 0.0070781  | 0.0076709  | 0.0084808  |   0.6 |  0.03
Comm    | 6.2052     | 7.4292     | 8.2993     |  29.3 | 28.13
Output  | 0.078616   | 0.094908   | 0.14313    |   9.0 |  0.36
Modify  | 5.424      | 5.4797     | 5.5373     |   1.7 | 20.75
Other   |            | 1.015      |            |       |  3.84

Nlocal:            249 ave         279 max         228 min
Histogram: 1 1 0 0 0 1 0 0 0 1
Nghost:         678.75 ave         692 max         660 min
Histogram: 1 0 0 0 1 0 0 0 0 2
Neighs:           1666 ave        1806 max        1543 min
Histogram: 2 0 0 0 0 0 0 0 1 1

Total # of neighbors = 6664
Ave neighs/atom = 6.6907631
Neighbor list builds = 40
Dangerous builds = 7

# run_style
run_style verlet

# write restart
write_restart ${write_res}
write_restart ./pgnpmf/37/equpmf75.res
System init for write_restart ...
Generated 0 of 1 mixed pair_coeff terms from geometric mixing rule

Total wall time: 0:00:56
