LAMMPS (23 Jun 2022 - Update 1)
# Read restart
read_restart ${read_res}
read_restart ./pgnpmf/37/equpmf26.res
Reading restart file ...
  restart file = 23 Jun 2022, LAMMPS = 23 Jun 2022
  restoring atom style atomic from restart
  orthogonal box = (1976.6146 1976.6146 1976.6146) to (3023.3854 3023.3854 3023.3854)
  1 by 2 by 2 MPI processor grid
  restoring pair style table from restart
  996 atoms
  read_restart CPU = 0.007 seconds

# Settings

pair_style table spline 9941

pair_coeff 1 1 ./pgnpmf/N20.txt DE_GNP 75.6
pair_coeff 2 2 ./pgnpmf/N100.txt DE_GNP 115.92
WARNING: 3 of 9941 force values in table DE_GNP are inconsistent with -dE/dr.
WARNING:  Should only be flagged at inflection points (../pair_table.cpp:463)
pair_coeff 1 2 ./pgnpmf/mixed_potential.txt DE_GNP 95.66
WARNING: 1562 of 9941 force values in table DE_GNP are inconsistent with -dE/dr.
WARNING:  Should only be flagged at inflection points (../pair_table.cpp:463)

#Neigh_list Calc Frequency

neigh_modify delay 0 every 1 check yes

# Saving Frequency (50 frames)

variable ts_save equal ${steps_equ}
variable ts_save equal 5000

# Dump
#dump 1 all custom ${ts_save} ./pgnpmf/${folder}/equilibration/trajectory/trajectory_${usic}_${trial}.equ.custom type x y z ix iy iz
#dump_modify 1 first no sort id
dump 2 all cfg 50000 ./pgnpmf/${folder}/equilibration/trajectory/dumpgen.tens_*.cfg mass type xs ys zs fx fy fz
dump 2 all cfg 50000 ./pgnpmf/37/equilibration/trajectory/dumpgen.tens_*.cfg mass type xs ys zs fx fy fz
dump_modify 2 element N20 N100

# thermo_style
thermo_style custom step temp press pe density ke etotal lx ly lz xlo xhi ylo yhi zlo zhi vol dt time cpu tpcpu spcpu cpuremain

# run info
timestep ${ts}
timestep 0.5
thermo 200

# fix

fix 1 all momentum 1000 linear 1 1 1 angular
variable T equal ${temp}
variable T equal 300
fix 2 all nvt temp ${T} 370000 100.0
fix 2 all nvt temp 300 370000 100.0

run 100000
Generated 0 of 1 mixed pair_coeff terms from geometric mixing rule
Unused restart file global fix info:
  fix style: npt, fix ID: 5
Neighbor list info ...
  update every 1 steps, delay 0 steps, check yes
  max neighbors/atom: 2000, page size: 100000
  master list distance cutoff = 117.92
  ghost atom cutoff = 117.92
  binsize = 58.96, bins = 18 18 18
  1 neighbor lists, perpetual/occasional/extra = 1 0 0
  (1) pair table, perpetual
      attributes: half, newton on
      pair build: half/bin/atomonly/newton
      stencil: half/bin/3d
      bin: standard
Per MPI rank memory allocation (min/avg/max) = 3.08 | 3.081 | 3.082 Mbytes
   Step          Temp          Press          PotEng        Density         KinEng         TotEng           Lx             Ly             Lz            Xlo            Xhi            Ylo            Yhi            Zlo            Zhi           Volume           Dt            Time           CPU           T/CPU          S/CPU         CPULeft    
  18205000   305.80008     -0.66533013    -35363721       0.52162916     906.97428     -35362814       1046.7708      1046.7708      1046.7708      1976.6146      3023.3854      1976.6146      3023.3854      1976.6146      3023.3854      1.1469773e+09  0.5            9105000        0              0              0              0            
  18205200   387.30232     -0.80562301    -35363797       0.52162916     1148.7023     -35362648       1046.7708      1046.7708      1046.7708      1976.6146      3023.3854      1976.6146      3023.3854      1976.6146      3023.3854      1.1469773e+09  0.5            9105100        0.019190461    5210.5896      10420.543      9.5777242    
  18205400   570.06774     -0.93876254    -35363886       0.52162916     1690.7673     -35362195       1046.7708      1046.7708      1046.7708      1976.6146      3023.3854      1976.6146      3023.3854      1976.6146      3023.3854      1.1469773e+09  0.5            9105200        0.038101664    5287.9825      10576.107      9.4880068    
  18205600   880.97039     -1.0825222     -35363994       0.52162916     2612.8754     -35361381       1046.7708      1046.7708      1046.7708      1976.6146      3023.3854      1976.6146      3023.3854      1976.6146      3023.3854      1.1469773e+09  0.5            9105300        0.056908491    5317.2149      10634.372      9.4283125    
  18205800   1380.753      -1.2227395     -35364127       0.52162916     4095.1836     -35360032       1046.7708      1046.7708      1046.7708      1976.6146      3023.3854      1976.6146      3023.3854      1976.6146      3023.3854      1.1469773e+09  0.5            9105400        0.075716287    5316.9503      10633.949      9.3891644    
  18206000   2146.9223     -1.3338269     -35364292       0.52162916     6367.5698     -35357925       1046.7708      1046.7708      1046.7708      1976.6146      3023.3854      1976.6146      3023.3854      1976.6146      3023.3854      1.1469773e+09  0.5            9105500        0.094198958    5410.4755      10820.935      9.3259599    
  18206200   3243.8512     -1.5092227     -35364493       0.52162916     9620.9576     -35354872       1046.7708      1046.7708      1046.7708      1976.6146      3023.3854      1976.6146      3023.3854      1976.6146      3023.3854      1.1469773e+09  0.5            9105600        0.11276031     5387.5238      10775.064      9.2841584    
  18206400   4649.5051     -1.837975      -35366629       0.52162916     13789.995     -35352839       1046.7708      1046.7708      1046.7708      1976.6146      3023.3854      1976.6146      3023.3854      1976.6146      3023.3854      1.1469773e+09  0.5            9105700        0.13131841     5388.5634      10777.126      9.2487427    
  18206600   6149.2301     -2.1993223     -35366908       0.52162916     18238.038     -35348670       1046.7708      1046.7708      1046.7708      1976.6146      3023.3854      1976.6146      3023.3854      1976.6146      3023.3854      1.1469773e+09  0.5            9105800        0.14970443     5438.9224      10877.872      9.2069699    
  18206800   7305.7362     -2.8272562     -35374593       0.52162916     21668.127     -35352925       1046.7708      1046.7708      1046.7708      1976.6146      3023.3854      1976.6146      3023.3854      1976.6146      3023.3854      1.1469773e+09  0.5            9105900        0.16892833     5201.8543      10403.705      9.2161045    
  18207000   7809.2303     -3.3829671     -35374912       0.52162916     23161.443     -35351750       1046.7708      1046.7708      1046.7708      1976.6146      3023.3854      1976.6146      3023.3854      1976.6146      3023.3854      1.1469773e+09  0.5            9106000        0.18734302     5430.453       10860.884      9.1799265    
  18207200   8120.1027     -4.1984327     -35382606       0.52162916     24083.461     -35358523       1046.7708      1046.7708      1046.7708      1976.6146      3023.3854      1976.6146      3023.3854      1976.6146      3023.3854      1.1469773e+09  0.5            9106100        0.20582535     5410.5653      10821.138      9.1499825    
  18207400   8958.053      -4.9075721     -35382925       0.52162916     26568.743     -35356356       1046.7708      1046.7708      1046.7708      1976.6146      3023.3854      1976.6146      3023.3854      1976.6146      3023.3854      1.1469773e+09  0.5            9106200        0.22441691     5378.7949      10757.584      9.126386     
  18207600   10132.371     -5.4951831     -35383259       0.52162916     30051.659     -35353207       1046.7708      1046.7708      1046.7708      1976.6146      3023.3854      1976.6146      3023.3854      1976.6146      3023.3854      1.1469773e+09  0.5            9106300        0.24303584     5370.8468      10741.692      9.1045917    
  18207800   10920.213     -6.0498966     -35383596       0.52162916     32388.326     -35351207       1046.7708      1046.7708      1046.7708      1976.6146      3023.3854      1976.6146      3023.3854      1976.6146      3023.3854      1.1469773e+09  0.5            9106400        0.26235748     5175.5583      10351.094      9.1076409    
  18208000   11261.162     -6.5178743     -35383935       0.52162916     33399.549     -35350535       1046.7708      1046.7708      1046.7708      1976.6146      3023.3854      1976.6146      3023.3854      1976.6146      3023.3854      1.1469773e+09  0.5            9106500        0.28122653     5299.7075      10599.384      9.0930728    
  18208200   11827.373     -7.0600926     -35384265       0.52162916     35078.876     -35349186       1046.7708      1046.7708      1046.7708      1976.6146      3023.3854      1976.6146      3023.3854      1976.6146      3023.3854      1.1469773e+09  0.5            9106600        0.30066431     5144.599       10289.214      9.0951709    
  18208400   12913.828     -7.7583262     -35386490       0.52162916     38301.199     -35348189       1046.7708      1046.7708      1046.7708      1976.6146      3023.3854      1976.6146      3023.3854      1976.6146      3023.3854      1.1469773e+09  0.5            9106700        0.31938423     5341.91        10683.822      9.0743399    
  18208600   13934.846     -8.4431169     -35386825       0.52162916     41329.444     -35345495       1046.7708      1046.7708      1046.7708      1976.6146      3023.3854      1976.6146      3023.3854      1976.6146      3023.3854      1.1469773e+09  0.5            9106800        0.3376418      5477.1772      10954.366      9.0413633    
  18208800   14414.359     -9.0309354     -35387150       0.52162916     42751.634     -35344399       1046.7708      1046.7708      1046.7708      1976.6146      3023.3854      1976.6146      3023.3854      1976.6146      3023.3854      1.1469773e+09  0.5            9106900        0.35626748     5368.9433      10737.881      9.0192556    
  18209000   14788.021     -9.640337      -35387097       0.52162916     43859.88      -35343237       1046.7708      1046.7708      1046.7708      1976.6146      3023.3854      1976.6146      3023.3854      1976.6146      3023.3854      1.1469773e+09  0.5            9107000        0.37564329     5161.0671      10322.129      9.0154995    
  18209200   15677.344     -10.249353     -35387400       0.52162916     46497.527     -35340903       1046.7708      1046.7708      1046.7708      1976.6146      3023.3854      1976.6146      3023.3854      1976.6146      3023.3854      1.1469773e+09  0.5            9107100        0.39404283     5434.8969      10869.829      8.9879866    
  18209400   16835.923     -10.620094     -35382214       0.52162916     49933.764     -35332280       1046.7708      1046.7708      1046.7708      1976.6146      3023.3854      1976.6146      3023.3854      1976.6146      3023.3854      1.1469773e+09  0.5            9107200        0.41236553     5457.7482      10915.49       8.9596299    
  18209600   17553.909     -11.282304     -35382501       0.52162916     52063.243     -35330438       1046.7708      1046.7708      1046.7708      1976.6146      3023.3854      1976.6146      3023.3854      1976.6146      3023.3854      1.1469773e+09  0.5            9107300        0.43090098     5395.0327      10790.023      8.9365654    
  18209800   17859.264     -11.8562       -35377288       0.52162916     52968.898     -35324319       1046.7708      1046.7708      1046.7708      1976.6146      3023.3854      1976.6146      3023.3854      1976.6146      3023.3854      1.1469773e+09  0.5            9107400        0.44930745     5432.8802      10865.816      8.9113135    
  18210000   18484.566     -12.357496     -35370164       0.52162916     54823.485     -35315340       1046.7708      1046.7708      1046.7708      1976.6146      3023.3854      1976.6146      3023.3854      1976.6146      3023.3854      1.1469773e+09  0.5            9107500        0.46817616     5299.8002      10599.59       8.8953933    
  18210200   19634.078     -12.750076     -35370410       0.52162916     58232.829     -35312177       1046.7708      1046.7708      1046.7708      1976.6146      3023.3854      1976.6146      3023.3854      1976.6146      3023.3854      1.1469773e+09  0.5            9107600        0.4874135      5198.1968      10396.403      8.8859673    
  18210400   20615.835     -13.009267     -35363260       0.52162916     61144.628     -35302115       1046.7708      1046.7708      1046.7708      1976.6146      3023.3854      1976.6146      3023.3854      1976.6146      3023.3854      1.1469773e+09  0.5            9107700        0.50722702     5047.0608      10094.107      8.8859096    
  18210600   21010.61      -13.705061     -35363460       0.52162916     62315.494     -35301144       1046.7708      1046.7708      1046.7708      1976.6146      3023.3854      1976.6146      3023.3854      1976.6146      3023.3854      1.1469773e+09  0.5            9107800        0.52567028     5422.0396      10844.069      8.8613416    
  18210800   21398.008     -14.257451     -35363647       0.52162916     63464.48      -35300182       1046.7708      1046.7708      1046.7708      1976.6146      3023.3854      1976.6146      3023.3854      1976.6146      3023.3854      1.1469773e+09  0.5            9107900        0.54445802     5322.6185      10645.265      8.8427897    
  18211000   22377.047     -14.542737     -35356433       0.52162916     66368.217     -35290065       1046.7708      1046.7708      1046.7708      1976.6146      3023.3854      1976.6146      3023.3854      1976.6146      3023.3854      1.1469773e+09  0.5            9108000        0.56306462     5374.4315      10748.831      8.8213853    
  18211200   23556.751     -15.108594     -35354696       0.52162916     69867.11      -35284829       1046.7708      1046.7708      1046.7708      1976.6146      3023.3854      1976.6146      3023.3854      1976.6146      3023.3854      1.1469773e+09  0.5            9108100        0.5820448      5268.6495      10537.288      8.8058145    
  18211400   24185.412     -15.525449     -35354831       0.52162916     71731.658     -35283100       1046.7708      1046.7708      1046.7708      1976.6146      3023.3854      1976.6146      3023.3854      1976.6146      3023.3854      1.1469773e+09  0.5            9108200        0.60055547     5402.3057      10804.594      8.7831611    
  18211600   24441.048     -15.950707     -35353057       0.52162916     72489.85      -35280567       1046.7708      1046.7708      1046.7708      1976.6146      3023.3854      1976.6146      3023.3854      1976.6146      3023.3854      1.1469773e+09  0.5            9108300        0.61897472     5429.121       10858.301      8.7594632    
  18211800   25144.792     -16.377479     -35345793       0.52162916     74577.089     -35271216       1046.7708      1046.7708      1046.7708      1976.6146      3023.3854      1976.6146      3023.3854      1976.6146      3023.3854      1.1469773e+09  0.5            9108400        0.63768046     5345.9289      10691.848      8.7400083    
  18212000   26370.257     -16.82939      -35345903       0.52162916     78211.705     -35267691       1046.7708      1046.7708      1046.7708      1976.6146      3023.3854      1976.6146      3023.3854      1976.6146      3023.3854      1.1469773e+09  0.5            9108500        0.65624799     5385.7547      10771.498      8.7187564    
  18212200   27298.303     -17.505532     -35353384       0.52162916     80964.201     -35272420       1046.7708      1046.7708      1046.7708      1976.6146      3023.3854      1976.6146      3023.3854      1976.6146      3023.3854      1.1469773e+09  0.5            9108600        0.67560771     5165.3509      10330.7        8.707866     
  18212400   27602.553     -18.176298     -35353492       0.52162916     81866.577     -35271626       1046.7708      1046.7708      1046.7708      1976.6146      3023.3854      1976.6146      3023.3854      1976.6146      3023.3854      1.1469773e+09  0.5            9108700        0.69409845     5408.125       10816.206      8.6856425    
  18212600   28012.973     -18.752913     -35360988       0.52162916     83083.846     -35277904       1046.7708      1046.7708      1046.7708      1976.6146      3023.3854      1976.6146      3023.3854      1976.6146      3023.3854      1.1469773e+09  0.5            9108800        0.71301209     5287.1971      10574.407      8.668756     
  18212800   29096.27      -19.294768     -35368488       0.52162916     86296.802     -35282191       1046.7708      1046.7708      1046.7708      1976.6146      3023.3854      1976.6146      3023.3854      1976.6146      3023.3854      1.1469773e+09  0.5            9108900        0.7314881      5412.4108      10824.857      8.6465946    
  18213000   30282.448     -19.776256     -35375998       0.52162916     89814.895     -35286183       1046.7708      1046.7708      1046.7708      1976.6146      3023.3854      1976.6146      3023.3854      1976.6146      3023.3854      1.1469773e+09  0.5            9109000        0.75035226     5301.0669      10602.111      8.6292122    
  18213200   30804.486     -20.230544     -35374225       0.52162916     91363.209     -35282862       1046.7708      1046.7708      1046.7708      1976.6146      3023.3854      1976.6146      3023.3854      1976.6146      3023.3854      1.1469773e+09  0.5            9109100        0.77040428     4987.021       9974.053       8.624799     
  18213400   31014.368     -20.841969     -35374336       0.52162916     91985.699     -35282351       1046.7708      1046.7708      1046.7708      1976.6146      3023.3854      1976.6146      3023.3854      1976.6146      3023.3854      1.1469773e+09  0.5            9109200        0.78986573     5138.3646      10276.712      8.6133258    
  18213600   31813.407     -21.25311      -35374439       0.52162916     94355.573     -35280083       1046.7708      1046.7708      1046.7708      1976.6146      3023.3854      1976.6146      3023.3854      1976.6146      3023.3854      1.1469773e+09  0.5            9109300        0.80835332     5409.057       10818.096      8.5911307    
  18213800   33113.508     -21.45287      -35374515       0.52162916     98211.553     -35276303       1046.7708      1046.7708      1046.7708      1976.6146      3023.3854      1976.6146      3023.3854      1976.6146      3023.3854      1.1469773e+09  0.5            9109400        0.827197       5306.8027      10613.664      8.5727943    
  18214000   33961.725     -21.702263     -35374548       0.52162916     100727.29     -35273820       1046.7708      1046.7708      1046.7708      1976.6146      3023.3854      1976.6146      3023.3854      1976.6146      3023.3854      1.1469773e+09  0.5            9109500        0.8456859      5408.6395      10817.295      8.5509467    
  18214200   34158.665     -22.301179     -35372638       0.52162916     101311.39     -35271326       1046.7708      1046.7708      1046.7708      1976.6146      3023.3854      1976.6146      3023.3854      1976.6146      3023.3854      1.1469773e+09  0.5            9109600        0.86457047     5295.3307      10590.632      8.5329593    
  18214400   34613.765     -22.800092     -35372945       0.52162916     102661.17     -35270283       1046.7708      1046.7708      1046.7708      1976.6146      3023.3854      1976.6146      3023.3854      1976.6146      3023.3854      1.1469773e+09  0.5            9109700        0.88303944     5414.4939      10829.005      8.5110204    
  18214600   35824.677     -23.405986     -35380202       0.52162916     106252.63     -35273950       1046.7708      1046.7708      1046.7708      1976.6146      3023.3854      1976.6146      3023.3854      1976.6146      3023.3854      1.1469773e+09  0.5            9109800        0.90195271     5287.2813      10574.529      8.4934124    
  18214800   36997.945     -23.663817     -35378121       0.52162916     109732.43     -35268389       1046.7708      1046.7708      1046.7708      1976.6146      3023.3854      1976.6146      3023.3854      1976.6146      3023.3854      1.1469773e+09  0.5            9109900        0.92044278     5408.3136      10816.627      8.4718541    
  18215000   37398.83      -24.182734     -35377889       0.52162916     110921.42     -35266968       1046.7708      1046.7708      1046.7708      1976.6146      3023.3854      1976.6146      3023.3854      1976.6146      3023.3854      1.1469773e+09  0.5            9110000        0.93932297     5296.5686      10593.197      8.4539286    
  18215200   37578.416     -24.419945     -35372097       0.52162916     111454.05     -35260643       1046.7708      1046.7708      1046.7708      1976.6146      3023.3854      1976.6146      3023.3854      1976.6146      3023.3854      1.1469773e+09  0.5            9110100        0.95804839     5340.3379      10680.638      8.434604     
  18215400   38499.762     -24.512929     -35371724       0.52162916     114186.67     -35257538       1046.7708      1046.7708      1046.7708      1976.6146      3023.3854      1976.6146      3023.3854      1976.6146      3023.3854      1.1469773e+09  0.5            9110200        0.9773268      5187.1452      10374.268      8.4200678    
  18215600   39862.76      -24.99537      -35363905       0.52162916     118229.2      -35245676       1046.7708      1046.7708      1046.7708      1976.6146      3023.3854      1976.6146      3023.3854      1976.6146      3023.3854      1.1469773e+09  0.5            9110300        0.99561543     5467.8844      10935.76       8.3970043    
  18215800   40612.816     -24.939706     -35348641       0.52162916     120453.79     -35228187       1046.7708      1046.7708      1046.7708      1976.6146      3023.3854      1976.6146      3023.3854      1976.6146      3023.3854      1.1469773e+09  0.5            9110400        1.0142431      5368.3329      10736.711      8.3769173    
  18216000   40733.933     -25.445684     -35348086       0.52162916     120813.02     -35227273       1046.7708      1046.7708      1046.7708      1976.6146      3023.3854      1976.6146      3023.3854      1976.6146      3023.3854      1.1469773e+09  0.5            9110500        1.0325088      5474.7746      10949.552      8.3539546    
  18216200   41278.889     -25.813264     -35347501       0.52162916     122429.3      -35225072       1046.7708      1046.7708      1046.7708      1976.6146      3023.3854      1976.6146      3023.3854      1976.6146      3023.3854      1.1469773e+09  0.5            9110600        1.0514099      5290.6929      10581.4        8.3361978    
  18216400   42604.364     -25.984599     -35348796       0.52162916     126360.54     -35222436       1046.7708      1046.7708      1046.7708      1976.6146      3023.3854      1976.6146      3023.3854      1976.6146      3023.3854      1.1469773e+09  0.5            9110700        1.0702944      5295.3436      10590.606      8.3182726    
  18216600   43700.893     -26.337964     -35340802       0.52162916     129612.74     -35211189       1046.7708      1046.7708      1046.7708      1976.6146      3023.3854      1976.6146      3023.3854      1976.6146      3023.3854      1.1469773e+09  0.5            9110800        1.0891624      5299.9872      10600.038      8.3001869    
  18216800   43992.558     -26.659905     -35334716       0.52162916     130477.79     -35204239       1046.7708      1046.7708      1046.7708      1976.6146      3023.3854      1976.6146      3023.3854      1976.6146      3023.3854      1.1469773e+09  0.5            9110900        1.1074315      5473.7132      10947.424      8.2775994    
  18217000   44234.778     -27.109996     -35334146       0.52162916     131196.19     -35202950       1046.7708      1046.7708      1046.7708      1976.6146      3023.3854      1976.6146      3023.3854      1976.6146      3023.3854      1.1469773e+09  0.5            9111000        1.126247       5314.7575      10622.874      8.2592491    
  18217200   45341.915     -27.277851     -35333610       0.52162916     134479.86     -35199130       1046.7708      1046.7708      1046.7708      1976.6146      3023.3854      1976.6146      3023.3854      1976.6146      3023.3854      1.1469773e+09  0.5            9111100        1.1447728      5397.9096      10802.667      8.2386281    
  18217400   46700.11      -27.80388      -35342413       0.52162916     138508.14     -35203905       1046.7708      1046.7708      1046.7708      1976.6146      3023.3854      1976.6146      3023.3854      1976.6146      3023.3854      1.1469773e+09  0.5            9111200        1.1638743      5235.191       10470.336      8.2222268    
  18217600   47261.896     -27.9242       -35334638       0.52162916     140174.34     -35194463       1046.7708      1046.7708      1046.7708      1976.6146      3023.3854      1976.6146      3023.3854      1976.6146      3023.3854      1.1469773e+09  0.5            9111300        1.1826931      5313.8173      10627.65       8.2037778    
  18217800   47314.84      -28.304824     -35336204       0.52162916     140331.37     -35195873       1046.7708      1046.7708      1046.7708      1976.6146      3023.3854      1976.6146      3023.3854      1976.6146      3023.3854      1.1469773e+09  0.5            9111400        1.2017342      5251.796       10503.549      8.1868318    
  18218000   48297.455     -28.575596     -35326677       0.52162916     143245.71     -35183432       1046.7708      1046.7708      1046.7708      1976.6146      3023.3854      1976.6146      3023.3854      1976.6146      3023.3854      1.1469773e+09  0.5            9111500        1.2201548      5428.6945      10857.457      8.1656683    
  18218200   50461.022     -29.200992     -35341255       0.52162916     149662.65     -35191592       1046.7708      1046.7708      1046.7708      1976.6146      3023.3854      1976.6146      3023.3854      1976.6146      3023.3854      1.1469773e+09  0.5            9111600        1.2390079      5304.1714      10608.342      8.1474319    
  18218400   50646.612     -30.184104     -35348514       0.52162916     150213.09     -35198301       1046.7708      1046.7708      1046.7708      1976.6146      3023.3854      1976.6146      3023.3854      1976.6146      3023.3854      1.1469773e+09  0.5            9111700        1.2575371      5396.906       10793.833      8.1270835    
  18218600   47986.723     -30.796381     -35339160       0.52162916     142324.11     -35196836       1046.7708      1046.7708      1046.7708      1976.6146      3023.3854      1976.6146      3023.3854      1976.6146      3023.3854      1.1469773e+09  0.5            9111800        1.2763126      5326.0785      10652.147      8.1083544    
  18218800   48368.308     -31.491219     -35339126       0.52162916     143455.85     -35195670       1046.7708      1046.7708      1046.7708      1976.6146      3023.3854      1976.6146      3023.3854      1976.6146      3023.3854      1.1469773e+09  0.5            9111900        1.2950164      5346.5083      10693.023      8.089176     
  18219000   51674.589     -31.524825     -35339098       0.52162916     153261.97     -35185836       1046.7708      1046.7708      1046.7708      1976.6146      3023.3854      1976.6146      3023.3854      1976.6146      3023.3854      1.1469773e+09  0.5            9112000        1.3133255      5461.7491      10923.495      8.0675863    
  18219200   52906.749     -32.393701     -35344564       0.52162916     156916.44     -35187648       1046.7708      1046.7708      1046.7708      1976.6146      3023.3854      1976.6146      3023.3854      1976.6146      3023.3854      1.1469773e+09  0.5            9112100        1.3320265      5347.3139      10694.651      8.0484567    
  18219400   53970.829     -32.99742      -35344529       0.52162916     160072.41     -35184456       1046.7708      1046.7708      1046.7708      1976.6146      3023.3854      1976.6146      3023.3854      1976.6146      3023.3854      1.1469773e+09  0.5            9112200        1.3504695      5422.1046      10844.193      8.0278062    
  18219600   54654.538     -33.365799     -35351848       0.52162916     162100.22     -35189748       1046.7708      1046.7708      1046.7708      1976.6146      3023.3854      1976.6146      3023.3854      1976.6146      3023.3854      1.1469773e+09  0.5            9112300        1.3693109      5307.4767      10614.913      8.0095455    
  18219800   55166.845     -33.568463     -35353633       0.52162916     163619.68     -35190013       1046.7708      1046.7708      1046.7708      1976.6146      3023.3854      1976.6146      3023.3854      1976.6146      3023.3854      1.1469773e+09  0.5            9112400        1.3881141      5318.2355      10636.47       7.9910502    
  18220000   56200.269     -33.801671     -35353833       0.52162916     166684.71     -35187148       1046.7708      1046.7708      1046.7708      1976.6146      3023.3854      1976.6146      3023.3854      1976.6146      3023.3854      1.1469773e+09  0.5            9112500        1.4065112      5435.6461      10871.228      7.9702449    
  18220200   57464.77      -34.125188     -35345851       0.52162916     170435.11     -35175416       1046.7708      1046.7708      1046.7708      1976.6146      3023.3854      1976.6146      3023.3854      1976.6146      3023.3854      1.1469773e+09  0.5            9112600        1.4253038      5321.2483      10642.576      7.9517092    
  18220400   57649.379     -34.027933     -35332683       0.52162916     170982.64     -35161700       1046.7708      1046.7708      1046.7708      1976.6146      3023.3854      1976.6146      3023.3854      1976.6146      3023.3854      1.1469773e+09  0.5            9112700        1.4437069      5433.8527      10867.705      7.9310271    
  18220600   56765.268     -34.488909     -35332317       0.52162916     168360.45     -35163957       1046.7708      1046.7708      1046.7708      1976.6146      3023.3854      1976.6146      3023.3854      1976.6146      3023.3854      1.1469773e+09  0.5            9112800        1.4625683      5301.8575      10603.744      7.9128824    
  18220800   57677.406     -34.731818     -35331873       0.52162916     171065.76     -35160808       1046.7708      1046.7708      1046.7708      1976.6146      3023.3854      1976.6146      3023.3854      1976.6146      3023.3854      1.1469773e+09  0.5            9112900        1.4812701      5347.0732      10694.149      7.8938697    
  18221000   60779.892     -34.528485     -35316595       0.52162916     180267.45     -35136328       1046.7708      1046.7708      1046.7708      1976.6146      3023.3854      1976.6146      3023.3854      1976.6146      3023.3854      1.1469773e+09  0.5            9113000        1.4995877      5459.2275      10918.441      7.8728481    
  18221200   60841.692     -35.120655     -35325308       0.52162916     180450.74     -35144857       1046.7708      1046.7708      1046.7708      1976.6146      3023.3854      1976.6146      3023.3854      1976.6146      3023.3854      1.1469773e+09  0.5            9113100        1.5196831      4976.265       9952.4903      7.8610898    
  18221400   59472.315     -35.340562     -35324709       0.52162916     176389.3      -35148320       1046.7708      1046.7708      1046.7708      1976.6146      3023.3854      1976.6146      3023.3854      1976.6146      3023.3854      1.1469773e+09  0.5            9113200        1.5381022      5429.1322      10858.23       7.8405833    
  18221600   60110.81      -35.898926     -35336946       0.52162916     178283.01     -35158663       1046.7708      1046.7708      1046.7708      1976.6146      3023.3854      1976.6146      3023.3854      1976.6146      3023.3854      1.1469773e+09  0.5            9113300        1.5569082      5317.4423      10634.937      7.82207      
  18221800   63968.201     -35.450313     -35327383       0.52162916     189723.67     -35137659       1046.7708      1046.7708      1046.7708      1976.6146      3023.3854      1976.6146      3023.3854      1976.6146      3023.3854      1.1469773e+09  0.5            9113400        1.5754968      5379.6694      10759.311      7.8024726    
  18222000   63901.548     -35.337543     -35326702       0.52162916     189525.99     -35137176       1046.7708      1046.7708      1046.7708      1976.6146      3023.3854      1976.6146      3023.3854      1976.6146      3023.3854      1.1469773e+09  0.5            9113500        1.5938102      5460.4822      10920.989      7.7815558    
  18222200   62183.749     -35.310289     -35326022       0.52162916     184431.16     -35141590       1046.7708      1046.7708      1046.7708      1976.6146      3023.3854      1976.6146      3023.3854      1976.6146      3023.3854      1.1469773e+09  0.5            9113600        1.6127756      5272.7476      10545.474      7.7638391    
  18222400   63239.452     -34.983263     -35317966       0.52162916     187562.27     -35130403       1046.7708      1046.7708      1046.7708      1976.6146      3023.3854      1976.6146      3023.3854      1976.6146      3023.3854      1.1469773e+09  0.5            9113700        1.6313212      5392.132       10784.291      7.7440995    
  18222600   67155.559     -34.769118     -35317293       0.52162916     199177.07     -35118116       1046.7708      1046.7708      1046.7708      1976.6146      3023.3854      1976.6146      3023.3854      1976.6146      3023.3854      1.1469773e+09  0.5            9113800        1.6502228      5290.5437      10581.057      7.7260552    
  18222800   66495.547     -35.063715     -35314715       0.52162916     197219.54     -35117496       1046.7708      1046.7708      1046.7708      1976.6146      3023.3854      1976.6146      3023.3854      1976.6146      3023.3854      1.1469773e+09  0.5            9113900        1.6691166      5292.7432      10585.527      7.7079544    
  18223000   65179.193     -35.735192     -35328806       0.52162916     193315.36     -35135490       1046.7708      1046.7708      1046.7708      1976.6146      3023.3854      1976.6146      3023.3854      1976.6146      3023.3854      1.1469773e+09  0.5            9114000        1.6883139      5209.0539      10411.8        7.6912724    
  18223200   67561.254     -35.422562     -35328148       0.52162916     200380.33     -35127768       1046.7708      1046.7708      1046.7708      1976.6146      3023.3854      1976.6146      3023.3854      1976.6146      3023.3854      1.1469773e+09  0.5            9114100        1.7069339      5370.5895      10747.881      7.6718352    
  18223400   70830.073     -34.850989     -35327458       0.52162916     210075.34     -35117382       1046.7708      1046.7708      1046.7708      1976.6146      3023.3854      1976.6146      3023.3854      1976.6146      3023.3854      1.1469773e+09  0.5            9114200        1.7254764      5393.0251      10786.048      7.6521236    
  18223600   68977.091     -35.201888     -35332217       0.52162916     204579.57     -35127637       1046.7708      1046.7708      1046.7708      1976.6146      3023.3854      1976.6146      3023.3854      1976.6146      3023.3854      1.1469773e+09  0.5            9114300        1.7443615      5295.179       10590.359      7.6339366    
  18223800   67757.275     -35.129598     -35333383       0.52162916     200961.71     -35132421       1046.7708      1046.7708      1046.7708      1976.6146      3023.3854      1976.6146      3023.3854      1976.6146      3023.3854      1.1469773e+09  0.5            9114400        1.7629941      5366.9318      10733.863      7.6146448    
  18224000   71057.083     -35.174476     -35332609       0.52162916     210748.63     -35121860       1046.7708      1046.7708      1046.7708      1976.6146      3023.3854      1976.6146      3023.3854      1976.6146      3023.3854      1.1469773e+09  0.5            9114500        1.7820123      5258.1242      10516.303      7.5970096    
  18224200   73490.171     -34.80651      -35331754       0.52162916     217964.94     -35113789       1046.7708      1046.7708      1046.7708      1976.6146      3023.3854      1976.6146      3023.3854      1976.6146      3023.3854      1.1469773e+09  0.5            9114600        1.8003931      5440.4099      10880.816      7.5766649    
  18224400   71737.339     -35.369479     -35347088       0.52162916     212766.2      -35134322       1046.7708      1046.7708      1046.7708      1976.6146      3023.3854      1976.6146      3023.3854      1976.6146      3023.3854      1.1469773e+09  0.5            9114700        1.8193531      5274.2702      10548.566      7.5587656    
  18224600   70947.707     -35.418963     -35338700       0.52162916     210424.23     -35128276       1046.7708      1046.7708      1046.7708      1976.6146      3023.3854      1976.6146      3023.3854      1976.6146      3023.3854      1.1469773e+09  0.5            9114800        1.8379769      5369.4789      10738.915      7.5394665    
  18224800   74094.334     -34.934157     -35339501       0.52162916     219756.83     -35119744       1046.7708      1046.7708      1046.7708      1976.6146      3023.3854      1976.6146      3023.3854      1976.6146      3023.3854      1.1469773e+09  0.5            9114900        1.8570046      5255.478       10510.893      7.5218173    
  18225000   76167.427     -34.659374     -35345670       0.52162916     225905.43     -35119765       1046.7708      1046.7708      1046.7708      1976.6146      3023.3854      1976.6146      3023.3854      1976.6146      3023.3854      1.1469773e+09  0.5            9115000        1.8757115      5345.6423      10691.331      7.5028561    
  18225200   74728.949     -34.66133      -35344350       0.52162916     221639.04     -35122710       1046.7708      1046.7708      1046.7708      1976.6146      3023.3854      1976.6146      3023.3854      1976.6146      3023.3854      1.1469773e+09  0.5            9115100        1.8942318      5399.4715      10798.975      7.4831631    
  18225400   74316.285     -34.541598     -35348432       0.52162916     220415.12     -35128017       1046.7708      1046.7708      1046.7708      1976.6146      3023.3854      1976.6146      3023.3854      1976.6146      3023.3854      1.1469773e+09  0.5            9115200        1.9132068      5270.1011      10540.214      7.4652672    
  18225600   75804.071     -33.921208     -35346954       0.52162916     224827.75     -35122127       1046.7708      1046.7708      1046.7708      1976.6146      3023.3854      1976.6146      3023.3854      1976.6146      3023.3854      1.1469773e+09  0.5            9115300        1.9315795      5442.851       10885.635      7.4450301    
  18225800   77038.745     -33.156416     -35338006       0.52162916     228489.68     -35109516       1046.7708      1046.7708      1046.7708      1976.6146      3023.3854      1976.6146      3023.3854      1976.6146      3023.3854      1.1469773e+09  0.5            9115400        1.9502867      5345.5634      10691.203      7.4261004    
  18226000   77158.133     -33.010508     -35351146       0.52162916     228843.77     -35122303       1046.7708      1046.7708      1046.7708      1976.6146      3023.3854      1976.6146      3023.3854      1976.6146      3023.3854      1.1469773e+09  0.5            9115500        1.9691242      5308.5482      10617.024      7.4076674    
  18226200   78071.262     -32.828846     -35347621       0.52162916     231552.03     -35116069       1046.7708      1046.7708      1046.7708      1976.6146      3023.3854      1976.6146      3023.3854      1976.6146      3023.3854      1.1469773e+09  0.5            9115600        1.9924888      4279.9778      8559.959       7.4060529    
  18226400   80211.494     -32.041529     -35340469       0.52162916     237899.75     -35102569       1046.7708      1046.7708      1046.7708      1976.6146      3023.3854      1976.6146      3023.3854      1976.6146      3023.3854      1.1469773e+09  0.5            9115700        2.0109646      5412.4817      10824.997      7.3860752    
  18226600   82296.819     -31.569237     -35338787       0.52162916     244084.63     -35094703       1046.7708      1046.7708      1046.7708      1976.6146      3023.3854      1976.6146      3023.3854      1976.6146      3023.3854      1.1469773e+09  0.5            9115800        2.0297825      5314.0997      10628.196      7.3673677    
  18226800   84445.596     -31.058262     -35337087       0.52162916     250457.7      -35086629       1046.7708      1046.7708      1046.7708      1976.6146      3023.3854      1976.6146      3023.3854      1976.6146      3023.3854      1.1469773e+09  0.5            9115900        2.0481576      5442.1505      10884.287      7.3470697    
  18227000   82286.348     -30.929713     -35331815       0.52162916     244053.57     -35087761       1046.7708      1046.7708      1046.7708      1976.6146      3023.3854      1976.6146      3023.3854      1976.6146      3023.3854      1.1469773e+09  0.5            9116000        2.0673185      5218.9534      10437.909      7.3295925    
  18227200   78652.406     -30.905548     -35332119       0.52162916     233275.64     -35098844       1046.7708      1046.7708      1046.7708      1976.6146      3023.3854      1976.6146      3023.3854      1976.6146      3023.3854      1.1469773e+09  0.5            9116100        2.0861347      5314.5691      10629.147      7.3108771    
  18227400   81526.654     -30.044206     -35315878       0.52162916     241800.39     -35074077       1046.7708      1046.7708      1046.7708      1976.6146      3023.3854      1976.6146      3023.3854      1976.6146      3023.3854      1.1469773e+09  0.5            9116200        2.1051664      5254.3864      10508.774      7.2929065    
  18227600   84402.953     -29.111659     -35314442       0.52162916     250331.22     -35064110       1046.7708      1046.7708      1046.7708      1976.6146      3023.3854      1976.6146      3023.3854      1976.6146      3023.3854      1.1469773e+09  0.5            9116300        2.1237617      5377.7258      10755.434      7.2734224    
  18227800   84425.961     -29.005746     -35313079       0.52162916     250399.47     -35062679       1046.7708      1046.7708      1046.7708      1976.6146      3023.3854      1976.6146      3023.3854      1976.6146      3023.3854      1.1469773e+09  0.5            9116400        2.1427334      5271.0061      10541.992      7.2552285    
  18228000   84863.591     -28.739289     -35309902       0.52162916     251697.43     -35058205       1046.7708      1046.7708      1046.7708      1976.6146      3023.3854      1976.6146      3023.3854      1976.6146      3023.3854      1.1469773e+09  0.5            9116500        2.1614161      5352.5511      10705.139      7.2360532    
  18228200   88333.08      -27.696435     -35292051       0.52162916     261987.61     -35030064       1046.7708      1046.7708      1046.7708      1976.6146      3023.3854      1976.6146      3023.3854      1976.6146      3023.3854      1.1469773e+09  0.5            9116600        2.1808186      5153.9476      10307.879      7.2192699    
  18228400   90453.534     -26.818808     -35276119       0.52162916     268276.68     -35007842       1046.7708      1046.7708      1046.7708      1976.6146      3023.3854      1976.6146      3023.3854      1976.6146      3023.3854      1.1469773e+09  0.5            9116700        2.1993265      5403.1124      10806.243      7.1995128    
  18228600   85054.367     -27.112207     -35274962       0.52162916     252263.26     -35022699       1046.7708      1046.7708      1046.7708      1976.6146      3023.3854      1976.6146      3023.3854      1976.6146      3023.3854      1.1469773e+09  0.5            9116800        2.2180955      5327.9275      10655.855      7.1806223    
  18228800   83702.267     -27.061174     -35274218       0.52162916     248253.06     -35025965       1046.7708      1046.7708      1046.7708      1976.6146      3023.3854      1976.6146      3023.3854      1976.6146      3023.3854      1.1469773e+09  0.5            9116900        2.2368777      5324.2021      10648.423      7.1617756    
  18229000   86964.998     -25.948833     -35258336       0.52162916     257930.01     -35000406       1046.7708      1046.7708      1046.7708      1976.6146      3023.3854      1976.6146      3023.3854      1976.6146      3023.3854      1.1469773e+09  0.5            9117000        2.2552058      5456.1122      10912.192      7.1414927    
  18229200   89809.517     -25.583493     -35257135       0.52162916     266366.59     -34990769       1046.7708      1046.7708      1046.7708      1976.6146      3023.3854      1976.6146      3023.3854      1976.6146      3023.3854      1.1469773e+09  0.5            9117100        2.2743729      5217.2385      10434.472      7.1238701    
  18229400   91482.213     -24.490295     -35239565       0.52162916     271327.64     -34968237       1046.7708      1046.7708      1046.7708      1976.6146      3023.3854      1976.6146      3023.3854      1976.6146      3023.3854      1.1469773e+09  0.5            9117200        2.2929852      5372.8035      10745.641      7.1045027    
  18229600   91626.302     -24.214859     -35238181       0.52162916     271755        -34966426       1046.7708      1046.7708      1046.7708      1976.6146      3023.3854      1976.6146      3023.3854      1976.6146      3023.3854      1.1469773e+09  0.5            9117300        2.3120434      5247.0698      10494.103      7.0865151    
  18229800   91297.411     -23.781681     -35236681       0.52162916     270779.54     -34965902       1046.7708      1046.7708      1046.7708      1976.6146      3023.3854      1976.6146      3023.3854      1976.6146      3023.3854      1.1469773e+09  0.5            9117400        2.3304992      5418.3723      10836.775      7.0666825    
  18230000   92934.62      -23.698148     -35244325       0.52162916     275635.35     -34968690       1046.7708      1046.7708      1046.7708      1976.6146      3023.3854      1976.6146      3023.3854      1976.6146      3023.3854      1.1469773e+09  0.5            9117500        2.3493837      5295.3478      10590.677      7.0481586    
  18230200   95437.086     -22.776336     -35233306       0.52162916     283057.43     -34950249       1046.7708      1046.7708      1046.7708      1976.6146      3023.3854      1976.6146      3023.3854      1976.6146      3023.3854      1.1469773e+09  0.5            9117600        2.368189       5317.63        10635.28       7.029394     
  18230400   95014.587     -22.28953      -35238822       0.52162916     281804.33     -34957018       1046.7708      1046.7708      1046.7708      1976.6146      3023.3854      1976.6146      3023.3854      1976.6146      3023.3854      1.1469773e+09  0.5            9117700        2.3872299      5251.8857      10503.773      7.0113201    
  18230600   91694.148     -22.081392     -35231418       0.52162916     271956.22     -34959461       1046.7708      1046.7708      1046.7708      1976.6146      3023.3854      1976.6146      3023.3854      1976.6146      3023.3854      1.1469773e+09  0.5            9117800        2.4057383      5402.951       10805.904      6.9916838    
  18230800   92130.504     -21.669253     -35236495       0.52162916     273250.41     -34963244       1046.7708      1046.7708      1046.7708      1976.6146      3023.3854      1976.6146      3023.3854      1976.6146      3023.3854      1.1469773e+09  0.5            9117900        2.4246024      5301.0624      10602.124      6.9730883    
  18231000   97770.016     -20.392229     -35234514       0.52162916     289976.68     -34944537       1046.7708      1046.7708      1046.7708      1976.6146      3023.3854      1976.6146      3023.3854      1976.6146      3023.3854      1.1469773e+09  0.5            9118000        2.4431321      5396.7435      10793.512      6.9535365    
  18231200   97905.441     -19.930492     -35232484       0.52162916     290378.34     -34942106       1046.7708      1046.7708      1046.7708      1976.6146      3023.3854      1976.6146      3023.3854      1976.6146      3023.3854      1.1469773e+09  0.5            9118100        2.4620006      5299.8243      10599.612      6.9349552    
  18231400   96505.251     -19.371688     -35224992       0.52162916     286225.5      -34938767       1046.7708      1046.7708      1046.7708      1976.6146      3023.3854      1976.6146      3023.3854      1976.6146      3023.3854      1.1469773e+09  0.5            9118200        2.4809478      5277.8333      10555.685      6.9165886    
  18231600   98074.582     -18.789764     -35217537       0.52162916     290879.99     -34926657       1046.7708      1046.7708      1046.7708      1976.6146      3023.3854      1976.6146      3023.3854      1976.6146      3023.3854      1.1469773e+09  0.5            9118300        2.4994079      5417.1025      10834.147      6.8968694    
  18231800   102973.51     -17.150713     -35208175       0.52162916     305409.75     -34902765       1046.7708      1046.7708      1046.7708      1976.6146      3023.3854      1976.6146      3023.3854      1976.6146      3023.3854      1.1469773e+09  0.5            9118400        2.5196253      4946.2278      9892.5095      6.8819682    
  18232000   101119.29     -17.070725     -35208106       0.52162916     299910.3      -34908196       1046.7708      1046.7708      1046.7708      1976.6146      3023.3854      1976.6146      3023.3854      1976.6146      3023.3854      1.1469773e+09  0.5            9118500        2.5382227      5377.1296      10754.255      6.8626082    
  18232200   97191.579     -17.620721     -35232120       0.52162916     288261.09     -34943859       1046.7708      1046.7708      1046.7708      1976.6146      3023.3854      1976.6146      3023.3854      1976.6146      3023.3854      1.1469773e+09  0.5            9118600        2.5572837      5246.2765      10492.551      6.8445011    
  18232400   100993.89     -16.41974      -35237678       0.52162916     299538.39     -34938139       1046.7708      1046.7708      1046.7708      1976.6146      3023.3854      1976.6146      3023.3854      1976.6146      3023.3854      1.1469773e+09  0.5            9118700        2.5760651      5324.4184      10648.822      6.8256389    
  18232600   105766.44     -15.581343     -35243167       0.52162916     313693.31     -34929473       1046.7708      1046.7708      1046.7708      1976.6146      3023.3854      1976.6146      3023.3854      1976.6146      3023.3854      1.1469773e+09  0.5            9118800        2.5949307      5300.6553      10601.326      6.8069985    
  18232800   102343.07     -14.910754     -35219499       0.52162916     303539.91     -34915959       1046.7708      1046.7708      1046.7708      1976.6146      3023.3854      1976.6146      3023.3854      1976.6146      3023.3854      1.1469773e+09  0.5            9118900        2.6136508      5341.8444      10683.697      6.7879771    
  18233000   100075.8      -14.608786     -35226887       0.52162916     296815.42     -34930072       1046.7708      1046.7708      1046.7708      1976.6146      3023.3854      1976.6146      3023.3854      1976.6146      3023.3854      1.1469773e+09  0.5            9119000        2.6319933      5451.8436      10903.698      6.7679889    
  18233200   104908.34     -13.523733     -35224998       0.52162916     311148.27     -34913850       1046.7708      1046.7708      1046.7708      1976.6146      3023.3854      1976.6146      3023.3854      1976.6146      3023.3854      1.1469773e+09  0.5            9119100        2.6506353      5364.2014      10728.397      6.7487871    
  18233400   107226.29     -12.443054     -35215254       0.52162916     318023.09     -34897231       1046.7708      1046.7708      1046.7708      1976.6146      3023.3854      1976.6146      3023.3854      1976.6146      3023.3854      1.1469773e+09  0.5            9119200        2.6693384      5346.739       10693.427      6.7297466    
  18233600   105419.79     -12.032616     -35222452       0.52162916     312665.2      -34909787       1046.7708      1046.7708      1046.7708      1976.6146      3023.3854      1976.6146      3023.3854      1976.6146      3023.3854      1.1469773e+09  0.5            9119300        2.6885032      5217.869       10435.727      6.7118641    
  18233800   104928.23     -11.087788     -35220341       0.52162916     311207.26     -34909134       1046.7708      1046.7708      1046.7708      1976.6146      3023.3854      1976.6146      3023.3854      1976.6146      3023.3854      1.1469773e+09  0.5            9119400        2.7069443      5422.6938      10845.418      6.692174     
  18234000   111072.52     -10.314168     -35218180       0.52162916     329430.64     -34888749       1046.7708      1046.7708      1046.7708      1976.6146      3023.3854      1976.6146      3023.3854      1976.6146      3023.3854      1.1469773e+09  0.5            9119500        2.7257488      5317.8808      10635.789      6.6733909    
  18234200   112288.59     -9.3412316     -35214031       0.52162916     333037.39     -34880993       1046.7708      1046.7708      1046.7708      1976.6146      3023.3854      1976.6146      3023.3854      1976.6146      3023.3854      1.1469773e+09  0.5            9119600        2.7444128      5357.9126      10715.798      6.6542671    
  18234400   108029.12     -9.1837166     -35219200       0.52162916     320404.22     -34898795       1046.7708      1046.7708      1046.7708      1976.6146      3023.3854      1976.6146      3023.3854      1976.6146      3023.3854      1.1469773e+09  0.5            9119700        2.7629176      5404.0036      10808.015      6.634767     
  18234600   107278.15     -8.9077777     -35217083       0.52162916     318176.92     -34898906       1046.7708      1046.7708      1046.7708      1976.6146      3023.3854      1976.6146      3023.3854      1976.6146      3023.3854      1.1469773e+09  0.5            9119800        2.7829911      4981.6727      9963.3473      6.6190117    
  18234800   110082.17     -7.9798184     -35215076       0.52162916     326493.38     -34888582       1046.7708      1046.7708      1046.7708      1976.6146      3023.3854      1976.6146      3023.3854      1976.6146      3023.3854      1.1469773e+09  0.5            9119900        2.8013064      5459.9399      10919.888      6.5990564    
  18235000   111779.34     -7.3745981     -35205796       0.52162916     331527.01     -34874269       1046.7708      1046.7708      1046.7708      1976.6146      3023.3854      1976.6146      3023.3854      1976.6146      3023.3854      1.1469773e+09  0.5            9120000        2.8201842      5297.2154      10594.446      6.5804354    
  18235200   111416.16     -6.9493641     -35205951       0.52162916     330449.86     -34875501       1046.7708      1046.7708      1046.7708      1976.6146      3023.3854      1976.6146      3023.3854      1976.6146      3023.3854      1.1469773e+09  0.5            9120100        2.8387667      5381.4174      10762.802      6.5611286    
  18235400   111799.51     -6.3042433     -35204406       0.52162916     331586.85     -34872819       1046.7708      1046.7708      1046.7708      1976.6146      3023.3854      1976.6146      3023.3854      1976.6146      3023.3854      1.1469773e+09  0.5            9120200        2.8578001      5253.9209      10507.864      6.5428636    
  18235600   114216.79     -4.6637425     -35197576       0.52162916     338756.27     -34858819       1046.7708      1046.7708      1046.7708      1976.6146      3023.3854      1976.6146      3023.3854      1976.6146      3023.3854      1.1469773e+09  0.5            9120300        2.8769915      5210.6537      10421.3        6.5249471    
  18235800   119414.64     -3.8497404     -35203778       0.52162916     354172.59     -34849605       1046.7708      1046.7708      1046.7708      1976.6146      3023.3854      1976.6146      3023.3854      1976.6146      3023.3854      1.1469773e+09  0.5            9120400        2.8961808      5211.2367      10422.443      6.5070093    
  18236000   120185.61     -3.1403694     -35203072       0.52162916     356459.24     -34846613       1046.7708      1046.7708      1046.7708      1976.6146      3023.3854      1976.6146      3023.3854      1976.6146      3023.3854      1.1469773e+09  0.5            9120500        2.9152522      5243.4563      10486.933      6.4887926    
  18236200   111564.03     -3.9768936     -35209491       0.52162916     330888.41     -34878602       1046.7708      1046.7708      1046.7708      1976.6146      3023.3854      1976.6146      3023.3854      1976.6146      3023.3854      1.1469773e+09  0.5            9120600        2.9337957      5392.743       10785.439      6.4694012    
  18236400   112872.27     -3.4841931     -35206729       0.52162916     334768.54     -34871960       1046.7708      1046.7708      1046.7708      1976.6146      3023.3854      1976.6146      3023.3854      1976.6146      3023.3854      1.1469773e+09  0.5            9120700        2.9526729      5297.3742      10594.797      6.4507495    
  18236600   118067.75     -2.5299477     -35211341       0.52162916     350177.84     -34861163       1046.7708      1046.7708      1046.7708      1976.6146      3023.3854      1976.6146      3023.3854      1976.6146      3023.3854      1.1469773e+09  0.5            9120800        2.9717494      5242.0715      10484.118      6.4325262    
  18236800   119160.75     -1.4898086     -35201121       0.52162916     353419.57     -34847701       1046.7708      1046.7708      1046.7708      1976.6146      3023.3854      1976.6146      3023.3854      1976.6146      3023.3854      1.1469773e+09  0.5            9120900        2.9903833      5366.5663      10733.134      6.413343     
  18237000   117653.25     -0.91006701    -35201950       0.52162916     348948.49     -34853001       1046.7708      1046.7708      1046.7708      1976.6146      3023.3854      1976.6146      3023.3854      1976.6146      3023.3854      1.1469773e+09  0.5            9121000        3.0092102      5311.5269      10623.071      6.3945769    
  18237200   116530.73     -0.20514527    -35198808       0.52162916     345619.2      -34853189       1046.7708      1046.7708      1046.7708      1976.6146      3023.3854      1976.6146      3023.3854      1976.6146      3023.3854      1.1469773e+09  0.5            9121100        3.02771        5405.3791      10810.765      6.3751218    
  18237400   121127.21      1.1246767     -35182583       0.52162916     359251.92     -34823331       1046.7708      1046.7708      1046.7708      1976.6146      3023.3854      1976.6146      3023.3854      1976.6146      3023.3854      1.1469773e+09  0.5            9121200        3.0467257      5258.8307      10517.663      6.3567543    
  18237600   124262.32      2.6595336     -35173452       0.52162916     368550.36     -34804902       1046.7708      1046.7708      1046.7708      1976.6146      3023.3854      1976.6146      3023.3854      1976.6146      3023.3854      1.1469773e+09  0.5            9121300        3.0658577      5226.9         10453.739      6.3386191    
  18237800   120784.66      3.2193077     -35165946       0.52162916     358235.94     -34807710       1046.7708      1046.7708      1046.7708      1976.6146      3023.3854      1976.6146      3023.3854      1976.6146      3023.3854      1.1469773e+09  0.5            9121400        3.0847408      5295.7538      10591.55       6.3199619    
  18238000   116813.97      3.4525768     -35172986       0.52162916     346459.25     -34826527       1046.7708      1046.7708      1046.7708      1976.6146      3023.3854      1976.6146      3023.3854      1976.6146      3023.3854      1.1469773e+09  0.5            9121500        3.1036028      5301.6813      10603.393      6.3012589    
  18238200   123506.31      5.5732392     -35170554       0.52162916     366308.1      -34804246       1046.7708      1046.7708      1046.7708      1976.6146      3023.3854      1976.6146      3023.3854      1976.6146      3023.3854      1.1469773e+09  0.5            9121600        3.1222028      5376.3458      10752.662      6.2820273    
  18238400   126364.55      6.7620254     -35167847       0.52162916     374785.36     -34793062       1046.7708      1046.7708      1046.7708      1976.6146      3023.3854      1976.6146      3023.3854      1976.6146      3023.3854      1.1469773e+09  0.5            9121700        3.1411956      5265.1318      10530.281      6.2635865    
  18238600   123304.69      7.7787245     -35170487       0.52162916     365710.12     -34804776       1046.7708      1046.7708      1046.7708      1976.6146      3023.3854      1976.6146      3023.3854      1976.6146      3023.3854      1.1469773e+09  0.5            9121800        3.160198       5262.4685      10524.944      6.2451582    
  18238800   121944.86      8.6754828     -35167585       0.52162916     361677        -34805908       1046.7708      1046.7708      1046.7708      1976.6146      3023.3854      1976.6146      3023.3854      1976.6146      3023.3854      1.1469773e+09  0.5            9121900        3.1791269      5282.9763      10565.935      6.2265786    
  18239000   128680.47      10.825243     -35155343       0.52162916     381654.19     -34773689       1046.7708      1046.7708      1046.7708      1976.6146      3023.3854      1976.6146      3023.3854      1976.6146      3023.3854      1.1469773e+09  0.5            9122000        3.1977713      5363.5086      10727.008      6.2074433    
  18239200   129835.37      12.099512     -35144944       0.52162916     385079.5      -34759864       1046.7708      1046.7708      1046.7708      1976.6146      3023.3854      1976.6146      3023.3854      1976.6146      3023.3854      1.1469773e+09  0.5            9122100        3.2166173      5306.1748      10612.373      6.1887012    
  18239400   125969.62      12.604902     -35134608       0.52162916     373614.06     -34760994       1046.7708      1046.7708      1046.7708      1976.6146      3023.3854      1976.6146      3023.3854      1976.6146      3023.3854      1.1469773e+09  0.5            9122200        3.2351727      5389.2557      10778.438      6.1694041    
  18239600   125383.47      13.387067     -35126296       0.52162916     371875.59     -34754421       1046.7708      1046.7708      1046.7708      1976.6146      3023.3854      1976.6146      3023.3854      1976.6146      3023.3854      1.1469773e+09  0.5            9122300        3.2541515      5269.0348      10538.112      6.1509155    
  18239800   133117.76      15.384921     -35118120       0.52162916     394814.77     -34723306       1046.7708      1046.7708      1046.7708      1976.6146      3023.3854      1976.6146      3023.3854      1976.6146      3023.3854      1.1469773e+09  0.5            9122400        3.2736153      5137.7352      10275.479      6.13333      
  18240000   134746.78      16.541555     -35119681       0.52162916     399646.28     -34720034       1046.7708      1046.7708      1046.7708      1976.6146      3023.3854      1976.6146      3023.3854      1976.6146      3023.3854      1.1469773e+09  0.5            9122500        3.2923203      5346.159       10692.274      6.1143141    
  18240200   129852.98      16.26807      -35119172       0.52162916     385131.72     -34734041       1046.7708      1046.7708      1046.7708      1976.6146      3023.3854      1976.6146      3023.3854      1976.6146      3023.3854      1.1469773e+09  0.5            9122600        3.3112035      5295.7272      10591.465      6.0956293    
  18240400   127585.86      17.149986     -35101884       0.52162916     378407.68     -34723476       1046.7708      1046.7708      1046.7708      1976.6146      3023.3854      1976.6146      3023.3854      1976.6146      3023.3854      1.1469773e+09  0.5            9122700        3.3300988      5292.3029      10584.605      6.0769648    
  18240600   132488.14      18.192904     -35107309       0.52162916     392947.36     -34714362       1046.7708      1046.7708      1046.7708      1976.6146      3023.3854      1976.6146      3023.3854      1976.6146      3023.3854      1.1469773e+09  0.5            9122800        3.3487266      5368.3565      10736.749      6.0578132    
  18240800   136435.79      18.905127     -35098082       0.52162916     404655.72     -34693427       1046.7708      1046.7708      1046.7708      1976.6146      3023.3854      1976.6146      3023.3854      1976.6146      3023.3854      1.1469773e+09  0.5            9122900        3.367713       5266.8979      10533.799      6.0393112    
  18241000   133704.84      18.700537     -35103756       0.52162916     396556        -34707200       1046.7708      1046.7708      1046.7708      1976.6146      3023.3854      1976.6146      3023.3854      1976.6146      3023.3854      1.1469773e+09  0.5            9123000        3.3866018      5294.1849      10588.381      6.0206296    
  18241200   132289.72      18.909966     -35102175       0.52162916     392358.88     -34709816       1046.7708      1046.7708      1046.7708      1976.6146      3023.3854      1976.6146      3023.3854      1976.6146      3023.3854      1.1469773e+09  0.5            9123100        3.4053443      5335.4493      10670.897      6.0016885    
  18241400   133544.68      20.030805     -35085917       0.52162916     396080.96     -34689836       1046.7708      1046.7708      1046.7708      1976.6146      3023.3854      1976.6146      3023.3854      1976.6146      3023.3854      1.1469773e+09  0.5            9123200        3.4241765      5310.0352      10620.021      5.9829063    
  18241600   135726.66      20.484793     -35088284       0.52162916     402552.52     -34685732       1046.7708      1046.7708      1046.7708      1976.6146      3023.3854      1976.6146      3023.3854      1976.6146      3023.3854      1.1469773e+09  0.5            9123300        3.4426993      5398.7588      10797.435      5.9635876    
  18241800   137239.8       20.969052     -35077639       0.52162916     407040.34     -34670599       1046.7708      1046.7708      1046.7708      1976.6146      3023.3854      1976.6146      3023.3854      1976.6146      3023.3854      1.1469773e+09  0.5            9123400        3.4619868      5184.7035      10369.525      5.9455902    
  18242000   139083.64      20.992355     -35099907       0.52162916     412509        -34687398       1046.7708      1046.7708      1046.7708      1976.6146      3023.3854      1976.6146      3023.3854      1976.6146      3023.3854      1.1469773e+09  0.5            9123500        3.4814352      5141.7977      10283.601      5.9278533    
  18242200   142350.85      21.486775     -35103938       0.52162916     422199.24     -34681738       1046.7708      1046.7708      1046.7708      1976.6146      3023.3854      1976.6146      3023.3854      1976.6146      3023.3854      1.1469773e+09  0.5            9123600        3.5004472      5259.8403      10519.655      5.9093615    
  18242400   138346.03      21.424584     -35093135       0.52162916     410321.33     -34682813       1046.7708      1046.7708      1046.7708      1976.6146      3023.3854      1976.6146      3023.3854      1976.6146      3023.3854      1.1469773e+09  0.5            9123700        3.5201771      5068.4145      10136.837      5.8920657    
  18242600   134026.49      20.649039     -35091555       0.52162916     397509.96     -34694046       1046.7708      1046.7708      1046.7708      1976.6146      3023.3854      1976.6146      3023.3854      1976.6146      3023.3854      1.1469773e+09  0.5            9123800        3.5389688      5321.5317      10643.05       5.8731866    
  18242800   139254         21.568876     -35097302       0.52162916     413014.28     -34684287       1046.7708      1046.7708      1046.7708      1976.6146      3023.3854      1976.6146      3023.3854      1976.6146      3023.3854      1.1469773e+09  0.5            9123900        3.557653       5352.0573      10704.055      5.8541322    
  18243000   144011.66      22.694159     -35080804       0.52162916     427125.06     -34653679       1046.7708      1046.7708      1046.7708      1976.6146      3023.3854      1976.6146      3023.3854      1976.6146      3023.3854      1.1469773e+09  0.5            9124000        3.5766564      5262.2569      10524.558      5.8356017    
  18243200   141697.25      22.991561     -35066077       0.52162916     420260.72     -34645816       1046.7708      1046.7708      1046.7708      1976.6146      3023.3854      1976.6146      3023.3854      1976.6146      3023.3854      1.1469773e+09  0.5            9124100        3.5958074      5221.69        10443.368      5.8173052    
  18243400   139786.67      23.579163     -35064481       0.52162916     414594.12     -34649887       1046.7708      1046.7708      1046.7708      1976.6146      3023.3854      1976.6146      3023.3854      1976.6146      3023.3854      1.1469773e+09  0.5            9124200        3.6147846      5269.476       10538.955      5.7987211    
  18243600   144360.8       24.381691     -35069810       0.52162916     428160.58     -34641649       1046.7708      1046.7708      1046.7708      1976.6146      3023.3854      1976.6146      3023.3854      1976.6146      3023.3854      1.1469773e+09  0.5            9124300        3.6330969      5460.8481      10921.768      5.779075     
  18243800   151719.88      25.710571     -35074964       0.52162916     449986.9      -34624977       1046.7708      1046.7708      1046.7708      1976.6146      3023.3854      1976.6146      3023.3854      1976.6146      3023.3854      1.1469773e+09  0.5            9124400        3.6519037      5317.2002      10634.395      5.7602231    
  18244000   145635.07      25.786596     -35072607       0.52162916     431939.93     -34640667       1046.7708      1046.7708      1046.7708      1976.6146      3023.3854      1976.6146      3023.3854      1976.6146      3023.3854      1.1469773e+09  0.5            9124500        3.6712703      5163.5298      10327.042      5.7422472    
  18244200   142208.26      25.958962     -35064719       0.52162916     421776.34     -34642943       1046.7708      1046.7708      1046.7708      1976.6146      3023.3854      1976.6146      3023.3854      1976.6146      3023.3854      1.1469773e+09  0.5            9124600        3.6906991      5146.9975      10293.981      5.7243535    
  18244400   144408.74      27.257319     -35062263       0.52162916     428302.76     -34633960       1046.7708      1046.7708      1046.7708      1976.6146      3023.3854      1976.6146      3023.3854      1976.6146      3023.3854      1.1469773e+09  0.5            9124700        3.7094799      5324.6078      10649.233      5.7054474    
  18244600   148731.34      28.235665     -35068979       0.52162916     441123.18     -34627856       1046.7708      1046.7708      1046.7708      1976.6146      3023.3854      1976.6146      3023.3854      1976.6146      3023.3854      1.1469773e+09  0.5            9124800        3.7285777      5236.1767      10472.355      5.6870265    
  18244800   148967.78      29.192701     -35058940       0.52162916     441824.44     -34617116       1046.7708      1046.7708      1046.7708      1976.6146      3023.3854      1976.6146      3023.3854      1976.6146      3023.3854      1.1469773e+09  0.5            9124900        3.7476802      5234.9139      10469.806      5.6686056    
  18245000   143348.18      29.267974     -35070982       0.52162916     425157.24     -34645825       1046.7708      1046.7708      1046.7708      1976.6146      3023.3854      1976.6146      3023.3854      1976.6146      3023.3854      1.1469773e+09  0.5            9125000        3.7667047      5256.3998      10512.819      5.6500607    
  18245200   136736.73      30.112378     -35046170       0.52162916     405548.3      -34640622       1046.7708      1046.7708      1046.7708      1976.6146      3023.3854      1976.6146      3023.3854      1976.6146      3023.3854      1.1469773e+09  0.5            9125100        3.786176       5135.7412      10271.489      5.632176     
  18245400   146391.01      32.425006     -35036073       0.52162916     434181.98     -34601891       1046.7708      1046.7708      1046.7708      1976.6146      3023.3854      1976.6146      3023.3854      1976.6146      3023.3854      1.1469773e+09  0.5            9125200        3.8050903      5287.0333      10574.063      5.6134536    
  18245600   151893.09      33.725765     -35030937       0.52162916     450500.61     -34580436       1046.7708      1046.7708      1046.7708      1976.6146      3023.3854      1976.6146      3023.3854      1976.6146      3023.3854      1.1469773e+09  0.5            9125300        3.8237396      5362.1244      10724.278      5.5943417    
  18245800   153205.1       35.07926      -35042648       0.52162916     454391.93     -34588256       1046.7708      1046.7708      1046.7708      1976.6146      3023.3854      1976.6146      3023.3854      1976.6146      3023.3854      1.1469773e+09  0.5            9125400        3.8421854      5421.3151      10842.567      5.5749392    
  18246000   150742.81      35.374282     -35039456       0.52162916     447089        -34592367       1046.7708      1046.7708      1046.7708      1976.6146      3023.3854      1976.6146      3023.3854      1976.6146      3023.3854      1.1469773e+09  0.5            9125500        3.8614517      5190.3935      10380.741      5.5567269    
  18246200   149070         36.370977     -35028750       0.52162916     442127.6      -34586623       1046.7708      1046.7708      1046.7708      1976.6146      3023.3854      1976.6146      3023.3854      1976.6146      3023.3854      1.1469773e+09  0.5            9125600        3.8811308      5081.5249      10163.131      5.539093     
  18246400   155598.31      38.190842     -35012783       0.52162916     461489.97     -34551293       1046.7708      1046.7708      1046.7708      1976.6146      3023.3854      1976.6146      3023.3854      1976.6146      3023.3854      1.1469773e+09  0.5            9125700        3.9002941      5218.2948      10436.519      5.5207099    
  18246600   158397.47      39.499775     -35001693       0.52162916     469792.01     -34531901       1046.7708      1046.7708      1046.7708      1976.6146      3023.3854      1976.6146      3023.3854      1976.6146      3023.3854      1.1469773e+09  0.5            9125800        3.9190897      5320.391       10640.78       5.5018029    
  18246800   152982.62      39.601642     -35003348       0.52162916     453732.07     -34549616       1046.7708      1046.7708      1046.7708      1976.6146      3023.3854      1976.6146      3023.3854      1976.6146      3023.3854      1.1469773e+09  0.5            9125900        3.9381911      5235.2452      10470.557      5.483322     
  18247000   148437.46      39.875295     -34991762       0.52162916     440251.55     -34551511       1046.7708      1046.7708      1046.7708      1976.6146      3023.3854      1976.6146      3023.3854      1976.6146      3023.3854      1.1469773e+09  0.5            9126000        3.957166       5270.0947      10540.158      5.4646614    
  18247200   157849.47      42.157493     -34985604       0.52162916     468166.68     -34517437       1046.7708      1046.7708      1046.7708      1976.6146      3023.3854      1976.6146      3023.3854      1976.6146      3023.3854      1.1469773e+09  0.5            9126100        3.9764637      5181.995       10363.998      5.4464394    
  18247400   160937.51      43.245574     -34979323       0.52162916     477325.53     -34501997       1046.7708      1046.7708      1046.7708      1976.6146      3023.3854      1976.6146      3023.3854      1976.6146      3023.3854      1.1469773e+09  0.5            9126200        3.9952595      5320.3194      10640.634      5.4275258    
  18247600   156074.69      43.664428     -34969844       0.52162916     462902.87     -34506941       1046.7708      1046.7708      1046.7708      1976.6146      3023.3854      1976.6146      3023.3854      1976.6146      3023.3854      1.1469773e+09  0.5            9126300        4.0143688      5233.0639      10466.131      5.4090354    
  18247800   153155.01      43.918588     -34958654       0.52162916     454243.37     -34504410       1046.7708      1046.7708      1046.7708      1976.6146      3023.3854      1976.6146      3023.3854      1976.6146      3023.3854      1.1469773e+09  0.5            9126400        4.0333297      5273.9907      10548.023      5.3903412    
  18248000   161318.83      45.630368     -34955009       0.52162916     478456.47     -34476552       1046.7708      1046.7708      1046.7708      1976.6146      3023.3854      1976.6146      3023.3854      1976.6146      3023.3854      1.1469773e+09  0.5            9126500        4.0524575      5227.9996      10455.963      5.3718656    
  18248200   163542.04      46.271093     -34958836       0.52162916     485050.32     -34473785       1046.7708      1046.7708      1046.7708      1976.6146      3023.3854      1976.6146      3023.3854      1976.6146      3023.3854      1.1469773e+09  0.5            9126600        4.0711724      5343.3272      10686.675      5.3528411    
  18248400   159463.46      46.123585     -34953292       0.52162916     472953.62     -34480338       1046.7708      1046.7708      1046.7708      1976.6146      3023.3854      1976.6146      3023.3854      1976.6146      3023.3854      1.1469773e+09  0.5            9126700        4.0902742      5235.0978      10470.178      5.3343241    
  18248600   158171.77      46.303314     -34954534       0.52162916     469122.6      -34485412       1046.7708      1046.7708      1046.7708      1976.6146      3023.3854      1976.6146      3023.3854      1976.6146      3023.3854      1.1469773e+09  0.5            9126800        4.109366       5237.8357      10475.693      5.3157888    
  18248800   168453.06      47.817102     -34959314       0.52162916     499615.93     -34459698       1046.7708      1046.7708      1046.7708      1976.6146      3023.3854      1976.6146      3023.3854      1976.6146      3023.3854      1.1469773e+09  0.5            9126900        4.128458       5237.8162      10475.441      5.2972488    
  18249000   169434.09      47.575067     -34966208       0.52162916     502525.58     -34463682       1046.7708      1046.7708      1046.7708      1976.6146      3023.3854      1976.6146      3023.3854      1976.6146      3023.3854      1.1469773e+09  0.5            9127000        4.1476694      5205.2519      10410.685      5.2788552    
  18249200   162324.9       46.635238     -34978503       0.52162916     481440.39     -34497063       1046.7708      1046.7708      1046.7708      1976.6146      3023.3854      1976.6146      3023.3854      1976.6146      3023.3854      1.1469773e+09  0.5            9127100        4.1665839      5286.9749      10573.936      5.2600796    
  18249400   160979.2       46.798114     -34974833       0.52162916     477449.17     -34497384       1046.7708      1046.7708      1046.7708      1976.6146      3023.3854      1976.6146      3023.3854      1976.6146      3023.3854      1.1469773e+09  0.5            9127200        4.1859195      5171.7935      10343.622      5.2418301    
  18249600   165731.02      47.398617     -34965958       0.52162916     491542.64     -34474416       1046.7708      1046.7708      1046.7708      1976.6146      3023.3854      1976.6146      3023.3854      1976.6146      3023.3854      1.1469773e+09  0.5            9127300        4.2048844      5272.9081      10545.768      5.2231106    
  18249800   170426.2       48.091369     -34959135       0.52162916     505468.09     -34453667       1046.7708      1046.7708      1046.7708      1976.6146      3023.3854      1976.6146      3023.3854      1976.6146      3023.3854      1.1469773e+09  0.5            9127400        4.2233056      5428.5286      10857.063      5.2037188    
[...]
  18894400   306.50405      2.3352642     -35343276       0.53435457     909.0622      -35342367       1038.3945      1038.3945      1038.3945      1980.8027      3019.1973      1980.8027      3019.1973      1980.8027      3019.1973      1.1196626e+09  0.5            9449700        32.883262      4474.6615      8949.3323      1.204432     
  18894600   306.5676       0.61185433    -35350735       0.53430881     909.25069     -35349826       1038.4242      1038.4242      1038.4242      1980.7879      3019.2121      1980.7879      3019.2121      1980.7879      3019.2121      1.1197585e+09  0.5            9449800        32.905595      4477.7876      8955.5617      1.1816927    
  18894800   306.69154     -0.59852925    -35350815       0.5342764      909.61829     -35349905       1038.4452      1038.4452      1038.4452      1980.7774      3019.2226      1980.7774      3019.2226      1980.7774      3019.2226      1.1198264e+09  0.5            9449900        32.928192      4425.2763      8850.5679      1.1589634    
  18895000   306.78042      1.4927638     -35350895       0.53434826     909.8819      -35349985       1038.3986      1038.3986      1038.3986      1980.8007      3019.1993      1980.8007      3019.1993      1980.8007      3019.1993      1.1196758e+09  0.5            9450000        32.950905      4402.8927      8805.7691      1.1362382    
  18895200   306.80708      1.8762286     -35350975       0.53436638     909.96095     -35350065       1038.3869      1038.3869      1038.3869      1980.8066      3019.1934      1980.8066      3019.1934      1980.8066      3019.1934      1.1196378e+09  0.5            9450100        32.973304      4464.3722      8928.7361      1.1135024    
  18895400   306.75385     -0.35719628    -35351059       0.53430198     909.80309     -35350149       1038.4286      1038.4286      1038.4286      1980.7857      3019.2143      1980.7857      3019.2143      1980.7857      3019.2143      1.1197728e+09  0.5            9450200        32.995654      4474.3048      8948.6508      1.0907655    
  18895600   306.73367      1.941194      -35351139       0.53437946     909.74322     -35350229       1038.3784      1038.3784      1038.3784      1980.8108      3019.1892      1980.8108      3019.1892      1980.8108      3019.1892      1.1196104e+09  0.5            9450300        33.018099      4455.2819      8910.5078      1.0680322    
  18895800   306.71231      1.0214498     -35351221       0.53435591     909.67988     -35350312       1038.3937      1038.3937      1038.3937      1980.8032      3019.1968      1980.8032      3019.1968      1980.8032      3019.1968      1.1196598e+09  0.5            9450400        33.040997      4367.2535      8734.5425      1.0453136    
  18896000   306.70978      0.099282397   -35351304       0.53433202     909.67237     -35350394       1038.4091      1038.4091      1038.4091      1980.7954      3019.2046      1980.7954      3019.2046      1980.7954      3019.2046      1.1197098e+09  0.5            9450500        33.063404      4462.848       8925.6746      1.0225796    
  18896200   306.75764      2.058698      -35351383       0.53439794     909.81433     -35350473       1038.3664      1038.3664      1038.3664      1980.8168      3019.1832      1980.8168      3019.1832      1980.8168      3019.1832      1.1195717e+09  0.5            9450600        33.085919      4441.4545      8882.9389      0.99984929   
  18896400   306.70418      0.41902375    -35351467       0.53435009     909.65576     -35350557       1038.3974      1038.3974      1038.3974      1980.8013      3019.1987      1980.8013      3019.1987      1980.8013      3019.1987      1.119672e+09   0.5            9450700        33.108385      4451.2545      8902.4756      0.97711783   
  18896600   306.6717       0.092545783   -35353443       0.53434453     909.55944     -35352533       1038.401       1038.401       1038.401       1980.7995      3019.2005      1980.7995      3019.2005      1980.7995      3019.2005      1.1196836e+09  0.5            9450800        33.13104       4413.954       8827.9244      0.95439219   
  18896800   306.69911      1.7843033     -35353522       0.53440116     909.64074     -35352613       1038.3643      1038.3643      1038.3643      1980.8178      3019.1822      1980.8178      3019.1822      1980.8178      3019.1822      1.119565e+09   0.5            9450900        33.154067      4342.858       8685.6972      0.93167707   
  18897000   306.74607      1.1689247     -35353604       0.53438607     909.78001     -35352695       1038.3741      1038.3741      1038.3741      1980.8129      3019.1871      1980.8129      3019.1871      1980.8129      3019.1871      1.1195966e+09  0.5            9451000        33.177143      4333.3673      8666.7448      0.90896291   
  18897200   306.81927      0.13796241    -35353687       0.53435807     909.99712     -35352777       1038.3923      1038.3923      1038.3923      1980.8039      3019.1961      1980.8039      3019.1961      1980.8039      3019.1961      1.1196553e+09  0.5            9451100        33.199889      4396.3944      8792.783       0.88623942   
  18897400   306.80677      1.2237951     -35353768       0.53439622     909.96004     -35352858       1038.3675      1038.3675      1038.3675      1980.8162      3019.1838      1980.8162      3019.1838      1980.8162      3019.1838      1.1195753e+09  0.5            9451200        33.222692      4385.3406      8770.6765      0.86351739   
  18897600   306.65769      1.7005575     -35353849       0.53441452     909.51789     -35352940       1038.3557      1038.3557      1038.3557      1980.8222      3019.1778      1980.8222      3019.1778      1980.8222      3019.1778      1.119537e+09   0.5            9451300        33.245737      4339.409       8678.8243      0.84080135   
  18897800   306.50179      0.4653034     -35353931       0.53437892     909.0555      -35353022       1038.3787      1038.3787      1038.3787      1980.8106      3019.1894      1980.8106      3019.1894      1980.8106      3019.1894      1.1196116e+09  0.5            9451400        33.268289      4434.2366      8868.5039      0.81807275   
  18898000   306.54642      1.8994846     -35354009       0.53442834     909.18786     -35353100       1038.3467      1038.3467      1038.3467      1980.8266      3019.1734      1980.8266      3019.1734      1980.8266      3019.1734      1.119508e+09   0.5            9451500        33.290765      4449.1811      8898.3373      0.79534258   
  18898200   306.7136       0.33482264    -35346714       0.53438021     909.68371     -35345804       1038.3779      1038.3779      1038.3779      1980.811       3019.189       1980.811       3019.189       1980.811       3019.189       1.1196089e+09  0.5            9451600        33.313226      4452.1423      8904.2941      0.7726124    
  18898400   306.87845      0.84162964    -35346795       0.53440172     910.17264     -35345884       1038.364       1038.364       1038.364       1980.818       3019.182       1980.818       3019.182       1980.818       3019.182       1.1195638e+09  0.5            9451700        33.336102      4371.3443      8742.6645      0.74989194   
  18898600   306.90545      1.6638022     -35346876       0.53443233     910.25272     -35345965       1038.3442      1038.3442      1038.3442      1980.8279      3019.1721      1980.8279      3019.1721      1980.8279      3019.1721      1.1194997e+09  0.5            9451800        33.358752      4415.1303      8830.2696      0.72716631   
  18898800   306.74666      1.1786878     -35346959       0.5344201      909.78175     -35346049       1038.3521      1038.3521      1038.3521      1980.824       3019.176       1980.824       3019.176       1980.824       3019.176       1.1195253e+09  0.5            9451900        33.381098      4475.0764      8950.1421      0.70443439   
  18899000   306.54426      0.1333497     -35347041       0.53438983     909.18147     -35346132       1038.3717      1038.3717      1038.3717      1980.8142      3019.1858      1980.8142      3019.1858      1980.8142      3019.1858      1.1195887e+09  0.5            9452000        33.403622      4439.5942      8879.2374      0.68170663   
  18899200   306.55066      1.567715      -35347121       0.5344381      909.20045     -35346211       1038.3404      1038.3404      1038.3404      1980.8298      3019.1702      1980.8298      3019.1702      1980.8298      3019.1702      1.1194876e+09  0.5            9452100        33.426193      4430.4356      8860.8893      0.65898007   
  18899400   306.6596       1.5542798     -35347201       0.53444176     909.52356     -35346292       1038.3381      1038.3381      1038.3381      1980.831       3019.169       1980.831       3019.169       1980.831       3019.169       1.1194799e+09  0.5            9452200        33.449016      4381.5854      8763.1125      0.63625852   
  18899600   306.71973     -0.39034889    -35347283       0.53438555     909.70188     -35346373       1038.3745      1038.3745      1038.3745      1980.8128      3019.1872      1980.8128      3019.1872      1980.8128      3019.1872      1.1195977e+09  0.5            9452300        33.471436      4460.3256      8920.677       0.61352943   
  18899800   306.77629      1.9671435     -35347362       0.53446466     909.86964     -35346452       1038.3232      1038.3232      1038.3232      1980.8384      3019.1616      1980.8384      3019.1616      1980.8384      3019.1616      1.1194319e+09  0.5            9452400        33.493756      4480.2534      8960.4952      0.59079901   
  18900000   306.73485      1.4743244     -35347445       0.53445398     909.74672     -35346535       1038.3301      1038.3301      1038.3301      1980.8349      3019.1651      1980.8349      3019.1651      1980.8349      3019.1651      1.1194543e+09  0.5            9452500        33.518369      4062.9212      8125.8535      0.568108     
  18900200   306.66384     -0.78946716    -35347527       0.53438762     909.53613     -35346617       1038.3731      1038.3731      1038.3731      1980.8134      3019.1866      1980.8134      3019.1866      1980.8134      3019.1866      1.1195933e+09  0.5            9452600        33.541569      4310.3606      8620.745       0.54539141   
  18900400   306.70849      3.1369489     -35347603       0.5345154      909.66856     -35346694       1038.2904      1038.2904      1038.2904      1980.8548      3019.1452      1980.8548      3019.1452      1980.8548      3019.1452      1.1193257e+09  0.5            9452700        33.563932      4471.7092      8943.3559      0.52266114   
  18900600   306.70583     -0.33219949    -35347690       0.53441136     909.66066     -35346780       1038.3577      1038.3577      1038.3577      1980.8211      3019.1789      1980.8211      3019.1789      1980.8211      3019.1789      1.1195436e+09  0.5            9452800        33.586303      4469.953       8939.8876      0.49993149   
  18900800   306.73851      1.0823138     -35347770       0.53446039     909.7576      -35346861       1038.326       1038.326       1038.326       1980.837       3019.163       1980.837       3019.163       1980.837       3019.163       1.1194409e+09  0.5            9452900        33.608586      4487.8145      8975.6648      0.47720106   
  18901000   306.73041      1.9161017     -35347851       0.53449127     909.73357     -35346941       1038.306       1038.306       1038.306       1980.847       3019.153       1980.847       3019.153       1980.847       3019.153       1.1193762e+09  0.5            9453000        33.631291      4404.3112      8808.6065      0.45447694   
  18901200   306.68996     -0.23767976    -35347934       0.53442836     909.61358     -35347024       1038.3467      1038.3467      1038.3467      1980.8266      3019.1734      1980.8266      3019.1734      1980.8266      3019.1734      1.119508e+09   0.5            9453100        33.654013      4401.0398      8802.1106      0.43175307   
  18901400   306.60627      1.9976168     -35348013       0.53450152     909.36538     -35347104       1038.2994      1038.2994      1038.2994      1980.8503      3019.1497      1980.8503      3019.1497      1980.8503      3019.1497      1.1193548e+09  0.5            9453200        33.676794      4389.6401      8779.2489      0.40902992   
  18901600   306.43076      0.309197      -35348095       0.53445236     908.84484     -35347186       1038.3312      1038.3312      1038.3312      1980.8344      3019.1656      1980.8344      3019.1656      1980.8344      3019.1656      1.1194577e+09  0.5            9453300        33.699178      4467.372       8934.734       0.38630215   
  18901800   306.44966      1.7903334     -35348172       0.53450329     908.90089     -35347263       1038.2982      1038.2982      1038.2982      1980.8509      3019.1491      1980.8509      3019.1491      1980.8509      3019.1491      1.1193511e+09  0.5            9453400        33.723098      4180.6602      8361.3903      0.36359138   
  18902000   306.56682     -0.093903785   -35348253       0.53445022     909.24836     -35347343       1038.3326      1038.3326      1038.3326      1980.8337      3019.1663      1980.8337      3019.1663      1980.8337      3019.1663      1.1194622e+09  0.5            9453500        33.745922      4381.3633      8762.6752      0.34086793   
  18902200   306.68386      2.1065709     -35348330       0.53452538     909.59551     -35347420       1038.2839      1038.2839      1038.2839      1980.8581      3019.1419      1980.8581      3019.1419      1980.8581      3019.1419      1.1193048e+09  0.5            9453600        33.768334      4461.9717      8923.9397      0.31814045   
  18902400   306.62147      0.29178571    -35348412       0.53447466     909.41045     -35347502       1038.3167      1038.3167      1038.3167      1980.8416      3019.1584      1980.8416      3019.1584      1980.8416      3019.1584      1.119411e+09   0.5            9453700        33.7907        4470.9176      8941.8457      0.29541301   
  18902600   306.55815      1.1310577     -35348491       0.53450676     909.22265     -35347582       1038.296       1038.296       1038.296       1980.852       3019.148       1980.852       3019.148       1980.852       3019.148       1.1193438e+09  0.5            9453800        33.813097      4464.9517      8929.891       0.27268629   
  18902800   306.54286      0.85562491    -35348571       0.53450404     909.17731     -35347662       1038.2977      1038.2977      1038.2977      1980.8511      3019.1489      1980.8511      3019.1489      1980.8511      3019.1489      1.1193495e+09  0.5            9453900        33.835885      4388.2412      8776.5036      0.24996291   
  18903000   306.62867      0.29061792    -35348651       0.53449268     909.43182     -35347742       1038.3051      1038.3051      1038.3051      1980.8475      3019.1525      1980.8475      3019.1525      1980.8475      3019.1525      1.1193733e+09  0.5            9454000        33.858448      4432.0626      8864.0946      0.22723793   
  18903200   306.7714       1.4284339     -35356108       0.53453822     909.85513     -35355198       1038.2756      1038.2756      1038.2756      1980.8622      3019.1378      1980.8622      3019.1378      1980.8622      3019.1378      1.1192779e+09  0.5            9454100        33.880817      4470.5785      8941.2049      0.20451199   
  18903400   306.72725      1.045726      -35356190       0.53453129     909.7242      -35355280       1038.2801      1038.2801      1038.2801      1980.86        3019.14        1980.86        3019.14        1980.86        3019.14        1.1192924e+09  0.5            9454200        33.903172      4473.0975      8946.1466      0.18178646   
  18903600   306.50196      0.61405085    -35356271       0.53452162     909.05601     -35355362       1038.2863      1038.2863      1038.2863      1980.8568      3019.1432      1980.8568      3019.1432      1980.8568      3019.1432      1.1193127e+09  0.5            9454300        33.925698      4439.4113      8878.844       0.15906223   
  18903800   306.35147      1.7055693     -35356348       0.53455978     908.60966     -35355440       1038.2616      1038.2616      1038.2616      1980.8692      3019.1308      1980.8692      3019.1308      1980.8692      3019.1308      1.1192327e+09  0.5            9454400        33.948418      4401.3546      8802.7479      0.13633904   
  18904000   306.42461      0.21619655    -35356428       0.53451828     908.8266      -35355520       1038.2885      1038.2885      1038.2885      1980.8558      3019.1442      1980.8558      3019.1442      1980.8558      3019.1442      1.1193197e+09  0.5            9454500        33.970849      4458.2496      8916.4753      0.11361489   
  18904200   306.71152      1.0959804     -35356507       0.53455242     909.67755     -35355597       1038.2664      1038.2664      1038.2664      1980.8668      3019.1332      1980.8668      3019.1332      1980.8668      3019.1332      1.1192482e+09  0.5            9454600        33.993204      4473.2358      8946.4604      0.090890926  
  18904400   306.85784      1.7584545     -35356586       0.53457977     910.1115      -35355676       1038.2487      1038.2487      1038.2487      1980.8757      3019.1243      1980.8757      3019.1243      1980.8757      3019.1243      1.1191909e+09  0.5            9454700        34.015494      4486.2535      8972.5075      0.068167328  
  18904600   306.69096      0.20793626    -35356669       0.53453641     909.61656     -35355759       1038.2768      1038.2768      1038.2768      1980.8616      3019.1384      1980.8616      3019.1384      1980.8616      3019.1384      1.1192817e+09  0.5            9454800        34.038422      4361.5074      8723.0148      0.04544516   
  18904800   306.4984       1.2003966     -35356748       0.5345721      909.04544     -35355839       1038.2537      1038.2537      1038.2537      1980.8732      3019.1268      1980.8732      3019.1268      1980.8732      3019.1268      1.119207e+09   0.5            9454900        34.060755      4477.6152      8955.2296      0.02272232   
  18905000   306.46285      1.6405139     -35356827       0.53459072     908.94002     -35355918       1038.2416      1038.2416      1038.2416      1980.8792      3019.1208      1980.8792      3019.1208      1980.8792      3019.1208      1.119168e+09   0.5            9455000        34.083124      4470.5583      8941.1329      0            
Loop time of 34.0832 on 4 procs for 300000 steps with 996 atoms

Performance: 380.246 ns/day, 0.063 hours/ns, 8801.989 timesteps/s
99.4% CPU use with 4 MPI tasks x no OpenMP threads

MPI task timing breakdown:
Section |  min time  |  avg time  |  max time  |%varavg| %total
---------------------------------------------------------------
Pair    | 3.803      | 9.2027     | 18.991     | 204.1 | 27.00
Neigh   | 0.0077888  | 0.018658   | 0.037614   |   9.0 |  0.05
Comm    | 5.8084     | 15.285     | 20.509     | 152.5 | 44.85
Output  | 0.073202   | 0.09307    | 0.15128    |  11.0 |  0.27
Modify  | 6.7628     | 7.2062     | 8.0726     |  19.6 | 21.14
Other   |            | 2.278      |            |       |  6.68

Nlocal:            249 ave         431 max         147 min
Histogram: 2 0 0 0 1 0 0 0 0 1
Nghost:         364.75 ave         425 max         301 min
Histogram: 1 0 0 1 0 0 0 1 0 1
Neighs:         1114.5 ave        2417 max         392 min
Histogram: 2 0 0 0 1 0 0 0 0 1

Total # of neighbors = 4458
Ave neighs/atom = 4.4759036
Neighbor list builds = 111
Dangerous builds = 20

# run_style
run_style verlet

# write restart
write_restart ${write_res}
write_restart ./pgnpmf/37/equpmf27.res
System init for write_restart ...
Generated 0 of 1 mixed pair_coeff terms from geometric mixing rule

Total wall time: 0:01:11
