LAMMPS (23 Jun 2022 - Update 1)
# Read restart
read_restart ${read_res}
read_restart ./pgnpmf/37/equpmf16.res
Reading restart file ...
  restart file = 23 Jun 2022, LAMMPS = 23 Jun 2022
  restoring atom style atomic from restart
  orthogonal box = (1908.2681 1908.2681 1908.2681) to (3091.7319 3091.7319 3091.7319)
  1 by 2 by 2 MPI processor grid
  restoring pair style table from restart
  996 atoms
  read_restart CPU = 0.006 seconds

# Settings

pair_style table spline 9941

pair_coeff 1 1 ./pgnpmf/N20.txt DE_GNP 75.6
pair_coeff 2 2 ./pgnpmf/N100.txt DE_GNP 115.92
WARNING: 3 of 9941 force values in table DE_GNP are inconsistent with -dE/dr.
WARNING:  Should only be flagged at inflection points (../pair_table.cpp:463)
pair_coeff 1 2 ./pgnpmf/mixed_potential.txt DE_GNP 95.66
WARNING: 1562 of 9941 force values in table DE_GNP are inconsistent with -dE/dr.
WARNING:  Should only be flagged at inflection points (../pair_table.cpp:463)

#Neigh_list Calc Frequency

neigh_modify delay 0 every 1 check yes

# Saving Frequency (50 frames)

variable ts_save equal ${steps_equ}
variable ts_save equal 5000

# Dump
#dump 1 all custom ${ts_save} ./pgnpmf/${folder}/equilibration/trajectory/trajectory_${usic}_${trial}.equ.custom type x y z ix iy iz
#dump_modify 1 first no sort id
dump 2 all cfg 50000 ./pgnpmf/${folder}/equilibration/trajectory/dumpgen.tens_*.cfg mass type xs ys zs fx fy fz
dump 2 all cfg 50000 ./pgnpmf/37/equilibration/trajectory/dumpgen.tens_*.cfg mass type xs ys zs fx fy fz
dump_modify 2 element N20 N100

# thermo_style
thermo_style custom step temp press pe density ke etotal lx ly lz xlo xhi ylo yhi zlo zhi vol dt time cpu tpcpu spcpu cpuremain

# run info
timestep ${ts}
timestep 0.5
thermo 200

# fix

fix 1 all momentum 1000 linear 1 1 1 angular
variable T equal ${temp}
variable T equal 300
fix 2 all nvt temp ${T} 370000 100.0
fix 2 all nvt temp 300 370000 100.0

run 100000
Generated 0 of 1 mixed pair_coeff terms from geometric mixing rule
Unused restart file global fix info:
  fix style: npt, fix ID: 5
Neighbor list info ...
  update every 1 steps, delay 0 steps, check yes
  max neighbors/atom: 2000, page size: 100000
  master list distance cutoff = 117.92
  ghost atom cutoff = 117.92
  binsize = 58.96, bins = 21 21 21
  1 neighbor lists, perpetual/occasional/extra = 1 0 0
  (1) pair table, perpetual
      attributes: half, newton on
      pair build: half/bin/atomonly/newton
      stencil: half/bin/3d
      bin: standard
Per MPI rank memory allocation (min/avg/max) = 3.085 | 3.086 | 3.087 Mbytes
   Step          Temp          Press          PotEng        Density         KinEng         TotEng           Lx             Ly             Lz            Xlo            Xhi            Ylo            Yhi            Zlo            Zhi           Volume           Dt            Time           CPU           T/CPU          S/CPU         CPULeft    
  11205000   307.75927      1.2701048     -26500950       0.36095399     912.78507     -26500037       1183.4637      1183.4637      1183.4637      1908.2681      3091.7319      1908.2681      3091.7319      1908.2681      3091.7319      1.6575431e+09  0.5            5605000        0              0              0              0            
  11205200   397.70567      0.99405178    -26501049       0.36095399     1179.5576     -26499870       1183.4637      1183.4637      1183.4637      1908.2681      3091.7319      1908.2681      3091.7319      1908.2681      3091.7319      1.6575431e+09  0.5            5605100        0.013197365    7576.8086      15152.638      6.5867721    
  11205400   594.03819      0.6928963     -26501167       0.36095399     1761.8614     -26499405       1183.4637      1183.4637      1183.4637      1908.2681      3091.7319      1908.2681      3091.7319      1908.2681      3091.7319      1.6575431e+09  0.5            5605200        0.025968513    7830.1889      15660.369      6.4667792    
  11205600   926.91846      0.33257486    -26501313       0.36095399     2749.153      -26498564       1183.4637      1183.4637      1183.4637      1908.2681      3091.7319      1908.2681      3091.7319      1908.2681      3091.7319      1.6575431e+09  0.5            5605300        0.038489888    7986.3886      15972.87       6.3768784    
  11205800   1460.2593     -0.11498291    -26501496       0.36095399     4330.9918     -26497165       1183.4637      1183.4637      1183.4637      1908.2681      3091.7319      1908.2681      3091.7319      1908.2681      3091.7319      1.6575431e+09  0.5            5605400        0.05108646     7938.6911      15877.344      6.3350138    
  11206000   2270.9299     -0.64719338    -26501724       0.36095399     6735.3646     -26494988       1183.4637      1183.4637      1183.4637      1908.2681      3091.7319      1908.2681      3091.7319      1908.2681      3091.7319      1.6575431e+09  0.5            5605500        0.063730563    7908.827       15817.684      6.3095492    
  11206200   3412.3802     -1.3430615     -26502004       0.36095399     10120.799     -26491883       1183.4637      1183.4637      1183.4637      1908.2681      3091.7319      1908.2681      3091.7319      1908.2681      3091.7319      1.6575431e+09  0.5            5605600        0.076482945    7841.6206      15683.176      6.2972965    
  11206400   4834.5461     -2.2332008     -26502340       0.36095399     14338.809     -26488001       1183.4637      1183.4637      1183.4637      1908.2681      3091.7319      1908.2681      3091.7319      1908.2681      3091.7319      1.6575431e+09  0.5            5605700        0.089175798    7878.4649      15756.978      6.2806914    
  11206600   6282.2646     -3.2103481     -26502729       0.36095399     18632.606     -26484096       1183.4637      1183.4637      1183.4637      1908.2681      3091.7319      1908.2681      3091.7319      1908.2681      3091.7319      1.6575431e+09  0.5            5605800        0.10178679     7929.6343      15859.316      6.2600227    
  11206800   7305.0037     -4.4073926     -26510529       0.36095399     21665.954     -26488863       1183.4637      1183.4637      1183.4637      1908.2681      3091.7319      1908.2681      3091.7319      1908.2681      3091.7319      1.6575431e+09  0.5            5605900        0.11446914     7884.9466      15769.844      6.245057     
  11207000   7709.469      -5.6784923     -26510968       0.36095399     22865.56      -26488102       1183.4637      1183.4637      1183.4637      1908.2681      3091.7319      1908.2681      3091.7319      1908.2681      3091.7319      1.6575431e+09  0.5            5606000        0.12743474     7712.7786      15425.452      6.245038     
  11207200   8091.0059     -6.7954295     -26511405       0.36095399     23997.163     -26487408       1183.4637      1183.4637      1183.4637      1908.2681      3091.7319      1908.2681      3091.7319      1908.2681      3091.7319      1.6575431e+09  0.5            5606100        0.14012514     7880.0014      15760.12       6.2292981    
  11207400   9046.9154     -7.7899053     -26511848       0.36095399     26832.301     -26485015       1183.4637      1183.4637      1183.4637      1908.2681      3091.7319      1908.2681      3091.7319      1908.2681      3091.7319      1.6575431e+09  0.5            5606200        0.15281201     7882.1878      15764.405      6.2144386    
  11207600   10191.971     -8.8587449     -26512303       0.36095399     30228.427     -26482075       1183.4637      1183.4637      1183.4637      1908.2681      3091.7319      1908.2681      3091.7319      1908.2681      3091.7319      1.6575431e+09  0.5            5606300        0.1654817      7892.8106      15785.566      6.199282     
  11207800   10861.417     -10.210978     -26520148       0.36095399     32213.942     -26487934       1183.4637      1183.4637      1183.4637      1908.2681      3091.7319      1908.2681      3091.7319      1908.2681      3091.7319      1.6575431e+09  0.5            5606400        0.17820971     7856.6643      15713.283      6.1865035    
  11208000   11184.368     -11.484827     -26526102       0.36095399     33171.784     -26492931       1183.4637      1183.4637      1183.4637      1908.2681      3091.7319      1908.2681      3091.7319      1908.2681      3091.7319      1.6575431e+09  0.5            5606500        0.1912326      7678.7918      15357.621      6.1832638    
  11208200   11862.964     -12.669491     -26526569       0.36095399     35184.437     -26491384       1183.4637      1183.4637      1183.4637      1908.2681      3091.7319      1908.2681      3091.7319      1908.2681      3091.7319      1.6575431e+09  0.5            5606600        0.20482804     7355.4285      14710.829      6.1961167    
  11208400   13003.218     -13.770264     -26527035       0.36095399     38566.324     -26488469       1183.4637      1183.4637      1183.4637      1908.2681      3091.7319      1908.2681      3091.7319      1908.2681      3091.7319      1.6575431e+09  0.5            5606700        0.21736936     7973.65        15947.178      6.1759147    
  11208600   13927.99      -14.860496     -26527500       0.36095399     41309.108     -26486191       1183.4637      1183.4637      1183.4637      1908.2681      3091.7319      1908.2681      3091.7319      1908.2681      3091.7319      1.6575431e+09  0.5            5606800        0.22997516     7932.8525      15865.835      6.1582838    
  11208800   14320.563     -16.066567     -26527951       0.36095399     42473.444     -26485478       1183.4637      1183.4637      1183.4637      1908.2681      3091.7319      1908.2681      3091.7319      1908.2681      3091.7319      1.6575431e+09  0.5            5606900        0.24252562     7967.7885      15935.586      6.1397856    
  11209000   14765.397     -17.204243     -26528393       0.36095399     43792.779     -26484600       1183.4637      1183.4637      1183.4637      1908.2681      3091.7319      1908.2681      3091.7319      1908.2681      3091.7319      1.6575431e+09  0.5            5607000        0.25544535     7740.119       15480.164      6.1307463    
  11209200   15764.649     -18.310604     -26536198       0.36095399     46756.466     -26489441       1183.4637      1183.4637      1183.4637      1908.2681      3091.7319      1908.2681      3091.7319      1908.2681      3091.7319      1.6575431e+09  0.5            5607100        0.26812115     7889.0795      15778.272      6.1157657    
  11209400   16886.048     -19.448009     -26536612       0.36095399     50082.432     -26486530       1183.4637      1183.4637      1183.4637      1908.2681      3091.7319      1908.2681      3091.7319      1908.2681      3091.7319      1.6575431e+09  0.5            5607200        0.28107803     7717.9169      15435.834      6.1071057    
  11209600   17481.032     -20.56463      -26544394       0.36095399     51847.098     -26492547       1183.4637      1183.4637      1183.4637      1908.2681      3091.7319      1908.2681      3091.7319      1908.2681      3091.7319      1.6575431e+09  0.5            5607300        0.2939134      7790.9568      15581.918      6.0955534    
  11209800   17782.136     -21.758712     -26554046       0.36095399     52740.143     -26501306       1183.4637      1183.4637      1183.4637      1908.2681      3091.7319      1908.2681      3091.7319      1908.2681      3091.7319      1.6575431e+09  0.5            5607400        0.30679904     7760.5594      15521.091      6.0848913    
  11210000   18532.793     -22.880222     -26554406       0.36095399     54966.522     -26499439       1183.4637      1183.4637      1183.4637      1908.2681      3091.7319      1908.2681      3091.7319      1908.2681      3091.7319      1.6575431e+09  0.5            5607500        0.31941991     7923.4016      15846.798      6.069021     
  11210200   19725.768     -23.856557     -26547370       0.36095399     58504.774     -26488865       1183.4637      1183.4637      1183.4637      1908.2681      3091.7319      1908.2681      3091.7319      1908.2681      3091.7319      1.6575431e+09  0.5            5607600        0.33206109     7910.6508      15821.315      6.0537692    
  11210400   20595.443     -24.914571     -26547694       0.36095399     61084.147     -26486610       1183.4637      1183.4637      1183.4637      1908.2681      3091.7319      1908.2681      3091.7319      1908.2681      3091.7319      1.6575431e+09  0.5            5607700        0.34468312     7922.6584      15845.29       6.0383775    
  11210600   20911.339     -26.099201     -26549891       0.36095399     62021.067     -26487870       1183.4637      1183.4637      1183.4637      1908.2681      3091.7319      1908.2681      3091.7319      1908.2681      3091.7319      1.6575431e+09  0.5            5607800        0.35731464     7916.7149      15833.444      6.0233416    
  11210800   21386.927     -27.031294     -26550183       0.36095399     63431.616     -26486751       1183.4637      1183.4637      1183.4637      1908.2681      3091.7319      1908.2681      3091.7319      1908.2681      3091.7319      1.6575431e+09  0.5            5607900        0.37018431     7770.1816      15540.337      6.0123411    
  11211000   22475.332     -28.073466     -26552346       0.36095399     66659.721     -26485686       1183.4637      1183.4637      1183.4637      1908.2681      3091.7319      1908.2681      3091.7319      1908.2681      3091.7319      1.6575431e+09  0.5            5608000        0.38310134     7741.7465      15483.456      6.0019573    
  11211200   23595.981     -28.886141     -26545218       0.36095399     69983.46      -26475234       1183.4637      1183.4637      1183.4637      1908.2681      3091.7319      1908.2681      3091.7319      1908.2681      3091.7319      1.6575431e+09  0.5            5608100        0.39577493     7890.4166      15780.925      5.9877246    
  11211400   24099.77      -29.873583     -26538079       0.36095399     71477.652     -26466602       1183.4637      1183.4637      1183.4637      1908.2681      3091.7319      1908.2681      3091.7319      1908.2681      3091.7319      1.6575431e+09  0.5            5608200        0.40848237     7869.3951      15738.785      5.9740872    
  11211600   24372.509     -30.668734     -26538301       0.36095399     72286.57      -26466015       1183.4637      1183.4637      1183.4637      1908.2681      3091.7319      1908.2681      3091.7319      1908.2681      3091.7319      1.6575431e+09  0.5            5608300        0.4214356      7720.0697      15440.126      5.963984     
  11211800   25204.145     -31.507557     -26545872       0.36095399     74753.124     -26471119       1183.4637      1183.4637      1183.4637      1908.2681      3091.7319      1908.2681      3091.7319      1908.2681      3091.7319      1.6575431e+09  0.5            5608400        0.43410792     7891.2335      15782.424      5.9498636    
  11212000   26453.864     -32.344366     -26546043       0.36095399     78459.673     -26467583       1183.4637      1183.4637      1183.4637      1908.2681      3091.7319      1908.2681      3091.7319      1908.2681      3091.7319      1.6575431e+09  0.5            5608500        0.44678136     7890.5206      15781.125      5.9358375    
  11212200   27260.777     -33.199337     -26548095       0.36095399     80852.902     -26467242       1183.4637      1183.4637      1183.4637      1908.2681      3091.7319      1908.2681      3091.7319      1908.2681      3091.7319      1.6575431e+09  0.5            5608600        0.4594575      7888.8088      15777.631      5.9219255    
  11212400   27496.487     -33.903038     -26548227       0.36095399     81551.994     -26466675       1183.4637      1183.4637      1183.4637      1908.2681      3091.7319      1908.2681      3091.7319      1908.2681      3091.7319      1.6575431e+09  0.5            5608700        0.47230158     7785.6814      15571.334      5.9101807    
  11212600   28010.741     -34.447231     -26533591       0.36095399     83077.224     -26450513       1183.4637      1183.4637      1183.4637      1908.2681      3091.7319      1908.2681      3091.7319      1908.2681      3091.7319      1.6575431e+09  0.5            5608800        0.48522468     7738.1329      15476.291      5.8993361    
  11212800   29195.265     -35.089346     -26533683       0.36095399     86590.411     -26447092       1183.4637      1183.4637      1183.4637      1908.2681      3091.7319      1908.2681      3091.7319      1908.2681      3091.7319      1.6575431e+09  0.5            5608900        0.49781979     7939.5685      15879.092      5.884512     
  11213000   30304.781     -35.6376       -26533754       0.36095399     89881.13      -26443873       1183.4637      1183.4637      1183.4637      1908.2681      3091.7319      1908.2681      3091.7319      1908.2681      3091.7319      1.6575431e+09  0.5            5609000        0.51043092     7929.4708      15858.952      5.8699824    
  11213200   30708.268     -36.330404     -26533812       0.36095399     91077.837     -26442734       1183.4637      1183.4637      1183.4637      1908.2681      3091.7319      1908.2681      3091.7319      1908.2681      3091.7319      1.6575431e+09  0.5            5609100        0.52334594     7742.8608      15485.676      5.8589487    
  11213400   30960.973     -36.871627     -26533850       0.36095399     91827.336     -26442023       1183.4637      1183.4637      1183.4637      1908.2681      3091.7319      1908.2681      3091.7319      1908.2681      3091.7319      1.6575431e+09  0.5            5609200        0.53596372     7925.4161      15850.861      5.8445806    
  11213600   31893.78      -37.475354     -26533866       0.36095399     94593.955     -26439272       1183.4637      1183.4637      1183.4637      1908.2681      3091.7319      1908.2681      3091.7319      1908.2681      3091.7319      1.6575431e+09  0.5            5609300        0.5485868      7922.0006      15844.084      5.8303515    
  11213800   33196.471     -37.817571     -26533877       0.36095399     98457.612     -26435419       1183.4637      1183.4637      1183.4637      1908.2681      3091.7319      1908.2681      3091.7319      1908.2681      3091.7319      1.6575431e+09  0.5            5609400        0.56152851     7726.9303      15453.775      5.8195009    
  11214000   33910.715     -38.291921     -26541240       0.36095399     100575.99     -26440664       1183.4637      1183.4637      1183.4637      1908.2681      3091.7319      1908.2681      3091.7319      1908.2681      3091.7319      1.6575431e+09  0.5            5609500        0.57424769     7862.1186      15724.23       5.8063061    
  11214200   34071.741     -38.691515     -26541228       0.36095399     101053.58     -26440175       1183.4637      1183.4637      1183.4637      1908.2681      3091.7319      1908.2681      3091.7319      1908.2681      3091.7319      1.6575431e+09  0.5            5609600        0.58727233     7677.8255      15355.648      5.7961442    
  11214400   34656.821     -38.976112     -26537634       0.36095399     102788.87     -26434845       1183.4637      1183.4637      1183.4637      1908.2681      3091.7319      1908.2681      3091.7319      1908.2681      3091.7319      1.6575431e+09  0.5            5609700        0.59995639     7883.883       15767.781      5.7825797    
  11214600   35947.866     -39.220598     -26537629       0.36095399     106617.99     -26431011       1183.4637      1183.4637      1183.4637      1908.2681      3091.7319      1908.2681      3091.7319      1908.2681      3091.7319      1.6575431e+09  0.5            5609800        0.61294431     7699.438       15398.818      5.7719147    
  11214800   37012.458     -39.467766     -26537619       0.36095399     109775.47     -26427844       1183.4637      1183.4637      1183.4637      1908.2681      3091.7319      1908.2681      3091.7319      1908.2681      3091.7319      1.6575431e+09  0.5            5609900        0.62560136     7900.7601      15801.676      5.7581056    
  11215000   37291.478     -39.850661     -26537605       0.36095399     110603.02     -26427002       1183.4637      1183.4637      1183.4637      1908.2681      3091.7319      1908.2681      3091.7319      1908.2681      3091.7319      1.6575431e+09  0.5            5610000        0.63827423     7890.8811      15781.685      5.7444885    
  11215200   37547.583     -40.127665     -26544965       0.36095399     111362.6      -26433602       1183.4637      1183.4637      1183.4637      1908.2681      3091.7319      1908.2681      3091.7319      1908.2681      3091.7319      1.6575431e+09  0.5            5610100        0.65115967     7760.7028      15521.39       5.7327789    
  11215400   38626.822     -40.411343     -26552335       0.36095399     114563.52     -26437771       1183.4637      1183.4637      1183.4637      1908.2681      3091.7319      1908.2681      3091.7319      1908.2681      3091.7319      1.6575431e+09  0.5            5610200        0.6636793      7987.4259      15974.842      5.7178721    
  11215600   39969.198     -40.576196     -26559718       0.36095399     118544.88     -26441173       1183.4637      1183.4637      1183.4637      1908.2681      3091.7319      1908.2681      3091.7319      1908.2681      3091.7319      1.6575431e+09  0.5            5610300        0.67631963     7911.2115      15822.457      5.7040728    
  11215800   40547.24      -40.416125     -26552344       0.36095399     120259.3      -26432084       1183.4637      1183.4637      1183.4637      1908.2681      3091.7319      1908.2681      3091.7319      1908.2681      3091.7319      1.6575431e+09  0.5            5610400        0.68898794     7893.7102      15787.404      5.6905481    
  11216000   40604.531     -40.522549     -26552714       0.36095399     120429.22     -26432285       1183.4637      1183.4637      1183.4637      1908.2681      3091.7319      1908.2681      3091.7319      1908.2681      3091.7319      1.6575431e+09  0.5            5610500        0.70185912     7769.2755      15538.553      5.6786967    
  11216200   41309.443     -40.559986     -26552715       0.36095399     122519.93     -26430195       1183.4637      1183.4637      1183.4637      1908.2681      3091.7319      1908.2681      3091.7319      1908.2681      3091.7319      1.6575431e+09  0.5            5610600        0.71458171     7860.0546      15720.096      5.6656298    
  11216400   42773.593     -40.532125     -26552714       0.36095399     126862.46     -26425852       1183.4637      1183.4637      1183.4637      1908.2681      3091.7319      1908.2681      3091.7319      1908.2681      3091.7319      1.6575431e+09  0.5            5610700        0.72724119     7899.2417      15798.486      5.6520852    
  11216600   43751.781     -40.599848     -26560070       0.36095399     129763.67     -26430307       1183.4637      1183.4637      1183.4637      1908.2681      3091.7319      1908.2681      3091.7319      1908.2681      3091.7319      1.6575431e+09  0.5            5610800        0.74021333     7708.7915      15417.666      5.6409527    
  11216800   43825.164     -40.546064     -26560039       0.36095399     129981.32     -26430057       1183.4637      1183.4637      1183.4637      1908.2681      3091.7319      1908.2681      3091.7319      1908.2681      3091.7319      1.6575431e+09  0.5            5610900        0.75285047     7913.186       15826.244      5.6272551    
  11217000   44080.386     -40.475664     -26559994       0.36095399     130738.28     -26429256       1183.4637      1183.4637      1183.4637      1908.2681      3091.7319      1908.2681      3091.7319      1908.2681      3091.7319      1.6575431e+09  0.5            5611000        0.76559289     7847.8127      15695.683      5.614364     
  11217200   45563.721     -40.190114     -26559922       0.36095399     135137.71     -26424784       1183.4637      1183.4637      1183.4637      1908.2681      3091.7319      1908.2681      3091.7319      1908.2681      3091.7319      1.6575431e+09  0.5            5611100        0.77845723     7773.4554      15546.923      5.6023551    
  11217400   46991.303     -39.922653     -26560207       0.36095399     139371.79     -26420835       1183.4637      1183.4637      1183.4637      1908.2681      3091.7319      1908.2681      3091.7319      1908.2681      3091.7319      1.6575431e+09  0.5            5611200        0.79151629     7657.4727      15314.915      5.5916968    
  11217600   47070.512     -39.833672     -26567487       0.36095399     139606.71     -26427880       1183.4637      1183.4637      1183.4637      1908.2681      3091.7319      1908.2681      3091.7319      1908.2681      3091.7319      1.6575431e+09  0.5            5611300        0.80555105     7125.1547      14250.3        5.587727     
  11217800   46239.702     -39.703139     -26567375       0.36095399     137142.61     -26430232       1183.4637      1183.4637      1183.4637      1908.2681      3091.7319      1908.2681      3091.7319      1908.2681      3091.7319      1.6575431e+09  0.5            5611400        0.8181581      7932.0899      15864.079      5.573718     
  11218000   47329.866     -39.401948     -26567253       0.36095399     140375.93     -26426877       1183.4637      1183.4637      1183.4637      1908.2681      3091.7319      1908.2681      3091.7319      1908.2681      3091.7319      1.6575431e+09  0.5            5611500        0.83070491     7970.128       15940.237      5.5593491    
  11218200   50017.359     -39.0798       -26567130       0.36095399     148346.79     -26418783       1183.4637      1183.4637      1183.4637      1908.2681      3091.7319      1908.2681      3091.7319      1908.2681      3091.7319      1.6575431e+09  0.5            5611600        0.84365281     7723.253       15446.575      5.547672     
  11218400   50237.819     -38.891207     -26566997       0.36095399     149000.65     -26417996       1183.4637      1183.4637      1183.4637      1908.2681      3091.7319      1908.2681      3091.7319      1908.2681      3091.7319      1.6575431e+09  0.5            5611700        0.85638799     7852.2872      15704.619      5.5345819    
  11218600   49558.812     -38.762092     -26564982       0.36095399     146986.78     -26417995       1183.4637      1183.4637      1183.4637      1908.2681      3091.7319      1908.2681      3091.7319      1908.2681      3091.7319      1.6575431e+09  0.5            5611800        0.86910929     7860.8263      15721.649      5.5214149    
  11218800   50741.197     -38.369778     -26572256       0.36095399     150493.62     -26421762       1183.4637      1183.4637      1183.4637      1908.2681      3091.7319      1908.2681      3091.7319      1908.2681      3091.7319      1.6575431e+09  0.5            5611900        0.88198614     7765.9148      15531.857      5.5092315    
  11219000   53681.455     -37.575698     -26572169       0.36095399     159214.15     -26412955       1183.4637      1183.4637      1183.4637      1908.2681      3091.7319      1908.2681      3091.7319      1908.2681      3091.7319      1.6575431e+09  0.5            5612000        0.89512848     7608.9667      15217.933      5.4986605    
  11219200   53179.487     -37.347059     -26579470       0.36095399     157725.36     -26421745       1183.4637      1183.4637      1183.4637      1908.2681      3091.7319      1908.2681      3091.7319      1908.2681      3091.7319      1.6575431e+09  0.5            5612100        0.90783        7873.0381      15746.014      5.4853534    
  11219400   51711.179     -37.15783      -26579421       0.36095399     153370.49     -26426050       1183.4637      1183.4637      1183.4637      1908.2681      3091.7319      1908.2681      3091.7319      1908.2681      3091.7319      1.6575431e+09  0.5            5612200        0.92056215     7854.1836      15708.461      5.4722432    
  11219600   53706.598     -36.576186     -26572022       0.36095399     159288.72     -26412733       1183.4637      1183.4637      1183.4637      1908.2681      3091.7319      1908.2681      3091.7319      1908.2681      3091.7319      1.6575431e+09  0.5            5612300        0.93317655     7927.4675      15854.9        5.4584571    
  11219800   56693.292     -35.936079     -26572024       0.36095399     168146.97     -26403877       1183.4637      1183.4637      1183.4637      1908.2681      3091.7319      1908.2681      3091.7319      1908.2681      3091.7319      1.6575431e+09  0.5            5612400        0.9459818      7809.2518      15618.544      5.4458004    
  11220000   55658.281     -35.751494     -26573942       0.36095399     165077.23     -26408865       1183.4637      1183.4637      1183.4637      1908.2681      3091.7319      1908.2681      3091.7319      1908.2681      3091.7319      1.6575431e+09  0.5            5612500        0.95858429     7934.9776      15869.876      5.4320559    
  11220200   54675.896     -35.668749     -26581744       0.36095399     162163.57     -26419580       1183.4637      1183.4637      1183.4637      1908.2681      3091.7319      1908.2681      3091.7319      1908.2681      3091.7319      1.6575431e+09  0.5            5612600        0.97120204     7925.3276      15850.592      5.418298     
  11220400   57557.353     -35.200393     -26581832       0.36095399     170709.7      -26411122       1183.4637      1183.4637      1183.4637      1908.2681      3091.7319      1908.2681      3091.7319      1908.2681      3091.7319      1.6575431e+09  0.5            5612700        0.98431567     7625.6588      15251.389      5.407357     
  11220600   59685.842     -34.655445     -26581931       0.36095399     177022.6      -26404908       1183.4637      1183.4637      1183.4637      1908.2681      3091.7319      1908.2681      3091.7319      1908.2681      3091.7319      1.6575431e+09  0.5            5612800        0.99727948     7713.7894      15427.56       5.3955503    
  11220800   58497.85      -34.426917     -26589417       0.36095399     173499.13     -26415918       1183.4637      1183.4637      1183.4637      1908.2681      3091.7319      1908.2681      3091.7319      1908.2681      3091.7319      1.6575431e+09  0.5            5612900        1.0100056      7857.8268      15715.642      5.3824474    
  11221000   58043.193     -34.021905     -26596901       0.36095399     172150.66     -26424750       1183.4637      1183.4637      1183.4637      1908.2681      3091.7319      1908.2681      3091.7319      1908.2681      3091.7319      1.6575431e+09  0.5            5613000        1.0227977      7817.3791      15634.812      5.3696992    
  11221200   61185.87      -33.482556     -26589619       0.36095399     181471.54     -26408148       1183.4637      1183.4637      1183.4637      1908.2681      3091.7319      1908.2681      3091.7319      1908.2681      3091.7319      1.6575431e+09  0.5            5613100        1.0358337      7671.0312      15342.054      5.358213     
  11221400   63505.141     -32.89058      -26589710       0.36095399     188350.28     -26401360       1183.4637      1183.4637      1183.4637      1908.2681      3091.7319      1908.2681      3091.7319      1908.2681      3091.7319      1.6575431e+09  0.5            5613200        1.0485716      7850.5728      15701.146      5.345169     
  11221600   61778.095     -32.745149     -26589765       0.36095399     183228.02     -26406537       1183.4637      1183.4637      1183.4637      1908.2681      3091.7319      1908.2681      3091.7319      1908.2681      3091.7319      1.6575431e+09  0.5            5613300        1.0612809      7868.3004      15736.611      5.3319882    
  11221800   61057.317     -32.349084     -26589796       0.36095399     181090.26     -26408706       1183.4637      1183.4637      1183.4637      1908.2681      3091.7319      1908.2681      3091.7319      1908.2681      3091.7319      1.6575431e+09  0.5            5613400        1.0738958      7927.0898      15854.165      5.3183524    
  11222000   62968.509     -31.932902     -26589796       0.36095399     186758.68     -26403037       1183.4637      1183.4637      1183.4637      1908.2681      3091.7319      1908.2681      3091.7319      1908.2681      3091.7319      1.6575431e+09  0.5            5613500        1.087087       7580.7908      15161.528      5.3075539    
  11222200   66062.862     -31.402669     -26589748       0.36095399     195936.24     -26393812       1183.4637      1183.4637      1183.4637      1908.2681      3091.7319      1908.2681      3091.7319      1908.2681      3091.7319      1.6575431e+09  0.5            5613600        1.0999353      7783.186       15566.423      5.2950479    
  11222400   65359.268     -31.040857     -26597019       0.36095399     193849.44     -26403170       1183.4637      1183.4637      1183.4637      1908.2681      3091.7319      1908.2681      3091.7319      1908.2681      3091.7319      1.6575431e+09  0.5            5613700        1.1128511      7742.4454      15484.911      5.2828551    
  11222600   64135.687     -30.843781     -26596865       0.36095399     190220.42     -26406645       1183.4637      1183.4637      1183.4637      1908.2681      3091.7319      1908.2681      3091.7319      1908.2681      3091.7319      1.6575431e+09  0.5            5613800        1.1258276      7706.237       15412.456      5.2709306    
  11222800   65001.825     -30.316443     -26594776       0.36095399     192789.3      -26401987       1183.4637      1183.4637      1183.4637      1908.2681      3091.7319      1908.2681      3091.7319      1908.2681      3091.7319      1.6575431e+09  0.5            5613900        1.1389669      7610.7271      15221.455      5.2597341    
  11223000   67308.574     -29.672072     -26594521       0.36095399     199630.9      -26394890       1183.4637      1183.4637      1183.4637      1908.2681      3091.7319      1908.2681      3091.7319      1908.2681      3091.7319      1.6575431e+09  0.5            5614000        1.1518665      7752.1904      15504.395      5.2474021    
  11223200   68821.57      -29.196278     -26594209       0.36095399     204118.31     -26390090       1183.4637      1183.4637      1183.4637      1908.2681      3091.7319      1908.2681      3091.7319      1908.2681      3091.7319      1.6575431e+09  0.5            5614100        1.1648265      7716.0803      15432.159      5.2353287    
  11223400   68163.004     -28.76825      -26593819       0.36095399     202165.06     -26391654       1183.4637      1183.4637      1183.4637      1908.2681      3091.7319      1908.2681      3091.7319      1908.2681      3091.7319      1.6575431e+09  0.5            5614200        1.177909       7643.695       15287.253      5.2237821    
  11223600   66328.271     -28.507274     -26586015       0.36095399     196723.42     -26389291       1183.4637      1183.4637      1183.4637      1908.2681      3091.7319      1908.2681      3091.7319      1908.2681      3091.7319      1.6575431e+09  0.5            5614300        1.1911561      7548.9286      15097.989      5.2129185    
  11223800   68569.275     -27.749456     -26570776       0.36095399     203370.02     -26367406       1183.4637      1183.4637      1183.4637      1908.2681      3091.7319      1908.2681      3091.7319      1908.2681      3091.7319      1.6575431e+09  0.5            5614400        1.2039121      7839.3953      15678.73       5.1998859    
  11224000   71978.382     -26.99088      -26572128       0.36095399     213481.12     -26358647       1183.4637      1183.4637      1183.4637      1908.2681      3091.7319      1908.2681      3091.7319      1908.2681      3091.7319      1.6575431e+09  0.5            5614500        1.2167332      7799.7054      15599.444      5.1871353    
  11224200   71544.416     -26.450745     -26571540       0.36095399     212194.01     -26359346       1183.4637      1183.4637      1183.4637      1908.2681      3091.7319      1908.2681      3091.7319      1908.2681      3091.7319      1.6575431e+09  0.5            5614600        1.2298747      7609.4611      15218.991      5.175732     
  11224400   70310.552     -26.112794     -26569009       0.36095399     208534.49     -26360474       1183.4637      1183.4637      1183.4637      1908.2681      3091.7319      1908.2681      3091.7319      1908.2681      3091.7319      1.6575431e+09  0.5            5614700        1.2426933      7801.1785      15602.33       5.1629515    
  11224600   72523.382     -25.61794      -26575731       0.36095399     215097.53     -26360633       1183.4637      1183.4637      1183.4637      1908.2681      3091.7319      1908.2681      3091.7319      1908.2681      3091.7319      1.6575431e+09  0.5            5614800        1.2555273      7791.7775      15583.533      5.1502333    
  11224800   76016.797     -24.602526     -26575019       0.36095399     225458.67     -26349560       1183.4637      1183.4637      1183.4637      1908.2681      3091.7319      1908.2681      3091.7319      1908.2681      3091.7319      1.6575431e+09  0.5            5614900        1.2683946      7771.6648      15543.309      5.1376478    
  11225000   74341.036     -24.512403     -26581643       0.36095399     220488.53     -26361154       1183.4637      1183.4637      1183.4637      1908.2681      3091.7319      1908.2681      3091.7319      1908.2681      3091.7319      1.6575431e+09  0.5            5615000        1.2815881      7579.4204      15158.853      5.1263619    
  11225200   72349.97      -24.18081      -26590160       0.36095399     214583.21     -26375577       1183.4637      1183.4637      1183.4637      1908.2681      3091.7319      1908.2681      3091.7319      1908.2681      3091.7319      1.6575431e+09  0.5            5615100        1.294714       7618.5722      15237.14       5.1147702    
  11225400   76412.861     -23.282967     -26598674       0.36095399     226633.36     -26372040       1183.4637      1183.4637      1183.4637      1908.2681      3091.7319      1908.2681      3091.7319      1908.2681      3091.7319      1.6575431e+09  0.5            5615200        1.3075234      7806.748       15613.537      5.1019137    
  11225600   78856.244     -22.465245     -26595980       0.36095399     233880.21     -26362100       1183.4637      1183.4637      1183.4637      1908.2681      3091.7319      1908.2681      3091.7319      1908.2681      3091.7319      1.6575431e+09  0.5            5615300        1.3206655      7609.0657      15218.12       5.0903414    
  11225800   76367.66      -21.982499     -26602578       0.36095399     226499.3      -26376079       1183.4637      1183.4637      1183.4637      1908.2681      3091.7319      1908.2681      3091.7319      1908.2681      3091.7319      1.6575431e+09  0.5            5615400        1.3334291      7834.8593      15669.679      5.0772962    
  11226000   75431.101     -21.219972     -26594419       0.36095399     223721.55     -26370698       1183.4637      1183.4637      1183.4637      1908.2681      3091.7319      1908.2681      3091.7319      1908.2681      3091.7319      1.6575431e+09  0.5            5615500        1.3463224      7756.0234      15512.102      5.0647444    
  11226200   79844.847     -20.478429     -26597425       0.36095399     236812.31     -26360612       1183.4637      1183.4637      1183.4637      1908.2681      3091.7319      1908.2681      3091.7319      1908.2681      3091.7319      1.6575431e+09  0.5            5615600        1.3591175      7815.4625      15630.925      5.0518221    
  11226400   81134.373     -19.650425     -26589228       0.36095399     240636.92     -26348592       1183.4637      1183.4637      1183.4637      1908.2681      3091.7319      1908.2681      3091.7319      1908.2681      3091.7319      1.6575431e+09  0.5            5615700        1.3722577      7610.2319      15220.508      5.0401691    
  11226600   79501.158     -19.059069     -26588371       0.36095399     235792.96     -26352578       1183.4637      1183.4637      1183.4637      1908.2681      3091.7319      1908.2681      3091.7319      1908.2681      3091.7319      1.6575431e+09  0.5            5615800        1.3853818      7619.5463      15239.03       5.0284309    
  11226800   79357.626     -18.232523     -26580115       0.36095399     235367.26     -26344748       1183.4637      1183.4637      1183.4637      1908.2681      3091.7319      1908.2681      3091.7319      1908.2681      3091.7319      1.6575431e+09  0.5            5615900        1.398208       7796.5044      15592.992      5.0155984    
  11227000   83829.391     -17.220353     -26586946       0.36095399     248630.09     -26338315       1183.4637      1183.4637      1183.4637      1908.2681      3091.7319      1908.2681      3091.7319      1908.2681      3091.7319      1.6575431e+09  0.5            5616000        1.41125        7667.5539      15335.021      5.0035311    
  11227200   85517.301     -16.262152     -26578590       0.36095399     253636.28     -26324954       1183.4637      1183.4637      1183.4637      1908.2681      3091.7319      1908.2681      3091.7319      1908.2681      3091.7319      1.6575431e+09  0.5            5616100        1.4240871      7789.8996      15579.808      4.9907281    
  11227400   83004.64      -15.675215     -26575653       0.36095399     246183.96     -26329469       1183.4637      1183.4637      1183.4637      1908.2681      3091.7319      1908.2681      3091.7319      1908.2681      3091.7319      1.6575431e+09  0.5            5616200        1.436899       7805.2716      15610.637      4.9778368    
  11227600   82307.545     -14.995556     -26583854       0.36095399     244116.44     -26339738       1183.4637      1183.4637      1183.4637      1908.2681      3091.7319      1908.2681      3091.7319      1908.2681      3091.7319      1.6575431e+09  0.5            5616300        1.4499474      7663.8142      15327.578      4.965757     
  11227800   84415.353     -13.771911     -26571580       0.36095399     250368        -26321212       1183.4637      1183.4637      1183.4637      1908.2681      3091.7319      1908.2681      3091.7319      1908.2681      3091.7319      1.6575431e+09  0.5            5616400        1.4627053      7838.2075      15676.394      4.9526768    
  11228000   87557.535     -12.751197     -26570420       0.36095399     259687.42     -26310733       1183.4637      1183.4637      1183.4637      1908.2681      3091.7319      1908.2681      3091.7319      1908.2681      3091.7319      1.6575431e+09  0.5            5616500        1.4755601      7779.2328      15558.55       4.9399262    
  11228200   87220.071     -11.947756     -26569200       0.36095399     258686.53     -26310513       1183.4637      1183.4637      1183.4637      1908.2681      3091.7319      1908.2681      3091.7319      1908.2681      3091.7319      1.6575431e+09  0.5            5616600        1.4888354      7532.7717      15065.489      4.9285663    
  11228400   81437.354     -11.637075     -26567975       0.36095399     241535.54     -26326440       1183.4637      1183.4637      1183.4637      1908.2681      3091.7319      1908.2681      3091.7319      1908.2681      3091.7319      1.6575431e+09  0.5            5616700        1.5015505      7864.6104      15729.154      4.9153399    
  11228600   84063.522     -10.801018     -26566782       0.36095399     249324.51     -26317457       1183.4637      1183.4637      1183.4637      1908.2681      3091.7319      1908.2681      3091.7319      1908.2681      3091.7319      1.6575431e+09  0.5            5616800        1.5143044      7840.8022      15681.676      4.9022473    
  11228800   88532.041     -9.4836101     -26565570       0.36095399     262577.71     -26302992       1183.4637      1183.4637      1183.4637      1908.2681      3091.7319      1908.2681      3091.7319      1908.2681      3091.7319      1.6575431e+09  0.5            5616900        1.5273345      7674.5453      15349.133      4.8900446    
  11229000   89936.301     -8.4947782     -26573610       0.36095399     266742.61     -26306868       1183.4637      1183.4637      1183.4637      1908.2681      3091.7319      1908.2681      3091.7319      1908.2681      3091.7319      1.6575431e+09  0.5            5617000        1.5401439      7806.7706      15613.592      4.8771291    
  11229200   89787.48      -7.8637485     -26579772       0.36095399     266301.22     -26313471       1183.4637      1183.4637      1183.4637      1908.2681      3091.7319      1908.2681      3091.7319      1908.2681      3091.7319      1.6575431e+09  0.5            5617100        1.5529457      7811.3857      15622.66       4.8641925    
  11229400   89681.363     -7.1624557     -26578573       0.36095399     265986.49     -26312587       1183.4637      1183.4637      1183.4637      1908.2681      3091.7319      1908.2681      3091.7319      1908.2681      3091.7319      1.6575431e+09  0.5            5617200        1.5656895      7847.0115      15694.065      4.8510776    
  11229600   92473.045     -6.0943072     -26575507       0.36095399     274266.36     -26301241       1183.4637      1183.4637      1183.4637      1908.2681      3091.7319      1908.2681      3091.7319      1908.2681      3091.7319      1.6575431e+09  0.5            5617300        1.5788852      7578.1952      15156.334      4.8393544    
  11229800   94809.603     -5.1721018     -26576264       0.36095399     281196.37     -26295068       1183.4637      1183.4637      1183.4637      1908.2681      3091.7319      1908.2681      3091.7319      1908.2681      3091.7319      1.6575431e+09  0.5            5617400        1.5918548      7710.3695      15420.751      4.8269214    
  11230000   91809.449     -4.5547149     -26573647       0.36095399     272298.2      -26301349       1183.4637      1183.4637      1183.4637      1908.2681      3091.7319      1908.2681      3091.7319      1908.2681      3091.7319      1.6575431e+09  0.5            5617500        1.6046763      7799.2973      15598.633      4.814036     
  11230200   87944.82      -3.9108249     -26563744       0.36095399     260836.07     -26302908       1183.4637      1183.4637      1183.4637      1908.2681      3091.7319      1908.2681      3091.7319      1908.2681      3091.7319      1.6575431e+09  0.5            5617600        1.6178087      7614.8332      15229.748      4.8020735    
  11230400   93745.548     -2.7080444     -26562822       0.36095399     278040.48     -26284781       1183.4637      1183.4637      1183.4637      1908.2681      3091.7319      1908.2681      3091.7319      1908.2681      3091.7319      1.6575431e+09  0.5            5617700        1.6305285      7861.7687      15723.474      4.7888816    
  11230600   95924.498     -1.9289968     -26554565       0.36095399     284503.04     -26270062       1183.4637      1183.4637      1183.4637      1908.2681      3091.7319      1908.2681      3091.7319      1908.2681      3091.7319      1.6575431e+09  0.5            5617800        1.6433075      7825.3048      15650.556      4.775869     
  11230800   95219.323     -1.5051968     -26553378       0.36095399     282411.56     -26270966       1183.4637      1183.4637      1183.4637      1908.2681      3091.7319      1908.2681      3091.7319      1908.2681      3091.7319      1.6575431e+09  0.5            5617900        1.6564254      7623.1981      15246.426      4.7638345    
  11231000   95250.022     -0.84324834    -26560000       0.36095399     282502.61     -26277497       1183.4637      1183.4637      1183.4637      1908.2681      3091.7319      1908.2681      3091.7319      1908.2681      3091.7319      1.6575431e+09  0.5            5618000        1.6692552      7794.3635      15588.694      4.7509634    
  11231200   98667.182     -0.13260387    -26568565       0.36095399     292637.59     -26275927       1183.4637      1183.4637      1183.4637      1908.2681      3091.7319      1908.2681      3091.7319      1908.2681      3091.7319      1.6575431e+09  0.5            5618100        1.6822721      7682.2534      15364.532      4.7386205    
  11231400   101302.33      0.27729504    -26582650       0.36095399     300453.18     -26282196       1183.4637      1183.4637      1183.4637      1908.2681      3091.7319      1908.2681      3091.7319      1908.2681      3091.7319      1.6575431e+09  0.5            5618200        1.6954412      7593.5553      15187.093      4.7266912    
  11231600   96877.436      0.42180532    -26582019       0.36095399     287329.37     -26294690       1183.4637      1183.4637      1183.4637      1908.2681      3091.7319      1908.2681      3091.7319      1908.2681      3091.7319      1.6575431e+09  0.5            5618300        1.7082482      7808.2396      15616.512      4.713744     
  11231800   93433.788      0.60789661    -26583331       0.36095399     277115.83     -26306215       1183.4637      1183.4637      1183.4637      1908.2681      3091.7319      1908.2681      3091.7319      1908.2681      3091.7319      1.6575431e+09  0.5            5618400        1.7211236      7766.7725      15533.52       4.7009859    
  11232000   97830.56       1.2266593     -26582791       0.36095399     290156.25     -26292634       1183.4637      1183.4637      1183.4637      1908.2681      3091.7319      1908.2681      3091.7319      1908.2681      3091.7319      1.6575431e+09  0.5            5618500        1.7342404      7623.7456      15247.457      4.688879     
  11232200   100509.99      1.6387618     -26587749       0.36095399     298103.17     -26289646       1183.4637      1183.4637      1183.4637      1908.2681      3091.7319      1908.2681      3091.7319      1908.2681      3091.7319      1.6575431e+09  0.5            5618600        1.7469319      7879.3818      15758.777      4.6756179    
  11232400   102588.96      2.1307525     -26585327       0.36095399     304269.21     -26281057       1183.4637      1183.4637      1183.4637      1908.2681      3091.7319      1908.2681      3091.7319      1908.2681      3091.7319      1.6575431e+09  0.5            5618700        1.7596043      7891.1296      15782.323      4.6623152    
  11232600   103325.09      2.420316      -26577397       0.36095399     306452.5      -26270944       1183.4637      1183.4637      1183.4637      1908.2681      3091.7319      1908.2681      3091.7319      1908.2681      3091.7319      1.6575431e+09  0.5            5618800        1.7726208      7682.5479      15365.079      4.6499243    
  11232800   102121.2       2.6388959     -26578734       0.36095399     302881.89     -26275852       1183.4637      1183.4637      1183.4637      1908.2681      3091.7319      1908.2681      3091.7319      1908.2681      3091.7319      1.6575431e+09  0.5            5618900        1.7858411      7564.15        15128.237      4.6380537    
  11233000   101016.34      2.802365      -26578146       0.36095399     299604.95     -26278541       1183.4637      1183.4637      1183.4637      1908.2681      3091.7319      1908.2681      3091.7319      1908.2681      3091.7319      1.6575431e+09  0.5            5619000        1.7989194      7646.2333      15292.535      4.6257986    
  11233200   105249.24      3.4982535     -26577519       0.36095399     312159.37     -26265360       1183.4637      1183.4637      1183.4637      1908.2681      3091.7319      1908.2681      3091.7319      1908.2681      3091.7319      1.6575431e+09  0.5            5619100        1.8116442      7858.6864      15717.385      4.6126317    
  11233400   108313.88      3.6913828     -26578728       0.36095399     321248.78     -26257479       1183.4637      1183.4637      1183.4637      1908.2681      3091.7319      1908.2681      3091.7319      1908.2681      3091.7319      1.6575431e+09  0.5            5619200        1.824435       7817.9353      15635.86       4.5996383    
  11233600   105503.18      3.1983752     -26600099       0.36095399     312912.51     -26287187       1183.4637      1183.4637      1183.4637      1908.2681      3091.7319      1908.2681      3091.7319      1908.2681      3091.7319      1.6575431e+09  0.5            5619300        1.8375579      7620.3842      15240.711      4.5874757    
  11233800   101244.92      3.1696316     -26614076       0.36095399     300282.9      -26313793       1183.4637      1183.4637      1183.4637      1908.2681      3091.7319      1908.2681      3091.7319      1908.2681      3091.7319      1.6575431e+09  0.5            5619400        1.8503573      7812.9083      15625.902      4.5745       
  11234000   105547.46      3.6617659     -26612125       0.36095399     313043.85     -26299081       1183.4637      1183.4637      1183.4637      1908.2681      3091.7319      1908.2681      3091.7319      1908.2681      3091.7319      1.6575431e+09  0.5            5619500        1.8630867      7855.8317      15711.652      4.5613557    
  11234200   110978         3.8656923     -26620547       0.36095399     329150.32     -26291397       1183.4637      1183.4637      1183.4637      1908.2681      3091.7319      1908.2681      3091.7319      1908.2681      3091.7319      1.6575431e+09  0.5            5619600        1.8761793      7637.8737      15275.645      4.549098     
  11234400   109405.35      4.0315748     -26612250       0.36095399     324485.97     -26287764       1183.4637      1183.4637      1183.4637      1908.2681      3091.7319      1908.2681      3091.7319      1908.2681      3091.7319      1.6575431e+09  0.5            5619700        1.889306       7618.0771      15236.237      4.5369104    
  11234600   106482.85      3.7005074     -26613200       0.36095399     315818.14     -26297382       1183.4637      1183.4637      1183.4637      1908.2681      3091.7319      1908.2681      3091.7319      1908.2681      3091.7319      1.6575431e+09  0.5            5619800        1.9021173      7805.6688      15611.418      4.5239596    
  11234800   109327.26      3.9150679     -26612223       0.36095399     324254.38     -26287968       1183.4637      1183.4637      1183.4637      1908.2681      3091.7319      1908.2681      3091.7319      1908.2681      3091.7319      1.6575431e+09  0.5            5619900        1.9150782      7715.4439      15430.843      4.511364     
  11235000   114778.65      4.7958402     -26611205       0.36095399     340422.68     -26270782       1183.4637      1183.4637      1183.4637      1908.2681      3091.7319      1908.2681      3091.7319      1908.2681      3091.7319      1.6575431e+09  0.5            5620000        1.9279206      7786.7678      15573.483      4.4984866    
  11235200   112823.99      4.5700367     -26617554       0.36095399     334625.34     -26282928       1183.4637      1183.4637      1183.4637      1908.2681      3091.7319      1908.2681      3091.7319      1908.2681      3091.7319      1.6575431e+09  0.5            5620100        1.9410703      7604.7229      15209.575      4.4863196    
  11235400   110578.78      4.374463      -26618475       0.36095399     327966.28     -26290509       1183.4637      1183.4637      1183.4637      1908.2681      3091.7319      1908.2681      3091.7319      1908.2681      3091.7319      1.6575431e+09  0.5            5620200        1.9537596      7880.7081      15761.26       4.4731032    
  11235600   112273.06      4.7268432     -26617569       0.36095399     332991.33     -26284578       1183.4637      1183.4637      1183.4637      1908.2681      3091.7319      1908.2681      3091.7319      1908.2681      3091.7319      1.6575431e+09  0.5            5620300        1.9669202      7598.3344      15196.721      4.4609288    
  11235800   119213.27      5.4744546     -26611229       0.36095399     353575.35     -26257654       1183.4637      1183.4637      1183.4637      1908.2681      3091.7319      1908.2681      3091.7319      1908.2681      3091.7319      1.6575431e+09  0.5            5620400        1.9798138      7755.8406      15511.664      4.4481581    
  11236000   122957.37      5.9088042     -26610402       0.36095399     364679.99     -26245722       1183.4637      1183.4637      1183.4637      1908.2681      3091.7319      1908.2681      3091.7319      1908.2681      3091.7319      1.6575431e+09  0.5            5620500        1.9926626      7782.8171      15565.614      4.4352863    
  11236200   111882.74      4.7371821     -26609620       0.36095399     331833.7      -26277787       1183.4637      1183.4637      1183.4637      1908.2681      3091.7319      1908.2681      3091.7319      1908.2681      3091.7319      1.6575431e+09  0.5            5620600        2.0055525      7757.9627      15515.952      4.4225055    
  11236400   113621.13      4.8367443     -26608939       0.36095399     336989.61     -26271950       1183.4637      1183.4637      1183.4637      1908.2681      3091.7319      1908.2681      3091.7319      1908.2681      3091.7319      1.6575431e+09  0.5            5620700        2.018299       7845.3247      15690.625      4.4094098    
  11236600   119285.67      5.1777197     -26615725       0.36095399     353790.08     -26261935       1183.4637      1183.4637      1183.4637      1908.2681      3091.7319      1908.2681      3091.7319      1908.2681      3091.7319      1.6575431e+09  0.5            5620800        2.0313533      7660.3153      15320.662      4.3969848    
  11236800   120367.18      5.3456425     -26629926       0.36095399     356997.75     -26272928       1183.4637      1183.4637      1183.4637      1908.2681      3091.7319      1908.2681      3091.7319      1908.2681      3091.7319      1.6575431e+09  0.5            5620900        2.044038       7883.4852      15766.916      4.3837595    
  11237000   116452.15      5.1572811     -26629410       0.36095399     345386.13     -26284024       1183.4637      1183.4637      1183.4637      1908.2681      3091.7319      1908.2681      3091.7319      1908.2681      3091.7319      1.6575431e+09  0.5            5621000        2.0570521      7683.9848      15368.032      4.3712404    
  11237200   114936.97      4.9776889     -26628944       0.36095399     340892.25     -26288052       1183.4637      1183.4637      1183.4637      1908.2681      3091.7319      1908.2681      3091.7319      1908.2681      3091.7319      1.6575431e+09  0.5            5621100        2.0698421      7818.6217      15637.263      4.3582436    
  11237400   122870.91      5.6006251     -26630385       0.36095399     364423.56     -26265961       1183.4637      1183.4637      1183.4637      1908.2681      3091.7319      1908.2681      3091.7319      1908.2681      3091.7319      1.6575431e+09  0.5            5621200        2.0827893      7723.6962      15447.373      4.3455773    
  11237600   123880.62      6.0013956     -26615146       0.36095399     367418.27     -26247728       1183.4637      1183.4637      1183.4637      1908.2681      3091.7319      1908.2681      3091.7319      1908.2681      3091.7319      1.6575431e+09  0.5            5621300        2.0959861      7577.5883      15155.179      4.3334238    
  11237800   120208.18      5.5997325     -26614612       0.36095399     356526.15     -26258085       1183.4637      1183.4637      1183.4637      1908.2681      3091.7319      1908.2681      3091.7319      1908.2681      3091.7319      1.6575431e+09  0.5            5621400        2.1087389      7841.3992      15682.751      4.320348     
  11238000   119492.57      5.3514331     -26621412       0.36095399     354403.72     -26267008       1183.4637      1183.4637      1183.4637      1908.2681      3091.7319      1908.2681      3091.7319      1908.2681      3091.7319      1.6575431e+09  0.5            5621500        2.1218021      7655.0986      15310.238      4.3079058    
  11238200   126770.64      5.9508546     -26628164       0.36095399     375989.79     -26252174       1183.4637      1183.4637      1183.4637      1908.2681      3091.7319      1908.2681      3091.7319      1908.2681      3091.7319      1.6575431e+09  0.5            5621600        2.1346424      7787.9721      15575.89       4.2950082    
  11238400   129292.94      6.3465574     -26627416       0.36095399     383470.7      -26243945       1183.4637      1183.4637      1183.4637      1908.2681      3091.7319      1908.2681      3091.7319      1908.2681      3091.7319      1.6575431e+09  0.5            5621700        2.1476402      7693.6351      15387.289      4.2824247    
  11238600   124846.05      6.1526251     -26626557       0.36095399     370281.66     -26256276       1183.4637      1183.4637      1183.4637      1908.2681      3091.7319      1908.2681      3091.7319      1908.2681      3091.7319      1.6575431e+09  0.5            5621800        2.1605054      7772.862       15545.669      4.2695749    
  11238800   122884.79      5.9570859     -26625607       0.36095399     364464.73     -26261142       1183.4637      1183.4637      1183.4637      1908.2681      3091.7319      1908.2681      3091.7319      1908.2681      3091.7319      1.6575431e+09  0.5            5621900        2.1733621      7778.1032      15556.209      4.2567076    
  11239000   125588.64      6.4346645     -26626464       0.36095399     372484.09     -26253980       1183.4637      1183.4637      1183.4637      1908.2681      3091.7319      1908.2681      3091.7319      1908.2681      3091.7319      1.6575431e+09  0.5            5622000        2.1867593      7464.2412      14907.745      4.2449264    
  11239200   131597.78      6.7627962     -26632706       0.36095399     390306.66     -26242399       1183.4637      1183.4637      1183.4637      1908.2681      3091.7319      1908.2681      3091.7319      1908.2681      3091.7319      1.6575431e+09  0.5            5622100        2.1996997      7727.7388      15477.817      4.232175     
  11239400   129720.12      6.5264419     -26631819       0.36095399     384737.68     -26247082       1183.4637      1183.4637      1183.4637      1908.2681      3091.7319      1908.2681      3091.7319      1908.2681      3091.7319      1.6575431e+09  0.5            5622200        2.2127154      7682.9859      15365.991      4.2196013    
  11239600   120159.03      6.3016811     -26615787       0.36095399     356380.38     -26259407       1183.4637      1183.4637      1183.4637      1908.2681      3091.7319      1908.2681      3091.7319      1908.2681      3091.7319      1.6575431e+09  0.5            5622300        2.2255097      7816.005       15631.929      4.2066036    
  11239800   125056.73      6.9517319     -26607152       0.36095399     370906.5      -26236246       1183.4637      1183.4637      1183.4637      1908.2681      3091.7319      1908.2681      3091.7319      1908.2681      3091.7319      1.6575431e+09  0.5            5622400        2.2383229      7804.4913      15609.086      4.1936434    
  11240000   130538.29      7.2562786     -26620590       0.36095399     387164.29     -26233426       1183.4637      1183.4637      1183.4637      1908.2681      3091.7319      1908.2681      3091.7319      1908.2681      3091.7319      1.6575431e+09  0.5            5622500        2.2513687      7665.2758      15330.522      4.1811174    
  11240200   131950.01      7.1633669     -26619223       0.36095399     391351.34     -26227872       1183.4637      1183.4637      1183.4637      1908.2681      3091.7319      1908.2681      3091.7319      1908.2681      3091.7319      1.6575431e+09  0.5            5622600        2.2641704      7811.4162      15622.773      4.1681364    
  11240400   130456.56      7.158066      -26617852       0.36095399     386921.89     -26230930       1183.4637      1183.4637      1183.4637      1908.2681      3091.7319      1908.2681      3091.7319      1908.2681      3091.7319      1.6575431e+09  0.5            5622700        2.277238       7652.49        15304.978      4.1556422    
  11240600   128441.21      7.2514706     -26609124       0.36095399     380944.56     -26228180       1183.4637      1183.4637      1183.4637      1908.2681      3091.7319      1908.2681      3091.7319      1908.2681      3091.7319      1.6575431e+09  0.5            5622800        2.2903411      7631.8121      15263.582      4.1432057    
  11240800   132704.63      7.5537974     -26607818       0.36095399     393589.45     -26214228       1183.4637      1183.4637      1183.4637      1908.2681      3091.7319      1908.2681      3091.7319      1908.2681      3091.7319      1.6575431e+09  0.5            5622900        2.3031374      7814.8335      15629.773      4.1302112    
  11241000   137608.74      8.2456504     -26591797       0.36095399     408134.58     -26183662       1183.4637      1183.4637      1183.4637      1908.2681      3091.7319      1908.2681      3091.7319      1908.2681      3091.7319      1.6575431e+09  0.5            5623000        2.3162013      7654.6334      15309.307      4.1176951    
  11241200   134376.2       7.9095052     -26590566       0.36095399     398547.18     -26192019       1183.4637      1183.4637      1183.4637      1908.2681      3091.7319      1908.2681      3091.7319      1908.2681      3091.7319      1.6575431e+09  0.5            5623100        2.3290286      7795.8656      15591.633      4.1047561    
  11241400   129057.95      7.3889521     -26594916       0.36095399     382773.75     -26212142       1183.4637      1183.4637      1183.4637      1908.2681      3091.7319      1908.2681      3091.7319      1908.2681      3091.7319      1.6575431e+09  0.5            5623200        2.3421964      7594.3061      15188.635      4.0924131    
  11241600   134804.72      7.591807      -26616003       0.36095399     399818.11     -26216185       1183.4637      1183.4637      1183.4637      1908.2681      3091.7319      1908.2681      3091.7319      1908.2681      3091.7319      1.6575431e+09  0.5            5623300        2.3550959      7752.2042      15504.39       4.0795964    
  11241800   141032.99      8.0312268     -26620107       0.36095399     418290.59     -26201816       1183.4637      1183.4637      1183.4637      1908.2681      3091.7319      1908.2681      3091.7319      1908.2681      3091.7319      1.6575431e+09  0.5            5623400        2.3682052      7628.1555      15256.359      4.0671392    
  11242000   136618.74      7.4672756     -26622931       0.36095399     405198.35     -26217733       1183.4637      1183.4637      1183.4637      1908.2681      3091.7319      1908.2681      3091.7319      1908.2681      3091.7319      1.6575431e+09  0.5            5623500        2.3813424      7612.0202      15223.974      4.0547221    
  11242200   133240.96      6.9070448     -26622037       0.36095399     395180.16     -26226857       1183.4637      1183.4637      1183.4637      1908.2681      3091.7319      1908.2681      3091.7319      1908.2681      3091.7319      1.6575431e+09  0.5            5623600        2.3945271      7584.6011      15169.324      4.0423772    
  11242400   138777.26      7.3137925     -26628570       0.36095399     411600.3      -26216970       1183.4637      1183.4637      1183.4637      1908.2681      3091.7319      1908.2681      3091.7319      1908.2681      3091.7319      1.6575431e+09  0.5            5623700        2.407671       7607.9797      15215.954      4.029956     
  11242600   143765.13      7.5835379     -26635122       0.36095399     426393.86     -26208728       1183.4637      1183.4637      1183.4637      1908.2681      3091.7319      1908.2681      3091.7319      1908.2681      3091.7319      1.6575431e+09  0.5            5623800        2.4206745      7690.2822      15380.511      4.0172933    
  11242800   140820.63      7.1977195     -26626929       0.36095399     417660.74     -26209268       1183.4637      1183.4637      1183.4637      1908.2681      3091.7319      1908.2681      3091.7319      1908.2681      3091.7319      1.6575431e+09  0.5            5623900        2.4338684      7579.2383      15158.474      4.0049406    
  11243000   138767.16      6.9758874     -26633504       0.36095399     411570.37     -26221933       1183.4637      1183.4637      1183.4637      1908.2681      3091.7319      1908.2681      3091.7319      1908.2681      3091.7319      1.6575431e+09  0.5            5624000        2.4468486      7704.0498      15408.058      3.9922304    
  11243200   140641.11      7.094318      -26638164       0.36095399     417128.3      -26221036       1183.4637      1183.4637      1183.4637      1908.2681      3091.7319      1908.2681      3091.7319      1908.2681      3091.7319      1.6575431e+09  0.5            5624100        2.4600508      7574.5089      15149.052      3.9798764    
  11243400   148670.1       7.3391939     -26652038       0.36095399     440941.54     -26211097       1183.4637      1183.4637      1183.4637      1908.2681      3091.7319      1908.2681      3091.7319      1908.2681      3091.7319      1.6575431e+09  0.5            5624200        2.4729675      7741.8975      15483.769      3.9670558    
  11243600   151280.05      7.6121332     -26656543       0.36095399     448682.41     -26207861       1183.4637      1183.4637      1183.4637      1908.2681      3091.7319      1908.2681      3091.7319      1908.2681      3091.7319      1.6575431e+09  0.5            5624300        2.48636        7466.8741      14933.791      3.9549908    
  11243800   139669.2       6.7060953     -26655488       0.36095399     414245.72     -26241242       1183.4637      1183.4637      1183.4637      1908.2681      3091.7319      1908.2681      3091.7319      1908.2681      3091.7319      1.6575431e+09  0.5            5624400        2.4994482      7640.473       15280.828      3.9424324    
  11244000   141158.42      6.5109891     -26669147       0.36095399     418662.6      -26250485       1183.4637      1183.4637      1183.4637      1908.2681      3091.7319      1908.2681      3091.7319      1908.2681      3091.7319      1.6575431e+09  0.5            5624500        2.5124651      7682.3567      15364.818      3.9297741    
  11244200   147228.4       7.2578706     -26667959       0.36095399     436665.6      -26231293       1183.4637      1183.4637      1183.4637      1908.2681      3091.7319      1908.2681      3091.7319      1908.2681      3091.7319      1.6575431e+09  0.5            5624600        2.525672       7571.7124      15143.384      3.9173726    
  11244400   148868.25      7.4675681     -26674404       0.36095399     441529.23     -26232875       1183.4637      1183.4637      1183.4637      1908.2681      3091.7319      1908.2681      3091.7319      1908.2681      3091.7319      1.6575431e+09  0.5            5624700        2.538656       7701.8408      15403.722      3.9046368    
  11244600   144280.72      7.3058426     -26665628       0.36095399     427923.06     -26237705       1183.4637      1183.4637      1183.4637      1908.2681      3091.7319      1908.2681      3091.7319      1908.2681      3091.7319      1.6575431e+09  0.5            5624800        2.5517279      7650.0125      15300.051      3.8920328    
  11244800   139424.25      7.0453134     -26664183       0.36095399     413519.22     -26250663       1183.4637      1183.4637      1183.4637      1908.2681      3091.7319      1908.2681      3091.7319      1908.2681      3091.7319      1.6575431e+09  0.5            5624900        2.5647476      7680.6797      15361.334      3.8793453    
  11245000   148407.7       7.9576518     -26670449       0.36095399     440163.29     -26230285       1183.4637      1183.4637      1183.4637      1908.2681      3091.7319      1908.2681      3091.7319      1908.2681      3091.7319      1.6575431e+09  0.5            5625000        2.5776728      7736.7625      15473.517      3.8665127    
  11245200   152135.59      8.5576769     -26669207       0.36095399     451219.86     -26217987       1183.4637      1183.4637      1183.4637      1908.2681      3091.7319      1908.2681      3091.7319      1908.2681      3091.7319      1.6575431e+09  0.5            5625100        2.5911484      7420.9069      14841.803      3.8544976    
  11245400   148736.72      8.5097181     -26667511       0.36095399     441139.14     -26226372       1183.4637      1183.4637      1183.4637      1908.2681      3091.7319      1908.2681      3091.7319      1908.2681      3091.7319      1.6575431e+09  0.5            5625200        2.6040705      7738.6401      15477.291      3.8416518    
  11245600   145948.6       8.430544      -26665808       0.36095399     432869.81     -26232938       1183.4637      1183.4637      1183.4637      1908.2681      3091.7319      1908.2681      3091.7319      1908.2681      3091.7319      1.6575431e+09  0.5            5625300        2.6171808      7627.5614      15255.14       3.8290807    
  11245800   152786.7       9.0554832     -26667852       0.36095399     453150.98     -26214701       1183.4637      1183.4637      1183.4637      1908.2681      3091.7319      1908.2681      3091.7319      1908.2681      3091.7319      1.6575431e+09  0.5            5625400        2.6300977      7741.7848      15483.582      3.8162235    
  11246000   157225.33      9.4149439     -26666053       0.36095399     466315.55     -26199737       1183.4637      1183.4637      1183.4637      1908.2681      3091.7319      1908.2681      3091.7319      1908.2681      3091.7319      1.6575431e+09  0.5            5625500        2.6429263      7795.1588      15590.305      3.8032385    
  11246200   152230.24      9.0700153     -26671611       0.36095399     451500.57     -26220111       1183.4637      1183.4637      1183.4637      1908.2681      3091.7319      1908.2681      3091.7319      1908.2681      3091.7319      1.6575431e+09  0.5            5625600        2.6561376      7569.2308      15138.498      3.7908015    
  11246400   149838.85      8.9145703     -26688395       0.36095399     444407.93     -26243987       1183.4637      1183.4637      1183.4637      1908.2681      3091.7319      1908.2681      3091.7319      1908.2681      3091.7319      1.6575431e+09  0.5            5625700        2.6690279      7757.787       15515.451      3.7779027    
  11246600   152758.61      9.242061      -26688546       0.36095399     453067.68     -26235478       1183.4637      1183.4637      1183.4637      1908.2681      3091.7319      1908.2681      3091.7319      1908.2681      3091.7319      1.6575431e+09  0.5            5625800        2.6820787      7662.3814      15324.858      3.765229     
  11246800   154531.92      9.4016426     -26686827       0.36095399     458327.14     -26228500       1183.4637      1183.4637      1183.4637      1908.2681      3091.7319      1908.2681      3091.7319      1908.2681      3091.7319      1.6575431e+09  0.5            5625900        2.6954275      7491.2826      14982.469      3.752967     
  11247000   154934.67      9.358067      -26701809       0.36095399     459521.68     -26242287       1183.4637      1183.4637      1183.4637      1908.2681      3091.7319      1908.2681      3091.7319      1908.2681      3091.7319      1.6575431e+09  0.5            5626000        2.708437       7686.6716      15373.299      3.7402259    
  11247200   156518         9.54289       -26707554       0.36095399     464217.67     -26243337       1183.4637      1183.4637      1183.4637      1908.2681      3091.7319      1908.2681      3091.7319      1908.2681      3091.7319      1.6575431e+09  0.5            5626100        2.7213555      7740.8542      15481.736      3.7273575    
  11247400   160279.6       10.105035     -26698571       0.36095399     475374.22     -26223197       1183.4637      1183.4637      1183.4637      1908.2681      3091.7319      1908.2681      3091.7319      1908.2681      3091.7319      1.6575431e+09  0.5            5626200        2.7345754      7564.348       15128.765      3.714898     
  11247600   163575.12      10.438071     -26706255       0.36095399     485148.43     -26221107       1183.4637      1183.4637      1183.4637      1908.2681      3091.7319      1908.2681      3091.7319      1908.2681      3091.7319      1.6575431e+09  0.5            5626300        2.747541       7712.6977      15425.422      3.702089     
  11247800   156853.39      10.227456     -26695415       0.36095399     465212.42     -26230203       1183.4637      1183.4637      1183.4637      1908.2681      3091.7319      1908.2681      3091.7319      1908.2681      3091.7319      1.6575431e+09  0.5            5626400        2.7607515      7569.7236      15139.404      3.6896057    
  11248000   151931.95      9.60466       -26708689       0.36095399     450615.88     -26258073       1183.4637      1183.4637      1183.4637      1908.2681      3091.7319      1908.2681      3091.7319      1908.2681      3091.7319      1.6575431e+09  0.5            5626500        2.7737352      7701.9855      15404.11       3.6768147    
  11248200   159260.71      10.250043     -26699878       0.36095399     472352.3      -26227526       1183.4637      1183.4637      1183.4637      1908.2681      3091.7319      1908.2681      3091.7319      1908.2681      3091.7319      1.6575431e+09  0.5            5626600        2.7868513      7624.2501      15248.417      3.6641964    
  11248400   162521.6       10.724129     -26705811       0.36095399     482023.8      -26223787       1183.4637      1183.4637      1183.4637      1908.2681      3091.7319      1908.2681      3091.7319      1908.2681      3091.7319      1.6575431e+09  0.5            5626700        2.8001981      7492.3866      14984.78       3.6518743    
  11248600   161132.15      10.872042     -26704376       0.36095399     477902.8      -26226473       1183.4637      1183.4637      1183.4637      1908.2681      3091.7319      1908.2681      3091.7319      1908.2681      3091.7319      1.6575431e+09  0.5            5626800        2.8131796      7703.2961      15406.608      3.6390702    
  11248800   160322.36      10.943514     -26688175       0.36095399     475501.06     -26212674       1183.4637      1183.4637      1183.4637      1908.2681      3091.7319      1908.2681      3091.7319      1908.2681      3091.7319      1.6575431e+09  0.5            5626900        2.8261475      7711.369       15422.651      3.6262471    
  11249000   165814.77      11.481651     -26688573       0.36095399     491791.01     -26196782       1183.4637      1183.4637      1183.4637      1908.2681      3091.7319      1908.2681      3091.7319      1908.2681      3091.7319      1.6575431e+09  0.5            5627000        2.839369       7563.4195      15126.878      3.6137453    
  11249200   171231.47      11.934633     -26709111       0.36095399     507856.44     -26201254       1183.4637      1183.4637      1183.4637      1908.2681      3091.7319      1908.2681      3091.7319      1908.2681      3091.7319      1.6575431e+09  0.5            5627100        2.852383       7684.0527      15368.102      3.600975     
  11249400   162873.59      11.017365     -26700425       0.36095399     483067.77     -26217357       1183.4637      1183.4637      1183.4637      1908.2681      3091.7319      1908.2681      3091.7319      1908.2681      3091.7319      1.6575431e+09  0.5            5627200        2.8656129      7558.5836      15117.192      3.5884732    
  11249600   158987.39      10.470342     -26720509       0.36095399     471541.65     -26248968       1183.4637      1183.4637      1183.4637      1908.2681      3091.7319      1908.2681      3091.7319      1908.2681      3091.7319      1.6575431e+09  0.5            5627300        2.8786538      7668.21        15336.365      3.5757299    
  11249800   163256.93      10.734176     -26718764       0.36095399     484204.7      -26234559       1183.4637      1183.4637      1183.4637      1908.2681      3091.7319      1908.2681      3091.7319      1908.2681      3091.7319      1.6575431e+09  0.5            5627400        2.8919881      7499.4861      14999.037      3.5633452    
[...]
  11894400   308.94658      0.27994489    -28845908       0.37896948     916.30651     -28844992       1164.4052      1164.4052      1164.4052      1917.7974      3082.2026      1917.7974      3082.2026      1917.7974      3082.2026      1.5787467e+09  0.5            5949700        26.248504      5543.3645      11086.8        0.96141733   
  11894600   309.15424      1.9617925     -28846014       0.3790399      916.92242     -28845097       1164.3331      1164.3331      1164.3331      1917.8334      3082.1666      1917.8334      3082.1666      1917.8334      3082.1666      1.5784534e+09  0.5            5949800        26.266558      5539.0928      11078.151      0.94327427   
  11894800   309.26978      0.85159271    -28846129       0.37900686     917.26509     -28845212       1164.367       1164.367       1164.367       1917.8165      3082.1835      1917.8165      3082.1835      1917.8165      3082.1835      1.578591e+09   0.5            5949900        26.284455      5587.6086      11175.255      0.92512583   
  11895000   309.16672      0.27163672    -28846241       0.37899291     916.95943     -28845324       1164.3812      1164.3812      1164.3812      1917.8094      3082.1906      1917.8094      3082.1906      1917.8094      3082.1906      1.5786491e+09  0.5            5950000        26.302439      5560.4713      11120.833      0.90698074   
  11895200   309.01781      1.3458388     -28846350       0.37903937     916.51778     -28845433       1164.3337      1164.3337      1164.3337      1917.8332      3082.1668      1917.8332      3082.1668      1917.8332      3082.1668      1.5784556e+09  0.5            5950100        26.320891      5419.3522      10838.734      0.88885169   
  11895400   308.91393      1.5985331     -28846459       0.3790553      916.20968     -28845543       1164.3174      1164.3174      1164.3174      1917.8413      3082.1587      1917.8413      3082.1587      1917.8413      3082.1587      1.5783893e+09  0.5            5950200        26.338956      5535.7416      11071.516      0.87070937   
  11895600   308.88444      0.77617554    -28846571       0.37903145     916.1222      -28845655       1164.3418      1164.3418      1164.3418      1917.8291      3082.1709      1917.8291      3082.1709      1917.8291      3082.1709      1.5784886e+09  0.5            5950300        26.356858      5585.8264      11171.648      0.85256192   
  11895800   308.85763      0.49277825    -28846680       0.37902767     916.04269     -28845764       1164.3457      1164.3457      1164.3457      1917.8272      3082.1728      1917.8272      3082.1728      1917.8272      3082.1728      1.5785043e+09  0.5            5950400        26.374937      5531.1989      11062.379      0.83442039   
  11896000   308.79952      1.376448      -28846787       0.37906772     915.87036     -28845871       1164.3046      1164.3046      1164.3046      1917.8477      3082.1523      1917.8477      3082.1523      1917.8477      3082.1523      1.5783375e+09  0.5            5950500        26.393022      5529.584       11059.174      0.81627911   
  11896200   308.9046       1.0556624     -28846896       0.37906403     916.18201     -28845980       1164.3084      1164.3084      1164.3084      1917.8458      3082.1542      1917.8458      3082.1542      1917.8458      3082.1542      1.5783529e+09  0.5            5950600        26.411239      5489.4031      10978.781      0.79814192   
  11896400   309.07501      0.63581649    -28847006       0.37905687     916.68742     -28846089       1164.3158      1164.3158      1164.3158      1917.8421      3082.1579      1917.8421      3082.1579      1917.8421      3082.1579      1.5783827e+09  0.5            5950700        26.429356      5519.6816      11039.399      0.78000166   
  11896600   309.1311       1.4668084     -28847113       0.37909589     916.85377     -28846197       1164.2758      1164.2758      1164.2758      1917.8621      3082.1379      1917.8621      3082.1379      1917.8621      3082.1379      1.5782203e+09  0.5            5950800        26.447421      5535.5053      11070.989      0.76185994   
  11896800   309.04991      0.67385439    -28847225       0.37907425     916.61299     -28846308       1164.298       1164.298       1164.298       1917.851       3082.149       1917.851       3082.149       1917.851       3082.149       1.5783104e+09  0.5            5950900        26.465344      5579.4576      11158.977      0.74371433   
  11897000   308.97457      0.99655248    -28847334       0.37909382     916.38954     -28846418       1164.2779      1164.2779      1164.2779      1917.861       3082.139       1917.861       3082.139       1917.861       3082.139       1.5782289e+09  0.5            5951000        26.483372      5546.903       11093.76       0.72557191   
  11897200   308.99097      1.3411657     -28847443       0.3791138      916.43816     -28846526       1164.2575      1164.2575      1164.2575      1917.8713      3082.1287      1917.8713      3082.1287      1917.8713      3082.1287      1.5781457e+09  0.5            5951100        26.501524      5509.0597      11018.11       0.70743295   
  11897400   308.94077      0.58646168    -28847554       0.37909263     916.28927     -28846638       1164.2791      1164.2791      1164.2791      1917.8604      3082.1396      1917.8604      3082.1396      1917.8604      3082.1396      1.5782338e+09  0.5            5951200        26.519913      5437.9697      10875.924      0.68930014   
  11897600   308.91498      1.1585632     -28847662       0.37912089     916.21281     -28846746       1164.2502      1164.2502      1164.2502      1917.8749      3082.1251      1917.8749      3082.1251      1917.8749      3082.1251      1.5781162e+09  0.5            5951300        26.537958      5541.7713      11083.63       0.67115826   
  11897800   308.93312      1.2052893     -28847771       0.37912968     916.26658     -28846855       1164.2412      1164.2412      1164.2412      1917.8794      3082.1206      1917.8794      3082.1206      1917.8794      3082.1206      1.5780796e+09  0.5            5951400        26.556409      5419.5939      10839.121      0.65302653   
  11898000   308.85041      0.57339092    -28847881       0.37911303     916.02129     -28846965       1164.2583      1164.2583      1164.2583      1917.8709      3082.1291      1917.8709      3082.1291      1917.8709      3082.1291      1.5781489e+09  0.5            5951500        26.574558      5510.0884      11020.161      0.63488712   
  11898200   308.80874      1.3764764     -28847987       0.37914982     915.8977      -28847071       1164.2206      1164.2206      1164.2206      1917.8897      3082.1103      1917.8897      3082.1103      1917.8897      3082.1103      1.5779958e+09  0.5            5951600        26.592673      5520.38        11040.723      0.61674691   
  11898400   308.81031      0.84435516    -28848097       0.37913739     915.90234     -28847181       1164.2333      1164.2333      1164.2333      1917.8833      3082.1167      1917.8833      3082.1167      1917.8833      3082.1167      1.5780475e+09  0.5            5951700        26.61092       5480.1703      10960.457      0.59860972   
  11898600   308.8981       0.91286862    -28848204       0.37914762     916.16273     -28847288       1164.2229      1164.2229      1164.2229      1917.8886      3082.1114      1917.8886      3082.1114      1917.8886      3082.1114      1.5780049e+09  0.5            5951800        26.629119      5494.8035      10989.555      0.58047132   
  11898800   308.9064       1.3095947     -28848311       0.37916998     916.18734     -28847395       1164.2         1164.2         1164.2         1917.9         3082.1         1917.9         3082.1         1917.9         3082.1         1.5779119e+09  0.5            5951900        26.647072      5570.2387      11140.479      0.56232764   
  11899000   308.79209      0.51964388    -28848421       0.37914824     915.84832     -28847505       1164.2222      1164.2222      1164.2222      1917.8889      3082.1111      1917.8889      3082.1111      1917.8889      3082.1111      1.5780024e+09  0.5            5952000        26.665083      5552.0171      11104.084      0.54418543   
  11899200   308.84653      1.6243275     -28848526       0.3791974      916.00978     -28847610       1164.1719      1164.1719      1164.1719      1917.914       3082.086       1917.914       3082.086       1917.914       3082.086       1.5777978e+09  0.5            5952100        26.683248      5505.0501      11010.033      0.52604642   
  11899400   308.86988      0.23186928    -28848636       0.37915307     916.07904     -28847720       1164.2173      1164.2173      1164.2173      1917.8914      3082.1086      1917.8914      3082.1086      1917.8914      3082.1086      1.5779823e+09  0.5            5952200        26.701373      5517.456       11034.888      0.5079066    
  11899600   308.85772      1.908242      -28848740       0.37922302     916.04296     -28847824       1164.1457      1164.1457      1164.1457      1917.9272      3082.0728      1917.9272      3082.0728      1917.9272      3082.0728      1.5776912e+09  0.5            5952300        26.719708      5454.0523      10908.136      0.48977066   
  11899800   308.76245     -0.029620928   -28848851       0.37915798     915.76039     -28847935       1164.2122      1164.2122      1164.2122      1917.8939      3082.1061      1917.8939      3082.1061      1917.8939      3082.1061      1.5779618e+09  0.5            5952400        26.737768      5536.9952      11073.98       0.47162961   
  11900000   308.79898      2.1431551     -28848953       0.37924665     915.86873     -28848037       1164.1215      1164.1215      1164.1215      1917.9392      3082.0608      1917.9392      3082.0608      1917.9392      3082.0608      1.5775929e+09  0.5            5952500        26.758695      4778.6039      9557.2376      0.45353724   
  11900200   308.72441     -0.24776305    -28849066       0.37916394     915.64759     -28848150       1164.2061      1164.2061      1164.2061      1917.8969      3082.1031      1917.8969      3082.1031      1917.8969      3082.1031      1.577937e+09   0.5            5952600        26.776779      5529.4868      11058.923      0.43539483   
  11900400   308.66346      2.2953146     -28849166       0.37926617     915.46681     -28848250       1164.1015      1164.1015      1164.1015      1917.9492      3082.0508      1917.9492      3082.0508      1917.9492      3082.0508      1.5775117e+09  0.5            5952700        26.794777      5556.41        11112.86       0.41725114   
  11900600   308.62972     -0.00021161311 -28849278       0.37918751     915.36675     -28848362       1164.182       1164.182       1164.182       1917.909       3082.091       1917.909       3082.091       1917.909       3082.091       1.5778389e+09  0.5            5952800        26.812842      5535.627       11071.278      0.39910864   
  11900800   308.81017      1.0060011     -28849383       0.37923343     915.90193     -28848467       1164.135       1164.135       1164.135       1917.9325      3082.0675      1917.9325      3082.0675      1917.9325      3082.0675      1.5776479e+09  0.5            5952900        26.830803      5567.6206      11135.259      0.38096478   
  11901000   308.86942      2.045883      -28849486       0.37928044     916.07767     -28848570       1164.0869      1164.0869      1164.0869      1917.9565      3082.0435      1917.9565      3082.0435      1917.9565      3082.0435      1.5774523e+09  0.5            5953000        26.84872       5581.0532      11162.067      0.36282058   
  11901200   308.7558      -0.23154595    -28849598       0.37920216     915.74069     -28848682       1164.167       1164.167       1164.167       1917.9165      3082.0835      1917.9165      3082.0835      1917.9165      3082.0835      1.577778e+09   0.5            5953100        26.866808      5528.6021      11057.197      0.34467887   
  11901400   308.70677     -0.081740363   -28849704       0.37921552     915.59525     -28848789       1164.1534      1164.1534      1164.1534      1917.9233      3082.0767      1917.9233      3082.0767      1917.9233      3082.0767      1.5777224e+09  0.5            5953200        26.884899      5527.6083      11055.19       0.32653727   
  11901600   308.79099      1.982598      -28857184       0.37930438     915.84506     -28856268       1164.0624      1164.0624      1164.0624      1917.9688      3082.0312      1917.9688      3082.0312      1917.9688      3082.0312      1.5773528e+09  0.5            5953300        26.902934      5544.6498      11089.285      0.3083951    
  11901800   308.79354      0.11646113    -28857295       0.37924212     915.85262     -28856379       1164.1261      1164.1261      1164.1261      1917.9369      3082.0631      1917.9369      3082.0631      1917.9369      3082.0631      1.5776117e+09  0.5            5953400        26.921408      5413.0961      10826.216      0.2902578    
  11902000   308.77699      1.3412944     -28857400       0.37929652     915.80353     -28856484       1164.0705      1164.0705      1164.0705      1917.9648      3082.0352      1917.9648      3082.0352      1917.9648      3082.0352      1.5773855e+09  0.5            5953500        26.939508      5525.0087      11049.948      0.27211627   
  11902200   308.80919      1.1503021     -28857508       0.37929793     915.89902     -28856592       1164.069       1164.069       1164.069       1917.9655      3082.0345      1917.9655      3082.0345      1917.9655      3082.0345      1.5773796e+09  0.5            5953600        26.957722      5490.1972      10980.396      0.25397587   
  11902400   308.86929      0.57331963    -28857616       0.37928524     916.07729     -28856700       1164.082       1164.082       1164.082       1917.959       3082.041       1917.959       3082.041       1917.959       3082.041       1.5774324e+09  0.5            5953700        26.975697      5563.2328      11126.515      0.23583329   
  11902600   308.92841      1.4975586     -28857722       0.37932886     916.25264     -28856805       1164.0374      1164.0374      1164.0374      1917.9813      3082.0187      1917.9813      3082.0187      1917.9813      3082.0187      1.577251e+09   0.5            5953800        26.993716      5549.5956      11099.199      0.21769128   
  11902800   308.86162      0.52114283    -28857832       0.37930083     916.05452     -28856916       1164.0661      1164.0661      1164.0661      1917.967       3082.033       1917.967       3082.033       1917.967       3082.033       1.5773675e+09  0.5            5953900        27.011814      5525.5588      11051.181      0.19955002   
  11903000   308.8501       0.76268286    -28850561       0.37931501     916.02037     -28849645       1164.0516      1164.0516      1164.0516      1917.9742      3082.0258      1917.9742      3082.0258      1917.9742      3082.0258      1.5773086e+09  0.5            5954000        27.029897      5530.229       11052.487      0.18140881   
  11903200   308.91097      1.2907092     -28850668       0.37934291     916.20089     -28849752       1164.023       1164.023       1164.023       1917.9885      3082.0115      1917.9885      3082.0115      1917.9885      3082.0115      1.5771926e+09  0.5            5954100        27.047935      5543.7655      11095.459      0.16326723   
  11903400   308.94015      0.64259362    -28850778       0.37932668     916.28744     -28849862       1164.0396      1164.0396      1164.0396      1917.9802      3082.0198      1917.9802      3082.0198      1917.9802      3082.0198      1.57726e+09    0.5            5954200        27.066313      5441.118       10882.204      0.1451277    
  11903600   309.07959      1.3944025     -28851254       0.37936319     916.70102     -28850337       1164.0023      1164.0023      1164.0023      1917.9989      3082.0011      1917.9989      3082.0011      1917.9989      3082.0011      1.5771082e+09  0.5            5954300        27.084344      5545.977       11092.023      0.12698622   
  11903800   309.01647      0.60924902    -28851365       0.37934086     916.51379     -28850448       1164.0251      1164.0251      1164.0251      1917.9874      3082.0126      1917.9874      3082.0126      1917.9874      3082.0126      1.5772011e+09  0.5            5954400        27.102394      5540.3255      11080.679      0.10884497   
  11904000   308.85365      1.1744305     -28851473       0.37936848     916.03089     -28850557       1163.9969      1163.9969      1163.9969      1918.0016      3081.9984      1918.0016      3081.9984      1918.0016      3081.9984      1.5770863e+09  0.5            5954500        27.120928      5395.5261      10790.96       0.090705455  
  11904200   308.8522       1.1847579     -28851581       0.3793755      916.0266      -28850665       1163.9897      1163.9897      1163.9897      1918.0051      3081.9949      1918.0051      3081.9949      1918.0051      3081.9949      1.5770571e+09  0.5            5954600        27.138993      5535.377       11070.791      0.072564161  
  11904400   308.91044      0.54734576    -28851691       0.37935847     916.19931     -28850775       1164.0071      1164.0071      1164.0071      1917.9964      3082.0036      1917.9964      3082.0036      1917.9964      3082.0036      1.5771279e+09  0.5            5954700        27.156974      5561.503       11123.079      0.054422799  
  11904600   308.95014      1.3419852     -28851798       0.37939454     916.31708     -28850882       1163.9702      1163.9702      1163.9702      1918.0149      3081.9851      1918.0149      3081.9851      1918.0149      3081.9851      1.5769779e+09  0.5            5954800        27.175019      5541.9396      11083.895      0.036281737  
  11904800   308.88782      0.96282589    -28851908       0.37938682     916.13224     -28850992       1163.9781      1163.9781      1163.9781      1918.0109      3081.9891      1918.0109      3081.9891      1918.0109      3081.9891      1.57701e+09    0.5            5954900        27.192961      5573.2224      11146.459      0.018140737  
  11905000   308.75142      1.2129712     -28859393       0.37940551     915.72769     -28858477       1163.959       1163.959       1163.959       1918.0205      3081.9795      1918.0205      3081.9795      1918.0205      3081.9795      1.5769323e+09  0.5            5955000        27.21112       5507.1605      11014.323      0            
Loop time of 27.2112 on 4 procs for 300000 steps with 996 atoms

Performance: 476.275 ns/day, 0.050 hours/ns, 11024.880 timesteps/s
99.6% CPU use with 4 MPI tasks x no OpenMP threads

MPI task timing breakdown:
Section |  min time  |  avg time  |  max time  |%varavg| %total
---------------------------------------------------------------
Pair    | 3.5553     | 6.6371     | 14.106     | 168.2 | 24.39
Neigh   | 0.0077257  | 0.014858   | 0.031674   |   8.0 |  0.05
Comm    | 4.9465     | 12.197     | 15.165     | 120.6 | 44.82
Output  | 0.071614   | 0.079345   | 0.096774   |   3.6 |  0.29
Modify  | 5.8018     | 6.2701     | 7.131      |  20.4 | 23.04
Other   |            | 2.013      |            |       |  7.40

Nlocal:            249 ave         438 max         172 min
Histogram: 2 1 0 0 0 0 0 0 0 1
Nghost:         296.75 ave         322 max         249 min
Histogram: 1 0 0 0 0 0 0 1 1 1
Neighs:          915.5 ave        2110 max         441 min
Histogram: 2 1 0 0 0 0 0 0 0 1

Total # of neighbors = 3662
Ave neighs/atom = 3.6767068
Neighbor list builds = 121
Dangerous builds = 25

# run_style
run_style verlet

# write restart
write_restart ${write_res}
write_restart ./pgnpmf/37/equpmf17.res
System init for write_restart ...
Generated 0 of 1 mixed pair_coeff terms from geometric mixing rule

Total wall time: 0:00:54
