LAMMPS (23 Jun 2022 - Update 1)
# Read restart
read_restart ${read_res}
read_restart ./pgnpmf/37/equpmf36.res
Reading restart file ...
  restart file = 23 Jun 2022, LAMMPS = 23 Jun 2022
  restoring atom style atomic from restart
  orthogonal box = (2034.6456 2034.6456 2034.6456) to (2965.3544 2965.3544 2965.3544)
  1 by 2 by 2 MPI processor grid
  restoring pair style table from restart
  996 atoms
  read_restart CPU = 0.006 seconds

# Settings

pair_style table spline 9941

pair_coeff 1 1 ./pgnpmf/N20.txt DE_GNP 75.6
pair_coeff 2 2 ./pgnpmf/N100.txt DE_GNP 115.92
WARNING: 3 of 9941 force values in table DE_GNP are inconsistent with -dE/dr.
WARNING:  Should only be flagged at inflection points (../pair_table.cpp:463)
pair_coeff 1 2 ./pgnpmf/mixed_potential.txt DE_GNP 95.66
WARNING: 1562 of 9941 force values in table DE_GNP are inconsistent with -dE/dr.
WARNING:  Should only be flagged at inflection points (../pair_table.cpp:463)

#Neigh_list Calc Frequency

neigh_modify delay 0 every 1 check yes

# Saving Frequency (50 frames)

variable ts_save equal ${steps_equ}
variable ts_save equal 5000

# Dump
#dump 1 all custom ${ts_save} ./pgnpmf/${folder}/equilibration/trajectory/trajectory_${usic}_${trial}.equ.custom type x y z ix iy iz
#dump_modify 1 first no sort id
dump 2 all cfg 50000 ./pgnpmf/${folder}/equilibration/trajectory/dumpgen.tens_*.cfg mass type xs ys zs fx fy fz
dump 2 all cfg 50000 ./pgnpmf/37/equilibration/trajectory/dumpgen.tens_*.cfg mass type xs ys zs fx fy fz
dump_modify 2 element N20 N100

# thermo_style
thermo_style custom step temp press pe density ke etotal lx ly lz xlo xhi ylo yhi zlo zhi vol dt time cpu tpcpu spcpu cpuremain

# run info
timestep ${ts}
timestep 0.5
thermo 200

# fix

fix 1 all momentum 1000 linear 1 1 1 angular
variable T equal ${temp}
variable T equal 300
fix 2 all nvt temp ${T} 370000 100.0
fix 2 all nvt temp 300 370000 100.0

run 100000
Generated 0 of 1 mixed pair_coeff terms from geometric mixing rule
Unused restart file global fix info:
  fix style: npt, fix ID: 5
Neighbor list info ...
  update every 1 steps, delay 0 steps, check yes
  max neighbors/atom: 2000, page size: 100000
  master list distance cutoff = 117.92
  ghost atom cutoff = 117.92
  binsize = 58.96, bins = 16 16 16
  1 neighbor lists, perpetual/occasional/extra = 1 0 0
  (1) pair table, perpetual
      attributes: half, newton on
      pair build: half/bin/atomonly/newton
      stencil: half/bin/3d
      bin: standard
Per MPI rank memory allocation (min/avg/max) = 3.076 | 3.079 | 3.083 Mbytes
   Step          Temp          Press          PotEng        Density         KinEng         TotEng           Lx             Ly             Lz            Xlo            Xhi            Ylo            Yhi            Zlo            Zhi           Volume           Dt            Time           CPU           T/CPU          S/CPU         CPULeft    
  25205000   307.48697     -0.67051439    -37682695       0.74212205     911.97746     -37681783       930.70872      930.70872      930.70872      2034.6456      2965.3544      2034.6456      2965.3544      2034.6456      2965.3544      8.0619733e+08  0.5            12605000       0              0              0              0            
  25205200   396.79264     -0.86376635    -37682793       0.74212205     1176.8497     -37681616       930.70872      930.70872      930.70872      2034.6456      2965.3544      2034.6456      2965.3544      2034.6456      2965.3544      8.0619733e+08  0.5            12605100       0.019722527    5068.7058      10136.881      9.8457625    
  25205400   591.53349     -1.0735346     -37682908       0.74212205     1754.4327     -37681153       930.70872      930.70872      930.70872      2034.6456      2965.3544      2034.6456      2965.3544      2034.6456      2965.3544      8.0619733e+08  0.5            12605200       0.038676011    5277.6058      10555.14       9.631077     
  25205600   921.59789     -1.4135831     -37683048       0.74212205     2733.3727     -37680314       930.70872      930.70872      930.70872      2034.6456      2965.3544      2034.6456      2965.3544      2034.6456      2965.3544      8.0619733e+08  0.5            12605300       0.057353221    5354.1296      10708.346      9.5019864    
  25205800   1450.8778     -1.8071731     -37683224       0.74212205     4303.1672     -37678921       930.70872      930.70872      930.70872      2034.6456      2965.3544      2034.6456      2965.3544      2034.6456      2965.3544      8.0619733e+08  0.5            12605400       0.076460278    5233.6697      10467.382      9.4814064    
  25206000   2255.4587     -2.4182244     -37683444       0.74212205     6689.4784     -37676755       930.70872      930.70872      930.70872      2034.6456      2965.3544      2034.6456      2965.3544      2034.6456      2965.3544      8.0619733e+08  0.5            12605500       0.095311669    5304.5915      10609.112      9.4361503    
  25206200   3393.1659     -3.1161331     -37691097       0.74212205     10063.811     -37681033       930.70872      930.70872      930.70872      2034.6456      2965.3544      2034.6456      2965.3544      2034.6456      2965.3544      8.0619733e+08  0.5            12605600       0.11544231     4967.5374      9935.0565      9.5050109    
  25206400   4815.2931     -3.5237899     -37691426       0.74212205     14281.707     -37677144       930.70872      930.70872      930.70872      2034.6456      2965.3544      2034.6456      2965.3544      2034.6456      2965.3544      8.0619733e+08  0.5            12605700       0.13430232     5302.3152      10604.654      9.4589131    
  25206600   6270.0817     -4.2497874     -37699183       0.74212205     18596.473     -37680587       930.70872      930.70872      930.70872      2034.6456      2965.3544      2034.6456      2965.3544      2034.6456      2965.3544      8.0619733e+08  0.5            12605800       0.15310734     5317.77        10635.499      9.4162681    
  25206800   7306.9803     -5.1613592     -37699594       0.74212205     21671.817     -37677923       930.70872      930.70872      930.70872      2034.6456      2965.3544      2034.6456      2965.3544      2034.6456      2965.3544      8.0619733e+08  0.5            12605900       0.1721589      5248.887       10497.775      9.3923758    
  25207000   7717.8874     -6.2454388     -37700017       0.74212205     22890.529     -37677127       930.70872      930.70872      930.70872      2034.6456      2965.3544      2034.6456      2965.3544      2034.6456      2965.3544      8.0619733e+08  0.5            12606000       0.19150744     5168.3409      10336.74       9.3840005    
  25207200   8090.3742     -6.9678825     -37700434       0.74212205     23995.289     -37676439       930.70872      930.70872      930.70872      2034.6456      2965.3544      2034.6456      2965.3544      2034.6456      2965.3544      8.0619733e+08  0.5            12606100       0.21036996     5301.5711      10603.105      9.3520178    
  25207400   9036.9037     -7.6867379     -37698957       0.74212205     26802.607     -37672155       930.70872      930.70872      930.70872      2034.6456      2965.3544      2034.6456      2965.3544      2034.6456      2965.3544      8.0619733e+08  0.5            12606200       0.22916472     5320.6294      10641.294      9.3194656    
  25207600   10187.195     -8.4445318     -37699390       0.74212205     30214.264     -37669176       930.70872      930.70872      930.70872      2034.6456      2965.3544      2034.6456      2965.3544      2034.6456      2965.3544      8.0619733e+08  0.5            12606300       0.24791437     5333.4386      10666.904      9.2873418    
  25207800   10863.003     -9.3848272     -37699813       0.74212205     32218.646     -37667595       930.70872      930.70872      930.70872      2034.6456      2965.3544      2034.6456      2965.3544      2034.6456      2965.3544      8.0619733e+08  0.5            12606400       0.26700159     5239.0569      10478.047      9.2688668    
  25208000   11185.929     -10.765014     -37700230       0.74212205     33176.414     -37667053       930.70872      930.70872      930.70872      2034.6456      2965.3544      2034.6456      2965.3544      2034.6456      2965.3544      8.0619733e+08  0.5            12606500       0.28643461     5145.9089      10291.862      9.2614746    
  25208200   11860.435     -11.65354      -37700636       0.74212205     35176.935     -37665459       930.70872      930.70872      930.70872      2034.6456      2965.3544      2034.6456      2965.3544      2034.6456      2965.3544      8.0619733e+08  0.5            12606600       0.30608301     5089.4644      10178.933      9.2590895    
  25208400   12991.413     -12.332251     -37701016       0.74212205     38531.309     -37662484       930.70872      930.70872      930.70872      2034.6456      2965.3544      2034.6456      2965.3544      2034.6456      2965.3544      8.0619733e+08  0.5            12606700       0.32499167     5288.6002      10577.206      9.233657     
  25208600   13921.29      -13.260732     -37703281       0.74212205     41289.237     -37661992       930.70872      930.70872      930.70872      2034.6456      2965.3544      2034.6456      2965.3544      2034.6456      2965.3544      8.0619733e+08  0.5            12606800       0.34417171     5213.6763      10427.35       9.2162316    
  25208800   14330.531     -14.902204     -37718395       0.74212205     42503.007     -37675892       930.70872      930.70872      930.70872      2034.6456      2965.3544      2034.6456      2965.3544      2034.6456      2965.3544      8.0619733e+08  0.5            12606900       0.36288526     5343.8175      10687.576      9.1867915    
  25209000   14769.153     -15.427606     -37718719       0.74212205     43803.919     -37674915       930.70872      930.70872      930.70872      2034.6456      2965.3544      2034.6456      2965.3544      2034.6456      2965.3544      8.0619733e+08  0.5            12607000       0.38234996     5137.5125      10275.037      9.1764588    
  25209200   15749.43      -16.1801       -37719009       0.74212205     46711.329     -37672298       930.70872      930.70872      930.70872      2034.6456      2965.3544      2034.6456      2965.3544      2034.6456      2965.3544      8.0619733e+08  0.5            12607100       0.40121723     5300.1339      10600.274      9.1516336    
  25209400   16868.265     -16.753483     -37711892       0.74212205     50029.689     -37661862       930.70872      930.70872      930.70872      2034.6456      2965.3544      2034.6456      2965.3544      2034.6456      2965.3544      8.0619733e+08  0.5            12607200       0.42055534     5171.1511      10342.266      9.13758      
  25209600   17481.764     -17.598486     -37726869       0.74212205     51849.27      -37675020       930.70872      930.70872      930.70872      2034.6456      2965.3544      2034.6456      2965.3544      2034.6456      2965.3544      8.0619733e+08  0.5            12607300       0.43936736     5315.7562      10631.381      9.1121563    
  25209800   17795.275     -18.19919      -37732523       0.74212205     52779.113     -37679744       930.70872      930.70872      930.70872      2034.6456      2965.3544      2034.6456      2965.3544      2034.6456      2965.3544      8.0619733e+08  0.5            12607400       0.45823278     5300.7         10601.526      9.0883354    
  25210000   18534.658     -18.627202     -37725287       0.74212205     54972.054     -37670315       930.70872      930.70872      930.70872      2034.6456      2965.3544      2034.6456      2965.3544      2034.6456      2965.3544      8.0619733e+08  0.5            12607500       0.47759483     5164.7434      10329.582      9.0743484    
  25210200   19704.828     -19.020378     -37730880       0.74212205     58442.668     -37672437       930.70872      930.70872      930.70872      2034.6456      2965.3544      2034.6456      2965.3544      2034.6456      2965.3544      8.0619733e+08  0.5            12607600       0.49668191     5239.1548      10478.334      9.0549372    
  25210400   20577.552     -19.366164     -37730955       0.74212205     61031.086     -37669924       930.70872      930.70872      930.70872      2034.6456      2965.3544      2034.6456      2965.3544      2034.6456      2965.3544      8.0619733e+08  0.5            12607700       0.51556528     5295.6601      10591.261      9.0319843    
  25210600   20924.38      -20.018375     -37730993       0.74212205     62059.744     -37668934       930.70872      930.70872      930.70872      2034.6456      2965.3544      2034.6456      2965.3544      2034.6456      2965.3544      8.0619733e+08  0.5            12607800       0.53444122     5297.7547      10595.529      9.0091942    
  25210800   21408.642     -20.484122     -37731006       0.74212205     63496.02      -37667510       930.70872      930.70872      930.70872      2034.6456      2965.3544      2034.6456      2965.3544      2034.6456      2965.3544      8.0619733e+08  0.5            12607900       0.55303085     5379.3383      10758.667      8.9820251    
  25211000   22465.872     -21.193053     -37738364       0.74212205     66631.664     -37671732       930.70872      930.70872      930.70872      2034.6456      2965.3544      2034.6456      2965.3544      2034.6456      2965.3544      8.0619733e+08  0.5            12608000       0.57256636     5118.8856      10237.819      8.9702447    
  25211200   23563.858     -21.917427     -37740215       0.74212205     69888.188     -37670327       930.70872      930.70872      930.70872      2034.6456      2965.3544      2034.6456      2965.3544      2034.6456      2965.3544      8.0619733e+08  0.5            12608100       0.59140169     5309.1812      10618.322      8.9473727    
  25211400   24095.686     -22.911917     -37740150       0.74212205     71465.541     -37668684       930.70872      930.70872      930.70872      2034.6456      2965.3544      2034.6456      2965.3544      2034.6456      2965.3544      8.0619733e+08  0.5            12608200       0.61043602     5253.667       10507.317      8.9276628    
  25211600   24409.376     -23.670281     -37747449       0.74212205     72395.915     -37675053       930.70872      930.70872      930.70872      2034.6456      2965.3544      2034.6456      2965.3544      2034.6456      2965.3544      8.0619733e+08  0.5            12608300       0.62942629     5265.8385      10531.726      8.9073705    
  25211800   25229.984     -24.195336     -37749259       0.74212205     74829.762     -37674429       930.70872      930.70872      930.70872      2034.6456      2965.3544      2034.6456      2965.3544      2034.6456      2965.3544      8.0619733e+08  0.5            12608400       0.64863433     5206.1329      10412.265      8.8901409    
  25212000   26427.625     -24.78501      -37751066       0.74212205     78381.851     -37672684       930.70872      930.70872      930.70872      2034.6456      2965.3544      2034.6456      2965.3544      2034.6456      2965.3544      8.0619733e+08  0.5            12608500       0.67196682     4285.8989      8571.7751      8.9275917    
  25212200   27229.665     -25.124231     -37750980       0.74212205     80760.625     -37670219       930.70872      930.70872      930.70872      2034.6456      2965.3544      2034.6456      2965.3544      2034.6456      2965.3544      8.0619733e+08  0.5            12608600       0.6909105      5278.7385      10557.495      8.9051029    
  25212400   27523.093     -25.790852     -37750893       0.74212205     81630.907     -37669262       930.70872      930.70872      930.70872      2034.6456      2965.3544      2034.6456      2965.3544      2034.6456      2965.3544      8.0619733e+08  0.5            12608700       0.70971961     5316.6057      10633.174      8.8811186    
  25212600   28061.268     -26.511548     -37741540       0.74212205     83227.084     -37658313       930.70872      930.70872      930.70872      2034.6456      2965.3544      2034.6456      2965.3544      2034.6456      2965.3544      8.0619733e+08  0.5            12608800       0.730358       4845.3376      9690.6817      8.8796482    
  25212800   29197.984     -27.108958     -37734098       0.74212205     86598.475     -37647500       930.70872      930.70872      930.70872      2034.6456      2965.3544      2034.6456      2965.3544      2034.6456      2965.3544      8.0619733e+08  0.5            12608900       0.74927969     5284.953       10569.88       8.8569015    
  25213000   30266.584     -27.639898     -37726680       0.74212205     89767.844     -37636912       930.70872      930.70872      930.70872      2034.6456      2965.3544      2034.6456      2965.3544      2034.6456      2965.3544      8.0619733e+08  0.5            12609000       0.76819768     5285.9777      10572.065      8.8343007    
  25213200   30705.945     -28.251767     -37726661       0.74212205     91070.946     -37635591       930.70872      930.70872      930.70872      2034.6456      2965.3544      2034.6456      2965.3544      2034.6456      2965.3544      8.0619733e+08  0.5            12609100       0.78790566     5074.0914      10148.15       8.820727     
  25213400   31013.149     -29.04817      -37728557       0.74212205     91982.083     -37636575       930.70872      930.70872      930.70872      2034.6456      2965.3544      2034.6456      2965.3544      2034.6456      2965.3544      8.0619733e+08  0.5            12609200       0.80647247     5385.9693      10771.911      8.7944157    
  25213600   31929.509     -30.098158     -37728587       0.74212205     94699.924     -37633888       930.70872      930.70872      930.70872      2034.6456      2965.3544      2034.6456      2965.3544      2034.6456      2965.3544      8.0619733e+08  0.5            12609300       0.82499494     5398.8509      10797.73       8.7679948    
  25213800   33166.174     -30.927097     -37728634       0.74212205     98367.754     -37630266       930.70872      930.70872      930.70872      2034.6456      2965.3544      2034.6456      2965.3544      2034.6456      2965.3544      8.0619733e+08  0.5            12609400       0.84371928     5340.6117      10681.161      8.744026     
  25214000   33881.11      -31.599189     -37726813       0.74212205     100488.19     -37626325       930.70872      930.70872      930.70872      2034.6456      2965.3544      2034.6456      2965.3544      2034.6456      2965.3544      8.0619733e+08  0.5            12609500       0.86295178     5199.5361      10399.162      8.7254252    
  25214200   34096.255     -32.593718     -37721408       0.74212205     101126.29     -37620282       930.70872      930.70872      930.70872      2034.6456      2965.3544      2034.6456      2965.3544      2034.6456      2965.3544      8.0619733e+08  0.5            12609600       0.88237705     5147.9182      10295.789      8.7087033    
  25214400   34697.827     -33.833719     -37736256       0.74212205     102910.49     -37633345       930.70872      930.70872      930.70872      2034.6456      2965.3544      2034.6456      2965.3544      2034.6456      2965.3544      8.0619733e+08  0.5            12609700       0.90129813     5285.1271      10570.238      8.6870037    
  25214600   35937.159     -34.973112     -37745618       0.74212205     106586.24     -37639032       930.70872      930.70872      930.70872      2034.6456      2965.3544      2034.6456      2965.3544      2034.6456      2965.3544      8.0619733e+08  0.5            12609800       0.9204719      5215.4391      10430.911      8.6678017    
  25214800   36971.627     -35.574486     -37745700       0.74212205     109654.37     -37636045       930.70872      930.70872      930.70872      2034.6456      2965.3544      2034.6456      2965.3544      2034.6456      2965.3544      8.0619733e+08  0.5            12609900       0.93943975     5272.0627      10544.09       8.646707     
  25215000   37283.499     -36.414035     -37751234       0.74212205     110579.35     -37640655       930.70872      930.70872      930.70872      2034.6456      2965.3544      2034.6456      2965.3544      2034.6456      2965.3544      8.0619733e+08  0.5            12610000       0.95809917     5359.2691      10718.578      8.6229144    
  25215200   37583.068     -37.571673     -37758646       0.74212205     111467.85     -37647178       930.70872      930.70872      930.70872      2034.6456      2965.3544      2034.6456      2965.3544      2034.6456      2965.3544      8.0619733e+08  0.5            12610100       0.97750711     5152.5304      10305.026      8.6059176    
  25215400   38634.055     -38.730674     -37758640       0.74212205     114584.97     -37644055       930.70872      930.70872      930.70872      2034.6456      2965.3544      2034.6456      2965.3544      2034.6456      2965.3544      8.0619733e+08  0.5            12610200       0.9968116      5180.1267      10360.293      8.5879386    
  25215600   39922.414     -39.691029     -37751213       0.74212205     118406.13     -37632806       930.70872      930.70872      930.70872      2034.6456      2965.3544      2034.6456      2965.3544      2034.6456      2965.3544      8.0619733e+08  0.5            12610300       1.0157273      5286.6283      10573.192      8.5666275    
  25215800   40514.022     -40.380757     -37751109       0.74212205     120160.78     -37630948       930.70872      930.70872      930.70872      2034.6456      2965.3544      2034.6456      2965.3544      2034.6456      2965.3544      8.0619733e+08  0.5            12610400       1.0344989      5327.2092      10654.435      8.5442153    
  25216000   40639.45      -41.201027     -37750963       0.74212205     120532.79     -37630430       930.70872      930.70872      930.70872      2034.6456      2965.3544      2034.6456      2965.3544      2034.6456      2965.3544      8.0619733e+08  0.5            12610500       1.0537914      5183.3493      10366.701      8.5261509    
  25216200   41352.509     -42.20403      -37753038       0.74212205     122647.66     -37630391       930.70872      930.70872      930.70872      2034.6456      2965.3544      2034.6456      2965.3544      2034.6456      2965.3544      8.0619733e+08  0.5            12610600       1.0730205      5200.4625      10400.905      8.5075385    
  25216400   42739.898     -43.180334     -37760195       0.74212205     126762.52     -37633433       930.70872      930.70872      930.70872      2034.6456      2965.3544      2034.6456      2965.3544      2034.6456      2965.3544      8.0619733e+08  0.5            12610700       1.0919004      5296.6318      10593.257      8.4861932    
  25216600   43691.527     -43.523697     -37759940       0.74212205     129584.96     -37630355       930.70872      930.70872      930.70872      2034.6456      2965.3544      2034.6456      2965.3544      2034.6456      2965.3544      8.0619733e+08  0.5            12610800       1.1124442      4867.6387      9735.2977      8.4776117    
  25216800   43848.734     -44.126886     -37757751       0.74212205     130051.22     -37627700       930.70872      930.70872      930.70872      2034.6456      2965.3544      2034.6456      2965.3544      2034.6456      2965.3544      8.0619733e+08  0.5            12610900       1.1313411      5291.8887      10583.764      8.4563145    
  25217000   44193.267     -44.917126     -37750064       0.74212205     131073.08     -37618991       930.70872      930.70872      930.70872      2034.6456      2965.3544      2034.6456      2965.3544      2034.6456      2965.3544      8.0619733e+08  0.5            12611000       1.1502612      5282.1017      10564.192      8.4353536    
  25217200   45567.684     -45.885147     -37757098       0.74212205     135149.47     -37621949       930.70872      930.70872      930.70872      2034.6456      2965.3544      2034.6456      2965.3544      2034.6456      2965.3544      8.0619733e+08  0.5            12611100       1.1696608      5157.8493      10315.735      8.4177413    
  25217400   46864.725     -46.532943     -37756724       0.74212205     138996.37     -37617728       930.70872      930.70872      930.70872      2034.6456      2965.3544      2034.6456      2965.3544      2034.6456      2965.3544      8.0619733e+08  0.5            12611200       1.1888756      5204.352       10408.57       8.39885      
  25217600   47110.745     -47.309335     -37756334       0.74212205     139726.04     -37616608       930.70872      930.70872      930.70872      2034.6456      2965.3544      2034.6456      2965.3544      2034.6456      2965.3544      8.0619733e+08  0.5            12611300       1.2077012      5311.8965      10623.941      8.3772462    
  25217800   47003.727     -48.212265     -37757818       0.74212205     139408.64     -37618409       930.70872      930.70872      930.70872      2034.6456      2965.3544      2034.6456      2965.3544      2034.6456      2965.3544      8.0619733e+08  0.5            12611400       1.2269359      5198.9398      10397.862      8.3585184    
  25218000   48511.013     -48.960408     -37759270       0.74212205     143879.1      -37615391       930.70872      930.70872      930.70872      2034.6456      2965.3544      2034.6456      2965.3544      2034.6456      2965.3544      8.0619733e+08  0.5            12611500       1.2458708      5281.2635      10562.518      8.3377679    
  25218200   50263.787     -49.201586     -37758783       0.74212205     149077.67     -37609706       930.70872      930.70872      930.70872      2034.6456      2965.3544      2034.6456      2965.3544      2034.6456      2965.3544      8.0619733e+08  0.5            12611600       1.2647692      5291.4418      10582.922      8.3168316    
  25218400   49913.167     -49.824682     -37765641       0.74212205     148037.76     -37617603       930.70872      930.70872      930.70872      2034.6456      2965.3544      2034.6456      2965.3544      2034.6456      2965.3544      8.0619733e+08  0.5            12611700       1.2845012      5067.9174      10135.885      8.3013435    
  25218600   48488.65      -50.700972     -37765099       0.74212205     143812.78     -37621286       930.70872      930.70872      930.70872      2034.6456      2965.3544      2034.6456      2965.3544      2034.6456      2965.3544      8.0619733e+08  0.5            12611800       1.3033561      5303.6606      10607.271      8.2801598    
  25218800   49945.498     -51.047911     -37757163       0.74212205     148133.65     -37609029       930.70872      930.70872      930.70872      2034.6456      2965.3544      2034.6456      2965.3544      2034.6456      2965.3544      8.0619733e+08  0.5            12611900       1.3221964      5307.7759      10615.514      8.2589519    
  25219000   52719.722     -51.003394     -37749163       0.74212205     156361.74     -37592802       930.70872      930.70872      930.70872      2034.6456      2965.3544      2034.6456      2965.3544      2034.6456      2965.3544      8.0619733e+08  0.5            12612000       1.3414794      5185.9258      10371.899      8.2405307    
  25219200   53008.599     -51.867931     -37750392       0.74212205     157218.52     -37593174       930.70872      930.70872      930.70872      2034.6456      2965.3544      2034.6456      2965.3544      2034.6456      2965.3544      8.0619733e+08  0.5            12612100       1.360396       5286.3354      10572.661      8.2198721    
  25219400   52930.028     -52.856803     -37757073       0.74212205     156985.49     -37600088       930.70872      930.70872      930.70872      2034.6456      2965.3544      2034.6456      2965.3544      2034.6456      2965.3544      8.0619733e+08  0.5            12612200       1.3801864      5052.9468      10105.926      8.2044553    
  25219600   54790.416     -53.186988     -37756330       0.74212205     162503.22     -37593827       930.70872      930.70872      930.70872      2034.6456      2965.3544      2034.6456      2965.3544      2034.6456      2965.3544      8.0619733e+08  0.5            12612300       1.3990728      5294.8363      10589.631      8.1836316    
  25219800   56796.985     -53.301524     -37757075       0.74212205     168454.52     -37588621       930.70872      930.70872      930.70872      2034.6456      2965.3544      2034.6456      2965.3544      2034.6456      2965.3544      8.0619733e+08  0.5            12612400       1.417918       5306.3781      10612.761      8.1626228    
  25220000   55451.024     -54.170184     -37748880       0.74212205     164462.52     -37584418       930.70872      930.70872      930.70872      2034.6456      2965.3544      2034.6456      2965.3544      2034.6456      2965.3544      8.0619733e+08  0.5            12612500       1.4371167      5208.7093      10417.424      8.1436748    
  25220200   52810.52      -55.500618     -37755432       0.74212205     156631.04     -37598801       930.70872      930.70872      930.70872      2034.6456      2965.3544      2034.6456      2965.3544      2034.6456      2965.3544      8.0619733e+08  0.5            12612600       1.4559391      5312.8185      10625.636      8.1226206    
  25220400   54932.182     -55.625198     -37756506       0.74212205     162923.69     -37593582       930.70872      930.70872      930.70872      2034.6456      2965.3544      2034.6456      2965.3544      2034.6456      2965.3544      8.0619733e+08  0.5            12612700       1.475154       5204.2791      10408.568      8.1037813    
  25220600   58166.643     -55.807846     -37755660       0.74212205     172516.79     -37583143       930.70872      930.70872      930.70872      2034.6456      2965.3544      2034.6456      2965.3544      2034.6456      2965.3544      8.0619733e+08  0.5            12612800       1.4944677      5177.6874      10355.368      8.0854661    
  25220800   59286.552     -55.692396     -37740033       0.74212205     175838.34     -37564194       930.70872      930.70872      930.70872      2034.6456      2965.3544      2034.6456      2965.3544      2034.6456      2965.3544      8.0619733e+08  0.5            12612900       1.5132854      5314.1446      10628.275      8.0644826    
  25221000   59545.98      -56.266617     -37739175       0.74212205     176607.78     -37562567       930.70872      930.70872      930.70872      2034.6456      2965.3544      2034.6456      2965.3544      2034.6456      2965.3544      8.0619733e+08  0.5            12613000       1.5320095      5340.6898      10681.392      8.0430623    
  25221200   59926.249     -56.595635     -37736418       0.74212205     177735.62     -37558682       930.70872      930.70872      930.70872      2034.6456      2965.3544      2034.6456      2965.3544      2034.6456      2965.3544      8.0619733e+08  0.5            12613100       1.5510489      5252.268       10504.542      8.0233394    
  25221400   61821.06      -56.415947     -37726286       0.74212205     183355.45     -37542931       930.70872      930.70872      930.70872      2034.6456      2965.3544      2034.6456      2965.3544      2034.6456      2965.3544      8.0619733e+08  0.5            12613200       1.569636       5380.0824      10760.183      8.0013269    
  25221600   63456.658     -56.431961     -37719934       0.74212205     188206.48     -37531728       930.70872      930.70872      930.70872      2034.6456      2965.3544      2034.6456      2965.3544      2034.6456      2965.3544      8.0619733e+08  0.5            12613300       1.5890729      5144.8454      10289.704      7.9836673    
  25221800   61920.692     -57.382638     -37726437       0.74212205     183650.95     -37542786       930.70872      930.70872      930.70872      2034.6456      2965.3544      2034.6456      2965.3544      2034.6456      2965.3544      8.0619733e+08  0.5            12613400       1.6076055      5395.9208      10791.754      7.9614871    
  25222000   59035.766     -59.063903     -37732962       0.74212205     175094.53     -37557868       930.70872      930.70872      930.70872      2034.6456      2965.3544      2034.6456      2965.3544      2034.6456      2965.3544      8.0619733e+08  0.5            12613500       1.6261477      5393.1178      10786.264      7.9394386    
  25222200   62515.069     -58.927682     -37739503       0.74212205     185413.82     -37554090       930.70872      930.70872      930.70872      2034.6456      2965.3544      2034.6456      2965.3544      2034.6456      2965.3544      8.0619733e+08  0.5            12613600       1.6449176      5327.6721      10655.367      7.9185683    
  25222400   64575.79      -58.949769     -37738633       0.74212205     191525.72     -37547107       930.70872      930.70872      930.70872      2034.6456      2965.3544      2034.6456      2965.3544      2034.6456      2965.3544      8.0619733e+08  0.5            12613700       1.6634278      5402.4399      10804.848      7.8965132    
  25222600   65553.622     -59.67812      -37747026       0.74212205     194425.88     -37552600       930.70872      930.70872      930.70872      2034.6456      2965.3544      2034.6456      2965.3544      2034.6456      2965.3544      8.0619733e+08  0.5            12613800       1.683006       5107.6783      10215.39       7.8795394    
  25222800   66536.938     -60.145567     -37747992       0.74212205     197342.3      -37550650       930.70872      930.70872      930.70872      2034.6456      2965.3544      2034.6456      2965.3544      2034.6456      2965.3544      8.0619733e+08  0.5            12613900       1.7014607      5418.6891      10837.362      7.8573183    
  25223000   67733.257     -60.294323     -37747380       0.74212205     200890.47     -37546490       930.70872      930.70872      930.70872      2034.6456      2965.3544      2034.6456      2965.3544      2034.6456      2965.3544      8.0619733e+08  0.5            12614000       1.7206707      5205.624       10411.215      7.8386222    
  25223200   69050.961     -60.071716     -37748240       0.74212205     204798.66     -37543441       930.70872      930.70872      930.70872      2034.6456      2965.3544      2034.6456      2965.3544      2034.6456      2965.3544      8.0619733e+08  0.5            12614100       1.7393897      5342.1554      10684.192      7.8177089    
  25223400   68959.154     -60.267294     -37747155       0.74212205     204526.37     -37542629       930.70872      930.70872      930.70872      2034.6456      2965.3544      2034.6456      2965.3544      2034.6456      2965.3544      8.0619733e+08  0.5            12614200       1.7582276      5308.4516      10616.97       7.7973687    
  25223600   67202.233     -61.063887     -37749819       0.74212205     199315.51     -37550504       930.70872      930.70872      930.70872      2034.6456      2965.3544      2034.6456      2965.3544      2034.6456      2965.3544      8.0619733e+08  0.5            12614300       1.7780873      5035.3038      10070.669      7.7815329    
  25223800   68207.857     -61.248974     -37741286       0.74212205     202298.09     -37538988       930.70872      930.70872      930.70872      2034.6456      2965.3544      2034.6456      2965.3544      2034.6456      2965.3544      8.0619733e+08  0.5            12614400       1.7968819      5320.699       10641.323      7.7610113    
  25224000   71864.481     -61.024709     -37732688       0.74212205     213143.3      -37519545       930.70872      930.70872      930.70872      2034.6456      2965.3544      2034.6456      2965.3544      2034.6456      2965.3544      8.0619733e+08  0.5            12614500       1.8161029      5202.6251      10405.374      7.7423438    
  25224200   71728.988     -60.730699     -37731417       0.74212205     212741.43     -37518676       930.70872      930.70872      930.70872      2034.6456      2965.3544      2034.6456      2965.3544      2034.6456      2965.3544      8.0619733e+08  0.5            12614600       1.834965       5301.6153      10603.112      7.7221556    
  25224400   70696.884     -61.584624     -37737503       0.74212205     209680.31     -37527823       930.70872      930.70872      930.70872      2034.6456      2965.3544      2034.6456      2965.3544      2034.6456      2965.3544      8.0619733e+08  0.5            12614700       1.8541942      5200.4454      10400.949      7.7035182    
  25224600   73117.111     -61.358138     -37745481       0.74212205     216858.48     -37528622       930.70872      930.70872      930.70872      2034.6456      2965.3544      2034.6456      2965.3544      2034.6456      2965.3544      8.0619733e+08  0.5            12614800       1.873135       5279.6287      10559.25       7.6836865    
  25224800   76236.207     -61.209023     -37746049       0.74212205     226109.42     -37519940       930.70872      930.70872      930.70872      2034.6456      2965.3544      2034.6456      2965.3544      2034.6456      2965.3544      8.0619733e+08  0.5            12614900       1.8926395      5127.0304      10254.037      7.6661559    
  25225000   73919.966     -61.567883     -37752084       0.74212205     219239.67     -37532844       930.70872      930.70872      930.70872      2034.6456      2965.3544      2034.6456      2965.3544      2034.6456      2965.3544      8.0619733e+08  0.5            12615000       1.9116295      5265.9336      10531.879      7.6465277    
  25225200   72239.897     -61.956345     -37743411       0.74212205     214256.75     -37529154       930.70872      930.70872      930.70872      2034.6456      2965.3544      2034.6456      2965.3544      2034.6456      2965.3544      8.0619733e+08  0.5            12615100       1.9306481      5257.9921      10515.855      7.6270266    
  25225400   76929.548     -61.455737     -37740257       0.74212205     228165.81     -37512091       930.70872      930.70872      930.70872      2034.6456      2965.3544      2034.6456      2965.3544      2034.6456      2965.3544      8.0619733e+08  0.5            12615200       1.9499602      5178.0989      10356.35       7.6086781    
  25225600   78157.432     -60.899551     -37731621       0.74212205     231807.6      -37499813       930.70872      930.70872      930.70872      2034.6456      2965.3544      2034.6456      2965.3544      2034.6456      2965.3544      8.0619733e+08  0.5            12615300       1.9688353      5297.9891      10595.887      7.588628     
  25225800   76060.45      -61.88444      -37751031       0.74212205     225588.15     -37525443       930.70872      930.70872      930.70872      2034.6456      2965.3544      2034.6456      2965.3544      2034.6456      2965.3544      8.0619733e+08  0.5            12615400       1.9885884      5062.5024      10125.109      7.5719417    
  25226000   75957.431     -62.234527     -37742521       0.74212205     225282.6      -37517238       930.70872      930.70872      930.70872      2034.6456      2965.3544      2034.6456      2965.3544      2034.6456      2965.3544      8.0619733e+08  0.5            12615500       2.007438       5305.127       10603.598      7.5518446    
  25226200   80337.601     -61.621034     -37741399       0.74212205     238273.77     -37503126       930.70872      930.70872      930.70872      2034.6456      2965.3544      2034.6456      2965.3544      2034.6456      2965.3544      8.0619733e+08  0.5            12615600       2.0266517      5204.6494      10415.707      7.533035     
  25226400   80851.91      -61.217798     -37734813       0.74212205     239799.16     -37495014       930.70872      930.70872      930.70872      2034.6456      2965.3544      2034.6456      2965.3544      2034.6456      2965.3544      8.0619733e+08  0.5            12615700       2.0452676      5371.7547      10743.431      7.5120672    
  25226600   79248.85      -62.09929      -37735619       0.74212205     235044.64     -37500574       930.70872      930.70872      930.70872      2034.6456      2965.3544      2034.6456      2965.3544      2034.6456      2965.3544      8.0619733e+08  0.5            12615800       2.0644168      5222.1211      10444.272      7.4930778    
  25226800   79519.385     -62.395819     -37734550       0.74212205     235847.02     -37498703       930.70872      930.70872      930.70872      2034.6456      2965.3544      2034.6456      2965.3544      2034.6456      2965.3544      8.0619733e+08  0.5            12615900       2.0837863      5162.7623      10325.468      7.4748761    
  25227000   82820.132     -62.249254     -37740844       0.74212205     245636.73     -37495207       930.70872      930.70872      930.70872      2034.6456      2965.3544      2034.6456      2965.3544      2034.6456      2965.3544      8.0619733e+08  0.5            12616000       2.1044814      4832.0568      9664.0874      7.4613529    
  25227200   87333.54      -61.247892     -37732307       0.74212205     259023.07     -37473284       930.70872      930.70872      930.70872      2034.6456      2965.3544      2034.6456      2965.3544      2034.6456      2965.3544      8.0619733e+08  0.5            12616100       2.1231995      5342.4366      10684.904      7.4407713    
  25227400   87571.116     -61.088884     -37732966       0.74212205     259727.7      -37473238       930.70872      930.70872      930.70872      2034.6456      2965.3544      2034.6456      2965.3544      2034.6456      2965.3544      8.0619733e+08  0.5            12616200       2.1423865      5211.8426      10423.748      7.4218478    
  25227600   81200.901     -61.761457     -37724290       0.74212205     240834.24     -37483455       930.70872      930.70872      930.70872      2034.6456      2965.3544      2034.6456      2965.3544      2034.6456      2965.3544      8.0619733e+08  0.5            12616300       2.1612399      5304.1213      10608.229      7.4017768    
  25227800   81274.212     -61.595452     -37721079       0.74212205     241051.67     -37480027       930.70872      930.70872      930.70872      2034.6456      2965.3544      2034.6456      2965.3544      2034.6456      2965.3544      8.0619733e+08  0.5            12616400       2.1804365      5209.2496      10418.468      7.3828902    
  25228000   85861.186     -60.580949     -37719686       0.74212205     254656.21     -37465030       930.70872      930.70872      930.70872      2034.6456      2965.3544      2034.6456      2965.3544      2034.6456      2965.3544      8.0619733e+08  0.5            12616500       2.1995081      5243.3906      10486.787      7.3636413    
  25228200   87224.428     -60.471088     -37718190       0.74212205     258699.46     -37459490       930.70872      930.70872      930.70872      2034.6456      2965.3544      2034.6456      2965.3544      2034.6456      2965.3544      8.0619733e+08  0.5            12616600       2.2180954      5380.0077      10760.072      7.3426687    
  25228400   86280.834     -60.680409     -37714725       0.74212205     255900.84     -37458824       930.70872      930.70872      930.70872      2034.6456      2965.3544      2034.6456      2965.3544      2034.6456      2965.3544      8.0619733e+08  0.5            12616700       2.2371104      5259.0296      10518.039      7.3231984    
  25228600   85894.917     -60.845171     -37705731       0.74212205     254756.25     -37450975       930.70872      930.70872      930.70872      2034.6456      2965.3544      2034.6456      2965.3544      2034.6456      2965.3544      8.0619733e+08  0.5            12616800       2.2561073      5263.9503      10527.883      7.3036783    
  25228800   90057.63      -60.094836     -37704070       0.74212205     267102.47     -37436968       930.70872      930.70872      930.70872      2034.6456      2965.3544      2034.6456      2965.3544      2034.6456      2965.3544      8.0619733e+08  0.5            12616900       2.2758115      5075.0972      10150.236      7.2864296    
  25229000   91261.099     -60.002825     -37704268       0.74212205     270671.84     -37433596       930.70872      930.70872      930.70872      2034.6456      2965.3544      2034.6456      2965.3544      2034.6456      2965.3544      8.0619733e+08  0.5            12617000       2.2948535      5251.5321      10502.994      7.2670446    
  25229200   88033.95      -60.486223     -37706383       0.74212205     261100.42     -37445282       930.70872      930.70872      930.70872      2034.6456      2965.3544      2034.6456      2965.3544      2034.6456      2965.3544      8.0619733e+08  0.5            12617100       2.3137427      5294.0411      10588.101      7.2471858    
  25229400   85999.525     -60.986212     -37705167       0.74212205     255066.51     -37450101       930.70872      930.70872      930.70872      2034.6456      2965.3544      2034.6456      2965.3544      2034.6456      2965.3544      8.0619733e+08  0.5            12617200       2.332945       5207.6474      10415.307      7.2283137    
  25229600   92488.189     -60.037646     -37704008       0.74212205     274311.28     -37429697       930.70872      930.70872      930.70872      2034.6456      2965.3544      2034.6456      2965.3544      2034.6456      2965.3544      8.0619733e+08  0.5            12617300       2.3516328      5351.2009      10702.461      7.207857     
  25229800   93635.746     -59.993249     -37691551       0.74212205     277714.82     -37413836       930.70872      930.70872      930.70872      2034.6456      2965.3544      2034.6456      2965.3544      2034.6456      2965.3544      8.0619733e+08  0.5            12617400       2.3706956      5245.8009      10491.612      7.1885679    
  25230000   91432.795     -60.691849     -37690152       0.74212205     271181.07     -37418971       930.70872      930.70872      930.70872      2034.6456      2965.3544      2034.6456      2965.3544      2034.6456      2965.3544      8.0619733e+08  0.5            12617500       2.3900952      5154.6942      10309.307      7.1702936    
  25230200   90951.724     -60.159402     -37690772       0.74212205     269754.26     -37421018       930.70872      930.70872      930.70872      2034.6456      2965.3544      2034.6456      2965.3544      2034.6456      2965.3544      8.0619733e+08  0.5            12617600       2.4094466      5167.6208      10335.262      7.1518571    
  25230400   96315.376     -60.110798     -37698872       0.74212205     285662.35     -37413210       930.70872      930.70872      930.70872      2034.6456      2965.3544      2034.6456      2965.3544      2034.6456      2965.3544      8.0619733e+08  0.5            12617700       2.4283166      5299.4252      10598.843      7.1319922    
  25230600   97096.703     -60.094592     -37692283       0.74212205     287979.69     -37404304       930.70872      930.70872      930.70872      2034.6456      2965.3544      2034.6456      2965.3544      2034.6456      2965.3544      8.0619733e+08  0.5            12617800       2.447235       5285.8732      10571.731      7.1122839    
  25230800   94492.365     -60.145666     -37690906       0.74212205     280255.47     -37410650       930.70872      930.70872      930.70872      2034.6456      2965.3544      2034.6456      2965.3544      2034.6456      2965.3544      8.0619733e+08  0.5            12617900       2.4664122      5214.4522      10428.97       7.0933326    
  25231000   94372.524     -59.58944      -37689977       0.74212205     279900.04     -37410077       930.70872      930.70872      930.70872      2034.6456      2965.3544      2034.6456      2965.3544      2034.6456      2965.3544      8.0619733e+08  0.5            12618000       2.4857563      5169.5918      10339.189      7.0748518    
  25231200   101519.12     -58.690587     -37696433       0.74212205     301096.16     -37395337       930.70872      930.70872      930.70872      2034.6456      2965.3544      2034.6456      2965.3544      2034.6456      2965.3544      8.0619733e+08  0.5            12618100       2.5047425      5266.9803      10533.845      7.0553509    
  25231400   101839.14     -59.050472     -37712148       0.74212205     302045.32     -37410102       930.70872      930.70872      930.70872      2034.6456      2965.3544      2034.6456      2965.3544      2034.6456      2965.3544      8.0619733e+08  0.5            12618200       2.5235303      5322.6024      10645.3        7.0353039    
  25231600   97534.524     -60.078425     -37718558       0.74212205     289278.23     -37429280       930.70872      930.70872      930.70872      2034.6456      2965.3544      2034.6456      2965.3544      2034.6456      2965.3544      8.0619733e+08  0.5            12618300       2.5429084      5160.4662      10320.918      7.0169046    
  25231800   96572.08      -60.233739     -37734182       0.74212205     286423.71     -37447758       930.70872      930.70872      930.70872      2034.6456      2965.3544      2034.6456      2965.3544      2034.6456      2965.3544      8.0619733e+08  0.5            12618400       2.5618236      5286.7423      10573.471      6.9972268    
  25232000   100988.68     -59.168345     -37740436       0.74212205     299522.92     -37440913       930.70872      930.70872      930.70872      2034.6456      2965.3544      2034.6456      2965.3544      2034.6456      2965.3544      8.0619733e+08  0.5            12618500       2.5816739      5037.7138      10075.463      6.9800879    
  25232200   103014.54     -58.372825     -37731746       0.74212205     305531.43     -37426215       930.70872      930.70872      930.70872      2034.6456      2965.3544      2034.6456      2965.3544      2034.6456      2965.3544      8.0619733e+08  0.5            12618600       2.6006067      5281.8294      10563.624      6.9604543    
  25232400   101326.26     -57.933228     -37715525       0.74212205     300524.17     -37415001       930.70872      930.70872      930.70872      2034.6456      2965.3544      2034.6456      2965.3544      2034.6456      2965.3544      8.0619733e+08  0.5            12618700       2.6197687      5218.6652      10437.347      6.9414379    
  25232600   100836.68     -57.154519     -37713869       0.74212205     299072.13     -37414796       930.70872      930.70872      930.70872      2034.6456      2965.3544      2034.6456      2965.3544      2034.6456      2965.3544      8.0619733e+08  0.5            12618800       2.638464       5348.9443      10697.925      6.9211945    
  25232800   102409.14     -56.071122     -37711645       0.74212205     303735.88     -37407909       930.70872      930.70872      930.70872      2034.6456      2965.3544      2034.6456      2965.3544      2034.6456      2965.3544      8.0619733e+08  0.5            12618900       2.6571177      5360.888       10721.75       6.9008658    
  25233000   104391.3      -54.926751     -37694833       0.74212205     309614.78     -37385219       930.70872      930.70872      930.70872      2034.6456      2965.3544      2034.6456      2965.3544      2034.6456      2965.3544      8.0619733e+08  0.5            12619000       2.6768905      5057.4458      10114.883      6.8834391    
  25233200   104652.9      -54.38596      -37691029       0.74212205     310390.68     -37380638       930.70872      930.70872      930.70872      2034.6456      2965.3544      2034.6456      2965.3544      2034.6456      2965.3544      8.0619733e+08  0.5            12619100       2.6960174      5228.1999      10456.363      6.8643348    
  25233400   104154.36     -53.250834     -37687044       0.74212205     308912.04     -37378132       930.70872      930.70872      930.70872      2034.6456      2965.3544      2034.6456      2965.3544      2034.6456      2965.3544      8.0619733e+08  0.5            12619200       2.7153238      5179.6483      10359.333      6.8456819    
  25233600   105087.11     -51.929872     -37684448       0.74212205     311678.49     -37372769       930.70872      930.70872      930.70872      2034.6456      2965.3544      2034.6456      2965.3544      2034.6456      2965.3544      8.0619733e+08  0.5            12619300       2.7341661      5307.1959      10614.374      6.8258617    
  25233800   107896.71     -50.739943     -37666625       0.74212205     320011.49     -37346614       930.70872      930.70872      930.70872      2034.6456      2965.3544      2034.6456      2965.3544      2034.6456      2965.3544      8.0619733e+08  0.5            12619400       2.7533936      5200.8961      10401.866      6.8070068    
  25234000   109388.82     -49.670938     -37661918       0.74212205     324436.97     -37337481       930.70872      930.70872      930.70872      2034.6456      2965.3544      2034.6456      2965.3544      2034.6456      2965.3544      8.0619733e+08  0.5            12619500       2.7720692      5354.5964      10709.128      6.7867959    
  25234200   107971.53     -49.087664     -37666464       0.74212205     320233.4      -37346230       930.70872      930.70872      930.70872      2034.6456      2965.3544      2034.6456      2965.3544      2034.6456      2965.3544      8.0619733e+08  0.5            12619600       2.7926714      4853.8428      9707.6936      6.7712779    
  25234400   104960.72     -48.628573     -37669155       0.74212205     311303.62     -37357851       930.70872      930.70872      930.70872      2034.6456      2965.3544      2034.6456      2965.3544      2034.6456      2965.3544      8.0619733e+08  0.5            12619700       2.8115563      5295.2429      10590.472      6.7515664    
  25234600   108442.72     -46.564525     -37666479       0.74212205     321630.9      -37344848       930.70872      930.70872      930.70872      2034.6456      2965.3544      2034.6456      2965.3544      2034.6456      2965.3544      8.0619733e+08  0.5            12619800       2.8307355      5213.9628      10427.951      6.732566     
  25234800   112498.53     -44.396736     -37647208       0.74212205     333660.08     -37313548       930.70872      930.70872      930.70872      2034.6456      2965.3544      2034.6456      2965.3544      2034.6456      2965.3544      8.0619733e+08  0.5            12619900       2.849473       5336.9368      10673.879      6.7125225    
  25235000   111548.01     -43.040208     -37644709       0.74212205     330840.92     -37313868       930.70872      930.70872      930.70872      2034.6456      2965.3544      2034.6456      2965.3544      2034.6456      2965.3544      8.0619733e+08  0.5            12620000       2.868558       5239.6698      10479.364      6.6933077    
  25235200   109464.26     -42.869265     -37649775       0.74212205     324660.71     -37325114       930.70872      930.70872      930.70872      2034.6456      2965.3544      2034.6456      2965.3544      2034.6456      2965.3544      8.0619733e+08  0.5            12620100       2.8879321      5161.5602      10323.059      6.6747627    
  25235400   112319.53     -41.171553     -37647607       0.74212205     333129.18     -37314478       930.70872      930.70872      930.70872      2034.6456      2965.3544      2034.6456      2965.3544      2034.6456      2965.3544      8.0619733e+08  0.5            12620200       2.9072798      5168.5583      10337.132      6.6561463    
  25235600   117168.84     -39.573687     -37652913       0.74212205     347511.78     -37305401       930.70872      930.70872      930.70872      2034.6456      2965.3544      2034.6456      2965.3544      2034.6456      2965.3544      8.0619733e+08  0.5            12620300       2.9265884      5179.0407      10358.037      6.6374318    
  25235800   114541.84     -38.741796     -37636172       0.74212205     339720.33     -37296452       930.70872      930.70872      930.70872      2034.6456      2965.3544      2034.6456      2965.3544      2034.6456      2965.3544      8.0619733e+08  0.5            12620400       2.9458624      5188.3089      10376.659      6.6186319    
  25236000   110435.05     -37.719294     -37626900       0.74212205     327539.99     -37299360       930.70872      930.70872      930.70872      2034.6456      2965.3544      2034.6456      2965.3544      2034.6456      2965.3544      8.0619733e+08  0.5            12620500       2.9645982      5337.4237      10674.785      6.5986275    
  25236200   115328.07     -37.066755     -37660049       0.74212205     342052.22     -37317997       930.70872      930.70872      930.70872      2034.6456      2965.3544      2034.6456      2965.3544      2034.6456      2965.3544      8.0619733e+08  0.5            12620600       2.9841801      5106.7153      10213.478      6.5805056    
  25236400   119925.88     -35.384311     -37667426       0.74212205     355688.88     -37311737       930.70872      930.70872      930.70872      2034.6456      2965.3544      2034.6456      2965.3544      2034.6456      2965.3544      8.0619733e+08  0.5            12620700       3.0030709      5293.593       10587.081      6.5608552    
  25236600   116412.58     -34.220807     -37650741       0.74212205     345268.78     -37305472       930.70872      930.70872      930.70872      2034.6456      2965.3544      2034.6456      2965.3544      2034.6456      2965.3544      8.0619733e+08  0.5            12620800       3.0223563      5185.2673      10370.696      6.5420677    
  25236800   114022.95     -33.619381     -37634010       0.74212205     338181.35     -37295829       930.70872      930.70872      930.70872      2034.6456      2965.3544      2034.6456      2965.3544      2034.6456      2965.3544      8.0619733e+08  0.5            12620900       3.0411375      5324.4989      10648.914      6.5221934    
  25237000   119715.98     -31.326948     -37622688       0.74212205     355066.34     -37267621       930.70872      930.70872      930.70872      2034.6456      2965.3544      2034.6456      2965.3544      2034.6456      2965.3544      8.0619733e+08  0.5            12621000       3.0601365      5263.4515      10526.975      6.5027951    
  25237200   122464.44     -29.081112     -37613084       0.74212205     363218.03     -37249866       930.70872      930.70872      930.70872      2034.6456      2965.3544      2034.6456      2965.3544      2034.6456      2965.3544      8.0619733e+08  0.5            12621100       3.079109       5270.7553      10541.509      6.4833465    
  25237400   119448.15     -27.57634      -37610762       0.74212205     354271.98     -37256490       930.70872      930.70872      930.70872      2034.6456      2965.3544      2034.6456      2965.3544      2034.6456      2965.3544      8.0619733e+08  0.5            12621200       3.0981091      5263.1438      10526.207      6.4639614    
  25237600   118245.88     -27.286933     -37621235       0.74212205     350706.17     -37270529       930.70872      930.70872      930.70872      2034.6456      2965.3544      2034.6456      2965.3544      2034.6456      2965.3544      8.0619733e+08  0.5            12621300       3.118708       4854.5905      9709.22        6.4478866    
  25237800   123901.51     -25.029404     -37626178       0.74212205     367480.24     -37258698       930.70872      930.70872      930.70872      2034.6456      2965.3544      2034.6456      2965.3544      2034.6456      2965.3544      8.0619733e+08  0.5            12621400       3.1375897      5296.1793      10592.304      6.4282378    
  25238000   127408.31     -23.402134     -37623607       0.74212205     377881.08     -37245726       930.70872      930.70872      930.70872      2034.6456      2965.3544      2034.6456      2965.3544      2034.6456      2965.3544      8.0619733e+08  0.5            12621500       3.1568132      5201.9431      10403.962      6.4092923    
  25238200   123300.65     -22.406476     -37619102       0.74212205     365698.15     -37253404       930.70872      930.70872      930.70872      2034.6456      2965.3544      2034.6456      2965.3544      2034.6456      2965.3544      8.0619733e+08  0.5            12621600       3.1756892      5297.7407      10595.398      6.3896451    
  25238400   121238.41     -21.334296     -37607244       0.74212205     359581.73     -37247663       930.70872      930.70872      930.70872      2034.6456      2965.3544      2034.6456      2965.3544      2034.6456      2965.3544      8.0619733e+08  0.5            12621700       3.1951651      5134.5446      10269.007      6.3712031    
  25238600   124147.08     -20.228278     -37619453       0.74212205     368208.58     -37251245       930.70872      930.70872      930.70872      2034.6456      2965.3544      2034.6456      2965.3544      2034.6456      2965.3544      8.0619733e+08  0.5            12621800       3.213773       5374.0884      10748.251      6.3510327    
  25238800   129216.84     -17.46149      -37600254       0.74212205     383244.99     -37217009       930.70872      930.70872      930.70872      2034.6456      2965.3544      2034.6456      2965.3544      2034.6456      2965.3544      8.0619733e+08  0.5            12621900       3.2325215      5333.7231      10667.424      6.331157     
  25239000   127267.43     -16.958334     -37595858       0.74212205     377463.22     -37218395       930.70872      930.70872      930.70872      2034.6456      2965.3544      2034.6456      2965.3544      2034.6456      2965.3544      8.0619733e+08  0.5            12622000       3.2519638      5143.4617      10287.015      6.3126402    
  25239200   121047.7      -17.0133       -37593472       0.74212205     359016.09     -37234456       930.70872      930.70872      930.70872      2034.6456      2965.3544      2034.6456      2965.3544      2034.6456      2965.3544      8.0619733e+08  0.5            12622100       3.2708877      5284.316       10568.581      6.2931164    
  25239400   112975.86     -17.373889     -37587725       0.74212205     335075.8      -37252649       930.70872      930.70872      930.70872      2034.6456      2965.3544      2034.6456      2965.3544      2034.6456      2965.3544      8.0619733e+08  0.5            12622200       3.2906496      5060.233       10120.478      6.2751972    
  25239600   121480.81     -16.125592     -37587652       0.74212205     360300.65     -37227351       930.70872      930.70872      930.70872      2034.6456      2965.3544      2034.6456      2965.3544      2034.6456      2965.3544      8.0619733e+08  0.5            12622300       3.3094656      5314.6422      10629.316      6.2554685    
  25239800   128500.28     -13.836542     -37583881       0.74212205     381119.75     -37202761       930.70872      930.70872      930.70872      2034.6456      2965.3544      2034.6456      2965.3544      2034.6456      2965.3544      8.0619733e+08  0.5            12622400       3.3287019      5198.5041      10397.032      6.2365379    
  25240000   132798.85     -12.526976     -37587561       0.74212205     393868.91     -37193692       930.70872      930.70872      930.70872      2034.6456      2965.3544      2034.6456      2965.3544      2034.6456      2965.3544      8.0619733e+08  0.5            12622500       3.3472967      5377.8701      10755.763      6.2164124    
  25240200   131361.46     -12.163014     -37580726       0.74212205     389605.73     -37191121       930.70872      930.70872      930.70872      2034.6456      2965.3544      2034.6456      2965.3544      2034.6456      2965.3544      8.0619733e+08  0.5            12622600       3.3660226      5340.197       10680.38       6.1965457    
  25240400   127511.89     -12.211613     -37570059       0.74212205     378188.28     -37191871       930.70872      930.70872      930.70872      2034.6456      2965.3544      2034.6456      2965.3544      2034.6456      2965.3544      8.0619733e+08  0.5            12622700       3.3857846      5060.2022      10120.443      6.1785829    
  25240600   129758.69     -12.044636     -37568535       0.74212205     384852.07     -37183683       930.70872      930.70872      930.70872      2034.6456      2965.3544      2034.6456      2965.3544      2034.6456      2965.3544      8.0619733e+08  0.5            12622800       3.4047297      5278.4005      10556.723      6.1591222    
  25240800   136605.61     -10.919868     -37567022       0.74212205     405159.41     -37161863       930.70872      930.70872      930.70872      2034.6456      2965.3544      2034.6456      2965.3544      2034.6456      2965.3544      8.0619733e+08  0.5            12622900       3.4241651      5145.2298      10290.25       6.1405472    
  25241000   134934.25     -11.026841     -37580247       0.74212205     400202.29     -37180045       930.70872      930.70872      930.70872      2034.6456      2965.3544      2034.6456      2965.3544      2034.6456      2965.3544      8.0619733e+08  0.5            12623000       3.4430161      5304.7654      10609.701      6.1209222    
  25241200   131826.98     -11.595663     -37582482       0.74212205     390986.44     -37191495       930.70872      930.70872      930.70872      2034.6456      2965.3544      2034.6456      2965.3544      2034.6456      2965.3544      8.0619733e+08  0.5            12623100       3.4621314      5231.4055      10462.843      6.101772     
  25241400   133047.46     -11.718972     -37580911       0.74212205     394606.27     -37186305       930.70872      930.70872      930.70872      2034.6456      2965.3544      2034.6456      2965.3544      2034.6456      2965.3544      8.0619733e+08  0.5            12623200       3.4815422      5151.7765      10303.538      6.0831387    
  25241600   140095.93     -10.181894     -37577368       0.74212205     415511.35     -37161857       930.70872      930.70872      930.70872      2034.6456      2965.3544      2034.6456      2965.3544      2034.6456      2965.3544      8.0619733e+08  0.5            12623300       3.5007542      5205.0661      10410.224      6.0641522    
  25241800   147628.48     -8.5480934     -37570090       0.74212205     437852.21     -37132238       930.70872      930.70872      930.70872      2034.6456      2965.3544      2034.6456      2965.3544      2034.6456      2965.3544      8.0619733e+08  0.5            12623400       3.5196793      5283.9971      10567.946      6.0446711    
  25242000   137172.2      -10.203084     -37581059       0.74212205     406839.85     -37174219       930.70872      930.70872      930.70872      2034.6456      2965.3544      2034.6456      2965.3544      2034.6456      2965.3544      8.0619733e+08  0.5            12623500       3.5385498      5299.3171      10598.556      6.0251026    
  25242200   135564.82     -9.7473262     -37579107       0.74212205     402072.51     -37177035       930.70872      930.70872      930.70872      2034.6456      2965.3544      2034.6456      2965.3544      2034.6456      2965.3544      8.0619733e+08  0.5            12623600       3.5575971      5250.0648      10500.229      6.00584      
  25242400   138463.88     -9.5399436     -37582599       0.74212205     410670.86     -37171928       930.70872      930.70872      930.70872      2034.6456      2965.3544      2034.6456      2965.3544      2034.6456      2965.3544      8.0619733e+08  0.5            12623700       3.576329       5338.4788      10676.944      5.9860521    
  25242600   141993.83     -8.85089       -37573153       0.74212205     421140.34     -37152012       930.70872      930.70872      930.70872      2034.6456      2965.3544      2034.6456      2965.3544      2034.6456      2965.3544      8.0619733e+08  0.5            12623800       3.5957017      5161.9153      10323.854      5.9673386    
  25242800   141160.06     -8.1102799     -37558186       0.74212205     418667.48     -37139519       930.70872      930.70872      930.70872      2034.6456      2965.3544      2034.6456      2965.3544      2034.6456      2965.3544      8.0619733e+08  0.5            12623900       3.6144988      5319.9707      10639.887      5.9476714    
  25243000   137034.92     -8.6568594     -37548676       0.74212205     406432.68     -37142243       930.70872      930.70872      930.70872      2034.6456      2965.3544      2034.6456      2965.3544      2034.6456      2965.3544      8.0619733e+08  0.5            12624000       3.6338349      5171.6662      10343.341      5.9288926    
  25243200   138049.49     -8.1607091     -37546558       0.74212205     409441.82     -37137117       930.70872      930.70872      930.70872      2034.6456      2965.3544      2034.6456      2965.3544      2034.6456      2965.3544      8.0619733e+08  0.5            12624100       3.652756       5285.0888      10570.152      5.9094366    
  25243400   146267.17     -6.5520923     -37529678       0.74212205     433814.68     -37095864       930.70872      930.70872      930.70872      2034.6456      2965.3544      2034.6456      2965.3544      2034.6456      2965.3544      8.0619733e+08  0.5            12624200       3.6720427      5184.9247      10369.863      5.8905728    
  25243600   144953.26     -6.547092      -37549655       0.74212205     429917.74     -37119737       930.70872      930.70872      930.70872      2034.6456      2965.3544      2034.6456      2965.3544      2034.6456      2965.3544      8.0619733e+08  0.5            12624300       3.6913662      5175.0805      10350.147      5.8717625    
  25243800   140571.08     -7.0851003     -37548253       0.74212205     416920.61     -37131333       930.70872      930.70872      930.70872      2034.6456      2965.3544      2034.6456      2965.3544      2034.6456      2965.3544      8.0619733e+08  0.5            12624400       3.7105589      5210.2972      10420.499      5.8527415    
  25244000   142173.42     -5.98247       -37555440       0.74212205     421673        -37133767       930.70872      930.70872      930.70872      2034.6456      2965.3544      2034.6456      2965.3544      2034.6456      2965.3544      8.0619733e+08  0.5            12624500       3.7290493      5408.2215      10816.411      5.8326198    
  25244200   152056.22     -3.8056128     -37545563       0.74212205     450984.44     -37094578       930.70872      930.70872      930.70872      2034.6456      2965.3544      2034.6456      2965.3544      2034.6456      2965.3544      8.0619733e+08  0.5            12624600       3.7481018      5248.62        10497.366      5.8133864    
  25244400   147667.14     -3.4432498     -37536003       0.74212205     437966.86     -37098036       930.70872      930.70872      930.70872      2034.6456      2965.3544      2034.6456      2965.3544      2034.6456      2965.3544      8.0619733e+08  0.5            12624700       3.767054       5276.439       10552.638      5.7940014    
  25244600   142573.37     -3.7682265     -37541189       0.74212205     422859.21     -37118329       930.70872      930.70872      930.70872      2034.6456      2965.3544      2034.6456      2965.3544      2034.6456      2965.3544      8.0619733e+08  0.5            12624800       3.7865854      5119.9903      10240.24       5.7755025    
  25244800   145296.78     -2.886352      -37542773       0.74212205     430936.58     -37111836       930.70872      930.70872      930.70872      2034.6456      2965.3544      2034.6456      2965.3544      2034.6456      2965.3544      8.0619733e+08  0.5            12624900       3.8051772      5378.7171      10757.463      5.755573     
  25245000   151444.74     -0.62557765    -37516492       0.74212205     449170.85     -37067321       930.70872      930.70872      930.70872      2034.6456      2965.3544      2034.6456      2965.3544      2034.6456      2965.3544      8.0619733e+08  0.5            12625000       3.8242243      5250.1229      10500.275      5.73634      
  25245200   150205.6      -0.17432978    -37514188       0.74212205     445495.69     -37068693       930.70872      930.70872      930.70872      2034.6456      2965.3544      2034.6456      2965.3544      2034.6456      2965.3544      8.0619733e+08  0.5            12625100       3.843122       5291.6061      10583.082      5.7168871    
  25245400   148087.82      0.059862635   -37513771       0.74212205     439214.55     -37074556       930.70872      930.70872      930.70872      2034.6456      2965.3544      2034.6456      2965.3544      2034.6456      2965.3544      8.0619733e+08  0.5            12625200       3.8624202      5181.8492      10363.812      5.6980295    
  25245600   149110.9       1.2968492     -37502198       0.74212205     442248.9      -37059949       930.70872      930.70872      930.70872      2034.6456      2965.3544      2034.6456      2965.3544      2034.6456      2965.3544      8.0619733e+08  0.5            12625300       3.8817251      5180.0588      10360.122      5.6791776    
  25245800   155905.64      3.7149738     -37492498       0.74212205     462401.49     -37030097       930.70872      930.70872      930.70872      2034.6456      2965.3544      2034.6456      2965.3544      2034.6456      2965.3544      8.0619733e+08  0.5            12625400       3.9008718      5222.8229      10445.643      5.6600919    
  25246000   157425.78      4.9803582     -37480857       0.74212205     466910.07     -37013947       930.70872      930.70872      930.70872      2034.6456      2965.3544      2034.6456      2965.3544      2034.6456      2965.3544      8.0619733e+08  0.5            12625500       3.9195765      5346.2244      10692.431      5.6403698    
  25246200   145528.3       3.6820821     -37480392       0.74212205     431623.25     -37048769       930.70872      930.70872      930.70872      2034.6456      2965.3544      2034.6456      2965.3544      2034.6456      2965.3544      8.0619733e+08  0.5            12625600       3.938848       5189.0199      10378.015      5.6214663    
  25246400   146254.02      5.1892465     -37466967       0.74212205     433775.66     -37033191       930.70872      930.70872      930.70872      2034.6456      2965.3544      2034.6456      2965.3544      2034.6456      2965.3544      8.0619733e+08  0.5            12625700       3.9577819      5281.5594      10563.145      5.6020811    
  25246600   152865.27      5.9527378     -37479500       0.74212205     453384.02     -37026116       930.70872      930.70872      930.70872      2034.6456      2965.3544      2034.6456      2965.3544      2034.6456      2965.3544      8.0619733e+08  0.5            12625800       3.9773219      5117.6826      10235.353      5.5835516    
  25246800   156445.41      6.8487627     -37475403       0.74212205     464002.37     -37011401       930.70872      930.70872      930.70872      2034.6456      2965.3544      2034.6456      2965.3544      2034.6456      2965.3544      8.0619733e+08  0.5            12625900       3.9966358      5177.6396      10355.266      5.5646974    
  25247000   156564.86      7.8271529     -37471355       0.74212205     464356.65     -37006999       930.70872      930.70872      930.70872      2034.6456      2965.3544      2034.6456      2965.3544      2034.6456      2965.3544      8.0619733e+08  0.5            12626000       4.015966       5173.2225      10346.449      5.5458614    
  25247200   154179.09      8.6324595     -37469285       0.74212205     457280.68     -37012004       930.70872      930.70872      930.70872      2034.6456      2965.3544      2034.6456      2965.3544      2034.6456      2965.3544      8.0619733e+08  0.5            12626100       4.0346663      5347.5258      10695.048      5.5261578    
  25247400   153266.08      8.7159884     -37459969       0.74212205     454572.79     -37005396       930.70872      930.70872      930.70872      2034.6456      2965.3544      2034.6456      2965.3544      2034.6456      2965.3544      8.0619733e+08  0.5            12626200       4.0537881      5229.567       10459.105      5.5070367    
  25247600   160159.77      10.231693     -37443383       0.74212205     475018.84     -36968364       930.70872      930.70872      930.70872      2034.6456      2965.3544      2034.6456      2965.3544      2034.6456      2965.3544      8.0619733e+08  0.5            12626300       4.0727657      5269.4438      10538.96       5.4877204    
  25247800   162834.9       11.18738      -37441630       0.74212205     482953.01     -36958677       930.70872      930.70872      930.70872      2034.6456      2965.3544      2034.6456      2965.3544      2034.6456      2965.3544      8.0619733e+08  0.5            12626400       4.0925198      5062.2105      10124.373      5.4694458    
  25248000   156911.02      10.485713     -37445097       0.74212205     465383.33     -36979713       930.70872      930.70872      930.70872      2034.6456      2965.3544      2034.6456      2965.3544      2034.6456      2965.3544      8.0619733e+08  0.5            12626500       4.1128652      4915.1288      9830.2246      5.4519411    
  25248200   151702.75      9.6797563     -37443973       0.74212205     449936.1      -36994037       930.70872      930.70872      930.70872      2034.6456      2965.3544      2034.6456      2965.3544      2034.6456      2965.3544      8.0619733e+08  0.5            12626600       4.1320723      5206.4029      10412.838      5.4329133    
  25248400   163084.81      11.358632     -37450022       0.74212205     483694.21     -36966328       930.70872      930.70872      930.70872      2034.6456      2965.3544      2034.6456      2965.3544      2034.6456      2965.3544      8.0619733e+08  0.5            12626700       4.1508461      5326.5849      10653.202      5.4133186    
  25248600   165691.11      12.082746     -37448753       0.74212205     491424.26     -36957328       930.70872      930.70872      930.70872      2034.6456      2965.3544      2034.6456      2965.3544      2034.6456      2965.3544      8.0619733e+08  0.5            12626800       4.1698619      5258.8044      10517.648      5.3940446    
  25248800   160080.67      11.001649     -37445342       0.74212205     474784.21     -36970558       930.70872      930.70872      930.70872      2034.6456      2965.3544      2034.6456      2965.3544      2034.6456      2965.3544      8.0619733e+08  0.5            12626900       4.1889984      5225.6283      10451.195      5.374928     
  25249000   157878.85      11.261186     -37442462       0.74212205     468253.83     -36974208       930.70872      930.70872      930.70872      2034.6456      2965.3544      2034.6456      2965.3544      2034.6456      2965.3544      8.0619733e+08  0.5            12627000       4.2083255      5174.0571      10348.139      5.3560538    
  25249200   166539.29      13.128068     -37432369       0.74212205     493939.88     -36938429       930.70872      930.70872      930.70872      2034.6456      2965.3544      2034.6456      2965.3544      2034.6456      2965.3544      8.0619733e+08  0.5            12627100       4.2272985      5270.6344      10541.217      5.3367286    
  25249400   169719.63      12.986975     -37431650       0.74212205     503372.47     -36928277       930.70872      930.70872      930.70872      2034.6456      2965.3544      2034.6456      2965.3544      2034.6456      2965.3544      8.0619733e+08  0.5            12627200       4.2465555      5192.9287      10385.882      5.3177618    
  25249600   165301.74      12.540682     -37406639       0.74212205     490269.41     -36916369       930.70872      930.70872      930.70872      2034.6456      2965.3544      2034.6456      2965.3544      2034.6456      2965.3544      8.0619733e+08  0.5            12627300       4.2653318      5325.8808      10651.718      5.2981955    
  25249800   163652.27      11.466675     -37437114       0.74212205     485377.26     -36951737       930.70872      930.70872      930.70872      2034.6456      2965.3544      2034.6456      2965.3544      2034.6456      2965.3544      8.0619733e+08  0.5            12627400       4.2850526      5070.7651      10141.578      5.2798001    
[...]
  25894400   308.68238      3.3688137     -37682657       0.7729324      915.52291     -37681742       918.17415      918.17415      918.17415      2040.9129      2959.0871      2040.9129      2959.0871      2040.9129      2959.0871      7.7406098e+08  0.5            12949700       32.753279      4490.602       8981.192       1.199671     
  25894600   308.6451      -1.7987616     -37682764       0.77278616     915.41236     -37681849       918.23206      918.23206      918.23206      2040.884       2959.116       2040.884       2959.116       2040.884       2959.116       7.7420747e+08  0.5            12949800       32.776302      4343.4168      8686.835       1.1770496    
  25894800   308.63412      3.9139535     -37682866       0.772967       915.37978     -37681951       918.16045      918.16045      918.16045      2040.9198      2959.0802      2040.9198      2959.0802      2040.9198      2959.0802      7.7402634e+08  0.5            12949900       32.798677      4469.2883      8938.5982      1.1544049    
  25895000   308.2647      -1.3817739     -37682974       0.7728185      914.28411     -37682060       918.21925      918.21925      918.21925      2040.8904      2959.1096      2040.8904      2959.1096      2040.8904      2959.1096      7.7417507e+08  0.5            12950000       32.821047      4470.2063      8940.4307      1.1317604    
  25895200   308.61427      2.4449048     -37683079       0.77294382     915.32091     -37682164       918.16962      918.16962      918.16962      2040.9152      2959.0848      2040.9152      2959.0848      2040.9152      2959.0848      7.7404955e+08  0.5            12950100       32.843429      4468.0141      8936.0354      1.1091166    
  25895400   308.81021      3.1822834     -37690561       0.77298073     915.90204     -37689645       918.15501      918.15501      918.15501      2040.9225      2959.0775      2040.9225      2959.0775      2040.9225      2959.0775      7.7401258e+08  0.5            12950200       32.866005      4429.4142      8858.76        1.0864796    
  25895600   308.68813      0.16461575    -37683291       0.77289383     915.53998     -37682375       918.18942      918.18942      918.18942      2040.9053      2959.0947      2040.9053      2959.0947      2040.9053      2959.0947      7.7409962e+08  0.5            12950300       32.888869      4373.7196      8747.4695      1.063852     
  25895800   308.5392       1.3679816     -37690773       0.77294325     915.09826     -37689858       918.16985      918.16985      918.16985      2040.9151      2959.0849      2040.9151      2959.0849      2040.9151      2959.0849      7.7405012e+08  0.5            12950400       32.915674      3730.6335      7461.2778      1.0413488    
  25896000   308.13252      0.74052602    -37690879       0.77293316     913.8921      -37689965       918.17384      918.17384      918.17384      2040.9131      2959.0869      2040.9131      2959.0869      2040.9131      2959.0869      7.7406022e+08  0.5            12950500       32.938289      4421.8525      8843.6831      1.0187101    
  25896200   308.53848      1.209121      -37690983       0.77295575     915.09614     -37690068       918.1649       918.1649       918.1649       2040.9175      2959.0825      2040.9175      2959.0825      2040.9175      2959.0825      7.7403761e+08  0.5            12950600       32.960861      4430.3331      8860.6918      0.99607005   
  25896400   308.75814      0.76618134    -37691089       0.77295004     915.74761     -37690173       918.16716      918.16716      918.16716      2040.9164      2959.0836      2040.9164      2959.0836      2040.9164      2959.0836      7.7404332e+08  0.5            12950700       32.983792      4360.881       8721.7659      0.97344075   
  25896600   308.604        1.2865113     -37691193       0.77297211     915.29045     -37690278       918.15842      918.15842      918.15842      2040.9208      2959.0792      2040.9208      2959.0792      2040.9208      2959.0792      7.7402122e+08  0.5            12950800       33.006313      4440.1758      8880.3342      0.95079923   
  25896800   308.36456      0.70048046    -37691297       0.77296116     914.58029     -37690383       918.16276      918.16276      918.16276      2040.9186      2959.0814      2040.9186      2959.0814      2040.9186      2959.0814      7.7403219e+08  0.5            12950900       33.028781      4450.8685      8901.7529      0.92815636   
  25897000   307.9789       1.2118816     -37691401       0.77298451     913.43646     -37690487       918.15351      918.15351      918.15351      2040.9232      2959.0768      2040.9232      2959.0768      2040.9232      2959.0768      7.7400881e+08  0.5            12951000       33.051245      4451.5882      8903.149       0.90551364   
  25897200   308.51522      1.5386009     -37684126       0.77299771     915.02715     -37683211       918.14829      918.14829      918.14829      2040.9259      2959.0741      2040.9259      2959.0741      2040.9259      2959.0741      7.7399558e+08  0.5            12951100       33.074255      4345.9231      8691.8478      0.88288573   
  25897400   308.78105      0.4784371     -37684231       0.77297427     915.81556     -37683315       918.15757      918.15757      918.15757      2040.9212      2959.0788      2040.9212      2959.0788      2040.9212      2959.0788      7.7401906e+08  0.5            12951200       33.096943      4407.6603      8815.3574      0.86024892   
  25897600   308.65394      1.3826607     -37684335       0.77300998     915.43857     -37683420       918.14343      918.14343      918.14343      2040.9283      2959.0717      2040.9283      2959.0717      2040.9283      2959.0717      7.739833e+08   0.5            12951300       33.119468      4439.4716      8878.9027      0.83760794   
  25897800   308.541        0.88860148    -37684440       0.77300472     915.10359     -37683525       918.14551      918.14551      918.14551      2040.9272      2959.0728      2040.9272      2959.0728      2040.9272      2959.0728      7.7398856e+08  0.5            12951400       33.142009      4436.3647      8872.7078      0.8149675    
  25898000   308.19118      0.82031066    -37684545       0.77301265     914.06606     -37683631       918.14237      918.14237      918.14237      2040.9288      2959.0712      2040.9288      2959.0712      2040.9288      2959.0712      7.7398062e+08  0.5            12951500       33.16454       4438.3416      8876.6896      0.79232696   
  25898200   308.49731      1.3745267     -37684649       0.77303862     914.97402     -37683734       918.13209      918.13209      918.13209      2040.934       2959.066       2040.934       2959.066       2040.934       2959.066       7.7395462e+08  0.5            12951600       33.193778      3420.222       6840.4649      0.76984211   
  25898400   308.66865      0.31151383    -37682859       0.7730136      915.48219     -37681944       918.14199      918.14199      918.14199      2040.929       2959.071       2040.929       2959.071       2040.929       2959.071       7.7397967e+08  0.5            12951700       33.216117      4476.4048      8952.7859      0.74719288   
  25898600   308.58035      1.6584588     -37682963       0.77306304     915.22031     -37682048       918.12242      918.12242      918.12242      2040.9388      2959.0612      2040.9388      2959.0612      2040.9388      2959.0612      7.7393018e+08  0.5            12951800       33.239069      4356.919       8713.8383      0.72455743   
  25898800   308.44354      0.59712833    -37683067       0.77304037     914.81455     -37682152       918.1314       918.1314       918.1314       2040.9343      2959.0657      2040.9343      2959.0657      2040.9343      2959.0657      7.7395288e+08  0.5            12951900       33.261703      4418.0777      8836.1778      0.70191483   
  25899000   308.02626      0.64927468    -37683171       0.77305151     913.57693     -37682257       918.12699      918.12699      918.12699      2040.9365      2959.0635      2040.9365      2959.0635      2040.9365      2959.0635      7.7394172e+08  0.5            12952000       33.284752      4338.621       8677.215       0.67928072   
  25899200   308.40898      2.3793152     -37683273       0.77311359     914.71203     -37682358       918.10241      918.10241      918.10241      2040.9488      2959.0512      2040.9488      2959.0512      2040.9488      2959.0512      7.7387957e+08  0.5            12952100       33.307197      4455.349       8910.69        0.65663413   
  25899400   308.73432     -0.62998313    -37683378       0.7730334      915.67696     -37682462       918.13416      918.13416      918.13416      2040.9329      2959.0671      2040.9329      2959.0671      2040.9329      2959.0671      7.7395985e+08  0.5            12952200       33.329586      4466.3997      8932.8173      0.63398675   
  25899600   308.81294      1.7484153     -37683482       0.77311459     915.91016     -37682566       918.10202      918.10202      918.10202      2040.949       2959.051       2040.949       2959.051       2040.949       2959.051       7.7387858e+08  0.5            12952300       33.353449      4190.5994      8381.1773      0.61136674   
  25899800   308.63865      1.3967978     -37683587       0.77311253     915.39321     -37682672       918.10283      918.10283      918.10283      2040.9486      2959.0514      2040.9486      2959.0514      2040.9486      2959.0514      7.7388064e+08  0.5            12952400       33.376287      4378.7229      8757.4731      0.58872696   
  25900000   308.01323     -0.24475615    -37683692       0.77307086     913.53828     -37682779       918.11933      918.11933      918.11933      2040.9403      2959.0597      2040.9403      2959.0597      2040.9403      2959.0597      7.7392235e+08  0.5            12952500       33.400692      4097.5069      8195.0299      0.56611347   
  25900200   308.22787      1.7096722     -37683795       0.77313698     914.17488     -37682880       918.09315      918.09315      918.09315      2040.9534      2959.0466      2040.9534      2959.0466      2040.9534      2959.0466      7.7385616e+08  0.5            12952600       33.423259      4431.2635      8862.5042      0.54346767   
  25900400   308.53139      2.0517832     -37676520       0.7731504      915.07509     -37675605       918.08784      918.08784      918.08784      2040.9561      2959.0439      2040.9561      2959.0439      2040.9561      2959.0439      7.7384273e+08  0.5            12952700       33.445845      4427.4699      8854.9347      0.52082228   
  25900600   308.55604      0.017581919   -37676624       0.7730979      915.1482      -37675709       918.10862      918.10862      918.10862      2040.9457      2959.0543      2040.9457      2959.0543      2040.9457      2959.0543      7.7389528e+08  0.5            12952800       33.468493      4415.3898      8830.8104      0.49817789   
  25900800   308.44293      0.0397972     -37676727       0.77310785     914.81273     -37675812       918.10468      918.10468      918.10468      2040.9477      2959.0523      2040.9477      2959.0523      2040.9477      2959.0523      7.7388532e+08  0.5            12952900       33.491216      4400.8516      8801.6927      0.47553455   
  25901000   308.04377      2.9131238     -37684206       0.77321019     913.62887     -37683292       918.06417      918.06417      918.06417      2040.9679      2959.0321      2040.9679      2959.0321      2040.9679      2959.0321      7.7378289e+08  0.5            12953000       33.513754      4437.0066      8874.0176      0.45288861   
  25901200   308.42987      2.6767379     -37684309       0.77321376     914.774       -37683394       918.06276      918.06276      918.06276      2040.9686      2959.0314      2040.9686      2959.0314      2040.9686      2959.0314      7.7377932e+08  0.5            12953100       33.536219      4451.2903      8902.5545      0.43024188   
  25901400   308.65058     -2.8030965     -37677035       0.77305346     915.42859     -37676119       918.12622      918.12622      918.12622      2040.9369      2959.0631      2040.9369      2959.0631      2040.9369      2959.0631      7.7393977e+08  0.5            12953200       33.558683      4451.6912      8903.4252      0.40759537   
  25901600   308.65934      3.3232495     -37691894       0.77325976     915.45458     -37690978       918.04456      918.04456      918.04456      2040.9777      2959.0223      2040.9777      2959.0223      2040.9777      2959.0223      7.7373329e+08  0.5            12953300       33.581474      4387.5487      8775.0665      0.38495288   
  25901800   308.53743     -2.5266739     -37684621       0.77308849     915.093       -37683706       918.11235      918.11235      918.11235      2040.9438      2959.0562      2040.9438      2959.0562      2040.9438      2959.0562      7.739047e+08   0.5            12953400       33.603861      4466.8817      8933.7582      0.36230582   
  25902000   308.21317      3.2650956     -37692103       0.77328011     914.13129     -37691188       918.0365       918.0365       918.0365       2040.9817      2959.0183      2040.9817      2959.0183      2040.9817      2959.0183      7.7371292e+08  0.5            12953500       33.626165      4483.516       8967.0248      0.33965827   
  25902200   308.56062      2.1137788     -37684831       0.77324977     915.16178     -37683916       918.04851      918.04851      918.04851      2040.9757      2959.0243      2040.9757      2959.0243      2040.9757      2959.0243      7.7374329e+08  0.5            12953600       33.648787      4420.6169      8841.2538      0.31701417   
  25902400   308.68907      2.840787      -37684935       0.77328062     915.54277     -37684019       918.0363       918.0363       918.0363       2040.9818      2959.0182      2040.9818      2959.0182      2040.9818      2959.0182      7.7371241e+08  0.5            12953700       33.671573      4388.6693      8777.3271      0.29437154   
  25902600   308.55094      0.1430056     -37685041       0.77320809     915.13308     -37684126       918.06501      918.06501      918.06501      2040.9675      2959.0325      2040.9675      2959.0325      2040.9675      2959.0325      7.73785e+08    0.5            12953800       33.694178      4423.7922      8847.5919      0.27172726   
  25902800   308.48701     -0.38381233    -37685145       0.77320162     914.94348     -37684230       918.06757      918.06757      918.06757      2040.9662      2959.0338      2040.9662      2959.0338      2040.9662      2959.0338      7.7379147e+08  0.5            12953900       33.716602      4459.3836      8918.7596      0.2490817    
  25903000   308.11702      1.8907507     -37685249       0.77328019     913.84613     -37684335       918.03647      918.03647      918.03647      2040.9818      2959.0182      2040.9818      2959.0182      2040.9818      2959.0182      7.7371284e+08  0.5            12954000       33.739153      4434.3656      8868.725       0.22643729   
  25903200   308.48585      1.9574954     -37685353       0.77329104     914.94004     -37684438       918.03218      918.03218      918.03218      2040.9839      2959.0161      2040.9839      2959.0161      2040.9839      2959.0161      7.7370199e+08  0.5            12954100       33.761543      4466.3211      8932.6462      0.20379203   
  25903400   308.56723     -0.28813142    -37685457       0.77323067     915.18138     -37684542       918.05607      918.05607      918.05607      2040.972       2959.028       2040.972       2959.028       2040.972       2959.028       7.737624e+08   0.5            12954200       33.784499      4356.2756      8712.5553      0.18115014   
  25903600   308.47265      2.0014402     -37692938       0.77331198     914.90088     -37692023       918.02389      918.02389      918.02389      2040.9881      2959.0119      2040.9881      2959.0119      2040.9881      2959.0119      7.7368104e+08  0.5            12954300       33.807349      4376.3565      8752.744       0.15850734   
  25903800   308.39837      0.61106695    -37693041       0.77327745     914.68058     -37692126       918.03756      918.03756      918.03756      2040.9812      2959.0188      2040.9812      2959.0188      2040.9812      2959.0188      7.7371559e+08  0.5            12954400       33.829807      4452.5897      8905.135       0.13586269   
  25904000   308.03331     -0.17172721    -37693145       0.77326215     913.59784     -37692231       918.04361      918.04361      918.04361      2040.9782      2959.0218      2040.9782      2959.0218      2040.9782      2959.0218      7.737309e+08   0.5            12954500       33.852148      4476.1473      8952.3263      0.1132179    
  25904200   308.51886      0.18420749    -37693248       0.77328122     915.03793     -37692333       918.03607      918.03607      918.03607      2040.982       2959.018       2040.982       2959.018       2040.982       2959.018       7.7371182e+08  0.5            12954600       33.875024      4371.3775      8742.739       0.090574939  
  25904400   308.74011      1.2982048     -37693352       0.77332288     915.69414     -37692436       918.01958      918.01958      918.01958      2040.9902      2959.0098      2040.9902      2959.0098      2040.9902      2959.0098      7.7367014e+08  0.5            12954700       33.897802      4390.2724      8780.5602      0.067931472  
  25904600   308.52922      2.2077582     -37693455       0.77335854     915.06865     -37692540       918.00547      918.00547      918.00547      2040.9973      2959.0027      2040.9973      2959.0027      2040.9973      2959.0027      7.7363446e+08  0.5            12954800       33.920464      4412.6524      8825.2825      0.045287673  
  25904800   308.31946      2.4122115     -37693926       0.77337592     914.44654     -37693012       917.99859      917.99859      917.99859      2041.0007      2958.9993      2041.0007      2958.9993      2041.0007      2958.9993      7.7361708e+08  0.5            12954900       33.942934      4450.406       8900.8053      0.02264372   
  25905000   307.89446      2.4646177     -37694029       0.77338836     913.18603     -37693116       917.99367      917.99367      917.99367      2041.0032      2958.9968      2041.0032      2958.9968      2041.0032      2958.9968      7.7360463e+08  0.5            12955000       33.965396      4451.8959      8903.8295      0            
Loop time of 33.9654 on 4 procs for 300000 steps with 996 atoms

Performance: 381.564 ns/day, 0.063 hours/ns, 8832.506 timesteps/s
99.5% CPU use with 4 MPI tasks x no OpenMP threads

MPI task timing breakdown:
Section |  min time  |  avg time  |  max time  |%varavg| %total
---------------------------------------------------------------
Pair    | 3.422      | 10.146     | 18.673     | 197.4 | 29.87
Neigh   | 0.006206   | 0.016725   | 0.03       |   7.6 |  0.05
Comm    | 6.4869     | 14.654     | 21.026     | 156.6 | 43.14
Output  | 0.075184   | 0.083546   | 0.10791    |   4.9 |  0.25
Modify  | 6.5646     | 6.9984     | 7.639      |  16.4 | 20.60
Other   |            | 2.067      |            |       |  6.09

Nlocal:            249 ave         399 max         134 min
Histogram: 1 1 0 0 0 0 1 0 0 1
Nghost:          462.5 ave         493 max         420 min
Histogram: 1 0 0 0 0 0 2 0 0 1
Neighs:         1235.5 ave        2381 max         355 min
Histogram: 2 0 0 0 0 0 1 0 0 1

Total # of neighbors = 4942
Ave neighs/atom = 4.9618474
Neighbor list builds = 89
Dangerous builds = 18

# run_style
run_style verlet

# write restart
write_restart ${write_res}
write_restart ./pgnpmf/37/equpmf37.res
System init for write_restart ...
Generated 0 of 1 mixed pair_coeff terms from geometric mixing rule

Total wall time: 0:01:11
