LAMMPS (23 Jun 2022 - Update 1)
OMP_NUM_THREADS environment is not set. Defaulting to 1 thread. (src/comm.cpp:98)
  using 1 OpenMP thread(s) per MPI task
# Read restart
read_restart ${read_res}
read_restart ./pgnpmf/37/equpmf61.res
Reading restart file ...
  restart file = 23 Jun 2022, LAMMPS = 23 Jun 2022
  restoring atom style atomic from restart
  orthogonal box = (2139.223 2139.223 2139.223) to (2860.777 2860.777 2860.777)
  1 by 2 by 2 MPI processor grid
  restoring pair style table from restart
  996 atoms
  read_restart CPU = 0.011 seconds

# Settings

pair_style table spline 9941

pair_coeff 1 1 ./pgnpmf/N20.txt DE_GNP 75.6
pair_coeff 2 2 ./pgnpmf/N100.txt DE_GNP 115.92
WARNING: 3 of 9941 force values in table DE_GNP are inconsistent with -dE/dr.
WARNING:  Should only be flagged at inflection points (src/pair_table.cpp:463)
pair_coeff 1 2 ./pgnpmf/mixed_potential.txt DE_GNP 95.66
WARNING: 1562 of 9941 force values in table DE_GNP are inconsistent with -dE/dr.
WARNING:  Should only be flagged at inflection points (src/pair_table.cpp:463)

#Neigh_list Calc Frequency

neigh_modify delay 0 every 1 check yes

# Saving Frequency (50 frames)

variable ts_save equal ${steps_equ}
variable ts_save equal 5000

# Dump
#dump 1 all custom ${ts_save} ./pgnpmf/${folder}/equilibration/trajectory/trajectory_${usic}_${trial}.equ.custom type x y z ix iy iz
#dump_modify 1 first no sort id
dump 2 all cfg 50000 ./pgnpmf/${folder}/equilibration/trajectory/dumpgen.tens_*.cfg mass type xs ys zs fx fy fz
dump 2 all cfg 50000 ./pgnpmf/37/equilibration/trajectory/dumpgen.tens_*.cfg mass type xs ys zs fx fy fz
dump_modify 2 element N20 N100

# thermo_style
thermo_style custom step temp press pe density ke etotal lx ly lz xlo xhi ylo yhi zlo zhi vol dt time cpu tpcpu spcpu cpuremain

# run info
timestep ${ts}
timestep 0.1
thermo 200

# fix

fix 1 all momentum 1000 linear 1 1 1 angular
variable T equal ${temp}
variable T equal 300
fix 2 all nvt temp ${T} 370000 100.0
fix 2 all nvt temp 300 370000 100.0

run 100000
Generated 0 of 1 mixed pair_coeff terms from geometric mixing rule
Unused restart file global fix info:
  fix style: npt, fix ID: 5
Neighbor list info ...
  update every 1 steps, delay 0 steps, check yes
  max neighbors/atom: 2000, page size: 100000
  master list distance cutoff = 117.92
  ghost atom cutoff = 117.92
  binsize = 58.96, bins = 13 13 13
  1 neighbor lists, perpetual/occasional/extra = 1 0 0
  (1) pair table, perpetual
      attributes: half, newton on
      pair build: half/bin/atomonly/newton
      stencil: half/bin/3d
      bin: standard
Per MPI rank memory allocation (min/avg/max) = 3.082 | 3.083 | 3.083 Mbytes
   Step          Temp          Press          PotEng        Density         KinEng         TotEng           Lx             Ly             Lz            Xlo            Xhi            Ylo            Yhi            Zlo            Zhi           Volume           Dt            Time           CPU           T/CPU          S/CPU         CPULeft    
  42705000   305.33789      5.0976157     -42469021       1.5926134      905.60347     -42468115       721.5539       721.5539       721.5539       2139.223       2860.777       2139.223       2860.777       2139.223       2860.777       3.7566984e+08  0.1            15475000       0              0              0              0            
  42705200   332.50846      5.0093859     -42469087       1.5926134      986.18885     -42468101       721.5539       721.5539       721.5539       2139.223       2860.777       2139.223       2860.777       2139.223       2860.777       3.7566984e+08  0.1            15475020       0.015646921    1278.1132      12780.386      7.8093081    
  42705400   373.17114      4.9189135     -42469157       1.5926134      1106.7905     -42468050       721.5539       721.5539       721.5539       2139.223       2860.777       2139.223       2860.777       2139.223       2860.777       3.7566984e+08  0.1            15475040       0.030551926    1341.8673      13418.655      7.608072     
  42705600   417.20119      4.8213549     -42469231       1.5926134      1237.3795     -42467993       721.5539       721.5539       721.5539       2139.223       2860.777       2139.223       2860.777       2139.223       2860.777       3.7566984e+08  0.1            15475060       0.046456525    1257.4658      12574.651      7.6967902    
  42705800   470.65924      4.718059      -42469309       1.5926134      1395.9311     -42467913       721.5539       721.5539       721.5539       2139.223       2860.777       2139.223       2860.777       2139.223       2860.777       3.7566984e+08  0.1            15475080       0.061407181    1337.7523      13377.443      7.6148605    
  42706000   533.0545       4.6075526     -42469392       1.5926134      1580.9896     -42467811       721.5539       721.5539       721.5539       2139.223       2860.777       2139.223       2860.777       2139.223       2860.777       3.7566984e+08  0.1            15475100       0.076341262    1339.2144      13392.01       7.5581069    
  42706200   604.71041      4.4893697     -42469481       1.5926134      1793.5142     -42467687       721.5539       721.5539       721.5539       2139.223       2860.777       2139.223       2860.777       2139.223       2860.777       3.7566984e+08  0.1            15475120       0.091055052    1359.2721      13593.018      7.4970917    
  42706400   686.60463      4.3620114     -42469575       1.5926134      2036.4048     -42467538       721.5539       721.5539       721.5539       2139.223       2860.777       2139.223       2860.777       2139.223       2860.777       3.7566984e+08  0.1            15475140       0.1057175      1364.0533      13640.516      7.4457031    
  42706600   779.85579      4.2244294     -42469675       1.5926134      2312.979      -42467362       721.5539       721.5539       721.5539       2139.223       2860.777       2139.223       2860.777       2139.223       2860.777       3.7566984e+08  0.1            15475160       0.12020943     1380.0688      13800.663      7.3930366    
  42706800   885.7765       4.0752077     -42469782       1.5926134      2627.1298     -42467155       721.5539       721.5539       721.5539       2139.223       2860.777       2139.223       2860.777       2139.223       2860.777       3.7566984e+08  0.1            15475180       0.13471013     1379.2473      13792.433      7.3493313    
  42707000   1005.7508      3.9124453     -42469895       1.5926134      2982.9622     -42466912       721.5539       721.5539       721.5539       2139.223       2860.777       2139.223       2860.777       2139.223       2860.777       3.7566984e+08  0.1            15475200       0.14956683     1346.1739      13461.686      7.328919     
  42707200   1141.6421      3.7344352     -42470016       1.5926134      3386.0032     -42466630       721.5539       721.5539       721.5539       2139.223       2860.777       2139.223       2860.777       2139.223       2860.777       3.7566984e+08  0.1            15475220       0.1640614      1379.8527      13798.641      7.2933841    
  42707400   1295.2813      3.5379494     -42470145       1.5926134      3841.6825     -42466303       721.5539       721.5539       721.5539       2139.223       2860.777       2139.223       2860.777       2139.223       2860.777       3.7566984e+08  0.1            15475240       0.17839697     1395.1246      13951.221      7.2549135    
  42707600   1468.7861      3.3201521     -42470282       1.5926134      4356.2815     -42465926       721.5539       721.5539       721.5539       2139.223       2860.777       2139.223       2860.777       2139.223       2860.777       3.7566984e+08  0.1            15475260       0.19286988     1381.9028      13819.037      7.2253081    
  42707800   1664.5134      3.078594      -42470427       1.5926134      4936.7904     -42465491       721.5539       721.5539       721.5539       2139.223       2860.777       2139.223       2860.777       2139.223       2860.777       3.7566984e+08  0.1            15475280       0.20761438     1356.4385      13564.352      7.207272     
  42708000   1884.9574      2.8114366     -42470582       1.5926134      5590.6063     -42464992       721.5539       721.5539       721.5539       2139.223       2860.777       2139.223       2860.777       2139.223       2860.777       3.7566984e+08  0.1            15475300       0.22217815     1373.2591      13732.617      7.1838444    
  42708200   2133.186       2.5183384     -42470747       1.5926134      6326.8292     -42464420       721.5539       721.5539       721.5539       2139.223       2860.777       2139.223       2860.777       2139.223       2860.777       3.7566984e+08  0.1            15475320       0.23818688     1249.297       12493.092      7.2052348    
  42708400   2412.3081      2.1990947     -42470921       1.5926134      7154.6791     -42463767       721.5539       721.5539       721.5539       2139.223       2860.777       2139.223       2860.777       2139.223       2860.777       3.7566984e+08  0.1            15475340       0.25285546     1363.4499      13634.456      7.1841506    
  42708600   2725.8057      1.8564518     -42471107       1.5926134      8084.4835     -42463023       721.5539       721.5539       721.5539       2139.223       2860.777       2139.223       2860.777       2139.223       2860.777       3.7566984e+08  0.1            15475360       0.26712514     1401.595       14016.008      7.1530851    
  42708800   3077.4758      1.4944821     -42471304       1.5926134      9127.5038     -42462177       721.5539       721.5539       721.5539       2139.223       2860.777       2139.223       2860.777       2139.223       2860.777       3.7566984e+08  0.1            15475380       0.28133266     1407.7296      14077.181      7.1222196    
  42709000   3471.3142      1.1175339     -42471513       1.5926134      10295.592     -42461218       721.5539       721.5539       721.5539       2139.223       2860.777       2139.223       2860.777       2139.223       2860.777       3.7566984e+08  0.1            15475400       0.29559346     1402.4458      14024.516      7.0942986    
  42709200   3911.9496      0.73064257    -42471735       1.5926134      11602.475     -42460133       721.5539       721.5539       721.5539       2139.223       2860.777       2139.223       2860.777       2139.223       2860.777       3.7566984e+08  0.1            15475420       0.31002566     1385.7898      13857.874      7.0715921    
  42709400   4404.0643      0.33543457    -42471970       1.5926134      13062.041     -42458908       721.5539       721.5539       721.5539       2139.223       2860.777       2139.223       2860.777       2139.223       2860.777       3.7566984e+08  0.1            15475440       0.32439471     1391.8836      13918.77       7.0482657    
  42709600   4952.6972     -0.067567762   -42472219       1.5926134      14689.234     -42457530       721.5539       721.5539       721.5539       2139.223       2860.777       2139.223       2860.777       2139.223       2860.777       3.7566984e+08  0.1            15475460       0.33891469     1377.4142      13774.185      7.0288448    
  42709800   5563.1318     -0.47632762    -42472483       1.5926134      16499.726     -42455983       721.5539       721.5539       721.5539       2139.223       2860.777       2139.223       2860.777       2139.223       2860.777       3.7566984e+08  0.1            15475480       0.35338403     1382.2364      13822.444      7.0088272    
  42710000   6240.7106     -0.8836823     -42472761       1.5926134      18509.361     -42454252       721.5539       721.5539       721.5539       2139.223       2860.777       2139.223       2860.777       2139.223       2860.777       3.7566984e+08  0.1            15475500       0.36756891     1409.9407      14099.148      6.9838611    
  42710200   6991.1735     -1.2758325     -42473056       1.5926134      20735.164     -42452321       721.5539       721.5539       721.5539       2139.223       2860.777       2139.223       2860.777       2139.223       2860.777       3.7566984e+08  0.1            15475520       0.38186516     1398.9806      13989.93       6.961741     
  42710400   7819.9822     -1.6418479     -42473366       1.5926134      23193.332     -42450173       721.5539       721.5539       721.5539       2139.223       2860.777       2139.223       2860.777       2139.223       2860.777       3.7566984e+08  0.1            15475540       0.39602426     1412.5094      14125.145      6.9378008    
  42710600   8732.5133     -1.9868054     -42473693       1.5926134      25899.814     -42447794       721.5539       721.5539       721.5539       2139.223       2860.777       2139.223       2860.777       2139.223       2860.777       3.7566984e+08  0.1            15475560       0.41010542     1420.2992      14203.064      6.9132517    
  42710800   9733.8292     -2.6943036     -42481415       1.5926134      28869.622     -42452546       721.5539       721.5539       721.5539       2139.223       2860.777       2139.223       2860.777       2139.223       2860.777       3.7566984e+08  0.1            15475580       0.42432316     1406.736       14067.291      6.8916312    
  42711000   10828.383     -3.0878511     -42481777       1.5926134      32115.966     -42449661       721.5539       721.5539       721.5539       2139.223       2860.777       2139.223       2860.777       2139.223       2860.777       3.7566984e+08  0.1            15475600       0.43894586     1367.7304      13677.262      6.8768601    
  42711200   12020.108     -3.5590533     -42482156       1.5926134      35650.512     -42446506       721.5539       721.5539       721.5539       2139.223       2860.777       2139.223       2860.777       2139.223       2860.777       3.7566984e+08  0.1            15475620       0.4535633      1368.2334      13682.37       6.86201      
  42711400   13311.664     -4.1010983     -42482554       1.5926134      39481.145     -42443073       721.5539       721.5539       721.5539       2139.223       2860.777       2139.223       2860.777       2139.223       2860.777       3.7566984e+08  0.1            15475640       0.46788734     1396.2578      13962.548      6.8428863    
  42711600   14704.292     -4.6812705     -42482972       1.5926134      43611.547     -42439361       721.5539       721.5539       721.5539       2139.223       2860.777       2139.223       2860.777       2139.223       2860.777       3.7566984e+08  0.1            15475660       0.4821166      1405.5484      14055.576      6.822713     
  42711800   16197.281     -5.2526268     -42483410       1.5926134      48039.612     -42435370       721.5539       721.5539       721.5539       2139.223       2860.777       2139.223       2860.777       2139.223       2860.777       3.7566984e+08  0.1            15475680       0.49643465     1396.8386      13968.313      6.8041106    
  42712000   17787.324     -5.7113295     -42483867       1.5926134      52755.53      -42431112       721.5539       721.5539       721.5539       2139.223       2860.777       2139.223       2860.777       2139.223       2860.777       3.7566984e+08  0.1            15475700       0.51075004     1397.0883      13970.882      6.7857142    
  42712200   19468.327     -5.9475129     -42484345       1.5926134      57741.228     -42426604       721.5539       721.5539       721.5539       2139.223       2860.777       2139.223       2860.777       2139.223       2860.777       3.7566984e+08  0.1            15475720       0.5251025      1393.4925      13934.999      6.7680194    
  42712400   21230.329     -5.9494542     -42484842       1.5926134      62967.16      -42421875       721.5539       721.5539       721.5539       2139.223       2860.777       2139.223       2860.777       2139.223       2860.777       3.7566984e+08  0.1            15475740       0.53969932     1370.1605      13701.598      6.753565     
  42712600   23059.587     -5.8972241     -42485725       1.5926134      68392.566     -42417332       721.5539       721.5539       721.5539       2139.223       2860.777       2139.223       2860.777       2139.223       2860.777       3.7566984e+08  0.1            15475760       0.55435091     1365.0502      13650.454      6.739768     
  42712800   24938.157     -5.7211072     -42486258       1.5926134      73964.231     -42412294       721.5539       721.5539       721.5539       2139.223       2860.777       2139.223       2860.777       2139.223       2860.777       3.7566984e+08  0.1            15475780       0.56886158     1378.2993      13783          6.7242631    
  42713000   26843.52      -6.3716011     -42501565       1.5926134      79615.356     -42421949       721.5539       721.5539       721.5539       2139.223       2860.777       2139.223       2860.777       2139.223       2860.777       3.7566984e+08  0.1            15475800       0.58362824     1354.3685      13543.552      6.7117583    
  42713200   28748.731     -6.4113612     -42502135       1.5926134      85266.034     -42416869       721.5539       721.5539       721.5539       2139.223       2860.777       2139.223       2860.777       2139.223       2860.777       3.7566984e+08  0.1            15475820       0.5985102      1343.9222      13439.25       6.7004254    
  42713400   30621.005     -6.5587576     -42502723       1.5926134      90819.023     -42411904       721.5539       721.5539       721.5539       2139.223       2860.777       2139.223       2860.777       2139.223       2860.777       3.7566984e+08  0.1            15475840       0.61341546     1341.8015      13418.052      6.6891787    
  42713600   32422.933     -6.879764      -42503327       1.5926134      96163.37      -42407164       721.5539       721.5539       721.5539       2139.223       2860.777       2139.223       2860.777       2139.223       2860.777       3.7566984e+08  0.1            15475860       0.62833541     1340.5076      13405.173      6.6779152    
  42713800   34113.308     -7.2409686     -42503944       1.5926134      101176.87     -42402767       721.5539       721.5539       721.5539       2139.223       2860.777       2139.223       2860.777       2139.223       2860.777       3.7566984e+08  0.1            15475880       0.64411225     1267.6718      12676.647      6.6753733    
  42714000   35649.167     -8.0015634     -42511946       1.5926134      105732.08     -42406214       721.5539       721.5539       721.5539       2139.223       2860.777       2139.223       2860.777       2139.223       2860.777       3.7566984e+08  0.1            15475900       0.659199       1325.672       13256.813      6.6652592    
  42714200   36989.656     -8.5895921     -42512576       1.5926134      109707.84     -42402868       721.5539       721.5539       721.5539       2139.223       2860.777       2139.223       2860.777       2139.223       2860.777       3.7566984e+08  0.1            15475920       0.67429011     1325.2547      13252.426      6.6549786    
  42714400   38099.274     -9.5052239     -42515107       1.5926134      112998.87     -42402108       721.5539       721.5539       721.5539       2139.223       2860.777       2139.223       2860.777       2139.223       2860.777       3.7566984e+08  0.1            15475940       0.68912654     1348.0654      13480.743      6.6420297    
  42714600   38952.744     -10.829804     -42523126       1.5926134      115530.18     -42407596       721.5539       721.5539       721.5539       2139.223       2860.777       2139.223       2860.777       2139.223       2860.777       3.7566984e+08  0.1            15475960       0.70574056     1203.7913      12037.91       6.6457508    
  42714800   39540.03      -11.872814     -42523771       1.5926134      117272.01     -42406499       721.5539       721.5539       721.5539       2139.223       2860.777       2139.223       2860.777       2139.223       2860.777       3.7566984e+08  0.1            15475980       0.72244095     1197.5574      11975.464      6.6494335    
  42715000   39871.363     -12.86271      -42524415       1.5926134      118254.71     -42406161       721.5539       721.5539       721.5539       2139.223       2860.777       2139.223       2860.777       2139.223       2860.777       3.7566984e+08  0.1            15476000       0.7377201      1309.0092      13090.141      6.639504     
  42715200   39980.819     -13.477714     -42517677       1.5926134      118579.35     -42399098       721.5539       721.5539       721.5539       2139.223       2860.777       2139.223       2860.777       2139.223       2860.777       3.7566984e+08  0.1            15476020       0.7527505      1330.6422      13306.498      6.6271777    
  42715400   39923.223     -14.378942     -42518311       1.5926134      118408.53     -42399902       721.5539       721.5539       721.5539       2139.223       2860.777       2139.223       2860.777       2139.223       2860.777       3.7566984e+08  0.1            15476040       0.76715026     1388.8942      13888.881      6.609317     
  42715600   39767.573     -15.272565     -42518935       1.5926134      117946.88     -42400988       721.5539       721.5539       721.5539       2139.223       2860.777       2139.223       2860.777       2139.223       2860.777       3.7566984e+08  0.1            15476060       0.78167065     1377.3881      13773.901      6.5926011    
  42715800   39588.957     -16.32456      -42519551       1.5926134      117417.13     -42402134       721.5539       721.5539       721.5539       2139.223       2860.777       2139.223       2860.777       2139.223       2860.777       3.7566984e+08  0.1            15476080       0.79576971     1418.5153      14185.176      6.5724898    
  42716000   39460.366     -17.72572      -42522056       1.5926134      117035.74     -42405020       721.5539       721.5539       721.5539       2139.223       2860.777       2139.223       2860.777       2139.223       2860.777       3.7566984e+08  0.1            15476100       0.8097794      1427.5929      14275.623      6.5518751    
  42716200   39446.53      -19.06804      -42522662       1.5926134      116994.7      -42405668       721.5539       721.5539       721.5539       2139.223       2860.777       2139.223       2860.777       2139.223       2860.777       3.7566984e+08  0.1            15476120       0.82391516     1414.8623      14148.945      6.5324891    
  42716400   39600.826     -20.123754     -42523265       1.5926134      117452.33     -42405812       721.5539       721.5539       721.5539       2139.223       2860.777       2139.223       2860.777       2139.223       2860.777       3.7566984e+08  0.1            15476140       0.83839651     1381.0806      13810.787      6.515978     
  42716600   39965.274     -21.187866     -42531239       1.5926134      118533.25     -42412706       721.5539       721.5539       721.5539       2139.223       2860.777       2139.223       2860.777       2139.223       2860.777       3.7566984e+08  0.1            15476160       0.85256694     1411.3849      14113.799      6.4971671    
  42716800   40569.403     -21.595497     -42531833       1.5926134      120325.04     -42411508       721.5539       721.5539       721.5539       2139.223       2860.777       2139.223       2860.777       2139.223       2860.777       3.7566984e+08  0.1            15476180       0.86645936     1439.6073      14396.197      6.4764369    
  42717000   41426.823     -21.925246     -42534324       1.5926134      122868.06     -42411455       721.5539       721.5539       721.5539       2139.223       2860.777       2139.223       2860.777       2139.223       2860.777       3.7566984e+08  0.1            15476200       0.88030573     1444.4528      14444.384      6.4555946    
  42717200   42530.951     -22.186061     -42536817       1.5926134      126142.8      -42410675       721.5539       721.5539       721.5539       2139.223       2860.777       2139.223       2860.777       2139.223       2860.777       3.7566984e+08  0.1            15476220       0.89422554     1436.8161      14368.344      6.435508     
  42717400   43852.683     -22.398804     -42537420       1.5926134      130062.93     -42407357       721.5539       721.5539       721.5539       2139.223       2860.777       2139.223       2860.777       2139.223       2860.777       3.7566984e+08  0.1            15476240       0.9079376      1458.5611      14585.544      6.4141564    
  42717600   45343.867     -22.755526     -42538026       1.5926134      134485.65     -42403540       721.5539       721.5539       721.5539       2139.223       2860.777       2139.223       2860.777       2139.223       2860.777       3.7566984e+08  0.1            15476260       0.9216141      1462.3642      14623.564      6.392802     
  42717800   46943.137     -23.244977     -42538635       1.5926134      139228.93     -42399406       721.5539       721.5539       721.5539       2139.223       2860.777       2139.223       2860.777       2139.223       2860.777       3.7566984e+08  0.1            15476280       0.93539899     1450.8602      14508.732      6.3724212    
  42718000   48582.348     -23.716004     -42539248       1.5926134      144090.68     -42395157       721.5539       721.5539       721.5539       2139.223       2860.777       2139.223       2860.777       2139.223       2860.777       3.7566984e+08  0.1            15476300       0.94958734     1409.6134      14096.048      6.3549469    
  42718200   50192.67      -24.069592     -42539865       1.5926134      148866.74     -42390998       721.5539       721.5539       721.5539       2139.223       2860.777       2139.223       2860.777       2139.223       2860.777       3.7566984e+08  0.1            15476320       0.96335064     1453.142       14531.482      6.3347748    
  42718400   51708.75      -24.251634     -42540485       1.5926134      153363.29     -42387122       721.5539       721.5539       721.5539       2139.223       2860.777       2139.223       2860.777       2139.223       2860.777       3.7566984e+08  0.1            15476340       0.9769974      1465.5507      14655.461      6.3140426    
  42718600   53071.519     -24.078188     -42541109       1.5926134      157405.14     -42383704       721.5539       721.5539       721.5539       2139.223       2860.777       2139.223       2860.777       2139.223       2860.777       3.7566984e+08  0.1            15476360       0.99065567     1464.3001      14643.058      6.2935921    
  42718800   54231.14      -23.858046     -42543625       1.5926134      160844.46     -42382781       721.5539       721.5539       721.5539       2139.223       2860.777       2139.223       2860.777       2139.223       2860.777       3.7566984e+08  0.1            15476380       1.0043095      1464.807       14648.072      6.2733103    
  42719000   55152.033     -23.436285     -42536864       1.5926134      163575.75     -42373289       721.5539       721.5539       721.5539       2139.223       2860.777       2139.223       2860.777       2139.223       2860.777       3.7566984e+08  0.1            15476400       1.0179424      1467.0354      14670.264      6.2530894    
  42719200   55817.846     -23.726917     -42535583       1.5926134      165550.48     -42370032       721.5539       721.5539       721.5539       2139.223       2860.777       2139.223       2860.777       2139.223       2860.777       3.7566984e+08  0.1            15476420       1.0316437      1459.7324      14597.406      6.2334653    
  42719400   56232.372     -24.537513     -42536192       1.5926134      166779.93     -42369412       721.5539       721.5539       721.5539       2139.223       2860.777       2139.223       2860.777       2139.223       2860.777       3.7566984e+08  0.1            15476440       1.0458335      1409.4607      14094.532      6.2169117    
  42719600   56421.104     -25.505422     -42536796       1.5926134      167339.69     -42369456       721.5539       721.5539       721.5539       2139.223       2860.777       2139.223       2860.777       2139.223       2860.777       3.7566984e+08  0.1            15476460       1.0594282      1471.1632      14711.712      6.1969412    
  42719800   56430.045     -25.981885     -42530015       1.5926134      167366.21     -42362648       721.5539       721.5539       721.5539       2139.223       2860.777       2139.223       2860.777       2139.223       2860.777       3.7566984e+08  0.1            15476480       1.0730065      1472.9412      14729.357      6.1770492    
  42720000   56321.189     -26.495227     -42525121       1.5926134      167043.35     -42358078       721.5539       721.5539       721.5539       2139.223       2860.777       2139.223       2860.777       2139.223       2860.777       3.7566984e+08  0.1            15476500       1.086612       1469.9785      14699.724      6.1574815    
  42720200   56165.169     -27.014812     -42525705       1.5926134      166580.61     -42359124       721.5539       721.5539       721.5539       2139.223       2860.777       2139.223       2860.777       2139.223       2860.777       3.7566984e+08  0.1            15476520       1.100277       1463.596       14636.149      6.1383989    
  42720400   56033.048     -27.409875     -42526280       1.5926134      166188.75     -42360091       721.5539       721.5539       721.5539       2139.223       2860.777       2139.223       2860.777       2139.223       2860.777       3.7566984e+08  0.1            15476540       1.1139003      1468.0788      14680.708      6.1192297    
  42720600   55991.679     -27.697241     -42526847       1.5926134      166066.06     -42360781       721.5539       721.5539       721.5539       2139.223       2860.777       2139.223       2860.777       2139.223       2860.777       3.7566984e+08  0.1            15476560       1.1274586      1475.1168      14751.16       6.0998513    
  42720800   56099.783     -28.140148     -42529302       1.5926134      166386.68     -42362916       721.5539       721.5539       721.5539       2139.223       2860.777       2139.223       2860.777       2139.223       2860.777       3.7566984e+08  0.1            15476580       1.1413491      1439.8355      14398.33       6.0823907    
  42721000   56403.92      -28.538694     -42529855       1.5926134      167288.73     -42362566       721.5539       721.5539       721.5539       2139.223       2860.777       2139.223       2860.777       2139.223       2860.777       3.7566984e+08  0.1            15476600       1.1552076      1443.1549      14431.477      6.0648517    
  42721200   56937.856     -28.867105     -42528504       1.5926134      168872.33     -42359631       721.5539       721.5539       721.5539       2139.223       2860.777       2139.223       2860.777       2139.223       2860.777       3.7566984e+08  0.1            15476620       1.168861       1464.8346      14648.427      6.0463411    
  42721400   57720.01      -29.136197     -42528674       1.5926134      171192.12     -42357482       721.5539       721.5539       721.5539       2139.223       2860.777       2139.223       2860.777       2139.223       2860.777       3.7566984e+08  0.1            15476640       1.1824149      1475.6021      14756.058      6.0274418    
  42721600   58750.065     -29.501167     -42531104       1.5926134      174247.17     -42356856       721.5539       721.5539       721.5539       2139.223       2860.777       2139.223       2860.777       2139.223       2860.777       3.7566984e+08  0.1            15476660       1.1959761      1474.7895      14747.871      6.0087091    
  42721800   60007.131     -29.566574     -42531633       1.5926134      177975.51     -42353657       721.5539       721.5539       721.5539       2139.223       2860.777       2139.223       2860.777       2139.223       2860.777       3.7566984e+08  0.1            15476680       1.2098612      1440.3893      14403.965      5.9917034    
  42722000   61451.66      -29.443995     -42530262       1.5926134      182259.85     -42348003       721.5539       721.5539       721.5539       2139.223       2860.777       2139.223       2860.777       2139.223       2860.777       3.7566984e+08  0.1            15476700       1.2234211      1474.9353      14749.226      5.9731841    
  42722200   63028.417     -29.269        -42530783       1.5926134      186936.36     -42343847       721.5539       721.5539       721.5539       2139.223       2860.777       2139.223       2860.777       2139.223       2860.777       3.7566984e+08  0.1            15476720       1.237287       1442.3805      14423.812      5.9562525    
  42722400   64669.732     -28.950272     -42531297       1.5926134      191804.35     -42339492       721.5539       721.5539       721.5539       2139.223       2860.777       2139.223       2860.777       2139.223       2860.777       3.7566984e+08  0.1            15476740       1.2513663      1420.5337      14205.406      5.9404035    
  42722600   66305.018     -28.69194      -42531804       1.5926134      196654.45     -42335150       721.5539       721.5539       721.5539       2139.223       2860.777       2139.223       2860.777       2139.223       2860.777       3.7566984e+08  0.1            15476760       1.2649441      1472.9939      14729.918      5.9222478    
  42722800   67865.616     -28.590986     -42532311       1.5926134      201283.04     -42331028       721.5539       721.5539       721.5539       2139.223       2860.777       2139.223       2860.777       2139.223       2860.777       3.7566984e+08  0.1            15476780       1.2784821      1477.3215      14773.143      5.9040113    
  42723000   69286.596     -28.148686     -42525440       1.5926134      205497.53     -42319943       721.5539       721.5539       721.5539       2139.223       2860.777       2139.223       2860.777       2139.223       2860.777       3.7566984e+08  0.1            15476800       1.2921168      1466.8399      14668.367      5.8863202    
  42723200   70511.721     -28.149552     -42525941       1.5926134      209131.14     -42316810       721.5539       721.5539       721.5539       2139.223       2860.777       2139.223       2860.777       2139.223       2860.777       3.7566984e+08  0.1            15476820       1.3057014      1472.2592      14722.669      5.8684915    
  42723400   71499.908     -28.36525      -42526435       1.5926134      212062.01     -42314373       721.5539       721.5539       721.5539       2139.223       2860.777       2139.223       2860.777       2139.223       2860.777       3.7566984e+08  0.1            15476840       1.3193061      1470.0866      14700.897      5.8508443    
  42723600   72227.881     -28.297112     -42525026       1.5926134      214221.11     -42310805       721.5539       721.5539       721.5539       2139.223       2860.777       2139.223       2860.777       2139.223       2860.777       3.7566984e+08  0.1            15476860       1.3328247      1479.4459      14794.413      5.8329082    
  42723800   72693.518     -28.404027     -42525501       1.5926134      215602.14     -42309898       721.5539       721.5539       721.5539       2139.223       2860.777       2139.223       2860.777       2139.223       2860.777       3.7566984e+08  0.1            15476880       1.3470019      1410.7035      14107.125      5.8179106    
  42724000   72918.159     -28.231352     -42523702       1.5926134      216268.41     -42307434       721.5539       721.5539       721.5539       2139.223       2860.777       2139.223       2860.777       2139.223       2860.777       3.7566984e+08  0.1            15476900       1.3605624      1474.8712      14748.519      5.8003022    
  42724200   72944.007     -28.407668     -42524156       1.5926134      216345.07     -42307811       721.5539       721.5539       721.5539       2139.223       2860.777       2139.223       2860.777       2139.223       2860.777       3.7566984e+08  0.1            15476920       1.3742535      1460.8131      14608.291      5.783325     
  42724400   72830.324     -29.159363     -42530080       1.5926134      216007.9      -42314072       721.5539       721.5539       721.5539       2139.223       2860.777       2139.223       2860.777       2139.223       2860.777       3.7566984e+08  0.1            15476940       1.3877935      1477.109       14771.101      5.765789     
  42724600   72647.873     -29.380868     -42523499       1.5926134      215466.76     -42308033       721.5539       721.5539       721.5539       2139.223       2860.777       2139.223       2860.777       2139.223       2860.777       3.7566984e+08  0.1            15476960       1.4013805      1471.9851      14719.849      5.7485283    
  42724800   72470.789     -30.077651     -42531663       1.5926134      214941.55     -42316722       721.5539       721.5539       721.5539       2139.223       2860.777       2139.223       2860.777       2139.223       2860.777       3.7566984e+08  0.1            15476980       1.4149439      1474.551       14745.467      5.731246     
  42725000   72371.224     -30.384291     -42532073       1.5926134      214646.25     -42317426       721.5539       721.5539       721.5539       2139.223       2860.777       2139.223       2860.777       2139.223       2860.777       3.7566984e+08  0.1            15477000       1.4285824      1466.4425      14664.295      5.7143385    
  42725200   72413.121     -30.568732     -42532841       1.5926134      214770.51     -42318071       721.5539       721.5539       721.5539       2139.223       2860.777       2139.223       2860.777       2139.223       2860.777       3.7566984e+08  0.1            15477020       1.44256        1430.8519      14308.655      5.6988346    
  42725400   72647.841     -30.391101     -42533228       1.5926134      215466.67     -42317761       721.5539       721.5539       721.5539       2139.223       2860.777       2139.223       2860.777       2139.223       2860.777       3.7566984e+08  0.1            15477040       1.4564346      1441.4988      14414.98       5.6829586    
  42725600   73114.449     -29.957578     -42533602       1.5926134      216850.58     -42316752       721.5539       721.5539       721.5539       2139.223       2860.777       2139.223       2860.777       2139.223       2860.777       3.7566984e+08  0.1            15477060       1.4700051      1473.7723      14737.695      5.6659503    
  42725800   73836.041     -29.566111     -42541343       1.5926134      218990.76     -42322353       721.5539       721.5539       721.5539       2139.223       2860.777       2139.223       2860.777       2139.223       2860.777       3.7566984e+08  0.1            15477080       1.483571       1474.292       14742.888      5.6489897    
  42726000   74816.295     -28.941906     -42541696       1.5926134      221898.1      -42319798       721.5539       721.5539       721.5539       2139.223       2860.777       2139.223       2860.777       2139.223       2860.777       3.7566984e+08  0.1            15477100       1.4971339      1474.6182      14746.235      5.6320826    
  42726200   76039.219     -28.697375     -42542038       1.5926134      225525.18     -42316513       721.5539       721.5539       721.5539       2139.223       2860.777       2139.223       2860.777       2139.223       2860.777       3.7566984e+08  0.1            15477120       1.5107961      1463.8888      14638.876      5.615608     
  42726400   77468.63      -28.46267      -42542370       1.5926134      229764.67     -42312605       721.5539       721.5539       721.5539       2139.223       2860.777       2139.223       2860.777       2139.223       2860.777       3.7566984e+08  0.1            15477140       1.5246461      1444.0338      14440.317      5.5998763    
  42726600   79050.913     -27.501452     -42535315       1.5926134      234457.58     -42300858       721.5539       721.5539       721.5539       2139.223       2860.777       2139.223       2860.777       2139.223       2860.777       3.7566984e+08  0.1            15477160       1.5385514      1438.3105      14383.15       5.5843791    
  42726800   80718.702     -26.621031     -42535627       1.5926134      239404.08     -42296223       721.5539       721.5539       721.5539       2139.223       2860.777       2139.223       2860.777       2139.223       2860.777       3.7566984e+08  0.1            15477180       1.5524736      1436.5577      14365.529      5.5689722    
  42727000   82397.352     -25.696276     -42534029       1.5926134      244382.8      -42289646       721.5539       721.5539       721.5539       2139.223       2860.777       2139.223       2860.777       2139.223       2860.777       3.7566984e+08  0.1            15477200       1.5661185      1465.7397      14657.299      5.5526101    
  42727200   84013.337     -25.102725     -42535840       1.5926134      249175.66     -42286664       721.5539       721.5539       721.5539       2139.223       2860.777       2139.223       2860.777       2139.223       2860.777       3.7566984e+08  0.1            15477220       1.5797366      1468.6442      14686.586      5.5362009    
  42727400   85497.371     -24.411244     -42536112       1.5926134      253577.17     -42282535       721.5539       721.5539       721.5539       2139.223       2860.777       2139.223       2860.777       2139.223       2860.777       3.7566984e+08  0.1            15477240       1.5932927      1475.3504      14753.505      5.519628     
  42727600   86789.2       -23.90183      -42536373       1.5926134      257408.61     -42278965       721.5539       721.5539       721.5539       2139.223       2860.777       2139.223       2860.777       2139.223       2860.777       3.7566984e+08  0.1            15477260       1.6068426      1476.0206      14760.19       5.5030872    
  42727800   87842.848     -23.635821     -42545526       1.5926134      260533.63     -42284992       721.5539       721.5539       721.5539       2139.223       2860.777       2139.223       2860.777       2139.223       2860.777       3.7566984e+08  0.1            15477280       1.6203408      1481.6727      14816.71       5.4864241    
  42728000   88630.252     -23.327577     -42552769       1.5926134      262869        -42289900       721.5539       721.5539       721.5539       2139.223       2860.777       2139.223       2860.777       2139.223       2860.777       3.7566984e+08  0.1            15477300       1.6339176      1473.1032      14730.967      5.4700794    
  42728200   89146.06      -22.843264     -42552991       1.5926134      264398.83     -42288593       721.5539       721.5539       721.5539       2139.223       2860.777       2139.223       2860.777       2139.223       2860.777       3.7566984e+08  0.1            15477320       1.6481353      1406.7067      14067.165      5.4559028    
  42728400   89406.304     -22.309365     -42553199       1.5926134      265170.69     -42288029       721.5539       721.5539       721.5539       2139.223       2860.777       2139.223       2860.777       2139.223       2860.777       3.7566984e+08  0.1            15477340       1.6617142      1472.8665      14728.631      5.4396352    
  42728600   89449.442     -21.782385     -42547908       1.5926134      265298.64     -42282609       721.5539       721.5539       721.5539       2139.223       2860.777       2139.223       2860.777       2139.223       2860.777       3.7566984e+08  0.1            15477360       1.6752715      1475.2274      14752.257      5.4233431    
  42728800   89333.44      -21.124201     -42546191       1.5926134      264954.59     -42281237       721.5539       721.5539       721.5539       2139.223       2860.777       2139.223       2860.777       2139.223       2860.777       3.7566984e+08  0.1            15477380       1.6889272      1464.5892      14645.933      5.4074119    
  42729000   89127.524     -20.443754     -42546353       1.5926134      264343.86     -42282009       721.5539       721.5539       721.5539       2139.223       2860.777       2139.223       2860.777       2139.223       2860.777       3.7566984e+08  0.1            15477400       1.7025614      1466.8913      14668.922      5.391451     
  42729200   88908.324     -19.754595     -42546497       1.5926134      263693.73     -42282804       721.5539       721.5539       721.5539       2139.223       2860.777       2139.223       2860.777       2139.223       2860.777       3.7566984e+08  0.1            15477420       1.7163102      1454.6678      14546.655      5.3758876    
  42729400   88751.263     -18.951947     -42546627       1.5926134      263227.9      -42283399       721.5539       721.5539       721.5539       2139.223       2860.777       2139.223       2860.777       2139.223       2860.777       3.7566984e+08  0.1            15477440       1.7300435      1456.3138      14563.125      5.360306     
  42729600   88725.568     -18.44089      -42552223       1.5926134      263151.69     -42289071       721.5539       721.5539       721.5539       2139.223       2860.777       2139.223       2860.777       2139.223       2860.777       3.7566984e+08  0.1            15477460       1.7444171      1391.4314      13914.359      5.3467161    
  42729800   88889.693     -18.364414     -42559699       1.5926134      263638.48     -42296060       721.5539       721.5539       721.5539       2139.223       2860.777       2139.223       2860.777       2139.223       2860.777       3.7566984e+08  0.1            15477480       1.7584725      1422.9315      14229.307      5.3321495    
  42730000   89288.25      -18.796607     -42574537       1.5926134      264820.56     -42309717       721.5539       721.5539       721.5539       2139.223       2860.777       2139.223       2860.777       2139.223       2860.777       3.7566984e+08  0.1            15477500       1.7725309      1422.6472      14216.826      5.3176286    
  42730200   89948.852     -18.288911     -42574605       1.5926134      266779.84     -42307825       721.5539       721.5539       721.5539       2139.223       2860.777       2139.223       2860.777       2139.223       2860.777       3.7566984e+08  0.1            15477520       1.7866314      1418.3879      14193.407      5.3031825    
  42730400   90879.588     -17.656602     -42582036       1.5926134      269540.32     -42312496       721.5539       721.5539       721.5539       2139.223       2860.777       2139.223       2860.777       2139.223       2860.777       3.7566984e+08  0.1            15477540       1.8011597      1376.5785      13765.735      5.2900289    
  42730600   92068.237     -16.260732     -42583603       1.5926134      273065.74     -42310537       721.5539       721.5539       721.5539       2139.223       2860.777       2139.223       2860.777       2139.223       2860.777       3.7566984e+08  0.1            15477560       1.8156609      1379.2303      13792.341      5.2767717    
  42730800   93480.249     -15.134616     -42585522       1.5926134      277253.63     -42308268       721.5539       721.5539       721.5539       2139.223       2860.777       2139.223       2860.777       2139.223       2860.777       3.7566984e+08  0.1            15477580       1.8300025      1394.5483      13945.465      5.2630375    
  42731000   95064.775     -13.875506     -42578159       1.5926134      281953.19     -42296206       721.5539       721.5539       721.5539       2139.223       2860.777       2139.223       2860.777       2139.223       2860.777       3.7566984e+08  0.1            15477600       1.8446618      1364.3352      13643.347      5.2501981    
  42731200   96755.368     -12.51311      -42572680       1.5926134      286967.33     -42285712       721.5539       721.5539       721.5539       2139.223       2860.777       2139.223       2860.777       2139.223       2860.777       3.7566984e+08  0.1            15477620       1.858769       1417.7079      14177.189      5.2357758    
  42731400   98475.09      -11.238177     -42574564       1.5926134      292067.86     -42282496       721.5539       721.5539       721.5539       2139.223       2860.777       2139.223       2860.777       2139.223       2860.777       3.7566984e+08  0.1            15477640       1.8727655      1428.9213      14289.198      5.2210497    
  42731600   100145.09     -9.4253718     -42567158       1.5926134      297020.91     -42270137       721.5539       721.5539       721.5539       2139.223       2860.777       2139.223       2860.777       2139.223       2860.777       3.7566984e+08  0.1            15477660       1.8870699      1398.181       13981.764      5.2071842    
  42731800   101690.4      -8.3486909     -42569004       1.5926134      301604.16     -42267399       721.5539       721.5539       721.5539       2139.223       2860.777       2139.223       2860.777       2139.223       2860.777       3.7566984e+08  0.1            15477680       1.9013352      1401.9944      14019.994      5.1932057    
  42732000   103046.8      -7.467159      -42570830       1.5926134      305627.11     -42265203       721.5539       721.5539       721.5539       2139.223       2860.777       2139.223       2860.777       2139.223       2860.777       3.7566984e+08  0.1            15477700       1.9151805      1444.5379      14445.259      5.1780873    
  42732200   104164.97     -6.1920237     -42570745       1.5926134      308943.51     -42261801       721.5539       721.5539       721.5539       2139.223       2860.777       2139.223       2860.777       2139.223       2860.777       3.7566984e+08  0.1            15477720       1.9292343      1423.1034      14231.045      5.1635453    
  42732400   105011.7      -5.0750073     -42570639       1.5926134      311454.82     -42259184       721.5539       721.5539       721.5539       2139.223       2860.777       2139.223       2860.777       2139.223       2860.777       3.7566984e+08  0.1            15477740       1.9435794      1394.1691      13941.79       5.1497831    
  42732600   105576.57     -3.6791837     -42561240       1.5926134      313130.19     -42248109       721.5539       721.5539       721.5539       2139.223       2860.777       2139.223       2860.777       2139.223       2860.777       3.7566984e+08  0.1            15477760       1.957961       1390.7033      13907.075      5.1361065    
  42732800   105873.96     -2.5203618     -42559203       1.5926134      314012.23     -42245191       721.5539       721.5539       721.5539       2139.223       2860.777       2139.223       2860.777       2139.223       2860.777       3.7566984e+08  0.1            15477780       1.9720063      1423.9594      14239.328      5.1215482    
  42733000   105938.96     -1.1775604     -42557151       1.5926134      314205.01     -42242946       721.5539       721.5539       721.5539       2139.223       2860.777       2139.223       2860.777       2139.223       2860.777       3.7566984e+08  0.1            15477800       1.9860517      1423.9407      14239.501      5.106997     
  42733200   105826.57      0.40972612    -42556977       1.5926134      313871.66     -42243106       721.5539       721.5539       721.5539       2139.223       2860.777       2139.223       2860.777       2139.223       2860.777       3.7566984e+08  0.1            15477820       2.0000508      1428.665       14286.856      5.0923341    
  42733400   105605.36      2.2098136     -42556785       1.5926134      313215.57     -42243569       721.5539       721.5539       721.5539       2139.223       2860.777       2139.223       2860.777       2139.223       2860.777       3.7566984e+08  0.1            15477840       2.0141363      1419.9076      14199.028      5.0778988    
  42733600   105353.31      3.7777774     -42556574       1.5926134      312468.01     -42244106       721.5539       721.5539       721.5539       2139.223       2860.777       2139.223       2860.777       2139.223       2860.777       3.7566984e+08  0.1            15477860       2.0283199      1410.0882      14100.861      5.0637131    
  42733800   105150.39      4.7543883     -42558246       1.5926134      311866.18     -42246379       721.5539       721.5539       721.5539       2139.223       2860.777       2139.223       2860.777       2139.223       2860.777       3.7566984e+08  0.1            15477880       2.0427671      1384.3198      13843.202      5.0501806    
  42734000   105070.47      5.8548958     -42558011       1.5926134      311629.13     -42246382       721.5539       721.5539       721.5539       2139.223       2860.777       2139.223       2860.777       2139.223       2860.777       3.7566984e+08  0.1            15477900       2.057168       1388.8257      13888.237      5.0365437    
  42734200   105176.1       6.9160439     -42557762       1.5926134      311942.44     -42245820       721.5539       721.5539       721.5539       2139.223       2860.777       2139.223       2860.777       2139.223       2860.777       3.7566984e+08  0.1            15477920       2.0715461      1391.0051      13910.088      5.0227953    
  42734400   105515.95      7.4380851     -42564876       1.5926134      312950.4      -42251926       721.5539       721.5539       721.5539       2139.223       2860.777       2139.223       2860.777       2139.223       2860.777       3.7566984e+08  0.1            15477940       2.08573        1410.0473      14100.487      5.0085952    
  42734600   106120.78      8.4711221     -42564593       1.5926134      314744.26     -42249849       721.5539       721.5539       721.5539       2139.223       2860.777       2139.223       2860.777       2139.223       2860.777       3.7566984e+08  0.1            15477960       2.0998997      1411.4631      14114.567      4.9943616    
  42734800   107002.26      9.9719059     -42566185       1.5926134      317358.63     -42248827       721.5539       721.5539       721.5539       2139.223       2860.777       2139.223       2860.777       2139.223       2860.777       3.7566984e+08  0.1            15477980       2.1140708      1411.2923      14112.92       4.9801328    
  42735000   108150.04      12.409682     -42558484       1.5926134      320762.85     -42237721       721.5539       721.5539       721.5539       2139.223       2860.777       2139.223       2860.777       2139.223       2860.777       3.7566984e+08  0.1            15478000       2.1281527      1420.3071      14203.027      4.9656952    
  42735200   109534.22      14.089616     -42559667       1.5926134      324868.19     -42234798       721.5539       721.5539       721.5539       2139.223       2860.777       2139.223       2860.777       2139.223       2860.777       3.7566984e+08  0.1            15478020       2.1427555      1369.6016      13696.091      4.9524665    
  42735400   111104.98      15.380306     -42561200       1.5926134      329526.93     -42231673       721.5539       721.5539       721.5539       2139.223       2860.777       2139.223       2860.777       2139.223       2860.777       3.7566984e+08  0.1            15478040       2.1572609      1378.7884      13787.889      4.9389973    
  42735600   112797.3       16.731842     -42568203       1.5926134      334546.18     -42233657       721.5539       721.5539       721.5539       2139.223       2860.777       2139.223       2860.777       2139.223       2860.777       3.7566984e+08  0.1            15478060       2.1716469      1390.2331      13902.2        4.9252438    
  42735800   114534.65      19.226266     -42553055       1.5926134      339699        -42213357       721.5539       721.5539       721.5539       2139.223       2860.777       2139.223       2860.777       2139.223       2860.777       3.7566984e+08  0.1            15478080       2.1859593      1397.4031      13974.179      4.9113161    
  42736000   116238.02      21.173777     -42552649       1.5926134      344751.05     -42207898       721.5539       721.5539       721.5539       2139.223       2860.777       2139.223       2860.777       2139.223       2860.777       3.7566984e+08  0.1            15478100       2.2002852      1396.0671      13960.569      4.8974146    
  42736200   117829.91      23.198671     -42552591       1.5926134      349472.45     -42203118       721.5539       721.5539       721.5539       2139.223       2860.777       2139.223       2860.777       2139.223       2860.777       3.7566984e+08  0.1            15478120       2.2149059      1367.9199      13679.263      4.8841569    
  42736400   119242.09      25.210052     -42552143       1.5926134      353660.82     -42198482       721.5539       721.5539       721.5539       2139.223       2860.777       2139.223       2860.777       2139.223       2860.777       3.7566984e+08  0.1            15478140       2.2295969      1361.3904      13613.933      4.8710349    
  42736600   120421.45      27.687471     -42544299       1.5926134      357158.7      -42187141       721.5539       721.5539       721.5539       2139.223       2860.777       2139.223       2860.777       2139.223       2860.777       3.7566984e+08  0.1            15478160       2.2444736      1344.3828      13443.77       4.8582958    
  42736800   121332.4       29.891563     -42544186       1.5926134      359860.51     -42184326       721.5539       721.5539       721.5539       2139.223       2860.777       2139.223       2860.777       2139.223       2860.777       3.7566984e+08  0.1            15478180       2.2590719      1370.0234      13700.182      4.8449327    
  42737000   121959.64      31.995647     -42543321       1.5926134      361720.82     -42181600       721.5539       721.5539       721.5539       2139.223       2860.777       2139.223       2860.777       2139.223       2860.777       3.7566984e+08  0.1            15478200       2.2733565      1400.1022      14001.036      4.8308876    
  42737200   122311.73      33.276524     -42552081       1.5926134      362765.11     -42189316       721.5539       721.5539       721.5539       2139.223       2860.777       2139.223       2860.777       2139.223       2860.777       3.7566984e+08  0.1            15478220       2.287746       1389.9048      13899.065      4.8170601    
  42737400   122418.57      34.378521     -42558930       1.5926134      363081.98     -42195848       721.5539       721.5539       721.5539       2139.223       2860.777       2139.223       2860.777       2139.223       2860.777       3.7566984e+08  0.1            15478240       2.3022523      1378.7089      13787.176      4.8034694    
  42737600   122333.04      35.564847     -42558388       1.5926134      362828.3      -42195560       721.5539       721.5539       721.5539       2139.223       2860.777       2139.223       2860.777       2139.223       2860.777       3.7566984e+08  0.1            15478260       2.3167427      1380.2122      13802.04       4.7898351    
  42737800   122121.38      37.456856     -42550455       1.5926134      362200.54     -42188255       721.5539       721.5539       721.5539       2139.223       2860.777       2139.223       2860.777       2139.223       2860.777       3.7566984e+08  0.1            15478280       2.3309547      1407.2753      14072.793      4.7756192    
  42738000   121859.93      38.964541     -42549886       1.5926134      361425.08     -42188461       721.5539       721.5539       721.5539       2139.223       2860.777       2139.223       2860.777       2139.223       2860.777       3.7566984e+08  0.1            15478300       2.3455015      1374.8456      13748.397      4.7620845    
  42738200   121627.96      40.541794     -42547772       1.5926134      360737.1      -42187035       721.5539       721.5539       721.5539       2139.223       2860.777       2139.223       2860.777       2139.223       2860.777       3.7566984e+08  0.1            15478320       2.3597134      1407.294       14072.904      4.7478619    
  42738400   121502.56      41.691304     -42554550       1.5926134      360365.17     -42194184       721.5539       721.5539       721.5539       2139.223       2860.777       2139.223       2860.777       2139.223       2860.777       3.7566984e+08  0.1            15478340       2.3740165      1398.2722      13982.801      4.7338225    
  42738600   121553.14      42.895962     -42554311       1.5926134      360515.2      -42193796       721.5539       721.5539       721.5539       2139.223       2860.777       2139.223       2860.777       2139.223       2860.777       3.7566984e+08  0.1            15478360       2.388205       1409.6065      14096.077      4.719553     
  42738800   121833.71      43.956414     -42561077       1.5926134      361347.32     -42199729       721.5539       721.5539       721.5539       2139.223       2860.777       2139.223       2860.777       2139.223       2860.777       3.7566984e+08  0.1            15478380       2.4023475      1414.2         14141.93       4.705194     
  42739000   122379.98      45.783642     -42560458       1.5926134      362967.52     -42197490       721.5539       721.5539       721.5539       2139.223       2860.777       2139.223       2860.777       2139.223       2860.777       3.7566984e+08  0.1            15478400       2.4165314      1410.0408      14100.44       4.6909185    
  42739200   123206.99      47.858787     -42559826       1.5926134      365420.36     -42194406       721.5539       721.5539       721.5539       2139.223       2860.777       2139.223       2860.777       2139.223       2860.777       3.7566984e+08  0.1            15478420       2.4308127      1400.4322      14004.353      4.6768314    
  42739400   124307.35      49.961128     -42558809       1.5926134      368683.91     -42190125       721.5539       721.5539       721.5539       2139.223       2860.777       2139.223       2860.777       2139.223       2860.777       3.7566984e+08  0.1            15478440       2.4453118      1379.3914      13793.922      4.6631573    
  42739600   125652.19      51.954926     -42556244       1.5926134      372672.58     -42183571       721.5539       721.5539       721.5539       2139.223       2860.777       2139.223       2860.777       2139.223       2860.777       3.7566984e+08  0.1            15478460       2.4594269      1416.9269      14169.192      4.648748     
  42739800   127195.15      54.154552     -42555187       1.5926134      377248.86     -42177938       721.5539       721.5539       721.5539       2139.223       2860.777       2139.223       2860.777       2139.223       2860.777       3.7566984e+08  0.1            15478480       2.4737043      1400.7919      14007.824      4.6346465    
  42740000   128872.99      56.646347     -42554485       1.5926134      382225.18     -42172260       721.5539       721.5539       721.5539       2139.223       2860.777       2139.223       2860.777       2139.223       2860.777       3.7566984e+08  0.1            15478500       2.4879521      1403.764       14037.787      4.6204867    
  42740200   130612.72      59.453068     -42560782       1.5926134      387385.04     -42173396       721.5539       721.5539       721.5539       2139.223       2860.777       2139.223       2860.777       2139.223       2860.777       3.7566984e+08  0.1            15478520       2.50214        1409.6307      14096.357      4.6062167    
  42740400   132333.08      63.073997     -42560054       1.5926134      392487.47     -42167566       721.5539       721.5539       721.5539       2139.223       2860.777       2139.223       2860.777       2139.223       2860.777       3.7566984e+08  0.1            15478540       2.5160391      1438.9516      14389.515      4.5914201    
  42740600   133956.02      66.154854     -42559310       1.5926134      397300.97     -42162009       721.5539       721.5539       721.5539       2139.223       2860.777       2139.223       2860.777       2139.223       2860.777       3.7566984e+08  0.1            15478560       2.5299186      1440.9731      14409.74       4.5765984    
  42740800   135413.49      69.07235      -42556293       1.5926134      401623.67     -42154669       721.5539       721.5539       721.5539       2139.223       2860.777       2139.223       2860.777       2139.223       2860.777       3.7566984e+08  0.1            15478580       2.5446198      1360.4074      13604.086      4.5632614    
  42741000   136647.63      72.153403     -42548519       1.5926134      405284.03     -42143235       721.5539       721.5539       721.5539       2139.223       2860.777       2139.223       2860.777       2139.223       2860.777       3.7566984e+08  0.1            15478600       2.5591625      1375.2896      13752.853      4.5496263    
  42741200   137617.03      74.399881     -42547736       1.5926134      408159.18     -42139576       721.5539       721.5539       721.5539       2139.223       2860.777       2139.223       2860.777       2139.223       2860.777       3.7566984e+08  0.1            15478620       2.5734795      1396.923       13969.266      4.5355843    
  42741400   138303.07      76.06448      -42546938       1.5926134      410193.91     -42136744       721.5539       721.5539       721.5539       2139.223       2860.777       2139.223       2860.777       2139.223       2860.777       3.7566984e+08  0.1            15478640       2.5875949      1416.9132      14169.105      4.5211862    
  42741600   138710.73      77.390546     -42546131       1.5926134      411402.99     -42134728       721.5539       721.5539       721.5539       2139.223       2860.777       2139.223       2860.777       2139.223       2860.777       3.7566984e+08  0.1            15478660       2.6017228      1415.6098      14156.11       4.5068137    
  42741800   138867.18      79.469296     -42537940       1.5926134      411866.99     -42126073       721.5539       721.5539       721.5539       2139.223       2860.777       2139.223       2860.777       2139.223       2860.777       3.7566984e+08  0.1            15478680       2.615727       1428.1633      14281.584      4.4922308    
  42742000   138817.92      82.068968     -42529741       1.5926134      411720.9      -42118020       721.5539       721.5539       721.5539       2139.223       2860.777       2139.223       2860.777       2139.223       2860.777       3.7566984e+08  0.1            15478700       2.6300065      1400.6029      14006.014      4.4781234    
  42742200   138627.8       84.164143     -42528910       1.5926134      411157.04     -42117753       721.5539       721.5539       721.5539       2139.223       2860.777       2139.223       2860.777       2139.223       2860.777       3.7566984e+08  0.1            15478720       2.6447457      1356.9272      13569.148      4.4647901    
  42742400   138373.16      86.091769     -42526183       1.5926134      410401.79     -42115781       721.5539       721.5539       721.5539       2139.223       2860.777       2139.223       2860.777       2139.223       2860.777       3.7566984e+08  0.1            15478740       2.659311       1373.1415      13731.574      4.4511499    
  42742600   138132.28      88.474495     -42523451       1.5926134      409687.36     -42113764       721.5539       721.5539       721.5539       2139.223       2860.777       2139.223       2860.777       2139.223       2860.777       3.7566984e+08  0.1            15478760       2.6737719      1383.0239      13830.301      4.4373274    
  42742800   137979.96      90.061188     -42529978       1.5926134      409235.58     -42120742       721.5539       721.5539       721.5539       2139.223       2860.777       2139.223       2860.777       2139.223       2860.777       3.7566984e+08  0.1            15478780       2.688273       1379.2169      13792.128      4.4235642    
  42743000   137988.7       91.493449     -42521746       1.5926134      409261.51     -42112484       721.5539       721.5539       721.5539       2139.223       2860.777       2139.223       2860.777       2139.223       2860.777       3.7566984e+08  0.1            15478800       2.702591       1396.8067      13968.006      4.4094951    
  42743200   138218.08      92.712695     -42520892       1.5926134      409941.84     -42110951       721.5539       721.5539       721.5539       2139.223       2860.777       2139.223       2860.777       2139.223       2860.777       3.7566984e+08  0.1            15478820       2.7168779      1399.9213      13999.283      4.3953715    
  42743400   138708.05      94.312012     -42520409       1.5926134      411395.04     -42109014       721.5539       721.5539       721.5539       2139.223       2860.777       2139.223       2860.777       2139.223       2860.777       3.7566984e+08  0.1            15478840       2.7310587      1410.3376      14103.412      4.3810773    
  42743600   139478.16      95.927734     -42528827       1.5926134      413679.12     -42115148       721.5539       721.5539       721.5539       2139.223       2860.777       2139.223       2860.777       2139.223       2860.777       3.7566984e+08  0.1            15478860       2.7463957      1304.0533      13040.517      4.3686226    
  42743800   140525.31      98.713976     -42527966       1.5926134      416784.86     -42111181       721.5539       721.5539       721.5539       2139.223       2860.777       2139.223       2860.777       2139.223       2860.777       3.7566984e+08  0.1            15478880       2.7611812      1352.6734      13526.731      4.3552688    
  42744000   141824.11      102.13164     -42517819       1.5926134      420636.96     -42097182       721.5539       721.5539       721.5539       2139.223       2860.777       2139.223       2860.777       2139.223       2860.777       3.7566984e+08  0.1            15478900       2.7755208      1394.7275      13947.14       4.3412033    
  42744200   143333.68      105.1923      -42516940       1.5926134      425114.23     -42091826       721.5539       721.5539       721.5539       2139.223       2860.777       2139.223       2860.777       2139.223       2860.777       3.7566984e+08  0.1            15478920       2.7897577      1404.8132      14048.256      4.3269747    
  42744400   144992.18      108.30858     -42516055       1.5926134      430033.17     -42086022       721.5539       721.5539       721.5539       2139.223       2860.777       2139.223       2860.777       2139.223       2860.777       3.7566984e+08  0.1            15478940       2.8040375      1400.5705      14005.689      4.3128125    
  42744600   146725.72      111.73448     -42505890       1.5926134      435174.68     -42070715       721.5539       721.5539       721.5539       2139.223       2860.777       2139.223       2860.777       2139.223       2860.777       3.7566984e+08  0.1            15478960       2.818485       1384.3301      13843.23       4.2989051    
  42744800   148456.77      113.90929     -42506889       1.5926134      440308.83     -42066580       721.5539       721.5539       721.5539       2139.223       2860.777       2139.223       2860.777       2139.223       2860.777       3.7566984e+08  0.1            15478980       2.8332636      1353.3047      13532.909      4.2854933    
  42745000   150105.49      116.53062     -42505988       1.5926134      445198.78     -42060789       721.5539       721.5539       721.5539       2139.223       2860.777       2139.223       2860.777       2139.223       2860.777       3.7566984e+08  0.1            15479000       2.8485355      1309.6009      13096.171      4.2728071    
  42745200   151598.88      119.43471     -42505075       1.5926134      449628.02     -42055447       721.5539       721.5539       721.5539       2139.223       2860.777       2139.223       2860.777       2139.223       2860.777       3.7566984e+08  0.1            15479020       2.8633824      1347.0712      13470.683      4.2594631    
  42745400   152876.11      122.7121      -42498667       1.5926134      453416.18     -42045250       721.5539       721.5539       721.5539       2139.223       2860.777       2139.223       2860.777       2139.223       2860.777       3.7566984e+08  0.1            15479040       2.8782481      1345.3638      13453.629      4.2461324    
  42745600   153895.82      125.44993     -42495840       1.5926134      456440.54     -42039399       721.5539       721.5539       721.5539       2139.223       2860.777       2139.223       2860.777       2139.223       2860.777       3.7566984e+08  0.1            15479060       2.8930091      1354.9397      13549.438      4.2326327    
  42745800   154637.21      128.06205     -42494909       1.5926134      458639.42     -42036270       721.5539       721.5539       721.5539       2139.223       2860.777       2139.223       2860.777       2139.223       2860.777       3.7566984e+08  0.1            15479080       2.907832       1349.2509      13492.454      4.2192112    
  42746000   155098.31      130.54027     -42488496       1.5926134      460007.01     -42028489       721.5539       721.5539       721.5539       2139.223       2860.777       2139.223       2860.777       2139.223       2860.777       3.7566984e+08  0.1            15479100       2.9226797      1347.0173      13470.19       4.2058111    
  42746200   155301.28      132.51672     -42487563       1.5926134      460609        -42026954       721.5539       721.5539       721.5539       2139.223       2860.777       2139.223       2860.777       2139.223       2860.777       3.7566984e+08  0.1            15479120       2.9374091      1357.8279      13578.321      4.1922283    
  42746400   155289.01      133.58483     -42508763       1.5926134      460572.61     -42048190       721.5539       721.5539       721.5539       2139.223       2860.777       2139.223       2860.777       2139.223       2860.777       3.7566984e+08  0.1            15479140       2.9527777      1301.3686      13013.694      4.1795389    
  42746600   155121.79      135.86412     -42505933       1.5926134      460076.65     -42045856       721.5539       721.5539       721.5539       2139.223       2860.777       2139.223       2860.777       2139.223       2860.777       3.7566984e+08  0.1            15479160       2.9677139      1339.0124      13390.098      4.1662173    
  42746800   154874.2       138.09137     -42503107       1.5926134      459342.32     -42043765       721.5539       721.5539       721.5539       2139.223       2860.777       2139.223       2860.777       2139.223       2860.777       3.7566984e+08  0.1            15479180       2.9824984      1352.7785      13527.722      4.1526689    
  42747000   154624.39      140.64105     -42502180       1.5926134      458601.41     -42043579       721.5539       721.5539       721.5539       2139.223       2860.777       2139.223       2860.777       2139.223       2860.777       3.7566984e+08  0.1            15479200       2.9972203      1358.5212      13585.229      4.139022     
  42747200   154450.05      143.1345      -42491979       1.5926134      458084.33     -42033895       721.5539       721.5539       721.5539       2139.223       2860.777       2139.223       2860.777       2139.223       2860.777       3.7566984e+08  0.1            15479220       3.0120821      1345.7334      13457.314      4.1255567    
  42747400   154424.75      144.34099     -42491056       1.5926134      458009.3      -42033047       721.5539       721.5539       721.5539       2139.223       2860.777       2139.223       2860.777       2139.223       2860.777       3.7566984e+08  0.1            15479240       3.0269112      1348.6765      13486.72       4.1120342    
  42747600   154608.39      145.93358     -42490506       1.5926134      458553.96     -42031952       721.5539       721.5539       721.5539       2139.223       2860.777       2139.223       2860.777       2139.223       2860.777       3.7566984e+08  0.1            15479260       3.0416296      1358.865       13588.747      4.0983494    
  42747800   155044.27      147.9217      -42489590       1.5926134      459846.72     -42029743       721.5539       721.5539       721.5539       2139.223       2860.777       2139.223       2860.777       2139.223       2860.777       3.7566984e+08  0.1            15479280       3.0568156      1317.0029      13169.996      4.0852804    
  42748000   155756.89      150.14583     -42488677       1.5926134      461960.29     -42026717       721.5539       721.5539       721.5539       2139.223       2860.777       2139.223       2860.777       2139.223       2860.777       3.7566984e+08  0.1            15479300       3.0717261      1341.3213      13413.162      4.0718267    
  42748200   156749.63      152.91933     -42487765       1.5926134      464904.67     -42022860       721.5539       721.5539       721.5539       2139.223       2860.777       2139.223       2860.777       2139.223       2860.777       3.7566984e+08  0.1            15479320       3.0865263      1351.3304      13513.423      4.058214     
  42748400   158001.88      155.94316     -42486848       1.5926134      468618.72     -42018229       721.5539       721.5539       721.5539       2139.223       2860.777       2139.223       2860.777       2139.223       2860.777       3.7566984e+08  0.1            15479340       3.1010719      1375           13749.723      4.0442588    
  42748600   159472.57      159.42543     -42478546       1.5926134      472980.66     -42005565       721.5539       721.5539       721.5539       2139.223       2860.777       2139.223       2860.777       2139.223       2860.777       3.7566984e+08  0.1            15479360       3.1155451      1381.8685      13818.802      4.0302039    
  42748800   161105.78      163.14582     -42468349       1.5926134      477824.6      -41990524       721.5539       721.5539       721.5539       2139.223       2860.777       2139.223       2860.777       2139.223       2860.777       3.7566984e+08  0.1            15479380       3.1300725      1376.7087      13767.238      4.016215     
  42749000   162830.19      166.3028      -42474803       1.5926134      482939.04     -41991864       721.5539       721.5539       721.5539       2139.223       2860.777       2139.223       2860.777       2139.223       2860.777       3.7566984e+08  0.1            15479400       3.1451027      1330.6558      13306.485      4.0028612    
  42749200   164566.58      169.7471      -42464971       1.5926134      488089.01     -41976882       721.5539       721.5539       721.5539       2139.223       2860.777       2139.223       2860.777       2139.223       2860.777       3.7566984e+08  0.1            15479420       3.1601113      1332.5638      13325.694      3.9894649    
  42749400   166236.11      172.21879     -42462145       1.5926134      493040.68     -41969105       721.5539       721.5539       721.5539       2139.223       2860.777       2139.223       2860.777       2139.223       2860.777       3.7566984e+08  0.1            15479440       3.1749367      1349.0256      13490.283      3.9758248    
  42749600   167766         174.30227     -42466699       1.5926134      497578.19     -41969121       721.5539       721.5539       721.5539       2139.223       2860.777       2139.223       2860.777       2139.223       2860.777       3.7566984e+08  0.1            15479460       3.18958        1365.8137      13658.11       3.9619481    
  42749800   169092.23      177.28615     -42465767       1.5926134      501511.65     -41964255       721.5539       721.5539       721.5539       2139.223       2860.777       2139.223       2860.777       2139.223       2860.777       3.7566984e+08  0.1            15479480       3.2042202      1366.1078      13661.146      3.9480601    
[...]
  43394400   305.3792      -0.47675994    -42591687       1.6093452      905.72599     -42590781       719.0446       719.0446       719.0446       2140.4777      2859.5223      2140.4777      2859.5223      2140.4777      2859.5223      3.7176413e+08  0.1            15543940       25.327899      1200.6368      12006.376      0.92769783   
  43394600   305.37687      4.8367176     -42591750       1.6095082      905.7191      -42590844       719.02032      719.02032      719.02032      2140.4898      2859.5102      2140.4898      2859.5102      2140.4898      2859.5102      3.7172647e+08  0.1            15543960       25.344834      1180.996       11809.923      0.91017367   
  43394800   305.34024     -3.2329143     -42591816       1.609273       905.61045     -42590910       719.05535      719.05535      719.05535      2140.4723      2859.5277      2140.4723      2859.5277      2140.4723      2859.5277      3.7178081e+08  0.1            15543980       25.361787      1179.6825      11796.863      0.89265099   
  43395000   305.33153      3.1412959     -42591880       1.6094677      905.58461     -42590975       719.02635      719.02635      719.02635      2140.4868      2859.5132      2140.4868      2859.5132      2140.4868      2859.5132      3.7173582e+08  0.1            15544000       25.378476      1198.4085      11984.011      0.87511996   
  43395200   305.36001      2.6060258     -42591945       1.6094569      905.66908     -42591040       719.02797      719.02797      719.02797      2140.486       2859.514       2140.486       2859.514       2140.486       2859.514       3.7173834e+08  0.1            15544020       25.395223      1194.2815      11942.874      0.85759203   
  43395400   305.35942     -4.1943647     -42592009       1.6092595      905.66733     -42591104       719.05737      719.05737      719.05737      2140.4713      2859.5287      2140.4713      2859.5287      2140.4713      2859.5287      3.7178394e+08  0.1            15544040       25.411909      1198.5692      11985.713      0.84006319   
  43395600   305.38333      7.8077064     -42592072       1.6096221      905.73826     -42591166       719.00336      719.00336      719.00336      2140.4983      2859.5017      2140.4983      2859.5017      2140.4983      2859.5017      3.7170017e+08  0.1            15544060       25.42856       1201.1404      12011.412      0.82253436   
  43395800   305.33059     -4.5895282     -42592139       1.6092579      905.58184     -42591233       719.0576       719.0576       719.0576       2140.4712      2859.5288      2140.4712      2859.5288      2140.4712      2859.5288      3.717843e+08   0.1            15544080       25.445584      1174.7849      11747.835      0.80501857   
  43396000   305.32738      3.0673783     -42592204       1.609491       905.57231     -42591298       719.02288      719.02288      719.02288      2140.4886      2859.5114      2140.4886      2859.5114      2140.4886      2859.5114      3.7173044e+08  0.1            15544100       25.462527      1180.4364      11804.327      0.78750092   
  43396200   305.35852      3.1280839     -42592268       1.609498       905.66466     -42591363       719.02185      719.02185      719.02185      2140.4891      2859.5109      2140.4891      2859.5109      2140.4891      2859.5109      3.7172884e+08  0.1            15544120       25.479223      1197.8975      11978.995      0.7699766    
  43396400   305.35645     -4.1069094     -42592333       1.6092876      905.65852     -42591427       719.05318      719.05318      719.05318      2140.4734      2859.5266      2140.4734      2859.5266      2140.4734      2859.5266      3.7177744e+08  0.1            15544140       25.495839      1203.6566      12036.58       0.75245106   
  43396600   305.3759       6.7010352     -42592396       1.6096146      905.71622     -42591490       719.00447      719.00447      719.00447      2140.4978      2859.5022      2140.4978      2859.5022      2140.4978      2859.5022      3.717019e+08   0.1            15544160       25.512444      1204.4652      12044.656      0.73492645   
  43396800   305.3335      -2.985213      -42592462       1.6093311      905.59047     -42591557       719.0467       719.0467       719.0467       2140.4767      2859.5233      2140.4767      2859.5233      2140.4767      2859.5233      3.7176738e+08  0.1            15544180       25.529077      1202.4231      12024.228      0.71740388   
  43397000   305.32052      2.1461362     -42592527       1.6094889      905.55197     -42591622       719.02319      719.02319      719.02319      2140.4884      2859.5116      2140.4884      2859.5116      2140.4884      2859.5116      3.7173093e+08  0.1            15544200       25.546094      1175.3162      11753.113      0.69989305   
  43397200   305.35188      2.314411      -42592592       1.6094989      905.64496     -42591686       719.0217       719.0217       719.0217       2140.4891      2859.5109      2140.4891      2859.5109      2140.4891      2859.5109      3.7172862e+08  0.1            15544220       25.563091      1176.6622      11766.654      0.68238238   
  43397400   305.36235     -1.4894261     -42592657       1.6093906      905.67602     -42591751       719.03783      719.03783      719.03783      2140.4811      2859.5189      2140.4811      2859.5189      2140.4811      2859.5189      3.7175364e+08  0.1            15544240       25.579741      1201.2294      12012.278      0.66486337   
  43397600   305.35878      3.3220215     -42592721       1.6095388      905.66543     -42591815       719.01577      719.01577      719.01577      2140.4921      2859.5079      2140.4921      2859.5079      2140.4921      2859.5079      3.7171942e+08  0.1            15544260       25.596354      1203.8486      12038.539      0.64734463   
  43397800   305.33904     -0.23114275    -42592786       1.6094378      905.60689     -42591880       719.03081      719.03081      719.03081      2140.4846      2859.5154      2140.4846      2859.5154      2140.4846      2859.5154      3.7174274e+08  0.1            15544280       25.612998      1201.652       12016.454      0.62982788   
  43398000   305.30967      0.78073352    -42592850       1.6094727      905.51977     -42591945       719.02561      719.02561      719.02561      2140.4872      2859.5128      2140.4872      2859.5128      2140.4872      2859.5128      3.7173467e+08  0.1            15544300       25.629668      1199.7246      11997.263      0.61231296   
  43398200   305.34632      2.4161294     -42592915       1.6095261      905.62849     -42592009       719.01765      719.01765      719.01765      2140.4912      2859.5088      2140.4912      2859.5088      2140.4912      2859.5088      3.7172234e+08  0.1            15544320       25.646806      1167.0143      11670.154      0.59481002   
  43398400   305.35871     -0.8060152     -42592979       1.6094349      905.66523     -42592074       719.03123      719.03123      719.03123      2140.4844      2859.5156      2140.4844      2859.5156      2140.4844      2859.5156      3.717434e+08   0.1            15544340       25.663957      1166.1555      11661.552      0.57730787   
  43398600   305.34757      2.1363394     -42593044       1.6095272      905.63218     -42592138       719.0175       719.0175       719.0175       2140.4912      2859.5088      2140.4912      2859.5088      2140.4912      2859.5088      3.717221e+08   0.1            15544360       25.680987      1174.3432      11743.402      0.55980359   
  43398800   305.33777      1.2896474     -42593108       1.6095066      905.60311     -42592203       719.02057      719.02057      719.02057      2140.4897      2859.5103      2140.4897      2859.5103      2140.4897      2859.5103      3.7172686e+08  0.1            15544380       25.698083      1169.8616      11698.59       0.54230134   
  43399000   305.29676     -0.61738808    -42593173       1.6094544      905.48149     -42592267       719.02833      719.02833      719.02833      2140.4858      2859.5142      2140.4858      2859.5142      2140.4858      2859.5142      3.717389e+08   0.1            15544400       25.715284      1162.7042      11627.043      0.52480178   
  43399200   305.34069      2.8678861     -42593237       1.6095626      905.61177     -42592331       719.01222      719.01222      719.01222      2140.4939      2859.5061      2140.4939      2859.5061      2140.4939      2859.5061      3.7171392e+08  0.1            15544420       25.733114      1121.7105      11217.051      0.50731503   
  43399400   305.35206     -0.79329861    -42593302       1.6094582      905.64552     -42592396       719.02777      719.02777      719.02777      2140.4861      2859.5139      2140.4861      2859.5139      2140.4861      2859.5139      3.7173802e+08  0.1            15544440       25.751485      1088.6782      10886.893      0.48983809   
  43399600   305.33065     -0.89185656    -42593366       1.6094598      905.582       -42592461       719.02754      719.02754      719.02754      2140.4862      2859.5138      2140.4862      2859.5138      2140.4862      2859.5138      3.7173767e+08  0.1            15544460       25.769128      1133.5996      11335.934      0.4723466    
  43399800   305.33365      1.31426       -42593799       1.609533       905.59089     -42592893       719.01663      719.01663      719.01663      2140.4917      2859.5083      2140.4917      2859.5083      2140.4917      2859.5083      3.7172075e+08  0.1            15544480       25.786631      1142.7058      11427.045      0.45485242   
  43400000   305.28883     -1.2515184     -42593863       1.6094611      905.45797     -42592958       719.02733      719.02733      719.02733      2140.4863      2859.5137      2140.4863      2859.5137      2140.4863      2859.5137      3.7173735e+08  0.1            15544500       25.805684      1049.6683      10496.691      0.43738452   
  43400200   305.33737      3.3505325     -42593927       1.6096023      905.60193     -42593022       719.00632      719.00632      719.00632      2140.4968      2859.5032      2140.4968      2859.5032      2140.4968      2859.5032      3.7170476e+08  0.1            15544520       25.823344      1132.5489      11325.474      0.41989181   
  43400400   305.35528      1.0842464     -42593992       1.6095392      905.65505     -42593087       719.0157       719.0157       719.0157       2140.4921      2859.5079      2140.4921      2859.5079      2140.4921      2859.5079      3.7171931e+08  0.1            15544540       25.841453      1104.3828      11043.669      0.40240589   
  43400600   305.32075     -2.0897682     -42594056       1.6094493      905.55265     -42593151       719.0291       719.0291       719.0291       2140.4855      2859.5145      2140.4855      2859.5145      2140.4855      2859.5145      3.7174009e+08  0.1            15544560       25.859634      1100.0577      11000.768      0.38492017   
  43400800   305.33748      4.1057329     -42594120       1.6096375      905.60226     -42593215       719.00107      719.00107      719.00107      2140.4995      2859.5005      2140.4995      2859.5005      2140.4995      2859.5005      3.7169662e+08  0.1            15544580       25.87721       1137.9344      11379.304      0.36742492   
  43401000   305.29481      2.0106828     -42594185       1.6095795      905.4757      -42593280       719.00971      719.00971      719.00971      2140.4951      2859.5049      2140.4951      2859.5049      2140.4951      2859.5049      3.7171002e+08  0.1            15544600       25.894693      1143.928       11439.139      0.34992833   
  43401200   305.30574     -3.824527      -42594249       1.6094105      905.50814     -42593344       719.03487      719.03487      719.03487      2140.4826      2859.5174      2140.4826      2859.5174      2140.4826      2859.5174      3.7174905e+08  0.1            15544620       25.912277      1137.4005      11374.185      0.33243303   
  43401400   305.35911      3.3349199     -42594314       1.609627       905.66641     -42593408       719.00263      719.00263      719.00263      2140.4987      2859.5013      2140.4987      2859.5013      2140.4987      2859.5013      3.7169903e+08  0.1            15544640       25.929919      1133.7009      11336.876      0.31493832   
  43401600   305.34326      5.3304857     -42594377       1.6096903      905.61942     -42593471       718.99322      718.99322      718.99322      2140.5034      2859.4966      2140.5034      2859.4966      2140.5034      2859.4966      3.7168444e+08  0.1            15544660       25.947647      1128.1004      11281.114      0.29744441   
  43401800   305.30304     -3.7361522     -42594442       1.6094255      905.50012     -42593537       719.03264      719.03264      719.03264      2140.4837      2859.5163      2140.4837      2859.5163      2140.4837      2859.5163      3.7174558e+08  0.1            15544680       25.965344      1130.1473      11301.494      0.27994983   
  43402000   305.27377     -2.142992      -42594507       1.6094767      905.4133      -42593602       719.02501      719.02501      719.02501      2140.4875      2859.5125      2140.4875      2859.5125      2140.4875      2859.5125      3.7173375e+08  0.1            15544700       25.98306       1128.9435      11289.326      0.26245518   
  43402200   305.33873      6.4509824     -42594569       1.6097351      905.60596     -42593664       718.98654      718.98654      718.98654      2140.5067      2859.4933      2140.5067      2859.4933      2140.5067      2859.4933      3.7167408e+08  0.1            15544720       26.00088       1122.3169      11223.265      0.24496121   
  43402400   305.35593      3.9920443     -42594635       1.6096661      905.65699     -42593729       718.99682      718.99682      718.99682      2140.5016      2859.4984      2140.5016      2859.4984      2140.5016      2859.4984      3.7169002e+08  0.1            15544740       26.018717      1121.2928      11212.921      0.22746695   
  43402600   305.30277     -3.775835      -42594699       1.60944        905.4993      -42593794       719.03048      719.03048      719.03048      2140.4848      2859.5152      2140.4848      2859.5152      2140.4848      2859.5152      3.7174223e+08  0.1            15544760       26.036458      1127.3357      11273.291      0.20997146   
  43402800   305.29819     -3.1435713     -42594764       1.6094625      905.48572     -42593858       719.02714      719.02714      719.02714      2140.4864      2859.5136      2140.4864      2859.5136      2140.4864      2859.5136      3.7173705e+08  0.1            15544780       26.054804      1090.1504      10901.585      0.1924801    
  43403000   305.28647      3.5021842     -42594828       1.6096625      905.45097     -42593923       718.99735      718.99735      718.99735      2140.5013      2859.4987      2140.5013      2859.4987      2140.5013      2859.4987      3.7169085e+08  0.1            15544800       26.07252       1128.8918      11282.884      0.17498344   
  43403200   305.32882      6.2101241     -42594891       1.6097459      905.57658     -42593985       718.98492      718.98492      718.98492      2140.5075      2859.4925      2140.5075      2859.4925      2140.5075      2859.4925      3.7167158e+08  0.1            15544820       26.090259      1127.4956      11280.958      0.15748649   
  43403400   305.34113      2.5974597     -42594957       1.6096427      905.61309     -42594051       719.0003       719.0003       719.0003       2140.4999      2859.5001      2140.4999      2859.5001      2140.4999      2859.5001      3.7169542e+08  0.1            15544840       26.107837      1137.7924      11377.934      0.13998842   
  43403600   305.29735     -2.2835889     -42595021       1.609502       905.48324     -42594116       719.02124      719.02124      719.02124      2140.4894      2859.5106      2140.4894      2859.5106      2140.4894      2859.5106      3.717279e+08   0.1            15544860       26.125778      1114.7314      11147.298      0.12249194   
  43403800   305.2838      -3.7503215     -42595085       1.6094621      905.44306     -42594179       719.02718      719.02718      719.02718      2140.4864      2859.5136      2140.4864      2859.5136      2140.4864      2859.5136      3.7173712e+08  0.1            15544880       26.143832      1107.7898      11077.924      0.10499532   
  43404000   305.25468     -1.3964697     -42595149       1.6095348      905.35667     -42594244       719.01636      719.01636      719.01636      2140.4918      2859.5082      2140.4918      2859.5082      2140.4918      2859.5082      3.7172033e+08  0.1            15544900       26.162489      1072.0161      10720.139      0.087499972  
  43404200   305.30005      2.327797      -42595213       1.6096478      905.49126     -42594308       718.99954      718.99954      718.99954      2140.5002      2859.4998      2140.5002      2859.4998      2140.5002      2859.4998      3.7169425e+08  0.1            15544920       26.180844      1089.5922      10895.915      0.070002265  
  43404400   305.33485      4.9204455     -42595276       1.6097272      905.59446     -42594371       718.98771      718.98771      718.98771      2140.5061      2859.4939      2140.5061      2859.4939      2140.5061      2859.4939      3.716759e+08   0.1            15544940       26.199394      1078.1732      10781.702      0.052503801  
  43404600   305.3095       5.3311958     -42595340       1.6097424      905.51929     -42594435       718.98545      718.98545      718.98545      2140.5073      2859.4927      2140.5073      2859.4927      2140.5073      2859.4927      3.716724e+08   0.1            15544960       26.217716      1091.5919      10915.986      0.03500363   
  43404800   305.29529      3.899669      -42595405       1.6097033      905.47714     -42594499       718.99128      718.99128      718.99128      2140.5044      2859.4956      2140.5044      2859.4956      2140.5044      2859.4956      3.7168143e+08  0.1            15544980       26.235594      1118.6531      11186.524      0.017502066  
  43405000   305.23014     -3.2558703     -42595469       1.6094958      905.28391     -42594564       719.02217      719.02217      719.02217      2140.4889      2859.5111      2140.4889      2859.5111      2140.4889      2859.5111      3.7172935e+08  0.1            15545000       26.254164      1077.0517      10770.37       0            
Loop time of 26.2542 on 4 procs for 300000 steps with 996 atoms

Performance: 98.727 ns/day, 0.243 hours/ns, 11426.730 timesteps/s
99.5% CPU use with 4 MPI tasks x 1 OpenMP threads

MPI task timing breakdown:
Section |  min time  |  avg time  |  max time  |%varavg| %total
---------------------------------------------------------------
Pair    | 10.26      | 12.019     | 13.363     |  32.2 | 45.78
Neigh   | 0.0058924  | 0.0063955  | 0.0068005  |   0.5 |  0.02
Comm    | 6.2603     | 7.5346     | 9.2985     |  40.2 | 28.70
Output  | 0.077198   | 0.087252   | 0.11617    |   5.7 |  0.33
Modify  | 5.4769     | 5.5928     | 5.6753     |   3.1 | 21.30
Other   |            | 1.014      |            |       |  3.86

Nlocal:            249 ave         275 max         235 min
Histogram: 1 1 1 0 0 0 0 0 0 1
Nghost:         663.25 ave         677 max         647 min
Histogram: 1 0 0 0 0 1 1 0 0 1
Neighs:        1597.75 ave        1745 max        1407 min
Histogram: 1 0 0 0 0 1 1 0 0 1

Total # of neighbors = 6391
Ave neighs/atom = 6.4166667
Neighbor list builds = 32
Dangerous builds = 2

# run_style
run_style verlet

# write restart
write_restart ${write_res}
write_restart ./pgnpmf/37/equpmf62.res
System init for write_restart ...
Generated 0 of 1 mixed pair_coeff terms from geometric mixing rule

Total wall time: 0:00:55
