LAMMPS (23 Jun 2022 - Update 1)
OMP_NUM_THREADS environment is not set. Defaulting to 1 thread. (src/comm.cpp:98)
  using 1 OpenMP thread(s) per MPI task
# Read restart
read_restart ${read_res}
read_restart ./pgnpmf/37/equpmf79.res
Reading restart file ...
  restart file = 23 Jun 2022, LAMMPS = 23 Jun 2022
  restoring atom style atomic from restart
  orthogonal box = (2148.4317 2148.4317 2148.4317) to (2851.5683 2851.5683 2851.5683)
  1 by 2 by 2 MPI processor grid
  restoring pair style table from restart
  996 atoms
  read_restart CPU = 0.011 seconds

# Settings

pair_style table spline 9941

pair_coeff 1 1 ./pgnpmf/N20.txt DE_GNP 75.6
pair_coeff 2 2 ./pgnpmf/N100.txt DE_GNP 115.92
WARNING: 3 of 9941 force values in table DE_GNP are inconsistent with -dE/dr.
WARNING:  Should only be flagged at inflection points (src/pair_table.cpp:463)
pair_coeff 1 2 ./pgnpmf/mixed_potential.txt DE_GNP 95.66
WARNING: 1562 of 9941 force values in table DE_GNP are inconsistent with -dE/dr.
WARNING:  Should only be flagged at inflection points (src/pair_table.cpp:463)

#Neigh_list Calc Frequency

neigh_modify delay 0 every 1 check yes

# Saving Frequency (50 frames)

variable ts_save equal ${steps_equ}
variable ts_save equal 5000

# Dump
#dump 1 all custom ${ts_save} ./pgnpmf/${folder}/equilibration/trajectory/trajectory_${usic}_${trial}.equ.custom type x y z ix iy iz
#dump_modify 1 first no sort id
dump 2 all cfg 50000 ./pgnpmf/${folder}/equilibration/trajectory/dumpgen.tens_*.cfg mass type xs ys zs fx fy fz
dump 2 all cfg 50000 ./pgnpmf/37/equilibration/trajectory/dumpgen.tens_*.cfg mass type xs ys zs fx fy fz
dump_modify 2 element N20 N100

# thermo_style
thermo_style custom step temp press pe density ke etotal lx ly lz xlo xhi ylo yhi zlo zhi vol dt time cpu tpcpu spcpu cpuremain

# run info
timestep ${ts}
timestep 0.1
thermo 200

# fix

fix 1 all momentum 1000 linear 1 1 1 angular
variable T equal ${temp}
variable T equal 300
fix 2 all nvt temp ${T} 370000 100.0
fix 2 all nvt temp 300 370000 100.0

run 100000
Generated 0 of 1 mixed pair_coeff terms from geometric mixing rule
Unused restart file global fix info:
  fix style: npt, fix ID: 5
Neighbor list info ...
  update every 1 steps, delay 0 steps, check yes
  max neighbors/atom: 2000, page size: 100000
  master list distance cutoff = 117.92
  ghost atom cutoff = 117.92
  binsize = 58.96, bins = 12 12 12
  1 neighbor lists, perpetual/occasional/extra = 1 0 0
  (1) pair table, perpetual
      attributes: half, newton on
      pair build: half/bin/atomonly/newton
      stencil: half/bin/3d
      bin: standard
Per MPI rank memory allocation (min/avg/max) = 3.081 | 3.082 | 3.082 Mbytes
   Step          Temp          Press          PotEng        Density         KinEng         TotEng           Lx             Ly             Lz            Xlo            Xhi            Ylo            Yhi            Zlo            Zhi           Volume           Dt            Time           CPU           T/CPU          S/CPU         CPULeft    
  55305000   305.20237     -1.0166591     -43688274       1.7210664      905.20154     -43687369       703.13658      703.13658      703.13658      2148.4317      2851.5683      2148.4317      2851.5683      2148.4317      2851.5683      3.4763146e+08  0.1            16735000       0              0              0              0            
  55305200   332.19315     -1.1524352     -43688340       1.7210664      985.25366     -43687355       703.13658      703.13658      703.13658      2148.4317      2851.5683      2148.4317      2851.5683      2148.4317      2851.5683      3.4763146e+08  0.1            16735020       0.015838057    1262.6994      12626.292      7.904635     
  55305400   372.64874     -1.2905004     -43688409       1.7210664      1105.2411     -43687304       703.13658      703.13658      703.13658      2148.4317      2851.5683      2148.4317      2851.5683      2148.4317      2851.5683      3.4763146e+08  0.1            16735040       0.031046429    1315.0598      13150.511      7.7312956    
  55305600   416.44842     -1.4362235     -43688483       1.7210664      1235.1469     -43687248       703.13658      703.13658      703.13658      2148.4317      2851.5683      2148.4317      2851.5683      2148.4317      2851.5683      3.4763146e+08  0.1            16735060       0.046811162    1268.6662      12686.785      7.7554763    
  55305800   469.6413      -1.5880736     -43688560       1.7210664      1392.912      -43687168       703.13658      703.13658      703.13658      2148.4317      2851.5683      2148.4317      2851.5683      2148.4317      2851.5683      3.4763146e+08  0.1            16735080       0.062273959    1293.4241      12934.148      7.722317     
  55306000   531.59807     -1.7476771     -43688643       1.7210664      1576.6699     -43687066       703.13658      703.13658      703.13658      2148.4317      2851.5683      2148.4317      2851.5683      2148.4317      2851.5683      3.4763146e+08  0.1            16735100       0.077611778    1303.9671      13039.657      7.6838483    
  55306200   602.83436     -1.9157861     -43688730       1.7210664      1787.95       -43686943       703.13658      703.13658      703.13658      2148.4317      2851.5683      2148.4317      2851.5683      2148.4317      2851.5683      3.4763146e+08  0.1            16735120       0.092862783    1311.4022      13114.092      7.6459116    
  55306400   684.24294     -2.0929575     -43688824       1.7210664      2029.4002     -43686794       703.13658      703.13658      703.13658      2148.4317      2851.5683      2148.4317      2851.5683      2148.4317      2851.5683      3.4763146e+08  0.1            16735140       0.10795341     1325.3357      13253.402      7.6031726    
  55306600   776.93123     -2.2797309     -43688923       1.7210664      2304.305      -43686619       703.13658      703.13658      703.13658      2148.4317      2851.5683      2148.4317      2851.5683      2148.4317      2851.5683      3.4763146e+08  0.1            16735160       0.12316808     1314.5166      13145.104      7.5749925    
  55306800   882.19887     -2.4765657     -43689028       1.7210664      2616.5189     -43686412       703.13658      703.13658      703.13658      2148.4317      2851.5683      2148.4317      2851.5683      2148.4317      2851.5683      3.4763146e+08  0.1            16735180       0.13853095     1301.8466      13018.501      7.5577659    
  55307000   1001.2831     -2.683754      -43689141       1.7210664      2969.7114     -43686171       703.13658      703.13658      703.13658      2148.4317      2851.5683      2148.4317      2851.5683      2148.4317      2851.5683      3.4763146e+08  0.1            16735200       0.15357694     1329.257       13284.141      7.5258596    
  55307200   1136.2308     -2.9009075     -43689260       1.7210664      3369.9536     -43685890       703.13658      703.13658      703.13658      2148.4317      2851.5683      2148.4317      2851.5683      2148.4317      2851.5683      3.4763146e+08  0.1            16735220       0.16902372     1294.7479      12955.501      7.5139902    
  55307400   1288.7742     -3.1277853     -43689387       1.7210664      3822.383      -43685565       703.13658      703.13658      703.13658      2148.4317      2851.5683      2148.4317      2851.5683      2148.4317      2851.5683      3.4763146e+08  0.1            16735240       0.18422465     1315.7278      13157.274      7.4919055    
  55307600   1461.0343     -3.751354      -43696900       1.7210664      4333.2903     -43692567       703.13658      703.13658      703.13658      2148.4317      2851.5683      2148.4317      2851.5683      2148.4317      2851.5683      3.4763146e+08  0.1            16735260       0.19962295     1298.8439      12988.437      7.4782742    
  55307800   1655.3343     -3.9974433     -43697043       1.7210664      4909.5661     -43692134       703.13658      703.13658      703.13658      2148.4317      2851.5683      2148.4317      2851.5683      2148.4317      2851.5683      3.4763146e+08  0.1            16735280       0.21482323     1315.7684      13157.693      7.4575178    
  55308000   1873.9955     -4.2526944     -43697196       1.7210664      5558.0944     -43691638       703.13658      703.13658      703.13658      2148.4317      2851.5683      2148.4317      2851.5683      2148.4317      2851.5683      3.4763146e+08  0.1            16735300       0.23007917     1310.9587      13109.456      7.4393126    
  55308200   2120.2525     -4.5184793     -43697358       1.7210664      6288.4695     -43691069       703.13658      703.13658      703.13658      2148.4317      2851.5683      2148.4317      2851.5683      2148.4317      2851.5683      3.4763146e+08  0.1            16735320       0.24644164     1222.3166      12223.271      7.454931     
  55308400   2397.106      -4.7970869     -43697529       1.7210664      7109.5911     -43690420       703.13658      703.13658      703.13658      2148.4317      2851.5683      2148.4317      2851.5683      2148.4317      2851.5683      3.4763146e+08  0.1            16735340       0.26207337     1279.4422      12794.405      7.4460466    
  55308600   2708.0054     -5.09336       -43697711       1.7210664      8031.6894     -43689680       703.13658      703.13658      703.13658      2148.4317      2851.5683      2148.4317      2851.5683      2148.4317      2851.5683      3.4763146e+08  0.1            16735360       0.27766571     1282.6651      12826.616      7.4353434    
  55308800   3056.7472     -5.8001553     -43705283       1.7210664      9066.0248     -43696216       703.13658      703.13658      703.13658      2148.4317      2851.5683      2148.4317      2851.5683      2148.4317      2851.5683      3.4763146e+08  0.1            16735380       0.29346077     1266.2394      12662.329      7.4292579    
  55309000   3447.1588     -6.1502409     -43705488       1.7210664      10223.949     -43695264       703.13658      703.13658      703.13658      2148.4317      2851.5683      2148.4317      2851.5683      2148.4317      2851.5683      3.4763146e+08  0.1            16735400       0.30933425     1259.9566      12599.571      7.4240869    
  55309200   3884.0278     -6.5378395     -43705705       1.7210664      11519.661     -43694185       703.13658      703.13658      703.13658      2148.4317      2851.5683      2148.4317      2851.5683      2148.4317      2851.5683      3.4763146e+08  0.1            16735420       0.32529765     1252.8817      12528.888      7.4199383    
  55309400   4371.9405     -6.969874      -43705935       1.7210664      12966.764     -43692968       703.13658      703.13658      703.13658      2148.4317      2851.5683      2148.4317      2851.5683      2148.4317      2851.5683      3.4763146e+08  0.1            16735440       0.34163808     1223.9456      12239.46       7.4229197    
  55309600   4915.9187     -7.4458587     -43706178       1.7210664      14580.153     -43691598       703.13658      703.13658      703.13658      2148.4317      2851.5683      2148.4317      2851.5683      2148.4317      2851.5683      3.4763146e+08  0.1            16735460       0.35757733     1254.7705      12547.695      7.4158952    
  55309800   5521.2366     -7.9555785     -43706436       1.7210664      16375.469     -43690061       703.13658      703.13658      703.13658      2148.4317      2851.5683      2148.4317      2851.5683      2148.4317      2851.5683      3.4763146e+08  0.1            16735480       0.37301187     1295.7854      12957.912      7.398117     
  55310000   6193.1164     -8.3655326     -43706341       1.7210664      18368.201     -43687973       703.13658      703.13658      703.13658      2148.4317      2851.5683      2148.4317      2851.5683      2148.4317      2851.5683      3.4763146e+08  0.1            16735500       0.38849929     1291.3614      12913.484      7.3815393    
  55310200   6937.5235     -8.8874944     -43706629       1.7210664      20576.043     -43686053       703.13658      703.13658      703.13658      2148.4317      2851.5683      2148.4317      2851.5683      2148.4317      2851.5683      3.4763146e+08  0.1            16735520       0.40404156     1286.8231      12868.341      7.3660344    
  55310400   7759.8698     -9.3798677     -43706934       1.7210664      23015.045     -43683919       703.13658      703.13658      703.13658      2148.4317      2851.5683      2148.4317      2851.5683      2148.4317      2851.5683      3.4763146e+08  0.1            16735540       0.41920618     1318.8621      13188.622      7.3439135    
  55310600   8665.5962     -9.8182463     -43707254       1.7210664      25701.344     -43681553       703.13658      703.13658      703.13658      2148.4317      2851.5683      2148.4317      2851.5683      2148.4317      2851.5683      3.4763146e+08  0.1            16735560       0.43442299     1314.3409      13143.405      7.3231698    
  55310800   9659.855      -10.190729     -43707592       1.7210664      28650.222     -43678942       703.13658      703.13658      703.13658      2148.4317      2851.5683      2148.4317      2851.5683      2148.4317      2851.5683      3.4763146e+08  0.1            16735580       0.4497988      1300.7101      13007.153      7.3053973    
  55311000   10747.044     -10.517543     -43707947       1.7210664      31874.722     -43676072       703.13658      703.13658      703.13658      2148.4317      2851.5683      2148.4317      2851.5683      2148.4317      2851.5683      3.4763146e+08  0.1            16735600       0.46553103     1271.2987      12712.867      7.2933621    
  55311200   11931.47      -10.830826     -43708320       1.7210664      35387.618     -43672932       703.13658      703.13658      703.13658      2148.4317      2851.5683      2148.4317      2851.5683      2148.4317      2851.5683      3.4763146e+08  0.1            16735620       0.48118604     1277.5531      12775.554      7.2799199    
  55311400   13215.816     -11.157427     -43708711       1.7210664      39196.867     -43669514       703.13658      703.13658      703.13658      2148.4317      2851.5683      2148.4317      2851.5683      2148.4317      2851.5683      3.4763146e+08  0.1            16735640       0.49672112     1287.4138      12874.104      7.264585     
  55311600   14601.475     -11.134297     -43701744       1.7210664      43306.602     -43658437       703.13658      703.13658      703.13658      2148.4317      2851.5683      2148.4317      2851.5683      2148.4317      2851.5683      3.4763146e+08  0.1            16735660       0.51196003     1312.4205      13124.333      7.2450441    
  55311800   16087.936     -11.405994     -43701806       1.7210664      47715.305     -43654091       703.13658      703.13658      703.13658      2148.4317      2851.5683      2148.4317      2851.5683      2148.4317      2851.5683      3.4763146e+08  0.1            16735680       0.5273147      1302.5086      13025.107      7.227351     
  55312000   17671.962     -11.801383     -43702257       1.7210664      52413.379     -43649844       703.13658      703.13658      703.13658      2148.4317      2851.5683      2148.4317      2851.5683      2148.4317      2851.5683      3.4763146e+08  0.1            16735700       0.54281454     1290.3709      12903.622      7.2117151    
  55312200   19348.117     -12.227947     -43702728       1.7210664      57384.697     -43645343       703.13658      703.13658      703.13658      2148.4317      2851.5683      2148.4317      2851.5683      2148.4317      2851.5683      3.4763146e+08  0.1            16735720       0.55798437     1318.4162      13184.232      7.1918261    
  55312400   21106.982     -12.555324     -43701324       1.7210664      62601.325     -43638722       703.13658      703.13658      703.13658      2148.4317      2851.5683      2148.4317      2851.5683      2148.4317      2851.5683      3.4763146e+08  0.1            16735740       0.57311214     1322.0624      13220.585      7.1716753    
  55312600   22935.278     -13.152051     -43701834       1.7210664      68023.88      -43633810       703.13658      703.13658      703.13658      2148.4317      2851.5683      2148.4317      2851.5683      2148.4317      2851.5683      3.4763146e+08  0.1            16735760       0.58808836     1335.4234      13354.214      7.1499489    
  55312800   24815.211     -13.87671      -43702364       1.7210664      73599.585     -43628764       703.13658      703.13658      703.13658      2148.4317      2851.5683      2148.4317      2851.5683      2148.4317      2851.5683      3.4763146e+08  0.1            16735780       0.60294514     1346.2123      13462.174      7.1271484    
  55313000   26723.982     -14.721862     -43702911       1.7210664      79260.818     -43623650       703.13658      703.13658      703.13658      2148.4317      2851.5683      2148.4317      2851.5683      2148.4317      2851.5683      3.4763146e+08  0.1            16735800       0.61784879     1341.9523      13419.444      7.1052895    
  55313200   28634.508     -15.642582     -43703474       1.7210664      84927.258     -43618547       703.13658      703.13658      703.13658      2148.4317      2851.5683      2148.4317      2851.5683      2148.4317      2851.5683      3.4763146e+08  0.1            16735820       0.63288853     1329.8123      13298.162      7.0852905    
  55313400   30514.212     -16.560213     -43704053       1.7210664      90502.283     -43613551       703.13658      703.13658      703.13658      2148.4317      2851.5683      2148.4317      2851.5683      2148.4317      2851.5683      3.4763146e+08  0.1            16735840       0.64826912     1300.3381      13003.467      7.0692444    
  55313600   32326.079     -17.389128     -43704644       1.7210664      95876.11      -43608768       703.13658      703.13658      703.13658      2148.4317      2851.5683      2148.4317      2851.5683      2148.4317      2851.5683      3.4763146e+08  0.1            16735860       0.66375831     1291.2229      12912.191      7.0543865    
  55313800   34029.659     -18.135268     -43705247       1.7210664      100928.77     -43604318       703.13658      703.13658      703.13658      2148.4317      2851.5683      2148.4317      2851.5683      2148.4317      2851.5683      3.4763146e+08  0.1            16735880       0.67894056     1317.2959      13172.735      7.0363245    
  55314000   35582.665     -19.245685     -43713237       1.7210664      105534.84     -43607702       703.13658      703.13658      703.13658      2148.4317      2851.5683      2148.4317      2851.5683      2148.4317      2851.5683      3.4763146e+08  0.1            16735900       0.69413221     1316.5377      13165.383      7.0184768    
  55314200   36944.587     -19.808588     -43711963       1.7210664      109574.17     -43602389       703.13658      703.13658      703.13658      2148.4317      2851.5683      2148.4317      2851.5683      2148.4317      2851.5683      3.4763146e+08  0.1            16735920       0.70933588     1315.4795      13154.982      7.0008602    
  55314400   38078.501     -20.585865     -43712590       1.7210664      112937.25     -43599653       703.13658      703.13658      703.13658      2148.4317      2851.5683      2148.4317      2851.5683      2148.4317      2851.5683      3.4763146e+08  0.1            16735940       0.72515063     1264.642       12646.218      6.9892427    
  55314600   38957.545     -21.064567     -43705844       1.7210664      115544.42     -43590299       703.13658      703.13658      703.13658      2148.4317      2851.5683      2148.4317      2851.5683      2148.4317      2851.5683      3.4763146e+08  0.1            16735960       0.74308908     1114.9244      11149.392      6.9974442    
  55314800   39569.827     -22.019994     -43706478       1.7210664      117360.39     -43589117       703.13658      703.13658      703.13658      2148.4317      2851.5683      2148.4317      2851.5683      2148.4317      2851.5683      3.4763146e+08  0.1            16735980       0.75881975     1271.4004      12713.975      6.9842614    
  55315000   39923.978     -23.160375     -43707112       1.7210664      118410.77     -43588701       703.13658      703.13658      703.13658      2148.4317      2851.5683      2148.4317      2851.5683      2148.4317      2851.5683      3.4763146e+08  0.1            16736000       0.7740569      1312.5533      13125.421      6.9665382    
  55315200   40052.421     -24.537578     -43707745       1.7210664      118791.71     -43588953       703.13658      703.13658      703.13658      2148.4317      2851.5683      2148.4317      2851.5683      2148.4317      2851.5683      3.4763146e+08  0.1            16736020       0.78940245     1303.3368      13033.45       6.9498618    
  55315400   40008.313     -25.956384     -43708374       1.7210664      118660.89     -43589713       703.13658      703.13658      703.13658      2148.4317      2851.5683      2148.4317      2851.5683      2148.4317      2851.5683      3.4763146e+08  0.1            16736040       0.804822       1297.0487      12970.433      6.933874     
  55315600   39859.815     -27.274528     -43708998       1.7210664      118220.46     -43590777       703.13658      703.13658      703.13658      2148.4317      2851.5683      2148.4317      2851.5683      2148.4317      2851.5683      3.4763146e+08  0.1            16736060       0.82009761     1309.2852      13092.977      6.9166925    
  55315800   39681.302     -29.019351     -43716992       1.7210664      117691.01     -43599301       703.13658      703.13658      703.13658      2148.4317      2851.5683      2148.4317      2851.5683      2148.4317      2851.5683      3.4763146e+08  0.1            16736080       0.83529629     1315.9056      13158.911      6.8989496    
  55316000   39544.989     -30.447302     -43717601       1.7210664      117286.72     -43600314       703.13658      703.13658      703.13658      2148.4317      2851.5683      2148.4317      2851.5683      2148.4317      2851.5683      3.4763146e+08  0.1            16736100       0.85076692     1292.7595      12927.667      6.8834991    
  55316200   39516.219     -31.777953     -43718202       1.7210664      117201.39     -43601001       703.13658      703.13658      703.13658      2148.4317      2851.5683      2148.4317      2851.5683      2148.4317      2851.5683      3.4763146e+08  0.1            16736120       0.86643316     1276.6374      12766.43       6.869597     
  55316400   39650.35      -32.827208     -43718798       1.7210664      117599.21     -43601198       703.13658      703.13658      703.13658      2148.4317      2851.5683      2148.4317      2851.5683      2148.4317      2851.5683      3.4763146e+08  0.1            16736140       0.88164688     1314.6046      13146.029      6.8521162    
  55316600   39991.641     -33.53677      -43719390       1.7210664      118611.45     -43600779       703.13658      703.13658      703.13658      2148.4317      2851.5683      2148.4317      2851.5683      2148.4317      2851.5683      3.4763146e+08  0.1            16736160       0.8971145      1293.0199      12930.222      6.8366495    
  55316800   40571.191     -34.046943     -43721508       1.7210664      120330.34     -43601178       703.13658      703.13658      703.13658      2148.4317      2851.5683      2148.4317      2851.5683      2148.4317      2851.5683      3.4763146e+08  0.1            16736180       0.91282183     1273.2974      12732.992      6.8229739    
  55317000   41403.895     -34.338075     -43722101       1.7210664      122800.06     -43599301       703.13658      703.13658      703.13658      2148.4317      2851.5683      2148.4317      2851.5683      2148.4317      2851.5683      3.4763146e+08  0.1            16736200       0.9287878      1252.6574      12526.5        6.8111303    
  55317200   42484.97      -34.177708     -43715320       1.7210664      126006.43     -43589314       703.13658      703.13658      703.13658      2148.4317      2851.5683      2148.4317      2851.5683      2148.4317      2851.5683      3.4763146e+08  0.1            16736220       0.94489094     1241.9892      12419.92       6.8001365    
  55317400   43787.699     -34.501312     -43715921       1.7210664      129870.2      -43586051       703.13658      703.13658      703.13658      2148.4317      2851.5683      2148.4317      2851.5683      2148.4317      2851.5683      3.4763146e+08  0.1            16736240       0.9609221      1247.5765      12475.68       6.7884679    
  55317600   45265.89      -35.347433     -43723905       1.7210664      134254.38     -43589650       703.13658      703.13658      703.13658      2148.4317      2851.5683      2148.4317      2851.5683      2148.4317      2851.5683      3.4763146e+08  0.1            16736260       0.97639052     1292.9586      12929.714      6.7727572    
  55317800   46859.064     -35.88012      -43724515       1.7210664      138979.58     -43585535       703.13658      703.13658      703.13658      2148.4317      2851.5683      2148.4317      2851.5683      2148.4317      2851.5683      3.4763146e+08  0.1            16736280       0.99188363     1290.8762      12908.779      6.7572246    
  55318000   48498.558     -36.48719      -43725129       1.7210664      143842.16     -43581287       703.13658      703.13658      703.13658      2148.4317      2851.5683      2148.4317      2851.5683      2148.4317      2851.5683      3.4763146e+08  0.1            16736300       1.0075179      1279.2616      12792.606      6.7426359    
  55318200   50115.211     -37.155975     -43725745       1.7210664      148637        -43577108       703.13658      703.13658      703.13658      2148.4317      2851.5683      2148.4317      2851.5683      2148.4317      2851.5683      3.4763146e+08  0.1            16736320       1.0230501      1287.6442      12876.456      6.7273458    
  55318400   51642.336     -37.962022     -43726361       1.7210664      153166.32     -43573195       703.13658      703.13658      703.13658      2148.4317      2851.5683      2148.4317      2851.5683      2148.4317      2851.5683      3.4763146e+08  0.1            16736340       1.0388903      1262.6139      12626.135      6.7140374    
  55318600   53020.288     -38.894517     -43726977       1.7210664      157253.19     -43569724       703.13658      703.13658      703.13658      2148.4317      2851.5683      2148.4317      2851.5683      2148.4317      2851.5683      3.4763146e+08  0.1            16736360       1.0542191      1304.7412      13047.197      6.6974073    
  55318800   54199.52      -39.7388       -43727592       1.7210664      160750.68     -43566841       703.13658      703.13658      703.13658      2148.4317      2851.5683      2148.4317      2851.5683      2148.4317      2851.5683      3.4763146e+08  0.1            16736380       1.0697792      1285.3299      12853.411      6.6822597    
  55319000   55143.28      -40.534161     -43728204       1.7210664      163549.78     -43564654       703.13658      703.13658      703.13658      2148.4317      2851.5683      2148.4317      2851.5683      2148.4317      2851.5683      3.4763146e+08  0.1            16736400       1.0851185      1303.8417      13038.473      6.6657428    
  55319200   55833.003     -41.286619     -43726917       1.7210664      165595.44     -43561321       703.13658      703.13658      703.13658      2148.4317      2851.5683      2148.4317      2851.5683      2148.4317      2851.5683      3.4763146e+08  0.1            16736420       1.1003864      1309.9408      13099.114      6.64883      
  55319400   56270.281     -42.255889     -43727889       1.7210664      166892.36     -43560997       703.13658      703.13658      703.13658      2148.4317      2851.5683      2148.4317      2851.5683      2148.4317      2851.5683      3.4763146e+08  0.1            16736440       1.1156912      1306.776       13068.051      6.6321785    
  55319600   56478.327     -42.664828     -43728486       1.7210664      167509.41     -43560976       703.13658      703.13658      703.13658      2148.4317      2851.5683      2148.4317      2851.5683      2148.4317      2851.5683      3.4763146e+08  0.1            16736460       1.1310379      1303.2223      13032.199      6.6158106    
  55319800   56501.082     -42.838509     -43729074       1.7210664      167576.9      -43561497       703.13658      703.13658      703.13658      2148.4317      2851.5683      2148.4317      2851.5683      2148.4317      2851.5683      3.4763146e+08  0.1            16736480       1.1465569      1288.7275      12887.329      6.6004638    
  55320000   56399.354     -43.017186     -43722275       1.7210664      167275.18     -43555000       703.13658      703.13658      703.13658      2148.4317      2851.5683      2148.4317      2851.5683      2148.4317      2851.5683      3.4763146e+08  0.1            16736500       1.1621389      1283.54        12835.302      6.5854683    
  55320200   56243.952     -44.223759     -43722847       1.7210664      166814.27     -43556033       703.13658      703.13658      703.13658      2148.4317      2851.5683      2148.4317      2851.5683      2148.4317      2851.5683      3.4763146e+08  0.1            16736520       1.1775806      1295.1999      12952.028      6.5696734    
  55320400   56106.891     -46.065715     -43730792       1.7210664      166407.76     -43564384       703.13658      703.13658      703.13658      2148.4317      2851.5683      2148.4317      2851.5683      2148.4317      2851.5683      3.4763146e+08  0.1            16736540       1.1928029      1313.8572      13138.642      6.5526834    
  55320600   56055.812     -47.042137     -43723974       1.7210664      166256.27     -43557718       703.13658      703.13658      703.13658      2148.4317      2851.5683      2148.4317      2851.5683      2148.4317      2851.5683      3.4763146e+08  0.1            16736560       1.207966       1318.9841      13189.56       6.5354208    
  55320800   56149.036     -48.262632     -43724526       1.7210664      166532.76     -43557993       703.13658      703.13658      703.13658      2148.4317      2851.5683      2148.4317      2851.5683      2148.4317      2851.5683      3.4763146e+08  0.1            16736580       1.2232231      1310.8728      13108.98       6.5187077    
  55321000   56434.436     -49.336985     -43725069       1.7210664      167379.23     -43557690       703.13658      703.13658      703.13658      2148.4317      2851.5683      2148.4317      2851.5683      2148.4317      2851.5683      3.4763146e+08  0.1            16736600       1.2385409      1305.6489      13048.401      6.5024046    
  55321200   56948.006     -50.238292     -43725607       1.7210664      168902.43     -43556704       703.13658      703.13658      703.13658      2148.4317      2851.5683      2148.4317      2851.5683      2148.4317      2851.5683      3.4763146e+08  0.1            16736620       1.2540464      1289.8883      12906.815      6.4869932    
  55321400   57709.231     -50.728064     -43725772       1.7210664      171160.15     -43554612       703.13658      703.13658      703.13658      2148.4317      2851.5683      2148.4317      2851.5683      2148.4317      2851.5683      3.4763146e+08  0.1            16736640       1.2693909      1303.3877      13033.846      6.47081      
  55321600   58718.984     -51.131933     -43731785       1.7210664      174154.99     -43557630       703.13658      703.13658      703.13658      2148.4317      2851.5683      2148.4317      2851.5683      2148.4317      2851.5683      3.4763146e+08  0.1            16736660       1.2846758      1308.4925      13084.914      6.4543469    
  55321800   59958.776     -50.628428     -43724933       1.7210664      177832.09     -43547101       703.13658      703.13658      703.13658      2148.4317      2851.5683      2148.4317      2851.5683      2148.4317      2851.5683      3.4763146e+08  0.1            16736680       1.2997071      1330.547       13305.41       6.436657     
  55322000   61389.978     -50.35155      -43725455       1.7210664      182076.9      -43543378       703.13658      703.13658      703.13658      2148.4317      2851.5683      2148.4317      2851.5683      2148.4317      2851.5683      3.4763146e+08  0.1            16736700       1.3146856      1335.2525      13352.359      6.4187725    
  55322200   62958.634     -49.960852     -43725974       1.7210664      186729.39     -43539245       703.13658      703.13658      703.13658      2148.4317      2851.5683      2148.4317      2851.5683      2148.4317      2851.5683      3.4763146e+08  0.1            16736720       1.3296325      1338.0764      13381.033      6.4007998    
  55322400   64598.926     -49.871424     -43728385       1.7210664      191594.34     -43536791       703.13658      703.13658      703.13658      2148.4317      2851.5683      2148.4317      2851.5683      2148.4317      2851.5683      3.4763146e+08  0.1            16736740       1.3449932      1302.0242      13020.159      6.3848658    
  55322600   66239.867     -50.100219     -43728898       1.7210664      196461.22     -43532437       703.13658      703.13658      703.13658      2148.4317      2851.5683      2148.4317      2851.5683      2148.4317      2851.5683      3.4763146e+08  0.1            16736760       1.3605553      1285.1635      12851.721      6.3698835    
  55322800   67810.66      -51.032442     -43735093       1.7210664      201120.04     -43533973       703.13658      703.13658      703.13658      2148.4317      2851.5683      2148.4317      2851.5683      2148.4317      2851.5683      3.4763146e+08  0.1            16736780       1.3758191      1310.2977      13102.852      6.3535129    
  55323000   69244.614     -51.339943     -43737492       1.7210664      205373.02     -43532119       703.13658      703.13658      703.13658      2148.4317      2851.5683      2148.4317      2851.5683      2148.4317      2851.5683      3.4763146e+08  0.1            16736800       1.3912882      1292.9065      12929.122      6.3381013    
  55323200   70485.892     -51.318589     -43737990       1.7210664      209054.53     -43528935       703.13658      703.13658      703.13658      2148.4317      2851.5683      2148.4317      2851.5683      2148.4317      2851.5683      3.4763146e+08  0.1            16736820       1.406563       1309.336       13093.345      6.321816     
  55323400   71492.434     -51.347046     -43731104       1.7210664      212039.84     -43519064       703.13658      703.13658      703.13658      2148.4317      2851.5683      2148.4317      2851.5683      2148.4317      2851.5683      3.4763146e+08  0.1            16736840       1.4217548      1316.4946      13165.001      6.3051841    
  55323600   72240.198     -52.351968     -43731589       1.7210664      214257.64     -43517331       703.13658      703.13658      703.13658      2148.4317      2851.5683      2148.4317      2851.5683      2148.4317      2851.5683      3.4763146e+08  0.1            16736860       1.4372545      1290.3655      12903.675      6.2899295    
  55323800   72725.332     -53.345346     -43730171       1.7210664      215696.5      -43514474       703.13658      703.13658      703.13658      2148.4317      2851.5683      2148.4317      2851.5683      2148.4317      2851.5683      3.4763146e+08  0.1            16736880       1.4526509      1298.9937      12989.918      6.2742257    
  55324000   72966.824     -54.370588     -43730637       1.7210664      216412.74     -43514224       703.13658      703.13658      703.13658      2148.4317      2851.5683      2148.4317      2851.5683      2148.4317      2851.5683      3.4763146e+08  0.1            16736900       1.468181       1287.8105      12878.009      6.2590987    
  55324200   73005.875     -55.683406     -43738470       1.7210664      216528.56     -43521941       703.13658      703.13658      703.13658      2148.4317      2851.5683      2148.4317      2851.5683      2148.4317      2851.5683      3.4763146e+08  0.1            16736920       1.4835787      1298.8942      12989.041      6.2434039    
  55324400   72901.193     -56.538808     -43738547       1.7210664      216218.09     -43522329       703.13658      703.13658      703.13658      2148.4317      2851.5683      2148.4317      2851.5683      2148.4317      2851.5683      3.4763146e+08  0.1            16736940       1.4993454      1268.5069      12685.011      6.229249     
  55324600   72722.355     -57.85461      -43746360       1.7210664      215687.67     -43530672       703.13658      703.13658      703.13658      2148.4317      2851.5683      2148.4317      2851.5683      2148.4317      2851.5683      3.4763146e+08  0.1            16736960       1.5147156      1301.1954      13011.946      6.2134365    
  55324800   72542.872     -58.769346     -43746783       1.7210664      215155.34     -43531628       703.13658      703.13658      703.13658      2148.4317      2851.5683      2148.4317      2851.5683      2148.4317      2851.5683      3.4763146e+08  0.1            16736980       1.5302659      1286.172       12861.593      6.1983606    
  55325000   72434.291     -59.547953     -43747195       1.7210664      214833.3      -43532362       703.13658      703.13658      703.13658      2148.4317      2851.5683      2148.4317      2851.5683      2148.4317      2851.5683      3.4763146e+08  0.1            16737000       1.546203       1254.9282      12549.429      6.184822     
  55325200   72462.099     -60.224342     -43747596       1.7210664      214915.78     -43532680       703.13658      703.13658      703.13658      2148.4317      2851.5683      2148.4317      2851.5683      2148.4317      2851.5683      3.4763146e+08  0.1            16737020       1.5620093      1265.3324      12653.392      6.1707189    
  55325400   72680.47      -60.997014     -43747989       1.7210664      215563.44     -43532425       703.13658      703.13658      703.13658      2148.4317      2851.5683      2148.4317      2851.5683      2148.4317      2851.5683      3.4763146e+08  0.1            16737040       1.5773229      1306.0165      13060.149      6.1546613    
  55325600   73128.937     -61.961907     -43748371       1.7210664      216893.55     -43531477       703.13658      703.13658      703.13658      2148.4317      2851.5683      2148.4317      2851.5683      2148.4317      2851.5683      3.4763146e+08  0.1            16737060       1.5925236      1315.7315      13157.33       6.1381828    
  55325800   73830.471     -62.739498     -43748740       1.7210664      218974.24     -43529766       703.13658      703.13658      703.13658      2148.4317      2851.5683      2148.4317      2851.5683      2148.4317      2851.5683      3.4763146e+08  0.1            16737080       1.6078461      1305.2677      13052.688      6.1221921    
  55326000   74790.627     -63.612997     -43756475       1.7210664      221821.97     -43534653       703.13658      703.13658      703.13658      2148.4317      2851.5683      2148.4317      2851.5683      2148.4317      2851.5683      3.4763146e+08  0.1            16737100       1.6231094      1310.338       13103.279      6.1059923    
  55326200   75996.001     -64.296918     -43764202       1.7210664      225397        -43538805       703.13658      703.13658      703.13658      2148.4317      2851.5683      2148.4317      2851.5683      2148.4317      2851.5683      3.4763146e+08  0.1            16737120       1.6385247      1297.4036      12973.998      6.0903747    
  55326400   77412.497     -64.069309     -43757168       1.7210664      229598.19     -43527570       703.13658      703.13658      703.13658      2148.4317      2851.5683      2148.4317      2851.5683      2148.4317      2851.5683      3.4763146e+08  0.1            16737140       1.6537886      1310.2871      13102.919      6.074205     
  55326600   78987.816     -64.124477     -43757506       1.7210664      234270.44     -43523236       703.13658      703.13658      703.13658      2148.4317      2851.5683      2148.4317      2851.5683      2148.4317      2851.5683      3.4763146e+08  0.1            16737160       1.669163       1300.8511      13008.507      6.0584528    
  55326800   80655.622     -63.584504     -43750460       1.7210664      239216.99     -43511243       703.13658      703.13658      703.13658      2148.4317      2851.5683      2148.4317      2851.5683      2148.4317      2851.5683      3.4763146e+08  0.1            16737180       1.6839611      1351.541       13515.46       6.0406394    
  55327000   82341.717     -63.071531     -43749258       1.7210664      244217.79     -43505040       703.13658      703.13658      703.13658      2148.4317      2851.5683      2148.4317      2851.5683      2148.4317      2851.5683      3.4763146e+08  0.1            16737200       1.6986313      1363.3055      13633.032      6.0224288    
  55327200   83971.132     -62.651369     -43749940       1.7210664      249050.48     -43500890       703.13658      703.13658      703.13658      2148.4317      2851.5683      2148.4317      2851.5683      2148.4317      2851.5683      3.4763146e+08  0.1            16737220       1.7131431      1378.1904      13781.964      6.0037258    
  55327400   85472.327     -62.224383     -43743234       1.7210664      253502.89     -43489731       703.13658      703.13658      703.13658      2148.4317      2851.5683      2148.4317      2851.5683      2148.4317      2851.5683      3.4763146e+08  0.1            16737240       1.727589       1384.4661      13844.677      5.9848701    
  55327600   86783.649     -62.228368     -43743525       1.7210664      257392.15     -43486133       703.13658      703.13658      703.13658      2148.4317      2851.5683      2148.4317      2851.5683      2148.4317      2851.5683      3.4763146e+08  0.1            16737260       1.7423081      1358.7905      13587.81       5.9670277    
  55327800   87857.326     -61.740065     -43736425       1.7210664      260576.57     -43475849       703.13658      703.13658      703.13658      2148.4317      2851.5683      2148.4317      2851.5683      2148.4317      2851.5683      3.4763146e+08  0.1            16737280       1.756658       1393.7062      13937.149      5.9479911    
  55328000   88663.845     -61.736407     -43736691       1.7210664      262968.63     -43473722       703.13658      703.13658      703.13658      2148.4317      2851.5683      2148.4317      2851.5683      2148.4317      2851.5683      3.4763146e+08  0.1            16737300       1.7714138      1355.422       13554.092      5.9303939    
  55328200   89196.327     -62.22036      -43736945       1.7210664      264547.92     -43472397       703.13658      703.13658      703.13658      2148.4317      2851.5683      2148.4317      2851.5683      2148.4317      2851.5683      3.4763146e+08  0.1            16737320       1.7857994      1390.294       13902.979      5.9116192    
  55328400   89469.955     -62.890321     -43737187       1.7210664      265359.48     -43471828       703.13658      703.13658      703.13658      2148.4317      2851.5683      2148.4317      2851.5683      2148.4317      2851.5683      3.4763146e+08  0.1            16737340       1.8001535      1393.3211      13933.321      5.8928176    
  55328600   89521.259     -63.825861     -43744792       1.7210664      265511.64     -43479280       703.13658      703.13658      703.13658      2148.4317      2851.5683      2148.4317      2851.5683      2148.4317      2851.5683      3.4763146e+08  0.1            16737360       1.8148169      1363.9483      13639.485      5.8750924    
  55328800   89406.619     -64.368051     -43745002       1.7210664      265171.63     -43479831       703.13658      703.13658      703.13658      2148.4317      2851.5683      2148.4317      2851.5683      2148.4317      2851.5683      3.4763146e+08  0.1            16737380       1.8292735      1383.4563      13834.602      5.8567563    
  55329000   89196.986     -64.913996     -43745199       1.7210664      264549.88     -43480649       703.13658      703.13658      703.13658      2148.4317      2851.5683      2148.4317      2851.5683      2148.4317      2851.5683      3.4763146e+08  0.1            16737400       1.8440162      1356.6023      13565.925      5.839392     
  55329200   88970.798     -64.672569     -43730630       1.7210664      263879.02     -43466751       703.13658      703.13658      703.13658      2148.4317      2851.5683      2148.4317      2851.5683      2148.4317      2851.5683      3.4763146e+08  0.1            16737420       1.8585077      1380.1213      13801.322      5.8212827    
  55329400   88804.29      -64.895427     -43730808       1.7210664      263385.18     -43467423       703.13658      703.13658      703.13658      2148.4317      2851.5683      2148.4317      2851.5683      2148.4317      2851.5683      3.4763146e+08  0.1            16737440       1.8731192      1368.7774      13687.763      5.8036054    
  55329600   88766.341     -65.042174     -43738352       1.7210664      263272.62     -43475080       703.13658      703.13658      703.13658      2148.4317      2851.5683      2148.4317      2851.5683      2148.4317      2851.5683      3.4763146e+08  0.1            16737460       1.8875249      1388.3449      13883.448      5.785347     
  55329800   88915.512     -63.961225     -43731126       1.7210664      263715.05     -43467411       703.13658      703.13658      703.13658      2148.4317      2851.5683      2148.4317      2851.5683      2148.4317      2851.5683      3.4763146e+08  0.1            16737480       1.9019106      1390.2755      13902.747      5.7670899    
  55330000   89297.467     -62.471023     -43723886       1.7210664      264847.89     -43459039       703.13658      703.13658      703.13658      2148.4317      2851.5683      2148.4317      2851.5683      2148.4317      2851.5683      3.4763146e+08  0.1            16737500       1.916307       1389.2121      13892.023      5.7489284    
  55330200   89940.353     -61.264064     -43724009       1.7210664      266754.63     -43457254       703.13658      703.13658      703.13658      2148.4317      2851.5683      2148.4317      2851.5683      2148.4317      2851.5683      3.4763146e+08  0.1            16737520       1.9308242      1377.6899      13777.018      5.7311828    
  55330400   90853.557     -60.423327     -43724115       1.7210664      269463.11     -43454652       703.13658      703.13658      703.13658      2148.4317      2851.5683      2148.4317      2851.5683      2148.4317      2851.5683      3.4763146e+08  0.1            16737540       1.9455751      1355.8503      13558.503      5.7141756    
  55330600   92026.727     -60.174841     -43724209       1.7210664      272942.62     -43451266       703.13658      703.13658      703.13658      2148.4317      2851.5683      2148.4317      2851.5683      2148.4317      2851.5683      3.4763146e+08  0.1            16737560       1.9600922      1377.6884      13776.851      5.6965241    
  55330800   93428.062     -60.00953      -43724291       1.7210664      277098.85     -43447192       703.13658      703.13658      703.13658      2148.4317      2851.5683      2148.4317      2851.5683      2148.4317      2851.5683      3.4763146e+08  0.1            16737580       1.9746163      1377.0218      13770.211      5.6789411    
  55331000   95006.073     -59.179608     -43723993       1.7210664      281779.08     -43442214       703.13658      703.13658      703.13658      2148.4317      2851.5683      2148.4317      2851.5683      2148.4317      2851.5683      3.4763146e+08  0.1            16737600       1.9890065      1389.8298      13898.229      5.6610251    
  55331200   96695.008     -57.95091      -43717042       1.7210664      286788.3      -43430254       703.13658      703.13658      703.13658      2148.4317      2851.5683      2148.4317      2851.5683      2148.4317      2851.5683      3.4763146e+08  0.1            16737620       2.003489       1380.9762      13809.849      5.6434217    
  55331400   98418.788     -56.929249     -43717086       1.7210664      291900.87     -43425185       703.13658      703.13658      703.13658      2148.4317      2851.5683      2148.4317      2851.5683      2148.4317      2851.5683      3.4763146e+08  0.1            16737640       2.0178321      1394.3933      13943.925      5.6254776    
  55331600   100099.1      -55.873062     -43717116       1.7210664      296884.51     -43420231       703.13658      703.13658      703.13658      2148.4317      2851.5683      2148.4317      2851.5683      2148.4317      2851.5683      3.4763146e+08  0.1            16737660       2.032138       1398.0082      13980.086      5.6074849    
  55331800   101662.04     -55.083408     -43719029       1.7210664      301520.06     -43417509       703.13658      703.13658      703.13658      2148.4317      2851.5683      2148.4317      2851.5683      2148.4317      2851.5683      3.4763146e+08  0.1            16737680       2.0467678      1367.0995      13670.994      5.5904313    
  55332000   103041.92     -53.74136      -43711659       1.7210664      305612.64     -43406047       703.13658      703.13658      703.13658      2148.4317      2851.5683      2148.4317      2851.5683      2148.4317      2851.5683      3.4763146e+08  0.1            16737700       2.0613143      1374.8972      13748.899      5.5731893    
  55332200   104185.58     -52.793893     -43711654       1.7210664      309004.64     -43402650       703.13658      703.13658      703.13658      2148.4317      2851.5683      2148.4317      2851.5683      2148.4317      2851.5683      3.4763146e+08  0.1            16737720       2.0758215      1378.6359      13786.421      5.5558806    
  55332400   105057.6      -52.908308     -43719010       1.7210664      311590.96     -43407419       703.13658      703.13658      703.13658      2148.4317      2851.5683      2148.4317      2851.5683      2148.4317      2851.5683      3.4763146e+08  0.1            16737740       2.0905829      1354.8736      13548.676      5.5392878    
  55332600   105645.9      -53.344962     -43718975       1.7210664      313335.82     -43405639       703.13658      703.13658      703.13658      2148.4317      2851.5683      2148.4317      2851.5683      2148.4317      2851.5683      3.4763146e+08  0.1            16737760       2.1050245      1384.8987      13849.039      5.5218813    
  55332800   105960.84     -53.441683     -43718923       1.7210664      314269.88     -43404653       703.13658      703.13658      703.13658      2148.4317      2851.5683      2148.4317      2851.5683      2148.4317      2851.5683      3.4763146e+08  0.1            16737780       2.1193595      1395.1746      13951.777      5.5042414    
  55333000   106035.65     -52.633997     -43718854       1.7210664      314491.77     -43404363       703.13658      703.13658      703.13658      2148.4317      2851.5683      2148.4317      2851.5683      2148.4317      2851.5683      3.4763146e+08  0.1            16737800       2.133732       1391.5363      13915.286      5.4867456    
  55333200   105924.96     -51.413783     -43720663       1.7210664      314163.47     -43406499       703.13658      703.13658      703.13658      2148.4317      2851.5683      2148.4317      2851.5683      2148.4317      2851.5683      3.4763146e+08  0.1            16737820       2.1484133      1362.2808      13622.905      5.4700791    
  55333400   105699.1      -50.34845      -43720563       1.7210664      313493.59     -43407070       703.13658      703.13658      703.13658      2148.4317      2851.5683      2148.4317      2851.5683      2148.4317      2851.5683      3.4763146e+08  0.1            16737840       2.1632466      1348.3315      13483.327      5.4538239    
  55333600   105436.58     -49.92503      -43720452       1.7210664      312714.97     -43407737       703.13658      703.13658      703.13658      2148.4317      2851.5683      2148.4317      2851.5683      2148.4317      2851.5683      3.4763146e+08  0.1            16737860       2.1777111      1382.6953      13826.942      5.4366684    
  55333800   105216.75     -49.507079     -43720328       1.7210664      312063        -43408265       703.13658      703.13658      703.13658      2148.4317      2851.5683      2148.4317      2851.5683      2148.4317      2851.5683      3.4763146e+08  0.1            16737880       2.1922544      1375.2053      13752.081      5.4197451    
  55334000   105113.63     -48.997852     -43722083       1.7210664      311757.14     -43410326       703.13658      703.13658      703.13658      2148.4317      2851.5683      2148.4317      2851.5683      2148.4317      2851.5683      3.4763146e+08  0.1            16737900       2.2066017      1393.99        13939.747      5.4023752    
  55334200   105191.95     -48.157942     -43723823       1.7210664      311989.44     -43411833       703.13658      703.13658      703.13658      2148.4317      2851.5683      2148.4317      2851.5683      2148.4317      2851.5683      3.4763146e+08  0.1            16737920       2.2209841      1390.5822      13905.94       5.3851309    
  55334400   105502.53     -47.180293     -43723651       1.7210664      312910.57     -43410740       703.13658      703.13658      703.13658      2148.4317      2851.5683      2148.4317      2851.5683      2148.4317      2851.5683      3.4763146e+08  0.1            16737940       2.235373       1389.9594      13899.45       5.3679421    
  55334600   106079.57     -46.620176     -43723462       1.7210664      314622.02     -43408840       703.13658      703.13658      703.13658      2148.4317      2851.5683      2148.4317      2851.5683      2148.4317      2851.5683      3.4763146e+08  0.1            16737960       2.2500186      1365.6027      13656.184      5.3514005    
  55334800   106938.04     -46.305187     -43723260       1.7210664      317168.17     -43406092       703.13658      703.13658      703.13658      2148.4317      2851.5683      2148.4317      2851.5683      2148.4317      2851.5683      3.4763146e+08  0.1            16737980       2.2646606      1365.9372      13659.33       5.3348765    
  55335000   108070.64     -45.949345     -43723044       1.7210664      320527.36     -43402517       703.13658      703.13658      703.13658      2148.4317      2851.5683      2148.4317      2851.5683      2148.4317      2851.5683      3.4763146e+08  0.1            16738000       2.2791681      1378.59        13785.746      5.3180645    
  55335200   109447.92     -45.303969     -43722814       1.7210664      324612.23     -43398201       703.13658      703.13658      703.13658      2148.4317      2851.5683      2148.4317      2851.5683      2148.4317      2851.5683      3.4763146e+08  0.1            16738020       2.2936135      1384.5352      13845.543      5.3011377    
  55335400   111019.34     -44.423491     -43722566       1.7210664      329272.93     -43393293       703.13658      703.13658      703.13658      2148.4317      2851.5683      2148.4317      2851.5683      2148.4317      2851.5683      3.4763146e+08  0.1            16738040       2.3080522      1385.163       13851.566      5.2842294    
  55335600   112718.16     -43.272937     -43722297       1.7210664      334311.48     -43387986       703.13658      703.13658      703.13658      2148.4317      2851.5683      2148.4317      2851.5683      2148.4317      2851.5683      3.4763146e+08  0.1            16738060       2.322423       1391.7031      13917.076      5.2671994    
  55335800   114467.93     -41.670662     -43722008       1.7210664      339501.13     -43382507       703.13658      703.13658      703.13658      2148.4317      2851.5683      2148.4317      2851.5683      2148.4317      2851.5683      3.4763146e+08  0.1            16738080       2.3370847      1364.0989      13640.873      5.2508578    
  55336000   116188.66     -39.484839     -43721699       1.7210664      344604.65     -43377094       703.13658      703.13658      703.13658      2148.4317      2851.5683      2148.4317      2851.5683      2148.4317      2851.5683      3.4763146e+08  0.1            16738100       2.3519469      1345.6935      13456.919      5.2349838    
  55336200   117803.8      -37.869185     -43736129       1.7210664      349395        -43386734       703.13658      703.13658      703.13658      2148.4317      2851.5683      2148.4317      2851.5683      2148.4317      2851.5683      3.4763146e+08  0.1            16738120       2.3669263      1335.1657      13351.766      5.2193807    
  55336400   119244.69     -35.653409     -43735422       1.7210664      353668.55     -43381753       703.13658      703.13658      703.13658      2148.4317      2851.5683      2148.4317      2851.5683      2148.4317      2851.5683      3.4763146e+08  0.1            16738140       2.3815963      1363.3353      13633.341      5.2031098    
  55336600   120454.89     -33.315732     -43727693       1.7210664      357257.87     -43370435       703.13658      703.13658      703.13658      2148.4317      2851.5683      2148.4317      2851.5683      2148.4317      2851.5683      3.4763146e+08  0.1            16738160       2.3960448      1384.2245      13842.256      5.1863799    
  55336800   121394.24     -31.614631     -43727327       1.7210664      360043.91     -43367283       703.13658      703.13658      703.13658      2148.4317      2851.5683      2148.4317      2851.5683      2148.4317      2851.5683      3.4763146e+08  0.1            16738180       2.4107096      1363.7984      13637.987      5.1701429    
  55337000   122044.02     -30.182926     -43725415       1.7210664      361971.1      -43363444       703.13658      703.13658      703.13658      2148.4317      2851.5683      2148.4317      2851.5683      2148.4317      2851.5683      3.4763146e+08  0.1            16738200       2.4253127      1369.5641      13695.533      5.1537948    
  55337200   122410.3      -29.092381     -43726907       1.7210664      363057.45     -43363849       703.13658      703.13658      703.13658      2148.4317      2851.5683      2148.4317      2851.5683      2148.4317      2851.5683      3.4763146e+08  0.1            16738220       2.439941       1367.232       13672.384      5.13752      
  55337400   122523.12     -28.33176      -43726855       1.7210664      363392.06     -43363463       703.13658      703.13658      703.13658      2148.4317      2851.5683      2148.4317      2851.5683      2148.4317      2851.5683      3.4763146e+08  0.1            16738240       2.4547063      1354.5269      13545.329      5.121552     
  55337600   122433.68     -27.742043     -43726419       1.7210664      363126.8      -43363292       703.13658      703.13658      703.13658      2148.4317      2851.5683      2148.4317      2851.5683      2148.4317      2851.5683      3.4763146e+08  0.1            16738260       2.4697568      1328.8576      13288.581      5.1061886    
  55337800   122209.21     -27.430476     -43733344       1.7210664      362461.03     -43370883       703.13658      703.13658      703.13658      2148.4317      2851.5683      2148.4317      2851.5683      2148.4317      2851.5683      3.4763146e+08  0.1            16738280       2.4843242      1372.9346      13729.32       5.0898392    
  55338000   121928.5      -26.346408     -43732880       1.7210664      361628.47     -43371251       703.13658      703.13658      703.13658      2148.4317      2851.5683      2148.4317      2851.5683      2148.4317      2851.5683      3.4763146e+08  0.1            16738300       2.4988771      1374.2886      13742.784      5.0734824    
  55338200   121674.43     -24.951009     -43732407       1.7210664      360874.93     -43371532       703.13658      703.13658      703.13658      2148.4317      2851.5683      2148.4317      2851.5683      2148.4317      2851.5683      3.4763146e+08  0.1            16738320       2.5133759      1379.4347      13794.471      5.0570374    
  55338400   121524.55     -23.660249     -43739303       1.7210664      360430.39     -43378873       703.13658      703.13658      703.13658      2148.4317      2851.5683      2148.4317      2851.5683      2148.4317      2851.5683      3.4763146e+08  0.1            16738340       2.5280172      1366.0002      13659.99       5.0409006    
  55338600   121546.05     -22.503687     -43746184       1.7210664      360494.17     -43385690       703.13658      703.13658      703.13658      2148.4317      2851.5683      2148.4317      2851.5683      2148.4317      2851.5683      3.4763146e+08  0.1            16738360       2.5429219      1341.8487      13418.487      5.0253021    
  55338800   121793.49     -21.526138     -43745668       1.7210664      361228.04     -43384440       703.13658      703.13658      703.13658      2148.4317      2851.5683      2148.4317      2851.5683      2148.4317      2851.5683      3.4763146e+08  0.1            16738380       2.5575116      1370.7916      13707.925      5.0090956    
  55339000   122306.54     -19.827115     -43737390       1.7210664      362749.7      -43374640       703.13658      703.13658      703.13658      2148.4317      2851.5683      2148.4317      2851.5683      2148.4317      2851.5683      3.4763146e+08  0.1            16738400       2.5723882      1344.4266      13444.199      4.9934639    
  55339200   123103.86     -18.165747     -43738736       1.7210664      365114.48     -43373621       703.13658      703.13658      703.13658      2148.4317      2851.5683      2148.4317      2851.5683      2148.4317      2851.5683      3.4763146e+08  0.1            16738420       2.5872556      1345.2353      13452.312      4.9778236    
  55339400   124183.25     -15.823545     -43730793       1.7210664      368315.85     -43362477       703.13658      703.13658      703.13658      2148.4317      2851.5683      2148.4317      2851.5683      2148.4317      2851.5683      3.4763146e+08  0.1            16738440       2.601715       1383.1715      13831.783      4.9614144    
  55339600   125520.22     -14.136903     -43730217       1.7210664      372281.18     -43357936       703.13658      703.13658      703.13658      2148.4317      2851.5683      2148.4317      2851.5683      2148.4317      2851.5683      3.4763146e+08  0.1            16738460       2.616135       1386.9604      13869.651      4.9449529    
  55339800   127068.04     -12.565187     -43729998       1.7210664      376871.86     -43353126       703.13658      703.13658      703.13658      2148.4317      2851.5683      2148.4317      2851.5683      2148.4317      2851.5683      3.4763146e+08  0.1            16738480       2.6307854      1365.1649      13651.669      4.9289464    
  55340000   128760.83     -11.203743     -43729395       1.7210664      381892.52     -43347502       703.13658      703.13658      703.13658      2148.4317      2851.5683      2148.4317      2851.5683      2148.4317      2851.5683      3.4763146e+08  0.1            16738500       2.6455151      1357.788       13577.754      4.9131038    
  55340200   130521.92     -10.265822     -43728771       1.7210664      387115.76     -43341655       703.13658      703.13658      703.13658      2148.4317      2851.5683      2148.4317      2851.5683      2148.4317      2851.5683      3.4763146e+08  0.1            16738520       2.6601473      1366.8549      13668.651      4.8970932    
  55340400   132269.99     -9.0966595     -43730023       1.7210664      392300.35     -43337722       703.13658      703.13658      703.13658      2148.4317      2851.5683      2148.4317      2851.5683      2148.4317      2851.5683      3.4763146e+08  0.1            16738540       2.6749968      1346.8385      13468.371      4.8814954    
  55340600   133924.89     -6.5633814     -43721982       1.7210664      397208.63     -43324773       703.13658      703.13658      703.13658      2148.4317      2851.5683      2148.4317      2851.5683      2148.4317      2851.5683      3.4763146e+08  0.1            16738560       2.6898357      1347.7953      13477.913      4.8658868    
  55340800   135413.97     -3.9890534     -43721298       1.7210664      401625.11     -43319673       703.13658      703.13658      703.13658      2148.4317      2851.5683      2148.4317      2851.5683      2148.4317      2851.5683      3.4763146e+08  0.1            16738580       2.7045664      1357.715       13577.151      4.8500925    
  55341000   136677.36     -1.6737785     -43722490       1.7210664      405372.21     -43317117       703.13658      703.13658      703.13658      2148.4317      2851.5683      2148.4317      2851.5683      2148.4317      2851.5683      3.4763146e+08  0.1            16738600       2.719284       1358.9143      13589.098      4.8342871    
  55341200   137673.42      0.56908793    -43721399       1.7210664      408326.41     -43313073       703.13658      703.13658      703.13658      2148.4317      2851.5683      2148.4317      2851.5683      2148.4317      2851.5683      3.4763146e+08  0.1            16738620       2.7340478      1354.6742      13546.501      4.8185749    
  55341400   138380.9       2.2310563     -43720661       1.7210664      410424.73     -43310236       703.13658      703.13658      703.13658      2148.4317      2851.5683      2148.4317      2851.5683      2148.4317      2851.5683      3.4763146e+08  0.1            16738640       2.7495067      1293.7186      12937.388      4.804088     
  55341600   138801.69      3.9858736     -43719909       1.7210664      411672.77     -43308236       703.13658      703.13658      703.13658      2148.4317      2851.5683      2148.4317      2851.5683      2148.4317      2851.5683      3.4763146e+08  0.1            16738660       2.7647424      1312.7394      13127.312      4.7892031    
  55341800   138962.04      6.3258301     -43711768       1.7210664      412148.35     -43299619       703.13658      703.13658      703.13658      2148.4317      2851.5683      2148.4317      2851.5683      2148.4317      2851.5683      3.4763146e+08  0.1            16738680       2.779883       1320.9423      13209.582      4.7741511    
  55342000   138908.85      7.6900377     -43713258       1.7210664      411990.6      -43301267       703.13658      703.13658      703.13658      2148.4317      2851.5683      2148.4317      2851.5683      2148.4317      2851.5683      3.4763146e+08  0.1            16738700       2.7950122      1321.9458      13219.477      4.7590951    
  55342200   138706.49      8.3471946     -43721747       1.7210664      411390.4      -43310357       703.13658      703.13658      703.13658      2148.4317      2851.5683      2148.4317      2851.5683      2148.4317      2851.5683      3.4763146e+08  0.1            16738720       2.8102529      1312.291       13122.834      4.7441943    
  55342400   138430.37      9.9994599     -43713576       1.7210664      410571.47     -43303004       703.13658      703.13658      703.13658      2148.4317      2851.5683      2148.4317      2851.5683      2148.4317      2851.5683      3.4763146e+08  0.1            16738740       2.8252424      1334.2509      13342.571      4.7288858    
  55342600   138162.63      11.528765     -43712774       1.7210664      409777.37     -43302997       703.13658      703.13658      703.13658      2148.4317      2851.5683      2148.4317      2851.5683      2148.4317      2851.5683      3.4763146e+08  0.1            16738760       2.8407962      1285.8629      12858.569      4.714517     
  55342800   137983.22      13.924154     -43704589       1.7210664      409245.25     -43295344       703.13658      703.13658      703.13658      2148.4317      2851.5683      2148.4317      2851.5683      2148.4317      2851.5683      3.4763146e+08  0.1            16738780       2.8564087      1281.0302      12810.293      4.700232     
  55343000   137963.33      15.426243     -43718529       1.7210664      409186.26     -43309343       703.13658      703.13658      703.13658      2148.4317      2851.5683      2148.4317      2851.5683      2148.4317      2851.5683      3.4763146e+08  0.1            16738800       2.8719897      1283.6139      12835.924      4.6858824    
  55343200   138162.3       17.27944      -43726610       1.7210664      409776.4      -43316834       703.13658      703.13658      703.13658      2148.4317      2851.5683      2148.4317      2851.5683      2148.4317      2851.5683      3.4763146e+08  0.1            16738820       2.8871977      1315.1012      13151.279      4.6709152    
  55343400   138621.63      18.319759     -43740531       1.7210664      411138.72     -43329392       703.13658      703.13658      703.13658      2148.4317      2851.5683      2148.4317      2851.5683      2148.4317      2851.5683      3.4763146e+08  0.1            16738840       2.9022715      1326.7775      13267.78       4.6557315    
  55343600   139363.78      19.490309     -43747060       1.7210664      413339.87     -43333720       703.13658      703.13658      703.13658      2148.4317      2851.5683      2148.4317      2851.5683      2148.4317      2851.5683      3.4763146e+08  0.1            16738860       2.917618       1303.2373      13032.381      4.6409819    
  55343800   140389.65      20.961157     -43746198       1.7210664      416382.49     -43329816       703.13658      703.13658      703.13658      2148.4317      2851.5683      2148.4317      2851.5683      2148.4317      2851.5683      3.4763146e+08  0.1            16738880       2.932725       1323.9049      13239.044      4.6258483    
  55344000   141678.01      23.394724     -43730569       1.7210664      420203.66     -43310365       703.13658      703.13658      703.13658      2148.4317      2851.5683      2148.4317      2851.5683      2148.4317      2851.5683      3.4763146e+08  0.1            16738900       2.9482872      1285.1685      12851.346      4.6114281    
  55344200   143185.34      25.61983      -43731208       1.7210664      424674.25     -43306534       703.13658      703.13658      703.13658      2148.4317      2851.5683      2148.4317      2851.5683      2148.4317      2851.5683      3.4763146e+08  0.1            16738920       2.9636367      1302.9735      13030.075      4.5966646    
  55344400   144849.53      28.433177     -43730305       1.7210664      429610.09     -43300695       703.13658      703.13658      703.13658      2148.4317      2851.5683      2148.4317      2851.5683      2148.4317      2851.5683      3.4763146e+08  0.1            16738940       2.9786077      1335.9266      13359.322      4.5813144    
  55344600   146596.85      31.250335     -43729385       1.7210664      434792.48     -43294593       703.13658      703.13658      703.13658      2148.4317      2851.5683      2148.4317      2851.5683      2148.4317      2851.5683      3.4763146e+08  0.1            16738960       2.9935418      1339.1942      13391.842      4.5659112    
  55344800   148347.62      33.668107     -43735830       1.7210664      439985.09     -43295844       703.13658      703.13658      703.13658      2148.4317      2851.5683      2148.4317      2851.5683      2148.4317      2851.5683      3.4763146e+08  0.1            16738980       3.0085618      1331.5678      13315.737      4.5506422    
  55345000   150020.98      36.28188      -43742258       1.7210664      444948.13     -43297310       703.13658      703.13658      703.13658      2148.4317      2851.5683      2148.4317      2851.5683      2148.4317      2851.5683      3.4763146e+08  0.1            16739000       3.02363        1327.2954      13272.871      4.5354489    
  55345200   151544.05      39.202673     -43733918       1.7210664      449465.4      -43284452       703.13658      703.13658      703.13658      2148.4317      2851.5683      2148.4317      2851.5683      2148.4317      2851.5683      3.4763146e+08  0.1            16739020       3.0386961      1327.486       13274.899      4.520253     
  55345400   152854.31      41.769519     -43731046       1.7210664      453351.53     -43277694       703.13658      703.13658      703.13658      2148.4317      2851.5683      2148.4317      2851.5683      2148.4317      2851.5683      3.4763146e+08  0.1            16739040       3.0540233      1304.8718      13048.773      4.5054437    
  55345600   153906.52      44.647836     -43730057       1.7210664      456472.27     -43273584       703.13658      703.13658      703.13658      2148.4317      2851.5683      2148.4317      2851.5683      2148.4317      2851.5683      3.4763146e+08  0.1            16739060       3.069442       1297.0953      12970.853      4.490764     
  55345800   154675.53      47.46633      -43729057       1.7210664      458753.08     -43270304       703.13658      703.13658      703.13658      2148.4317      2851.5683      2148.4317      2851.5683      2148.4317      2851.5683      3.4763146e+08  0.1            16739080       3.085005       1285.1284      12851.307      4.4762855    
  55346000   155157.24      49.909806     -43728043       1.7210664      460181.8      -43267861       703.13658      703.13658      703.13658      2148.4317      2851.5683      2148.4317      2851.5683      2148.4317      2851.5683      3.4763146e+08  0.1            16739100       3.1002463      1312.2339      13122.355      4.4613334    
  55346200   155372.08      52.107038     -43725121       1.7210664      460818.98     -43264302       703.13658      703.13658      703.13658      2148.4317      2851.5683      2148.4317      2851.5683      2148.4317      2851.5683      3.4763146e+08  0.1            16739120       3.1154195      1318.1111      13181.18       4.4462815    
  55346400   155363.57      54.178363     -43724087       1.7210664      460793.75     -43263293       703.13658      703.13658      703.13658      2148.4317      2851.5683      2148.4317      2851.5683      2148.4317      2851.5683      3.4763146e+08  0.1            16739140       3.1306086      1316.7322      13167.309      4.4312513    
  55346600   155190.94      56.553358     -43723041       1.7210664      460281.73     -43262760       703.13658      703.13658      703.13658      2148.4317      2851.5683      2148.4317      2851.5683      2148.4317      2851.5683      3.4763146e+08  0.1            16739160       3.1461236      1289.0621      12890.592      4.416677     
  55346800   154928.54      58.623402     -43723883       1.7210664      459503.48     -43264379       703.13658      703.13658      703.13658      2148.4317      2851.5683      2148.4317      2851.5683      2148.4317      2851.5683      3.4763146e+08  0.1            16739180       3.1615449      1296.9167      12969.188      4.4019629    
  55347000   154657.57      61.52127      -43715448       1.7210664      458699.82     -43256748       703.13658      703.13658      703.13658      2148.4317      2851.5683      2148.4317      2851.5683      2148.4317      2851.5683      3.4763146e+08  0.1            16739200       3.1773498      1265.4283      12654.177      4.3877724    
  55347200   154458.49      63.328544     -43721767       1.7210664      458109.38     -43263657       703.13658      703.13658      703.13658      2148.4317      2851.5683      2148.4317      2851.5683      2148.4317      2851.5683      3.4763146e+08  0.1            16739220       3.1929859      1279.098       12790.997      4.3733347    
  55347400   154404         65.097076     -43721070       1.7210664      457947.74     -43263122       703.13658      703.13658      703.13658      2148.4317      2851.5683      2148.4317      2851.5683      2148.4317      2851.5683      3.4763146e+08  0.1            16739240       3.2085707      1283.2995      12833.093      4.3588161    
  55347600   154555.46      66.856504     -43721890       1.7210664      458396.98     -43263493       703.13658      703.13658      703.13658      2148.4317      2851.5683      2148.4317      2851.5683      2148.4317      2851.5683      3.4763146e+08  0.1            16739260       3.2240976      1288.0587      12880.59       4.3442101    
  55347800   154959.92      69.303086     -43713430       1.7210664      459596.55     -43253834       703.13658      703.13658      703.13658      2148.4317      2851.5683      2148.4317      2851.5683      2148.4317      2851.5683      3.4763146e+08  0.1            16739280       3.2393252      1313.4219      13134.213      4.3291949    
  55348000   155643.93      71.950882     -43710445       1.7210664      461625.26     -43248820       703.13658      703.13658      703.13658      2148.4317      2851.5683      2148.4317      2851.5683      2148.4317      2851.5683      3.4763146e+08  0.1            16739300       3.255141       1264.565       12645.569      4.3149577    
  55348200   156613.33      74.328768     -43716725       1.7210664      464500.4      -43252225       703.13658      703.13658      703.13658      2148.4317      2851.5683      2148.4317      2851.5683      2148.4317      2851.5683      3.4763146e+08  0.1            16739320       3.2707605      1280.4516      12804.086      4.3004482    
  55348400   157850.86      77.447614     -43708242       1.7210664      468170.8      -43240071       703.13658      703.13658      703.13658      2148.4317      2851.5683      2148.4317      2851.5683      2148.4317      2851.5683      3.4763146e+08  0.1            16739340       3.286055       1307.659       13077.051      4.2855036    
  55348600   159316.76      80.127625     -43714137       1.7210664      472518.54     -43241619       703.13658      703.13658      703.13658      2148.4317      2851.5683      2148.4317      2851.5683      2148.4317      2851.5683      3.4763146e+08  0.1            16739360       3.3011991      1320.6478      13206.556      4.2703615    
  55348800   160952.36      83.342863     -43713012       1.7210664      477369.56     -43235643       703.13658      703.13658      703.13658      2148.4317      2851.5683      2148.4317      2851.5683      2148.4317      2851.5683      3.4763146e+08  0.1            16739380       3.3160929      1342.8439      13428.433      4.2548984    
  55349000   162685.3       86.452799     -43711875       1.7210664      482509.32     -43229366       703.13658      703.13658      703.13658      2148.4317      2851.5683      2148.4317      2851.5683      2148.4317      2851.5683      3.4763146e+08  0.1            16739400       3.3310875      1333.8123      13338.051      4.239569     
  55349200   164436.78      89.419653     -43703349       1.7210664      487704.04     -43215645       703.13658      703.13658      703.13658      2148.4317      2851.5683      2148.4317      2851.5683      2148.4317      2851.5683      3.4763146e+08  0.1            16739420       3.3464732      1299.9055      12999.088      4.2247361    
  55349400   166126.38      91.779476     -43702190       1.7210664      492715.22     -43209474       703.13658      703.13658      703.13658      2148.4317      2851.5683      2148.4317      2851.5683      2148.4317      2851.5683      3.4763146e+08  0.1            16739440       3.3617399      1310.0327      13100.371      4.2097494    
  55349600   167679.51      93.8651       -43708397       1.7210664      497321.67     -43211076       703.13658      703.13658      703.13658      2148.4317      2851.5683      2148.4317      2851.5683      2148.4317      2851.5683      3.4763146e+08  0.1            16739460       3.3769799      1312.3047      13123.065      4.1947274    
  55349800   169032.06      96.771895     -43707218       1.7210664      501333.21     -43205884       703.13658      703.13658      703.13658      2148.4317      2851.5683      2148.4317      2851.5683      2148.4317      2851.5683      3.4763146e+08  0.1            16739480       3.3920819      1324.3718      13243.668      4.1795325    
[...]
  55994400   305.64014      1.6057824     -43774884       1.7207486      906.49993     -43773978       703.17986      703.17986      703.17986      2148.4101      2851.5899      2148.4101      2851.5899      2148.4101      2851.5899      3.4769566e+08  0.1            16803940       26.220381      1083.4246      10834.223      0.96038726   
  55994600   305.46782     -0.27275847    -43774951       1.7207012      905.98885     -43774045       703.18632      703.18632      703.18632      2148.4068      2851.5932      2148.4068      2851.5932      2148.4068      2851.5932      3.4770524e+08  0.1            16803960       26.238986      1074.9685      10749.729      0.94228415   
  55994800   305.42971      2.3204841     -43775017       1.7207779      905.87582     -43774111       703.17586      703.17586      703.17586      2148.4121      2851.5879      2148.4121      2851.5879      2148.4121      2851.5879      3.4768973e+08  0.1            16803980       26.25772       1067.627       10676.263      0.92418485   
  55995000   305.1521       0.53142032    -43775083       1.720733       905.05244     -43774178       703.18198      703.18198      703.18198      2148.409       2851.591       2148.409       2851.591       2148.409       2851.591       3.4769881e+08  0.1            16804000       26.276713      1053.0154      10529.974      0.90609365   
  55995200   305.41761     -0.20677424    -43775149       1.7207173      905.83991     -43774243       703.18413      703.18413      703.18413      2148.4079      2851.5921      2148.4079      2851.5921      2148.4079      2851.5921      3.4770199e+08  0.1            16804020       26.295481      1065.6059      10656.266      0.88799361   
  55995400   305.64219      3.859579      -43775215       1.7208349      906.506       -43774308       703.16811      703.16811      703.16811      2148.4159      2851.5841      2148.4159      2851.5841      2148.4159      2851.5841      3.4767823e+08  0.1            16804040       26.314125      1072.7572      10727.583      0.86988852   
  55995600   305.45366     -1.9894445     -43775281       1.7206772      905.94685     -43774375       703.18958      703.18958      703.18958      2148.4052      2851.5948      2148.4052      2851.5948      2148.4052      2851.5948      3.4771008e+08  0.1            16804060       26.332683      1077.6675      10776.671      0.85177994   
  55995800   305.41816      1.8497159     -43775348       1.7207885      905.84156     -43774442       703.17443      703.17443      703.17443      2148.4128      2851.5872      2148.4128      2851.5872      2148.4128      2851.5872      3.476876e+08   0.1            16804080       26.351625      1055.8709      10558.732      0.83368287   
  55996000   305.15382      3.4467346     -43775414       1.7208375      905.05756     -43774508       703.16775      703.16775      703.16775      2148.4161      2851.5839      2148.4161      2851.5839      2148.4161      2851.5839      3.476777e+08   0.1            16804100       26.37059       1054.602       10545.966      0.81558534   
  55996200   305.39798     -3.6581887     -43775479       1.7206449      905.78171     -43774573       703.19399      703.19399      703.19399      2148.403       2851.597       2148.403       2851.597       2148.403       2851.597       3.4771661e+08  0.1            16804120       26.389259      1071.2677      10712.675      0.7974777    
  55996400   305.63636      5.0746612     -43775545       1.7208919      906.48871     -43774638       703.16034      703.16034      703.16034      2148.4198      2851.5802      2148.4198      2851.5802      2148.4198      2851.5802      3.4766671e+08  0.1            16804140       26.407815      1077.8273      10778.308      0.77936593   
  55996600   305.45052      0.22650537    -43775612       1.7207618      905.93752     -43774706       703.17805      703.17805      703.17805      2148.411       2851.589       2148.411       2851.589       2148.411       2851.589       3.4769298e+08  0.1            16804160       26.426364      1078.2034      10782.037      0.76125337   
  55996800   305.39476     -2.3106111     -43775678       1.720696       905.77215     -43774772       703.18703      703.18703      703.18703      2148.4065      2851.5935      2148.4065      2851.5935      2148.4065      2851.5935      3.477063e+08   0.1            16804180       26.44511       1066.8943      10668.915      0.74314575   
  55997000   305.15449      6.596707      -43775742       1.7209477      905.05955     -43774837       703.15274      703.15274      703.15274      2148.4236      2851.5764      2148.4236      2851.5764      2148.4236      2851.5764      3.4765543e+08  0.1            16804200       26.4638        1070.1124      10701.103      0.7250357    
  55997200   305.38731     -3.5420698     -43775809       1.7206707      905.75007     -43774904       703.19047      703.19047      703.19047      2148.4048      2851.5952      2148.4048      2851.5952      2148.4048      2851.5952      3.477114e+08   0.1            16804220       26.48281       1052.0554      10520.542      0.70693342   
  55997400   305.61361      1.6642135     -43775876       1.7208195      906.42124     -43774969       703.1702       703.1702       703.1702       2148.4149      2851.5851      2148.4149      2851.5851      2148.4149      2851.5851      3.4768133e+08  0.1            16804240       26.501453      1072.7824      10727.846      0.68882034   
  55997600   305.45286      4.726559      -43775941       1.7209088      905.94447     -43775035       703.15803      703.15803      703.15803      2148.421       2851.579       2148.421       2851.579       2148.421       2851.579       3.4766328e+08  0.1            16804260       26.520392      1056.0498      10560.508      0.67071402   
  55997800   305.37382     -4.9450163     -43776006       1.7206447      905.71005     -43775101       703.19401      703.19401      703.19401      2148.403       2851.597       2148.403       2851.597       2148.403       2851.597       3.4771666e+08  0.1            16804280       26.53935       1054.9583      10549.574      0.65260704   
  55998000   305.13947      5.62538       -43776072       1.7209423      905.01497     -43775167       703.15348      703.15348      703.15348      2148.4233      2851.5767      2148.4233      2851.5767      2148.4233      2851.5767      3.4765653e+08  0.1            16804300       26.558767      1030.0436      10300.453      0.63450985   
  55998200   305.38717      0.41005128    -43776139       1.7208016      905.74963     -43775233       703.17263      703.17263      703.17263      2148.4137      2851.5863      2148.4137      2851.5863      2148.4137      2851.5863      3.4768494e+08  0.1            16804320       26.578253      1026.3688      10263.69       0.61641249   
  55998400   305.58574     -2.6233677     -43776204       1.7207216      906.33859     -43775298       703.18354      703.18354      703.18354      2148.4082      2851.5918      2148.4082      2851.5918      2148.4082      2851.5918      3.4770112e+08  0.1            16804340       26.59728       1051.1381      10511.39       0.59830288   
  55998600   305.44342      6.357717      -43776269       1.720975       905.91647     -43775363       703.14903      703.14903      703.14903      2148.4255      2851.5745      2148.4255      2851.5745      2148.4255      2851.5745      3.4764993e+08  0.1            16804360       26.616375      1047.3342      10473.286      0.58019355   
  55998800   305.36738     -2.6277305     -43776336       1.7207295      905.69096     -43775430       703.18246      703.18246      703.18246      2148.4088      2851.5912      2148.4088      2851.5912      2148.4088      2851.5912      3.4769952e+08  0.1            16804380       26.635387      1052.0382      10520.387      0.56208106   
  55999000   305.11072      0.85467404    -43776402       1.7208302      904.92971     -43775497       703.16875      703.16875      703.16875      2148.4156      2851.5844      2148.4156      2851.5844      2148.4156      2851.5844      3.4767918e+08  0.1            16804400       26.654851      1027.5242      10275.292      0.54397661   
  55999200   305.3849       4.1845104     -43776467       1.7209266      905.7429      -43775561       703.15562      703.15562      703.15562      2148.4222      2851.5778      2148.4222      2851.5778      2148.4222      2851.5778      3.476597e+08   0.1            16804420       26.673863      1051.9546      10519.55       0.5258614    
  55999400   305.57102     -2.522527      -43776532       1.7207442      906.29492     -43775626       703.18046      703.18046      703.18046      2148.4098      2851.5902      2148.4098      2851.5902      2148.4098      2851.5902      3.4769655e+08  0.1            16804440       26.692175      1092.1638      10921.65       0.50773165   
  55999600   305.41469      2.4291748     -43776598       1.7208856      905.83125     -43775692       703.1612       703.1612       703.1612       2148.4194      2851.5806      2148.4194      2851.5806      2148.4194      2851.5806      3.4766798e+08  0.1            16804460       26.710361      1099.7766      10997.788      0.48959934   
  55999800   305.3682       2.1332144     -43776664       1.7208812      905.69338     -43775758       703.1618       703.1618       703.1618       2148.4191      2851.5809      2148.4191      2851.5809      2148.4191      2851.5809      3.4766887e+08  0.1            16804480       26.728503      1102.4176      11024.131      0.47146618   
  56000000   305.0903      -1.266964      -43776729       1.7207905      904.86916     -43775825       703.17415      703.17415      703.17415      2148.4129      2851.5871      2148.4129      2851.5871      2148.4129      2851.5871      3.4768719e+08  0.1            16804500       26.748601      995.11548      9951.1656      0.45336617   
  56000200   305.36403      2.4510637     -43776794       1.7208976      905.68102     -43775889       703.15957      703.15957      703.15957      2148.4202      2851.5798      2148.4202      2851.5798      2148.4202      2851.5798      3.4766556e+08  0.1            16804520       26.766639      1108.7762      11087.71       0.43522995   
  56000400   305.56826      1.3517642     -43776860       1.7208707      906.28673     -43775954       703.16322      703.16322      703.16322      2148.4184      2851.5816      2148.4184      2851.5816      2148.4184      2851.5816      3.4767098e+08  0.1            16804540       26.78408       1146.7405      11467.426      0.41708456   
  56000600   305.38886     -0.55714992    -43776925       1.7208213      905.75464     -43776019       703.16995      703.16995      703.16995      2148.415       2851.585       2148.415       2851.585       2148.415       2851.585       3.4768096e+08  0.1            16804560       26.801513      1147.2702      11472.742      0.39894001   
  56000800   305.35343      2.1882378     -43776990       1.7209013      905.64957     -43776085       703.15906      703.15906      703.15906      2148.4205      2851.5795      2148.4205      2851.5795      2148.4205      2851.5795      3.476648e+08   0.1            16804580       26.818882      1151.445       11514.453      0.38079552   
  56001000   305.08535      1.310133      -43777056       1.7208805      904.85447     -43776151       703.16189      703.16189      703.16189      2148.4191      2851.5809      2148.4191      2851.5809      2148.4191      2851.5809      3.4766901e+08  0.1            16804600       26.83628       1149.5623      11495.58       0.36265247   
  56001200   305.33969     -0.38367081    -43777121       1.720837       905.60882     -43776215       703.16782      703.16782      703.16782      2148.4161      2851.5839      2148.4161      2851.5839      2148.4161      2851.5839      3.476778e+08   0.1            16804620       26.854042      1126.0273      11260.297      0.34451508   
  56001400   305.55449      1.8225104     -43777186       1.7209019      906.2459      -43776280       703.15898      703.15898      703.15898      2148.4205      2851.5795      2148.4205      2851.5795      2148.4205      2851.5795      3.4766469e+08  0.1            16804640       26.871735      1130.3714      11303.758      0.32637738   
  56001600   305.381        1.7773172     -43777251       1.7209042      905.73134     -43776345       703.15867      703.15867      703.15867      2148.4207      2851.5793      2148.4207      2851.5793      2148.4207      2851.5793      3.4766423e+08  0.1            16804660       26.889143      1148.8852      11488.828      0.308237     
  56001800   305.33077     -0.36603358    -43777316       1.720848       905.58237     -43776411       703.16632      703.16632      703.16632      2148.4168      2851.5832      2148.4168      2851.5832      2148.4168      2851.5832      3.4767557e+08  0.1            16804680       26.90657       1147.6364      11476.39       0.29009782   
  56002000   305.07146      0.93021318    -43777382       1.7208876      904.81328     -43776477       703.16092      703.16092      703.16092      2148.4195      2851.5805      2148.4195      2851.5805      2148.4195      2851.5805      3.4766757e+08  0.1            16804700       26.924043      1144.618       11446.066      0.27196006   
  56002200   305.33563      2.6374325     -43777446       1.7209387      905.59679     -43776541       703.15397      703.15397      703.15397      2148.423       2851.577       2148.423       2851.577       2148.423       2851.577       3.4765726e+08  0.1            16804720       26.941496      1145.9335      11459.423      0.253823     
  56002400   305.536        0.49235494    -43777511       1.7208823      906.19106     -43776605       703.16164      703.16164      703.16164      2148.4192      2851.5808      2148.4192      2851.5808      2148.4192      2851.5808      3.4766863e+08  0.1            16804740       26.959144      1133.2792      11332.769      0.23568857   
  56002600   305.35931     -0.56887236    -43777576       1.7208562      905.66701     -43776671       703.1652       703.1652       703.1652       2148.4174      2851.5826      2148.4174      2851.5826      2148.4174      2851.5826      3.4767391e+08  0.1            16804760       26.976845      1129.8608      11298.631      0.21755523   
  56002800   305.32627      1.7360034     -43777641       1.720924       905.56903     -43776736       703.15597      703.15597      703.15597      2148.422       2851.578       2148.422       2851.578       2148.422       2851.578       3.4766023e+08  0.1            16804780       26.994249      1149.1906      11491.918      0.19942026   
  56003000   305.05781     -0.13082025    -43777707       1.7208753      904.7728      -43776802       703.1626       703.1626       703.1626       2148.4187      2851.5813      2148.4187      2851.5813      2148.4187      2851.5813      3.4767005e+08  0.1            16804800       27.01168       1147.3894      11473.837      0.18128646   
  56003200   305.3117      -1.020978      -43777771       1.7208539      905.52581     -43776866       703.16551      703.16551      703.16551      2148.4172      2851.5828      2148.4172      2851.5828      2148.4172      2851.5828      3.4767438e+08  0.1            16804820       27.029114      1147.1984      11472.058      0.16315362   
  56003400   305.51258     -3.1327105     -43777836       1.7207984      906.12158     -43776929       703.17308      703.17308      703.17308      2148.4135      2851.5865      2148.4135      2851.5865      2148.4135      2851.5865      3.4768561e+08  0.1            16804840       27.046551      1146.9329      11469.341      0.14502174   
  56003600   305.37222      6.261384      -43785277       1.7210752      905.70529     -43784371       703.13538      703.13538      703.13538      2148.4323      2851.5677      2148.4323      2851.5677      2148.4323      2851.5677      3.4762968e+08  0.1            16804860       27.064019      1144.9425      11449.447      0.12689093   
  56003800   305.29313     -4.850213      -43777965       1.7207571      905.47074     -43777059       703.17869      703.17869      703.17869      2148.4107      2851.5893      2148.4107      2851.5893      2148.4107      2851.5893      3.4769393e+08  0.1            16804880       27.08164       1135.0764      11350.693      0.10876162   
  56004000   305.0708       6.161645      -43785407       1.7210795      904.81131     -43784502       703.1348       703.1348       703.1348       2148.4326      2851.5674      2148.4326      2851.5674      2148.4326      2851.5674      3.4762882e+08  0.1            16804900       27.098974      1153.7662      11537.662      0.090632029  
  56004200   305.31866      3.4324206     -43785473       1.7210065      905.54644     -43784567       703.14473      703.14473      703.14473      2148.4276      2851.5724      2148.4276      2851.5724      2148.4276      2851.5724      3.4764355e+08  0.1            16804920       27.116373      1149.504       11495.084      0.072503678  
  56004400   305.52084      1.7271386     -43785538       1.7209622      906.1461      -43784632       703.15076      703.15076      703.15076      2148.4246      2851.5754      2148.4246      2851.5754      2148.4246      2851.5754      3.476525e+08   0.1            16804940       27.133692      1154.7689      11547.693      0.054376142  
  56004600   305.36206      6.1015983     -43785601       1.7210883      905.67518     -43784695       703.13359      703.13359      703.13359      2148.4332      2851.5668      2148.4332      2851.5668      2148.4332      2851.5668      3.4762702e+08  0.1            16804960       27.151287      1136.6983      11366.963      0.036250053  
  56004800   305.32333      6.4472129     -43785666       1.7211016      905.56031     -43784760       703.13178      703.13178      703.13178      2148.4341      2851.5659      2148.4341      2851.5659      2148.4341      2851.5659      3.4762435e+08  0.1            16804980       27.168928      1133.7373      11337.387      0.018124703  
  56005000   305.05655      3.9420832     -43785732       1.7210348      904.76904     -43784827       703.14087      703.14087      703.14087      2148.4296      2851.5704      2148.4296      2851.5704      2148.4296      2851.5704      3.4763783e+08  0.1            16805000       27.186291      1151.8925      11518.84       0            
Loop time of 27.1863 on 4 procs for 300000 steps with 996 atoms

Performance: 95.342 ns/day, 0.252 hours/ns, 11034.958 timesteps/s
99.5% CPU use with 4 MPI tasks x 1 OpenMP threads

MPI task timing breakdown:
Section |  min time  |  avg time  |  max time  |%varavg| %total
---------------------------------------------------------------
Pair    | 10.406     | 12.111     | 14.053     |  40.3 | 44.55
Neigh   | 0.0054099  | 0.006169   | 0.0071104  |   0.8 |  0.02
Comm    | 6.5302     | 8.3563     | 9.9261     |  45.4 | 30.74
Output  | 0.076881   | 0.086388   | 0.11447    |   5.5 |  0.32
Modify  | 5.4891     | 5.5761     | 5.6619     |   2.8 | 20.51
Other   |            | 1.05       |            |       |  3.86

Nlocal:            249 ave         285 max         214 min
Histogram: 1 0 1 0 0 0 1 0 0 1
Nghost:          678.5 ave         689 max         665 min
Histogram: 1 0 0 0 1 0 0 1 0 1
Neighs:        1682.75 ave        1907 max        1471 min
Histogram: 1 1 0 0 0 0 0 1 0 1

Total # of neighbors = 6731
Ave neighs/atom = 6.7580321
Neighbor list builds = 32
Dangerous builds = 10

# run_style
run_style verlet

# write restart
write_restart ${write_res}
write_restart ./pgnpmf/37/equpmf80.res
System init for write_restart ...
Generated 0 of 1 mixed pair_coeff terms from geometric mixing rule

Total wall time: 0:00:58
