LAMMPS (23 Jun 2022 - Update 1)
# Read restart
read_restart ${read_res}
read_restart ./pgnpmf/37/equpmf5.res
Reading restart file ...
  restart file = 23 Jun 2022, LAMMPS = 23 Jun 2022
  restoring atom style atomic from restart
  orthogonal box = (1514.2214 1514.2214 1514.2214) to (3485.7786 3485.7786 3485.7786)
  1 by 2 by 2 MPI processor grid
  restoring pair style table from restart
  996 atoms
  read_restart CPU = 0.006 seconds

# Settings

pair_style table spline 9941

pair_coeff 1 1 ./pgnpmf/N20.txt DE_GNP 75.6
pair_coeff 2 2 ./pgnpmf/N100.txt DE_GNP 115.92
WARNING: 3 of 9941 force values in table DE_GNP are inconsistent with -dE/dr.
WARNING:  Should only be flagged at inflection points (../pair_table.cpp:463)
pair_coeff 1 2 ./pgnpmf/mixed_potential.txt DE_GNP 95.66
WARNING: 1562 of 9941 force values in table DE_GNP are inconsistent with -dE/dr.
WARNING:  Should only be flagged at inflection points (../pair_table.cpp:463)

#Neigh_list Calc Frequency

neigh_modify delay 0 every 1 check yes

# Saving Frequency (50 frames)

variable ts_save equal ${steps_equ}
variable ts_save equal 5000

# Dump
#dump 1 all custom ${ts_save} ./pgnpmf/${folder}/equilibration/trajectory/trajectory_${usic}_${trial}.equ.custom type x y z ix iy iz
#dump_modify 1 first no sort id
dump 2 all cfg 50000 ./pgnpmf/${folder}/equilibration/trajectory/dumpgen.tens_*.cfg mass type xs ys zs fx fy fz
dump 2 all cfg 50000 ./pgnpmf/37/equilibration/trajectory/dumpgen.tens_*.cfg mass type xs ys zs fx fy fz
dump_modify 2 element N20 N100

# thermo_style
thermo_style custom step temp press pe density ke etotal lx ly lz xlo xhi ylo yhi zlo zhi vol dt time cpu tpcpu spcpu cpuremain

# run info
timestep ${ts}
timestep 0.5
thermo 200

# fix

fix 1 all momentum 1000 linear 1 1 1 angular
variable T equal ${temp}
variable T equal 300
fix 2 all nvt temp ${T} 370000 100.0
fix 2 all nvt temp 300 370000 100.0

run 100000
Generated 0 of 1 mixed pair_coeff terms from geometric mixing rule
Unused restart file global fix info:
  fix style: npt, fix ID: 5
Neighbor list info ...
  update every 1 steps, delay 0 steps, check yes
  max neighbors/atom: 2000, page size: 100000
  master list distance cutoff = 117.92
  ghost atom cutoff = 117.92
  binsize = 58.96, bins = 34 34 34
  1 neighbor lists, perpetual/occasional/extra = 1 0 0
  (1) pair table, perpetual
      attributes: half, newton on
      pair build: half/bin/atomonly/newton
      stencil: half/bin/3d
      bin: standard
Per MPI rank memory allocation (min/avg/max) = 3.138 | 3.138 | 3.139 Mbytes
   Step          Temp          Press          PotEng        Density         KinEng         TotEng           Lx             Ly             Lz            Xlo            Xhi            Ylo            Yhi            Zlo            Zhi           Volume           Dt            Time           CPU           T/CPU          S/CPU         CPULeft    
   3505000   309.93091      0.93746209    -4604815.5      0.078070783    919.22594     -4603896.2      1971.5572      1971.5572      1971.5572      1514.2214      3485.7786      1514.2214      3485.7786      1514.2214      3485.7786      7.6635176e+09  0.5            1755000        0              0              0              0            
   3505200   409.83489      0.86613942    -4604943.8      0.078070783    1215.5317     -4603728.3      1971.5572      1971.5572      1971.5572      1514.2214      3485.7786      1514.2214      3485.7786      1514.2214      3485.7786      7.6635176e+09  0.5            1755100        0.006247249    16005.245      32005.879      3.1185838    
   3505400   621.3426       0.77896997    -4605094.9      0.078070783    1842.8438     -4603252        1971.5572      1971.5572      1971.5572      1514.2214      3485.7786      1514.2214      3485.7786      1514.2214      3485.7786      7.6635176e+09  0.5            1755200        0.011957673    17512.426      35025.018      2.9779977    
   3505600   977.6039       0.67354596    -4605280.5      0.078070783    2899.4813     -4602381        1971.5572      1971.5572      1971.5572      1514.2214      3485.7786      1514.2214      3485.7786      1514.2214      3485.7786      7.6635176e+09  0.5            1755300        0.017570165    17817.534      35635.392      2.9111391    
   3505800   1542.5397      0.56585606    -4605507.6      0.078070783    4575.0277     -4600932.6      1971.5572      1971.5572      1971.5572      1514.2214      3485.7786      1514.2214      3485.7786      1514.2214      3485.7786      7.6635176e+09  0.5            1755400        0.023190081    17793.724      35587.556      2.8758306    
   3506000   2387.4196      0.43836492    -4605779        0.078070783    7080.8623     -4598698.1      1971.5572      1971.5572      1971.5572      1514.2214      3485.7786      1514.2214      3485.7786      1514.2214      3485.7786      7.6635176e+09  0.5            1755500        0.028942342    17384.432      34768.345      2.8655136    
   3506200   3551.9315      0.28180957    -4606099.9      0.078070783    10534.695     -4595565.2      1971.5572      1971.5572      1971.5572      1514.2214      3485.7786      1514.2214      3485.7786      1514.2214      3485.7786      7.6635176e+09  0.5            1755600        0.034630648    17580.053      35160.699      2.8514276    
   3506400   4960.9095      0.11154114    -4606468.5      0.078070783    14713.591     -4591754.9      1971.5572      1971.5572      1971.5572      1514.2214      3485.7786      1514.2214      3485.7786      1514.2214      3485.7786      7.6635176e+09  0.5            1755700        0.040277796    17707.988      35415.838      2.836855     
   3506600   6335.8434     -0.082121515   -4606867.6      0.078070783    18791.516     -4588076        1971.5572      1971.5572      1971.5572      1514.2214      3485.7786      1514.2214      3485.7786      1514.2214      3485.7786      7.6635176e+09  0.5            1755800        0.045913114    17745.451      35491.293      2.8237772    
   3506800   7259.9261     -0.32885077    -4607278.4      0.078070783    21532.258     -4585746.1      1971.5572      1971.5572      1971.5572      1514.2214      3485.7786      1514.2214      3485.7786      1514.2214      3485.7786      7.6635176e+09  0.5            1755900        0.05153329     17792.803      35585.34       2.8115442    
   3507000   7644.129      -0.57234192    -4600286.9      0.078070783    22671.768     -4577615.1      1971.5572      1971.5572      1971.5572      1514.2214      3485.7786      1514.2214      3485.7786      1514.2214      3485.7786      7.6635176e+09  0.5            1756000        0.057175588    17723.417      35371.548      2.802292     
   3507200   8111.4668     -0.87760315    -4608021        0.078070783    24057.848     -4583963.2      1971.5572      1971.5572      1971.5572      1514.2214      3485.7786      1514.2214      3485.7786      1514.2214      3485.7786      7.6635176e+09  0.5            1756100        0.062859859    17592.415      35259.352      2.7944967    
   3507400   9104.0968     -1.1554918     -4608350.1      0.078070783    27001.895     -4581348.2      1971.5572      1971.5572      1971.5572      1514.2214      3485.7786      1514.2214      3485.7786      1514.2214      3485.7786      7.6635176e+09  0.5            1756200        0.068604319    17407.865      34815.596      2.7899947    
   3507600   10166.759     -1.4075608     -4608649.8      0.078070783    30153.651     -4578496.2      1971.5572      1971.5572      1971.5572      1514.2214      3485.7786      1514.2214      3485.7786      1514.2214      3485.7786      7.6635176e+09  0.5            1756300        0.074266059    17662.521      35325.235      2.7821953    
   3507800   10780.775     -1.7154063     -4608907.9      0.078070783    31974.765     -4576933.1      1971.5572      1971.5572      1971.5572      1514.2214      3485.7786      1514.2214      3485.7786      1514.2214      3485.7786      7.6635176e+09  0.5            1756400        0.080157549    16973.537      33947.01       2.7826865    
   3508000   11173.796     -2.0349978     -4609113.6      0.078070783    33140.429     -4575973.2      1971.5572      1971.5572      1971.5572      1514.2214      3485.7786      1514.2214      3485.7786      1514.2214      3485.7786      7.6635176e+09  0.5            1756500        0.086006984    17095.703      34191.12       2.7809616    
   3508200   11929.371     -2.2995154     -4609264.8      0.078070783    35381.394     -4573883.4      1971.5572      1971.5572      1971.5572      1514.2214      3485.7786      1514.2214      3485.7786      1514.2214      3485.7786      7.6635176e+09  0.5            1756600        0.092179235    16201.558      32403.273      2.7884851    
   3508400   13006.625     -2.5369875     -4609363        0.078070783    38576.426     -4570786.6      1971.5572      1971.5572      1971.5572      1514.2214      3485.7786      1514.2214      3485.7786      1514.2214      3485.7786      7.6635176e+09  0.5            1756700        0.097867978    17578.712      35157.535      2.7806601    
   3508600   13834.605     -2.7761972     -4609405.8      0.078070783    41032.137     -4568373.6      1971.5572      1971.5572      1971.5572      1514.2214      3485.7786      1514.2214      3485.7786      1514.2214      3485.7786      7.6635176e+09  0.5            1756800        0.10374293     17021.184      34042.101      2.7780615    
   3508800   14276.05      -3.0263788     -4609383.8      0.078070783    42341.422     -4567042.4      1971.5572      1971.5572      1971.5572      1514.2214      3485.7786      1514.2214      3485.7786      1514.2214      3485.7786      7.6635176e+09  0.5            1756900        0.10946379     17480.036      34960.775      2.7712123    
   3509000   14837.502     -3.2560899     -4609301.9      0.078070783    44006.636     -4565295.3      1971.5572      1971.5572      1971.5572      1514.2214      3485.7786      1514.2214      3485.7786      1514.2214      3485.7786      7.6635176e+09  0.5            1757000        0.11519476     17448.901      34897.369      2.7650088    
   3509200   15813.402     -3.4864336     -4609159.7      0.078070783    46901.065     -4562258.6      1971.5572      1971.5572      1971.5572      1514.2214      3485.7786      1514.2214      3485.7786      1514.2214      3485.7786      7.6635176e+09  0.5            1757100        0.12097413     17303.017      34606.423      2.7594071    
   3509400   16796.585     -3.7439761     -4608958.8      0.078070783    49817.093     -4559141.7      1971.5572      1971.5572      1971.5572      1514.2214      3485.7786      1514.2214      3485.7786      1514.2214      3485.7786      7.6635176e+09  0.5            1757200        0.1266691      17559.503      35118.661      2.7522177    
   3509600   17384.981     -4.0036577     -4608697.1      0.078070783    51562.219     -4557134.9      1971.5572      1971.5572      1971.5572      1514.2214      3485.7786      1514.2214      3485.7786      1514.2214      3485.7786      7.6635176e+09  0.5            1757300        0.1323201      17695.864      35391.897      2.7442449    
   3509800   17843.801     -4.2419429     -4608388.6      0.078070783    52923.037     -4555465.5      1971.5572      1971.5572      1971.5572      1514.2214      3485.7786      1514.2214      3485.7786      1514.2214      3485.7786      7.6635176e+09  0.5            1757400        0.13811951     17243.011      34485.862      2.7394124    
   3510000   18647.471     -4.4168562     -4600660.3      0.078070783    55306.647     -4545353.7      1971.5572      1971.5572      1971.5572      1514.2214      3485.7786      1514.2214      3485.7786      1514.2214      3485.7786      7.6635176e+09  0.5            1757500        0.14380837     17578.486      35156.904      2.7323972    
   3510200   19684.202     -4.6352536     -4615042.6      0.078070783    58381.492     -4556661.2      1971.5572      1971.5572      1971.5572      1514.2214      3485.7786      1514.2214      3485.7786      1514.2214      3485.7786      7.6635176e+09  0.5            1757600        0.14958924     17298.312      34596.575      2.7271649    
   3510400   20452.982     -4.8318094     -4614643.5      0.078070783    60661.622     -4553981.9      1971.5572      1971.5572      1971.5572      1514.2214      3485.7786      1514.2214      3485.7786      1514.2214      3485.7786      7.6635176e+09  0.5            1757700        0.15530138     17506.69       35013.233      2.720686     
   3510600   20914.294     -5.0717621     -4621601.7      0.078070783    62029.831     -4559571.9      1971.5572      1971.5572      1971.5572      1514.2214      3485.7786      1514.2214      3485.7786      1514.2214      3485.7786      7.6635176e+09  0.5            1757800        0.1609676      17648.363      35296.819      2.7134884    
   3510800   21544.517     -5.2595375     -4621180.7      0.078070783    63899.012     -4557281.7      1971.5572      1971.5572      1971.5572      1514.2214      3485.7786      1514.2214      3485.7786      1514.2214      3485.7786      7.6635176e+09  0.5            1757900        0.16660224     17747.555      35495.179      2.7058825    
   3511000   22525.817     -5.4611404     -4620756.1      0.078070783    66809.455     -4553946.6      1971.5572      1971.5572      1971.5572      1514.2214      3485.7786      1514.2214      3485.7786      1514.2214      3485.7786      7.6635176e+09  0.5            1758000        0.17247015     17041.544      34082.994      2.7020671    
   3511200   23451.88      -5.5966851     -4620345.1      0.078070783    69556.072     -4550789        1971.5572      1971.5572      1971.5572      1514.2214      3485.7786      1514.2214      3485.7786      1514.2214      3485.7786      7.6635176e+09  0.5            1758100        0.17839239     16885.642      33771.262      2.6989356    
   3511400   24014.184     -5.7202351     -4619952.9      0.078070783    71223.813     -4548729.1      1971.5572      1971.5572      1971.5572      1514.2214      3485.7786      1514.2214      3485.7786      1514.2214      3485.7786      7.6635176e+09  0.5            1758200        0.18415759     17345.512      34691.175      2.6933341    
   3511600   24520.384     -5.8573838     -4621498.4      0.078070783    72725.155     -4548773.2      1971.5572      1971.5572      1971.5572      1514.2214      3485.7786      1514.2214      3485.7786      1514.2214      3485.7786      7.6635176e+09  0.5            1758300        0.19016116     16656.675      33313.279      2.6910977    
   3511800   25366.732     -5.9798159     -4621188.6      0.078070783    75235.344     -4545953.2      1971.5572      1971.5572      1971.5572      1514.2214      3485.7786      1514.2214      3485.7786      1514.2214      3485.7786      7.6635176e+09  0.5            1758400        0.19586876     17520.573      35041.415      2.6845821    
   3512000   26374.389     -6.105693      -4628300.5      0.078070783    78223.96      -4550076.5      1971.5572      1971.5572      1971.5572      1514.2214      3485.7786      1514.2214      3485.7786      1514.2214      3485.7786      7.6635176e+09  0.5            1758500        0.20172601     17072.678      34144.912      2.6801031    
   3512200   27090.162     -6.2016113     -4628077.1      0.078070783    80346.874     -4547730.2      1971.5572      1971.5572      1971.5572      1514.2214      3485.7786      1514.2214      3485.7786      1514.2214      3485.7786      7.6635176e+09  0.5            1758600        0.20746717     17418.122      34836.566      2.6740483    
   3512400   27549.887     -6.296313      -4627885.2      0.078070783    81710.375     -4546174.8      1971.5572      1971.5572      1971.5572      1514.2214      3485.7786      1514.2214      3485.7786      1514.2214      3485.7786      7.6635176e+09  0.5            1758700        0.21317629     17516          35030.846      2.6676118    
   3512600   28227.493     -6.3725871     -4627726.3      0.078070783    83720.091     -4544006.2      1971.5572      1971.5572      1971.5572      1514.2214      3485.7786      1514.2214      3485.7786      1514.2214      3485.7786      7.6635176e+09  0.5            1758800        0.21888746     17509.523      35019.836      2.6612362    
   3512800   29230.731     -6.4305921     -4627591.6      0.078070783    86695.6       -4540896        1971.5572      1971.5572      1971.5572      1514.2214      3485.7786      1514.2214      3485.7786      1514.2214      3485.7786      7.6635176e+09  0.5            1758900        0.22469463     17219.997      34440          2.6560327    
   3513000   30113.433     -6.4952441     -4627475.1      0.078070783    89313.612     -4538161.4      1971.5572      1971.5572      1971.5572      1514.2214      3485.7786      1514.2214      3485.7786      1514.2214      3485.7786      7.6635176e+09  0.5            1759000        0.23049255     17247.594      34495.058      2.6506894    
   3513200   30628.254     -6.5647515     -4627366.8      0.078070783    90840.523     -4536526.3      1971.5572      1971.5572      1971.5572      1514.2214      3485.7786      1514.2214      3485.7786      1514.2214      3485.7786      7.6635176e+09  0.5            1759100        0.23625408     17356.66       34713.845      2.644915     
   3513400   31146.865     -6.5930392     -4627250.2      0.078070783    92378.674     -4534871.5      1971.5572      1971.5572      1971.5572      1514.2214      3485.7786      1514.2214      3485.7786      1514.2214      3485.7786      7.6635176e+09  0.5            1759200        0.24201883     17346.65       34692.679      2.6391813    
   3513600   32048.207     -6.6034137     -4627122.5      0.078070783    95051.968     -4532070.5      1971.5572      1971.5572      1971.5572      1514.2214      3485.7786      1514.2214      3485.7786      1514.2214      3485.7786      7.6635176e+09  0.5            1759300        0.24790546     16987.697      33975.677      2.6347383    
   3513800   33057.652     -6.5917386     -4626959.8      0.078070783    98045.887     -4528913.9      1971.5572      1971.5572      1971.5572      1514.2214      3485.7786      1514.2214      3485.7786      1514.2214      3485.7786      7.6635176e+09  0.5            1759400        0.25360635     17541.287      35082.943      2.6283035    
   3514000   33716.287     -6.5462634     -4626757.4      0.078070783    99999.337     -4526758.1      1971.5572      1971.5572      1971.5572      1514.2214      3485.7786      1514.2214      3485.7786      1514.2214      3485.7786      7.6635176e+09  0.5            1759500        0.25934477     17426.324      34852.562      2.6222841    
   3514200   34152.161     -6.4914615     -4626499.6      0.078070783    101292.1      -4525207.5      1971.5572      1971.5572      1971.5572      1514.2214      3485.7786      1514.2214      3485.7786      1514.2214      3485.7786      7.6635176e+09  0.5            1759600        0.26512918     17287.884      34575.827      2.6167296    
   3514400   34882.321     -6.4227971     -4626185.2      0.078070783    103457.68     -4522727.5      1971.5572      1971.5572      1971.5572      1514.2214      3485.7786      1514.2214      3485.7786      1514.2214      3485.7786      7.6635176e+09  0.5            1759700        0.27100001     17033.01       34065.811      2.6119991    
   3514600   35924.591     -6.307424      -4625790.3      0.078070783    106548.96     -4519241.4      1971.5572      1971.5572      1971.5572      1514.2214      3485.7786      1514.2214      3485.7786      1514.2214      3485.7786      7.6635176e+09  0.5            1759800        0.27671902     17485.813      34971.821      2.6057897    
   3514800   36764.487     -6.2014306     -4625309.3      0.078070783    109040.01     -4516269.3      1971.5572      1971.5572      1971.5572      1514.2214      3485.7786      1514.2214      3485.7786      1514.2214      3485.7786      7.6635176e+09  0.5            1759900        0.28265981     16832.753      33665.488      2.6016428    
   3515000   37234.545     -6.0694119     -4624744.5      0.078070783    110434.16     -4514310.3      1971.5572      1971.5572      1971.5572      1514.2214      3485.7786      1514.2214      3485.7786      1514.2214      3485.7786      7.6635176e+09  0.5            1760000        0.28870279     16548.141      33095.985      2.5983442    
   3515200   37793.411     -5.9289379     -4624089.5      0.078070783    112091.7      -4511997.8      1971.5572      1971.5572      1971.5572      1514.2214      3485.7786      1514.2214      3485.7786      1514.2214      3485.7786      7.6635176e+09  0.5            1760100        0.29461018     16927.755      33855.435      2.5937444    
   3515400   38758.694     -5.7239974     -4623351.5      0.078070783    114954.64     -4508396.8      1971.5572      1971.5572      1971.5572      1514.2214      3485.7786      1514.2214      3485.7786      1514.2214      3485.7786      7.6635176e+09  0.5            1760200        0.30033984     17453.302      34906.384      2.5875615    
   3515600   39741.908     -5.5342018     -4622534.3      0.078070783    117870.76     -4504663.6      1971.5572      1971.5572      1971.5572      1514.2214      3485.7786      1514.2214      3485.7786      1514.2214      3485.7786      7.6635176e+09  0.5            1760300        0.3060343      17560.888      35122.293      2.581099     
   3515800   40346.205     -5.3380001     -4621651.3      0.078070783    119663.05     -4501988.2      1971.5572      1971.5572      1971.5572      1514.2214      3485.7786      1514.2214      3485.7786      1514.2214      3485.7786      7.6635176e+09  0.5            1760400        0.31178981     17374.631      34749.274      2.57517      
   3516000   40828.81      -5.1296013     -4620732        0.078070783    121094.41     -4499637.6      1971.5572      1971.5572      1971.5572      1514.2214      3485.7786      1514.2214      3485.7786      1514.2214      3485.7786      7.6635176e+09  0.5            1760500        0.31761223     17174.968      34349.548      2.5697892    
   3516200   41657.948     -4.9073667     -4619796.6      0.078070783    123553.56     -4496243        1971.5572      1971.5572      1971.5572      1514.2214      3485.7786      1514.2214      3485.7786      1514.2214      3485.7786      7.6635176e+09  0.5            1760600        0.32336741     17375.793      34752.293      2.5638573    
   3516400   42686.369     -4.6660426     -4618850        0.078070783    126603.76     -4492246.2      1971.5572      1971.5572      1971.5572      1514.2214      3485.7786      1514.2214      3485.7786      1514.2214      3485.7786      7.6635176e+09  0.5            1760700        0.32903271     17651.194      35302.046      2.5572347    
   3516600   43441.957     -4.402531      -4617912.6      0.078070783    128844.76     -4489067.8      1971.5572      1971.5572      1971.5572      1514.2214      3485.7786      1514.2214      3485.7786      1514.2214      3485.7786      7.6635176e+09  0.5            1760800        0.33471609     17595.139      35189.993      2.5507837    
   3516800   43993.266     -4.1638273     -4617005.6      0.078070783    130479.89     -4486525.7      1971.5572      1971.5572      1971.5572      1514.2214      3485.7786      1514.2214      3485.7786      1514.2214      3485.7786      7.6635176e+09  0.5            1760900        0.34052876     17203.866      34407.921      2.5453233    
   3517000   44881.481     -3.8885413     -4616150.4      0.078070783    133114.25     -4483036.1      1971.5572      1971.5572      1971.5572      1514.2214      3485.7786      1514.2214      3485.7786      1514.2214      3485.7786      7.6635176e+09  0.5            1761000        0.34623458     17525.98       35052.083      2.5390685    
   3517200   46242.385     -3.6201246     -4615353.4      0.078070783    137150.57     -4478202.8      1971.5572      1971.5572      1971.5572      1514.2214      3485.7786      1514.2214      3485.7786      1514.2214      3485.7786      7.6635176e+09  0.5            1761100        0.35200698     17323.808      34647.628      2.5333109    
   3517400   47237.186     -3.3439375     -4614627.2      0.078070783    140101.05     -4474526.2      1971.5572      1971.5572      1971.5572      1514.2214      3485.7786      1514.2214      3485.7786      1514.2214      3485.7786      7.6635176e+09  0.5            1761200        0.35768354     17616.349      35232.686      2.5268751    
   3517600   47226.998     -3.0626327     -4613994.1      0.078070783    140070.84     -4473923.3      1971.5572      1971.5572      1971.5572      1514.2214      3485.7786      1514.2214      3485.7786      1514.2214      3485.7786      7.6635176e+09  0.5            1761300        0.3634672      17289.937      34579.701      2.5212072    
   3517800   46388.966     -2.790358      -4613451.4      0.078070783    137585.31     -4475866        1971.5572      1971.5572      1971.5572      1514.2214      3485.7786      1514.2214      3485.7786      1514.2214      3485.7786      7.6635176e+09  0.5            1761400        0.36913645     17639.214      35278.651      2.5147555    
   3518000   47650.69      -2.4950881     -4613026.1      0.078070783    141327.47     -4471698.6      1971.5572      1971.5572      1971.5572      1514.2214      3485.7786      1514.2214      3485.7786      1514.2214      3485.7786      7.6635176e+09  0.5            1761500        0.37483154     17558.757      35117.255      2.5085022    
   3518200   49995.861     -2.1673964     -4620067.3      0.078070783    148283.02     -4471784.3      1971.5572      1971.5572      1971.5572      1514.2214      3485.7786      1514.2214      3485.7786      1514.2214      3485.7786      7.6635176e+09  0.5            1761600        0.38077125     16835.793      33671.519      2.5038736    
   3518400   50099.369     -1.8782025     -4619816        0.078070783    148590.02     -4471225.9      1971.5572      1971.5572      1971.5572      1514.2214      3485.7786      1514.2214      3485.7786      1514.2214      3485.7786      7.6635176e+09  0.5            1761700        0.38668379     16913.231      33826.553      2.49903      
   3518600   49626.724     -1.5775086     -4619650.1      0.078070783    147188.2      -4472461.9      1971.5572      1971.5572      1971.5572      1514.2214      3485.7786      1514.2214      3485.7786      1514.2214      3485.7786      7.6635176e+09  0.5            1761800        0.3925482      17052.107      34104.4        2.4938489    
   3518800   51473.256     -1.2611269     -4619571.3      0.078070783    152664.84     -4466906.4      1971.5572      1971.5572      1971.5572      1514.2214      3485.7786      1514.2214      3485.7786      1514.2214      3485.7786      7.6635176e+09  0.5            1761900        0.39821723     17639.826      35279.753      2.4874277    
   3519000   53849.976     -0.97199786    -4626937        0.078070783    159713.97     -4467223        1971.5572      1971.5572      1971.5572      1514.2214      3485.7786      1514.2214      3485.7786      1514.2214      3485.7786      7.6635176e+09  0.5            1762000        0.40408723     17035.639      34070.947      2.4822633    
   3519200   52716.59      -0.73577768    -4634370.8      0.078070783    156352.45     -4478018.4      1971.5572      1971.5572      1971.5572      1514.2214      3485.7786      1514.2214      3485.7786      1514.2214      3485.7786      7.6635176e+09  0.5            1762100        0.40983651     17393.594      34787.334      2.4763483    
   3519400   51359.58      -0.45785996    -4634495.6      0.078070783    152327.69     -4482167.9      1971.5572      1971.5572      1971.5572      1514.2214      3485.7786      1514.2214      3485.7786      1514.2214      3485.7786      7.6635176e+09  0.5            1762200        0.41549802     17663.104      35326.215      2.4699173    
   3519600   54601.262     -0.10605248    -4634676.6      0.078070783    161942.21     -4472734.4      1971.5572      1971.5572      1971.5572      1514.2214      3485.7786      1514.2214      3485.7786      1514.2214      3485.7786      7.6635176e+09  0.5            1762300        0.42111199     17812.719      35625.489      2.4632288    
   3519800   56437.381      0.1866906     -4634874.8      0.078070783    167387.97     -4467486.8      1971.5572      1971.5572      1971.5572      1514.2214      3485.7786      1514.2214      3485.7786      1514.2214      3485.7786      7.6635176e+09  0.5            1762400        0.42694454     17145.083      34290.542      2.4578273    
   3520000   55213.543      0.43270691    -4635064.2      0.078070783    163758.18     -4471306        1971.5572      1971.5572      1971.5572      1514.2214      3485.7786      1514.2214      3485.7786      1514.2214      3485.7786      7.6635176e+09  0.5            1762500        0.43264274     17549.442      35098.458      2.4516538    
   3520200   54863.552      0.67427858    -4635255        0.078070783    162720.14     -4472534.9      1971.5572      1971.5572      1971.5572      1514.2214      3485.7786      1514.2214      3485.7786      1514.2214      3485.7786      7.6635176e+09  0.5            1762600        0.44148623     11307.779      22615.598      2.4630399    
   3520400   58282.108      1.0157939     -4635456.8      0.078070783    172859.25     -4462597.5      1971.5572      1971.5572      1971.5572      1514.2214      3485.7786      1514.2214      3485.7786      1514.2214      3485.7786      7.6635176e+09  0.5            1762700        0.44721959     17441.801      34883.583      2.4568147    
   3520600   59553.006      1.2982628     -4635660.7      0.078070783    176628.62     -4459032.1      1971.5572      1971.5572      1971.5572      1514.2214      3485.7786      1514.2214      3485.7786      1514.2214      3485.7786      7.6635176e+09  0.5            1762800        0.45306761     17099.691      34199.551      2.4512229    
   3520800   58317.395      1.5201599     -4635864.8      0.078070783    172963.91     -4462900.9      1971.5572      1971.5572      1971.5572      1514.2214      3485.7786      1514.2214      3485.7786      1514.2214      3485.7786      7.6635176e+09  0.5            1762900        0.45881325     17404.623      34809.221      2.4450782    
   3521000   58276.755      1.7248757     -4636085.4      0.078070783    172843.38     -4463242        1971.5572      1971.5572      1971.5572      1514.2214      3485.7786      1514.2214      3485.7786      1514.2214      3485.7786      7.6635176e+09  0.5            1763000        0.46459022     17310.02       34619.398      2.4391103    
   3521200   60548.182      2.0162269     -4636322.1      0.078070783    179580.22     -4456741.9      1971.5572      1971.5572      1971.5572      1514.2214      3485.7786      1514.2214      3485.7786      1514.2214      3485.7786      7.6635176e+09  0.5            1763100        0.47045064     17063.542      34127.643      2.4335762    
   3521400   64205.175      2.353601      -4636557.8      0.078070783    190426.51     -4446131.3      1971.5572      1971.5572      1971.5572      1514.2214      3485.7786      1514.2214      3485.7786      1514.2214      3485.7786      7.6635176e+09  0.5            1763200        0.47612161     17633.814      35267.205      2.4270693    
   3521600   64667.222      2.6157421     -4636769.5      0.078070783    191796.9      -4444972.6      1971.5572      1971.5572      1971.5572      1514.2214      3485.7786      1514.2214      3485.7786      1514.2214      3485.7786      7.6635176e+09  0.5            1763300        0.48199515     17025.49       34051.212      2.4216002    
   3521800   60188.031      2.7562301     -4636963.6      0.078070783    178512.04     -4458451.5      1971.5572      1971.5572      1971.5572      1514.2214      3485.7786      1514.2214      3485.7786      1514.2214      3485.7786      7.6635176e+09  0.5            1763400        0.4878005      17225.44       34450.648      2.4157841    
   3522000   60920.9        2.9872678     -4637168.9      0.078070783    180685.66     -4456483.2      1971.5572      1971.5572      1971.5572      1514.2214      3485.7786      1514.2214      3485.7786      1514.2214      3485.7786      7.6635176e+09  0.5            1763500        0.49375571     16791.999      33498.655      2.4107744    
   3522200   64639.462      3.3326596     -4637388.9      0.078070783    191714.57     -4445674.3      1971.5572      1971.5572      1971.5572      1514.2214      3485.7786      1514.2214      3485.7786      1514.2214      3485.7786      7.6635176e+09  0.5            1763600        0.49948584     17451.73       34996.244      2.4045115    
   3522400   65674.955      3.6280716     -4637576.7      0.078070783    194785.74     -4442791        1971.5572      1971.5572      1971.5572      1514.2214      3485.7786      1514.2214      3485.7786      1514.2214      3485.7786      7.6635176e+09  0.5            1763700        0.50517666     17572.114      35144.53       2.3981471    
   3522600   64579.874      3.813067      -4637735.5      0.078070783    191537.84     -4446197.6      1971.5572      1971.5572      1971.5572      1514.2214      3485.7786      1514.2214      3485.7786      1514.2214      3485.7786      7.6635176e+09  0.5            1763800        0.51101905     17115.925      34231.921      2.3925081    
   3522800   63677.649      4.0116532     -4637853.7      0.078070783    188861.92     -4448991.8      1971.5572      1971.5572      1971.5572      1514.2214      3485.7786      1514.2214      3485.7786      1514.2214      3485.7786      7.6635176e+09  0.5            1763900        0.5166683      17701.775      35403.124      2.3859722    
   3523000   67457.413      4.2751903     -4637945.1      0.078070783    200072.34     -4437872.7      1971.5572      1971.5572      1971.5572      1514.2214      3485.7786      1514.2214      3485.7786      1514.2214      3485.7786      7.6635176e+09  0.5            1764000        0.52236793     17508.652      35017.187      2.37974      
   3523200   69390.218      4.4938835     -4637969.3      0.078070783    205804.86     -4432164.5      1971.5572      1971.5572      1971.5572      1514.2214      3485.7786      1514.2214      3485.7786      1514.2214      3485.7786      7.6635176e+09  0.5            1764100        0.52809153     17507.72       35016.022      2.3735192    
   3523400   67720.858      4.6276672     -4645300.1      0.078070783    200853.7      -4444446.4      1971.5572      1971.5572      1971.5572      1514.2214      3485.7786      1514.2214      3485.7786      1514.2214      3485.7786      7.6635176e+09  0.5            1764200        0.53386396     17323.685      34647.063      2.3675798    
   3523600   66569.636      4.757887      -4645186.9      0.078070783    197439.28     -4447747.6      1971.5572      1971.5572      1971.5572      1514.2214      3485.7786      1514.2214      3485.7786      1514.2214      3485.7786      7.6635176e+09  0.5            1764300        0.53948095     17803.044      35605.777      2.3609637    
   3523800   71214.833      5.0171167     -4645005        0.078070783    211216.5      -4433788.4      1971.5572      1971.5572      1971.5572      1514.2214      3485.7786      1514.2214      3485.7786      1514.2214      3485.7786      7.6635176e+09  0.5            1764400        0.54510136     17792.553      35585.435      2.3543827    
   3524000   72494.958      5.171128      -4652124.9      0.078070783    215013.23     -4437111.6      1971.5572      1971.5572      1971.5572      1514.2214      3485.7786      1514.2214      3485.7786      1514.2214      3485.7786      7.6635176e+09  0.5            1764500        0.55083494     17440.931      34881.435      2.3483056    
   3524200   70185.526      5.2757984     -4659169.5      0.078070783    208163.67     -4451005.8      1971.5572      1971.5572      1971.5572      1514.2214      3485.7786      1514.2214      3485.7786      1514.2214      3485.7786      7.6635176e+09  0.5            1764600        0.55653093     17556.318      35113.031      2.3420763    
   3524400   69814.23       5.3965048     -4658797.6      0.078070783    207062.44     -4451735.1      1971.5572      1971.5572      1971.5572      1514.2214      3485.7786      1514.2214      3485.7786      1514.2214      3485.7786      7.6635176e+09  0.5            1764700        0.56215455     17782.175      35564.445      2.3355577    
   3524600   74664.215      5.5951406     -4658389        0.078070783    221447.04     -4436941.9      1971.5572      1971.5572      1971.5572      1514.2214      3485.7786      1514.2214      3485.7786      1514.2214      3485.7786      7.6635176e+09  0.5            1764800        0.56772316     17957.822      35915.767      2.3288318    
   3524800   75083.523      5.6913481     -4657918.2      0.078070783    222690.67     -4435227.6      1971.5572      1971.5572      1971.5572      1514.2214      3485.7786      1514.2214      3485.7786      1514.2214      3485.7786      7.6635176e+09  0.5            1764900        0.57347787     17376.877      34753.289      2.3228838    
   3525000   73267.321      5.7659197     -4657419.7      0.078070783    217303.99     -4440115.7      1971.5572      1971.5572      1971.5572      1514.2214      3485.7786      1514.2214      3485.7786      1514.2214      3485.7786      7.6635176e+09  0.5            1765000        0.57943306     16792.115      33517.506      2.3177885    
   3525200   73433.777      5.8427581     -4656924.2      0.078070783    217797.68     -4439126.5      1971.5572      1971.5572      1971.5572      1514.2214      3485.7786      1514.2214      3485.7786      1514.2214      3485.7786      7.6635176e+09  0.5            1765100        0.58514187     17516.764      35106.665      2.3116084    
   3525400   78028.634      5.9763687     -4663805.1      0.078070783    231425.59     -4432379.5      1971.5572      1971.5572      1971.5572      1514.2214      3485.7786      1514.2214      3485.7786      1514.2214      3485.7786      7.6635176e+09  0.5            1765200        0.59118122     16558.186      33116.328      2.3067741    
   3525600   78697.282      6.0225335     -4665199.3      0.078070783    233408.74     -4431790.6      1971.5572      1971.5572      1971.5572      1514.2214      3485.7786      1514.2214      3485.7786      1514.2214      3485.7786      7.6635176e+09  0.5            1765300        0.59690739     17463.707      34927.494      2.3007091    
   3525800   76785.753      6.025207      -4664709        0.078070783    227739.32     -4436969.7      1971.5572      1971.5572      1971.5572      1514.2214      3485.7786      1514.2214      3485.7786      1514.2214      3485.7786      7.6635176e+09  0.5            1765400        0.60249789     17887.382      35774.841      2.2941344    
   3526000   76625.231      6.0281468     -4664252        0.078070783    227263.23     -4436988.7      1971.5572      1971.5572      1971.5572      1514.2214      3485.7786      1514.2214      3485.7786      1514.2214      3485.7786      7.6635176e+09  0.5            1765500        0.60828333     17249.385      34498.176      2.2883569    
   3526200   78934.867      6.0838356     -4671241.1      0.078070783    234113.4      -4437127.7      1971.5572      1971.5572      1971.5572      1514.2214      3485.7786      1514.2214      3485.7786      1514.2214      3485.7786      7.6635176e+09  0.5            1765600        0.61400872     17502.358      35005.242      2.2822662    
   3526400   82301.64       6.1453019     -4670898.5      0.078070783    244098.93     -4426799.5      1971.5572      1971.5572      1971.5572      1514.2214      3485.7786      1514.2214      3485.7786      1514.2214      3485.7786      7.6635176e+09  0.5            1765700        0.61969593     17583.271      35166.888      2.276087     
   3526600   83595.936      6.1654522     -4670590.1      0.078070783    247937.69     -4422652.4      1971.5572      1971.5572      1971.5572      1514.2214      3485.7786      1514.2214      3485.7786      1514.2214      3485.7786      7.6635176e+09  0.5            1765800        0.62535522     17670.092      35340.153      2.269815     
   3526800   79126.691      6.0617331     -4670334.8      0.078070783    234682.33     -4435652.5      1971.5572      1971.5572      1971.5572      1514.2214      3485.7786      1514.2214      3485.7786      1514.2214      3485.7786      7.6635176e+09  0.5            1765900        0.6311449      17272.115      34543.854      2.2640229    
   3527000   78185.472      6.0151107     -4670162.3      0.078070783    231890.76     -4438271.5      1971.5572      1971.5572      1971.5572      1514.2214      3485.7786      1514.2214      3485.7786      1514.2214      3485.7786      7.6635176e+09  0.5            1766000        0.63683833     17563.941      35127.765      2.2578891    
   3527200   82717.341      6.0813246     -4670054.4      0.078070783    245331.86     -4424722.6      1971.5572      1971.5572      1971.5572      1514.2214      3485.7786      1514.2214      3485.7786      1514.2214      3485.7786      7.6635176e+09  0.5            1766100        0.64254772     17515.227      35030.748      2.2518184    
   3527400   84444.751      6.0734407     -4669966        0.078070783    250455.19     -4419510.8      1971.5572      1971.5572      1971.5572      1514.2214      3485.7786      1514.2214      3485.7786      1514.2214      3485.7786      7.6635176e+09  0.5            1766200        0.64833854     17268.607      34536.642      2.2460376    
   3527600   83436.709      6.0107592     -4669896.3      0.078070783    247465.44     -4422430.9      1971.5572      1971.5572      1971.5572      1514.2214      3485.7786      1514.2214      3485.7786      1514.2214      3485.7786      7.6635176e+09  0.5            1766300        0.65403245     17562.858      35126.149      2.2399235    
   3527800   82267.247      5.9017725     -4677233.2      0.078070783    243996.92     -4433236.3      1971.5572      1971.5572      1971.5572      1514.2214      3485.7786      1514.2214      3485.7786      1514.2214      3485.7786      7.6635176e+09  0.5            1766400        0.65967072     17735.713      35471.647      2.2336289    
   3528000   85357.26       5.9101907     -4677225.4      0.078070783    253161.61     -4424063.8      1971.5572      1971.5572      1971.5572      1514.2214      3485.7786      1514.2214      3485.7786      1514.2214      3485.7786      7.6635176e+09  0.5            1766500        0.66549114     17180.979      34361.882      2.2279954    
   3528200   88971.586      5.8794331     -4684632.6      0.078070783    263881.36     -4420751.3      1971.5572      1971.5572      1971.5572      1514.2214      3485.7786      1514.2214      3485.7786      1514.2214      3485.7786      7.6635176e+09  0.5            1766600        0.67123813     17400.471      34801.129      2.2220361    
   3528400   86938.022      5.7339872     -4684671.4      0.078070783    257850        -4426821.4      1971.5572      1971.5572      1971.5572      1514.2214      3485.7786      1514.2214      3485.7786      1514.2214      3485.7786      7.6635176e+09  0.5            1766700        0.67691006     17630.469      35260.564      2.2158748    
   3528600   84148.463      5.5988697     -4684730.1      0.078070783    249576.43     -4435153.7      1971.5572      1971.5572      1971.5572      1514.2214      3485.7786      1514.2214      3485.7786      1514.2214      3485.7786      7.6635176e+09  0.5            1766800        0.6828808      16748.354      33496.781      2.2106887    
   3528800   88246.138      5.6184776     -4684803        0.078070783    261729.75     -4423073.3      1971.5572      1971.5572      1971.5572      1514.2214      3485.7786      1514.2214      3485.7786      1514.2214      3485.7786      7.6635176e+09  0.5            1766900        0.68871254     17147.585      34295.335      2.2050443    
   3529000   92146.704      5.6135578     -4684856.3      0.078070783    273298.46     -4411557.8      1971.5572      1971.5572      1971.5572      1514.2214      3485.7786      1514.2214      3485.7786      1514.2214      3485.7786      7.6635176e+09  0.5            1767000        0.69454734     17138.76       34277.554      2.1994063    
   3529200   89567.155      5.4916348     -4677838.5      0.078070783    265647.76     -4412190.8      1971.5572      1971.5572      1971.5572      1514.2214      3485.7786      1514.2214      3485.7786      1514.2214      3485.7786      7.6635176e+09  0.5            1767100        0.70040602     17068.514      34136.928      2.1938401    
   3529400   87912.087      5.4101566     -4677762.9      0.078070783    260738.99     -4417023.9      1971.5572      1971.5572      1971.5572      1514.2214      3485.7786      1514.2214      3485.7786      1514.2214      3485.7786      7.6635176e+09  0.5            1767200        0.70607932     17626.469      35253.211      2.1876945    
   3529600   91501.065      5.3980495     -4677593.1      0.078070783    271383.56     -4406209.6      1971.5572      1971.5572      1971.5572      1514.2214      3485.7786      1514.2214      3485.7786      1514.2214      3485.7786      7.6635176e+09  0.5            1767300        0.71172515     17712.247      35424.281      2.1814725    
   3529800   95275.998      5.4217708     -4677297.2      0.078070783    282579.66     -4394717.6      1971.5572      1971.5572      1971.5572      1514.2214      3485.7786      1514.2214      3485.7786      1514.2214      3485.7786      7.6635176e+09  0.5            1767400        0.71745794     17443.468      34886.571      2.175524     
   3530000   93324.259      5.3631763     -4676843        0.078070783    276790.98     -4400052        1971.5572      1971.5572      1971.5572      1514.2214      3485.7786      1514.2214      3485.7786      1514.2214      3485.7786      7.6635176e+09  0.5            1767500        0.72318985     17446.164      34892.377      2.1695758    
   3530200   92105.638      5.2941267     -4676229.6      0.078070783    273176.66     -4403052.9      1971.5572      1971.5572      1971.5572      1514.2214      3485.7786      1514.2214      3485.7786      1514.2214      3485.7786      7.6635176e+09  0.5            1767600        0.72893614     17402.53       34804.878      2.1636738    
   3530400   93378.482      5.3200661     -4682820        0.078070783    276951.8      -4405868.2      1971.5572      1971.5572      1971.5572      1514.2214      3485.7786      1514.2214      3485.7786      1514.2214      3485.7786      7.6635176e+09  0.5            1767700        0.73472771     17266.368      34532.927      2.1579074    
   3530600   97082.103      5.3891538     -4681836.1      0.078070783    287936.39     -4393899.7      1971.5572      1971.5572      1971.5572      1514.2214      3485.7786      1514.2214      3485.7786      1514.2214      3485.7786      7.6635176e+09  0.5            1767800        0.74042146     17563.21       35126.537      2.1518559    
   3530800   101458.97      5.458434      -4680590        0.078070783    300917.78     -4379672.2      1971.5572      1971.5572      1971.5572      1514.2214      3485.7786      1514.2214      3485.7786      1514.2214      3485.7786      7.6635176e+09  0.5            1767900        0.74611275     17570.734      35141.72       2.145803     
   3531000   100439.53      5.5083612     -4671674.2      0.078070783    297894.22     -4373779.9      1971.5572      1971.5572      1971.5572      1514.2214      3485.7786      1514.2214      3485.7786      1514.2214      3485.7786      7.6635176e+09  0.5            1768000        0.75197203     17066.906      34133.461      2.1402342    
   3531200   93607.795      5.3939555     -4669946        0.078070783    277631.92     -4392314.1      1971.5572      1971.5572      1971.5572      1514.2214      3485.7786      1514.2214      3485.7786      1514.2214      3485.7786      7.6635176e+09  0.5            1768100        0.75775833     17282.318      34564.689      2.1344688    
   3531400   94991.152      5.46442       -4668036.6      0.078070783    281734.83     -4386301.8      1971.5572      1971.5572      1971.5572      1514.2214      3485.7786      1514.2214      3485.7786      1514.2214      3485.7786      7.6635176e+09  0.5            1768200        0.76346841     17512.785      35025.724      2.1284631    
   3531600   99375.161      5.5717721     -4673283.1      0.078070783    294737.39     -4378545.7      1971.5572      1971.5572      1971.5572      1514.2214      3485.7786      1514.2214      3485.7786      1514.2214      3485.7786      7.6635176e+09  0.5            1768300        0.76930136     17143.913      34287.597      2.1228149    
   3531800   99957.777      5.6501478     -4670929.1      0.078070783    296465.37     -4374463.7      1971.5572      1971.5572      1971.5572      1514.2214      3485.7786      1514.2214      3485.7786      1514.2214      3485.7786      7.6635176e+09  0.5            1768400        0.77547642     16194.02       32387.494      2.1180988    
   3532000   99302.838      5.7107383     -4668407.7      0.078070783    294522.88     -4373884.8      1971.5572      1971.5572      1971.5572      1514.2214      3485.7786      1514.2214      3485.7786      1514.2214      3485.7786      7.6635176e+09  0.5            1768500        0.78261122     14015.924      28032.327      2.1159547    
   3532200   101889.49      5.8228033     -4665774.2      0.078070783    302194.66     -4363579.5      1971.5572      1971.5572      1971.5572      1514.2214      3485.7786      1514.2214      3485.7786      1514.2214      3485.7786      7.6635176e+09  0.5            1768600        0.78858383     16743.315      33486.658      2.110627     
   3532400   105782.12      5.951546      -4662970.1      0.078070783    313739.82     -4349230.2      1971.5572      1971.5572      1971.5572      1514.2214      3485.7786      1514.2214      3485.7786      1514.2214      3485.7786      7.6635176e+09  0.5            1768700        0.79452709     16825.644      33650.97       2.1052125    
   3532600   101949.34      5.8948946     -4658185.9      0.078070783    302372.16     -4355813.8      1971.5572      1971.5572      1971.5572      1514.2214      3485.7786      1514.2214      3485.7786      1514.2214      3485.7786      7.6635176e+09  0.5            1768800        0.80044154     16907.717      33816.132      2.0997144    
   3532800   98313.323      5.905144      -4653487.1      0.078070783    291588.08     -4361899        1971.5572      1971.5572      1971.5572      1514.2214      3485.7786      1514.2214      3485.7786      1514.2214      3485.7786      7.6635176e+09  0.5            1768900        0.80616919     17459.265      34918.06       2.0937253    
   3533000   104858.54      6.0872804     -4650794.7      0.078070783    311000.59     -4339794.1      1971.5572      1971.5572      1971.5572      1514.2214      3485.7786      1514.2214      3485.7786      1514.2214      3485.7786      7.6635176e+09  0.5            1769000        0.81194499     17313.658      34627.466      2.087864     
   3533200   106116.31      6.1555147     -4648153.1      0.078070783    314730.99     -4333422.1      1971.5572      1971.5572      1971.5572      1514.2214      3485.7786      1514.2214      3485.7786      1514.2214      3485.7786      7.6635176e+09  0.5            1769100        0.81794979     16653.197      33306.161      2.0825868    
   3533400   103704.85      6.1476193     -4645702        0.078070783    307578.84     -4338123.1      1971.5572      1971.5572      1971.5572      1514.2214      3485.7786      1514.2214      3485.7786      1514.2214      3485.7786      7.6635176e+09  0.5            1769200        0.82371475     17346.382      34692.866      2.0766944    
   3533600   104007.37      6.1939275     -4643479.1      0.078070783    308476.09     -4335003        1971.5572      1971.5572      1971.5572      1514.2214      3485.7786      1514.2214      3485.7786      1514.2214      3485.7786      7.6635176e+09  0.5            1769300        0.82953873     17170.221      34340.406      2.0709516    
   3533800   108893.64      6.313284      -4639602        0.078070783    322968.3      -4316633.7      1971.5572      1971.5572      1971.5572      1514.2214      3485.7786      1514.2214      3485.7786      1514.2214      3485.7786      7.6635176e+09  0.5            1769400        0.83525809     17484.498      34969.247      2.0649486    
   3534000   109564.71      6.3163779     -4637852.1      0.078070783    324958.62     -4312893.5      1971.5572      1971.5572      1971.5572      1514.2214      3485.7786      1514.2214      3485.7786      1514.2214      3485.7786      7.6635176e+09  0.5            1769500        0.84096693     17516.746      35033.301      2.058924     
   3534200   106300.88      6.1848277     -4651141.8      0.078070783    315278.41     -4335863.4      1971.5572      1971.5572      1971.5572      1514.2214      3485.7786      1514.2214      3485.7786      1514.2214      3485.7786      7.6635176e+09  0.5            1769600        0.84692567     16782.004      33563.901      2.0535099    
   3534400   102439.32      6.0927447     -4650010        0.078070783    303825.4      -4346184.6      1971.5572      1971.5572      1971.5572      1514.2214      3485.7786      1514.2214      3485.7786      1514.2214      3485.7786      7.6635176e+09  0.5            1769700        0.85268361     17367.371      34734.995      2.0476058    
   3534600   106405.31      6.1635194     -4649202.6      0.078070783    315588.14     -4333614.5      1971.5572      1971.5572      1971.5572      1514.2214      3485.7786      1514.2214      3485.7786      1514.2214      3485.7786      7.6635176e+09  0.5            1769800        0.85853403     17092.825      34185.568      2.0419237    
   3534800   112376.44      6.182168      -4649011.4      0.078070783    333297.96     -4315713.4      1971.5572      1971.5572      1971.5572      1514.2214      3485.7786      1514.2214      3485.7786      1514.2214      3485.7786      7.6635176e+09  0.5            1769900        0.86429187     17367.615      34735.224      2.0360214    
   3535000   112720.07      6.0835681     -4648615.7      0.078070783    334317.13     -4314298.6      1971.5572      1971.5572      1971.5572      1514.2214      3485.7786      1514.2214      3485.7786      1514.2214      3485.7786      7.6635176e+09  0.5            1770000        0.87003353     17416.348      34832.653      2.0300833    
   3535200   109890.78      5.9622528     -4648351.2      0.078070783    325925.72     -4322425.5      1971.5572      1971.5572      1971.5572      1514.2214      3485.7786      1514.2214      3485.7786      1514.2214      3485.7786      7.6635176e+09  0.5            1770100        0.87595657     16883.39       33766.49       2.0245669    
   3535400   109506.94      5.8979721     -4648198.1      0.078070783    324787.3      -4323410.8      1971.5572      1971.5572      1971.5572      1514.2214      3485.7786      1514.2214      3485.7786      1514.2214      3485.7786      7.6635176e+09  0.5            1770200        0.88195586     16668.661      33337.473      2.0192197    
   3535600   116557.5       5.9456215     -4646211.3      0.078070783    345698.59     -4300512.7      1971.5572      1971.5572      1971.5572      1514.2214      3485.7786      1514.2214      3485.7786      1514.2214      3485.7786      7.6635176e+09  0.5            1770300        0.8879046      16810.328      33620.938      2.013749     
   3535800   117290.59      5.935184      -4646091.8      0.078070783    347872.87     -4298219        1971.5572      1971.5572      1971.5572      1514.2214      3485.7786      1514.2214      3485.7786      1514.2214      3485.7786      7.6635176e+09  0.5            1770400        0.89383532     16861.373      33722.508      2.0082322    
   3536000   113495.99      5.8574328     -4638175        0.078070783    336618.43     -4301556.6      1971.5572      1971.5572      1971.5572      1514.2214      3485.7786      1514.2214      3485.7786      1514.2214      3485.7786      7.6635176e+09  0.5            1770500        0.89960272     17338.679      34677.154      2.0023464    
   3536200   113229.96      5.7617279     -4637905.5      0.078070783    335829.43     -4302076.1      1971.5572      1971.5572      1971.5572      1514.2214      3485.7786      1514.2214      3485.7786      1514.2214      3485.7786      7.6635176e+09  0.5            1770600        0.90559639     16684.257      33368.682      1.9969609    
   3536400   115550.81      5.7060109     -4637501.7      0.078070783    342712.84     -4294788.9      1971.5572      1971.5572      1971.5572      1514.2214      3485.7786      1514.2214      3485.7786      1514.2214      3485.7786      7.6635176e+09  0.5            1770700        0.91136902     17323.142      34646.337      1.9910848    
   3536600   116669.89      5.6445051     -4636551.3      0.078070783    346031.93     -4290519.4      1971.5572      1971.5572      1971.5572      1514.2214      3485.7786      1514.2214      3485.7786      1514.2214      3485.7786      7.6635176e+09  0.5            1770800        0.91723252     17054.707      34109.547      1.9854066    
   3536800   117729.43      5.6000471     -4628400.8      0.078070783    349174.43     -4279226.4      1971.5572      1971.5572      1971.5572      1514.2214      3485.7786      1514.2214      3485.7786      1514.2214      3485.7786      7.6635176e+09  0.5            1770900        0.92301607     17290.445      34581.094      1.9795545    
   3537000   119646.9       5.5436156     -4627455.9      0.078070783    354861.44     -4272594.5      1971.5572      1971.5572      1971.5572      1514.2214      3485.7786      1514.2214      3485.7786      1514.2214      3485.7786      7.6635176e+09  0.5            1771000        0.92879853     17293.349      34586.189      1.9737017    
   3537200   123599.24      5.5544499     -4633678.8      0.078070783    366583.72     -4267095.1      1971.5572      1971.5572      1971.5572      1514.2214      3485.7786      1514.2214      3485.7786      1514.2214      3485.7786      7.6635176e+09  0.5            1771100        0.93468793     16980.019      33960.234      1.968074     
   3537400   123598.54      5.4904226     -4624955.6      0.078070783    366581.66     -4258373.9      1971.5572      1971.5572      1971.5572      1514.2214      3485.7786      1514.2214      3485.7786      1514.2214      3485.7786      7.6635176e+09  0.5            1771200        0.94048431     17252.04       34503.985      1.9622496    
   3537600   116460.57      5.3149955     -4623517        0.078070783    345411.11     -4278105.9      1971.5572      1971.5572      1971.5572      1514.2214      3485.7786      1514.2214      3485.7786      1514.2214      3485.7786      7.6635176e+09  0.5            1771300        0.9462294      17406.216      34812.838      1.9563191    
   3537800   117257.2       5.3078333     -4614667.4      0.078070783    347773.82     -4266893.6      1971.5572      1971.5572      1971.5572      1514.2214      3485.7786      1514.2214      3485.7786      1514.2214      3485.7786      7.6635176e+09  0.5            1771400        0.95218886     16780.128      33560.099      1.9508301    
   3538000   122533.29      5.3292076     -4613128.4      0.078070783    363422.23     -4249706.2      1971.5572      1971.5572      1971.5572      1514.2214      3485.7786      1514.2214      3485.7786      1514.2214      3485.7786      7.6635176e+09  0.5            1771500        0.95800597     17190.572      34311.32       1.9450708    
   3538200   123220.67      5.2931033     -4611531.9      0.078070783    365460.93     -4246070.9      1971.5572      1971.5572      1971.5572      1514.2214      3485.7786      1514.2214      3485.7786      1514.2214      3485.7786      7.6635176e+09  0.5            1771600        0.96389324     16985.643      34039.506      1.9394042    
   3538400   123224.56      5.2541991     -4609911.9      0.078070783    365472.46     -4244439.4      1971.5572      1971.5572      1971.5572      1514.2214      3485.7786      1514.2214      3485.7786      1514.2214      3485.7786      7.6635176e+09  0.5            1771700        0.96965072     17368.791      34737.921      1.9334993    
   3538600   125357.22      5.2898796     -4607932.6      0.078070783    371797.72     -4236134.9      1971.5572      1971.5572      1971.5572      1514.2214      3485.7786      1514.2214      3485.7786      1514.2214      3485.7786      7.6635176e+09  0.5            1771800        0.97540985     17363.842      34727.594      1.9275997    
   3538800   130709.23      5.4152252     -4591576.1      0.078070783    387671.29     -4203904.8      1971.5572      1971.5572      1971.5572      1514.2214      3485.7786      1514.2214      3485.7786      1514.2214      3485.7786      7.6635176e+09  0.5            1771900        0.98150462     16407.478      32814.826      1.9223594    
   3539000   128147.95      5.3702642     -4590000.3      0.078070783    380074.76     -4209925.5      1971.5572      1971.5572      1971.5572      1514.2214      3485.7786      1514.2214      3485.7786      1514.2214      3485.7786      7.6635176e+09  0.5            1772000        0.98725513     17389.816      34779.391      1.9164635    
   3539200   120865.09      5.2241228     -4588497.8      0.078070783    358474.49     -4230023.4      1971.5572      1971.5572      1971.5572      1514.2214      3485.7786      1514.2214      3485.7786      1514.2214      3485.7786      7.6635176e+09  0.5            1772100        0.99341657     16229.93       32459.739      1.9113145    
   3539400   123775.8       5.3305742     -4565006.7      0.078070783    367107.39     -4197899.4      1971.5572      1971.5572      1971.5572      1514.2214      3485.7786      1514.2214      3485.7786      1514.2214      3485.7786      7.6635176e+09  0.5            1772200        0.99915168     17436.457      34873.37       1.905363     
   3539600   127744.17      5.394562      -4563745.2      0.078070783    378877.21     -4184868        1971.5572      1971.5572      1971.5572      1514.2214      3485.7786      1514.2214      3485.7786      1514.2214      3485.7786      7.6635176e+09  0.5            1772300        1.0049903      17127.347      34254.4        1.8996101    
   3539800   129561.5       5.4088836     -4562565.6      0.078070783    384267.23     -4178298.4      1971.5572      1971.5572      1971.5572      1514.2214      3485.7786      1514.2214      3485.7786      1514.2214      3485.7786      7.6635176e+09  0.5            1772400        1.0107254      17436.554      34873.407      1.8936618    
   3540000   130264.59      5.3384419     -4561134.8      0.078070783    386352.54     -4174782.3      1971.5572      1971.5572      1971.5572      1514.2214      3485.7786      1514.2214      3485.7786      1514.2214      3485.7786      7.6635176e+09  0.5            1772500        1.016432       17523.477      35047.108      1.8876632    
   3540200   130928.36      5.2917886     -4560182.3      0.078070783    388321.21     -4171861        1971.5572      1971.5572      1971.5572      1514.2214      3485.7786      1514.2214      3485.7786      1514.2214      3485.7786      7.6635176e+09  0.5            1772600        1.0223169      16992.573      33984.435      1.8819966    
   3540400   132516.34      5.244837      -4558977.3      0.078070783    393031.02     -4165946.3      1971.5572      1971.5572      1971.5572      1514.2214      3485.7786      1514.2214      3485.7786      1514.2214      3485.7786      7.6635176e+09  0.5            1772700        1.0280639      17400.419      34801.607      1.8760751    
   3540600   132868.73      5.1615913     -4557887.9      0.078070783    394076.16     -4163811.8      1971.5572      1971.5572      1971.5572      1514.2214      3485.7786      1514.2214      3485.7786      1514.2214      3485.7786      7.6635176e+09  0.5            1772800        1.0338727      17215.52       34430.739      1.8702679    
   3540800   131263.21      5.0374778     -4557272.2      0.078070783    389314.34     -4167957.9      1971.5572      1971.5572      1971.5572      1514.2214      3485.7786      1514.2214      3485.7786      1514.2214      3485.7786      7.6635176e+09  0.5            1772900        1.0396591      17281.792      34563.649      1.8644203    
   3541000   131268.98      4.9679911     -4556766.3      0.078070783    389331.47     -4167434.8      1971.5572      1971.5572      1971.5572      1514.2214      3485.7786      1514.2214      3485.7786      1514.2214      3485.7786      7.6635176e+09  0.5            1773000        1.0454409      17295.778      34591.555      1.8585651    
   3541200   136969.32      4.9879093     -4556366.5      0.078070783    406238.11     -4150128.4      1971.5572      1971.5572      1971.5572      1514.2214      3485.7786      1514.2214      3485.7786      1514.2214      3485.7786      7.6635176e+09  0.5            1773100        1.0513575      16901.513      33803.038      1.8529486    
   3541400   139317.27      4.9208317     -4556072        0.078070783    413201.92     -4142870.1      1971.5572      1971.5572      1971.5572      1514.2214      3485.7786      1514.2214      3485.7786      1514.2214      3485.7786      7.6635176e+09  0.5            1773200        1.0571063      17395.092      34790.202      1.8470353    
   3541600   132144.91      4.6713651     -4555852.8      0.078070783    391929.38     -4163923.4      1971.5572      1971.5572      1971.5572      1514.2214      3485.7786      1514.2214      3485.7786      1514.2214      3485.7786      7.6635176e+09  0.5            1773300        1.0629218      17195.198      34390.219      1.8412398    
   3541800   129932.07      4.5190987     -4555716.2      0.078070783    385366.3      -4170349.9      1971.5572      1971.5572      1971.5572      1514.2214      3485.7786      1514.2214      3485.7786      1514.2214      3485.7786      7.6635176e+09  0.5            1773400        1.0686821      17360.207      34720.794      1.8353488    
   3542000   134782.04      4.477287      -4553767.2      0.078070783    399750.87     -4154016.4      1971.5572      1971.5572      1971.5572      1514.2214      3485.7786      1514.2214      3485.7786      1514.2214      3485.7786      7.6635176e+09  0.5            1773500        1.074548       17047.729      34094.993      1.8296393    
   3542200   137839.37      4.3542413     -4561142.6      0.078070783    408818.61     -4152324        1971.5572      1971.5572      1971.5572      1514.2214      3485.7786      1514.2214      3485.7786      1514.2214      3485.7786      7.6635176e+09  0.5            1773600        1.080546       16672.241      33344.932      1.8241509    
   3542400   140159.03      4.2597401     -4561159.1      0.078070783    415698.5      -4145460.6      1971.5572      1971.5572      1971.5572      1514.2214      3485.7786      1514.2214      3485.7786      1514.2214      3485.7786      7.6635176e+09  0.5            1773700        1.0862411      17559.13       35117.915      1.8181503    
   3542600   140083.66      4.1012238     -4568534.4      0.078070783    415474.96     -4153059.5      1971.5572      1971.5572      1971.5572      1514.2214      3485.7786      1514.2214      3485.7786      1514.2214      3485.7786      7.6635176e+09  0.5            1773800        1.0923955      16248.395      32497.292      1.812915     
   3542800   136560.51      3.9064326     -4561156.8      0.078070783    405025.63     -4156131.2      1971.5572      1971.5572      1971.5572      1514.2214      3485.7786      1514.2214      3485.7786      1514.2214      3485.7786      7.6635176e+09  0.5            1773900        1.0981684      17322.229      34643.991      1.8070425    
   3543000   136187.77      3.7767209     -4561134.1      0.078070783    403920.13     -4157214        1971.5572      1971.5572      1971.5572      1514.2214      3485.7786      1514.2214      3485.7786      1514.2214      3485.7786      7.6635176e+09  0.5            1774000        1.1040169      17098.428      34196.458      1.8012943    
   3543200   144518.96      3.7764514     -4561067.6      0.078070783    428629.65     -4132437.9      1971.5572      1971.5572      1971.5572      1514.2214      3485.7786      1514.2214      3485.7786      1514.2214      3485.7786      7.6635176e+09  0.5            1774100        1.1098088      17265.688      34531.347      1.7954532    
   3543400   145616.64      3.6637978     -4560561.4      0.078070783    431885.26     -4128676.1      1971.5572      1971.5572      1971.5572      1514.2214      3485.7786      1514.2214      3485.7786      1514.2214      3485.7786      7.6635176e+09  0.5            1774200        1.1156355      17162.438      34325.1        1.7896686    
   3543600   141037.31      3.4509808     -4560346.6      0.078070783    418303.42     -4142043.2      1971.5572      1971.5572      1971.5572      1514.2214      3485.7786      1514.2214      3485.7786      1514.2214      3485.7786      7.6635176e+09  0.5            1774300        1.1214204      17286.046      34572.313      1.7838171    
   3543800   139870.51      3.3120534     -4560054.5      0.078070783    414842.78     -4145211.7      1971.5572      1971.5572      1971.5572      1514.2214      3485.7786      1514.2214      3485.7786      1514.2214      3485.7786      7.6635176e+09  0.5            1774400        1.1271439      17471.93       34943.653      1.7778696    
   3544000   151477.08      3.4358653     -4567033.9      0.078070783    449266.78     -4117767.1      1971.5572      1971.5572      1971.5572      1514.2214      3485.7786      1514.2214      3485.7786      1514.2214      3485.7786      7.6635176e+09  0.5            1774500        1.1330323      16982.427      33964.795      1.7721822    
   3544200   150335.16      3.3460641     -4551742.2      0.078070783    445879.96     -4105862.3      1971.5572      1971.5572      1971.5572      1514.2214      3485.7786      1514.2214      3485.7786      1514.2214      3485.7786      7.6635176e+09  0.5            1774600        1.1388166      17288.338      34577.071      1.7663309    
   3544400   143328.14      3.1442785     -4543678.3      0.078070783    425097.79     -4118580.5      1971.5572      1971.5572      1971.5572      1514.2214      3485.7786      1514.2214      3485.7786      1514.2214      3485.7786      7.6635176e+09  0.5            1774700        1.1446528      17134.466      34268.756      1.7605605    
   3544600   143201.35      3.0926917     -4542847        0.078070783    424721.73     -4118125.2      1971.5572      1971.5572      1971.5572      1514.2214      3485.7786      1514.2214      3485.7786      1514.2214      3485.7786      7.6635176e+09  0.5            1774800        1.1503987      17403.517      34807.27       1.7546517    
   3544800   149439.06      3.1471613     -4549228.9      0.078070783    443222.21     -4106006.7      1971.5572      1971.5572      1971.5572      1514.2214      3485.7786      1514.2214      3485.7786      1514.2214      3485.7786      7.6635176e+09  0.5            1774900        1.1562268      17158.401      34316.542      1.7488688    
   3545000   151528.18      3.1467701     -4548054.9      0.078070783    449418.34     -4098636.5      1971.5572      1971.5572      1971.5572      1514.2214      3485.7786      1514.2214      3485.7786      1514.2214      3485.7786      7.6635176e+09  0.5            1775000        1.1620137      17280.517      34560.8        1.7430237    
   3545200   148822.87      3.1386209     -4539344.1      0.078070783    441394.63     -4097949.5      1971.5572      1971.5572      1971.5572      1514.2214      3485.7786      1514.2214      3485.7786      1514.2214      3485.7786      7.6635176e+09  0.5            1775100        1.1679356      16886.318      33772.694      1.73738      
   3545400   148246.84      3.1721184     -4537884.2      0.078070783    439686.18     -4098198.1      1971.5572      1971.5572      1971.5572      1514.2214      3485.7786      1514.2214      3485.7786      1514.2214      3485.7786      7.6635176e+09  0.5            1775200        1.1736806      17406.362      34812.978      1.7314725    
   3545600   149986.08      3.1955994     -4543675.3      0.078070783    444844.63     -4098830.6      1971.5572      1971.5572      1971.5572      1514.2214      3485.7786      1514.2214      3485.7786      1514.2214      3485.7786      7.6635176e+09  0.5            1775300        1.1794455      17346.538      34693.016      1.7255956    
   3545800   153710.22      3.2383388     -4534597.4      0.078070783    455890.05     -4078707.4      1971.5572      1971.5572      1971.5572      1514.2214      3485.7786      1514.2214      3485.7786      1514.2214      3485.7786      7.6635176e+09  0.5            1775400        1.18551        16489.142      32978.267      1.7201549    
   3546000   156777.67      3.3129281     -4532840.9      0.078070783    464987.83     -4067853.1      1971.5572      1971.5572      1971.5572      1514.2214      3485.7786      1514.2214      3485.7786      1514.2214      3485.7786      7.6635176e+09  0.5            1775500        1.1916006      16418.87       32837.929      1.7147624    
   3546200   152474.11      3.2737563     -4523672.6      0.078070783    452223.87     -4071448.8      1971.5572      1971.5572      1971.5572      1514.2214      3485.7786      1514.2214      3485.7786      1514.2214      3485.7786      7.6635176e+09  0.5            1775600        1.1975244      16881.352      33762.665      1.7090911    
   3546400   146239.87      3.1928361     -4514560        0.078070783    433733.71     -4080826.3      1971.5572      1971.5572      1971.5572      1514.2214      3485.7786      1514.2214      3485.7786      1514.2214      3485.7786      7.6635176e+09  0.5            1775700        1.203306       17295.987      34591.729      1.7032332    
   3546600   152279.34      3.3145568     -4512884.2      0.078070783    451646.21     -4061238        1971.5572      1971.5572      1971.5572      1514.2214      3485.7786      1514.2214      3485.7786      1514.2214      3485.7786      7.6635176e+09  0.5            1775800        1.2091925      16988.041      33976.133      1.6975232    
   3546800   157277.06      3.4588782     -4503909.4      0.078070783    466468.97     -4037440.4      1971.5572      1971.5572      1971.5572      1514.2214      3485.7786      1514.2214      3485.7786      1514.2214      3485.7786      7.6635176e+09  0.5            1775900        1.2149695      17310.244      34620.8        1.6916588    
   3547000   155753.91      3.4542077     -4502423.9      0.078070783    461951.46     -4040472.5      1971.5572      1971.5572      1971.5572      1514.2214      3485.7786      1514.2214      3485.7786      1514.2214      3485.7786      7.6635176e+09  0.5            1776000        1.2208146      17108.139      34216.337      1.6858896    
   3547200   153867.69      3.5066427     -4499196.1      0.078070783    456357.09     -4042839        1971.5572      1971.5572      1971.5572      1514.2214      3485.7786      1514.2214      3485.7786      1514.2214      3485.7786      7.6635176e+09  0.5            1776100        1.2265696      17376.34       34752.003      1.6799963    
   3547400   157975.74      3.5883489     -4498016.6      0.078070783    468541.18     -4029475.4      1971.5572      1971.5572      1971.5572      1514.2214      3485.7786      1514.2214      3485.7786      1514.2214      3485.7786      7.6635176e+09  0.5            1776200        1.2324004      17150.205      34300.764      1.6742072    
   3547600   165201.55      3.7256523     -4496930.8      0.078070783    489972.27     -4006958.6      1971.5572      1971.5572      1971.5572      1514.2214      3485.7786      1514.2214      3485.7786      1514.2214      3485.7786      7.6635176e+09  0.5            1776300        1.2380926      17568.097      35136.176      1.6682308    
   3547800   159092.6       3.6454725     -4495943        0.078070783    471853.7      -4024089.3      1971.5572      1971.5572      1971.5572      1514.2214      3485.7786      1514.2214      3485.7786      1514.2214      3485.7786      7.6635176e+09  0.5            1776400        1.2438483      17374.057      34748.259      1.662342     
   3548000   154174.85      3.5630661     -4487720.2      0.078070783    457268.12     -4030452.1      1971.5572      1971.5572      1971.5572      1514.2214      3485.7786      1514.2214      3485.7786      1514.2214      3485.7786      7.6635176e+09  0.5            1776500        1.2497039      17077.398      34154.784      1.656587     
   3548200   157522.36      3.603198      -4494375.6      0.078070783    467196.5      -4027179.1      1971.5572      1971.5572      1971.5572      1514.2214      3485.7786      1514.2214      3485.7786      1514.2214      3485.7786      7.6635176e+09  0.5            1776600        1.2555215      17189.316      34378.479      1.650781     
   3548400   160885.66      3.684101      -4494100.9      0.078070783    477171.73     -4016929.1      1971.5572      1971.5572      1971.5572      1514.2214      3485.7786      1514.2214      3485.7786      1514.2214      3485.7786      7.6635176e+09  0.5            1776700        1.2614213      16949.635      33899.638      1.645082     
   3548600   162054.3       3.7230566     -4493514.1      0.078070783    480637.82     -4012876.3      1971.5572      1971.5572      1971.5572      1514.2214      3485.7786      1514.2214      3485.7786      1514.2214      3485.7786      7.6635176e+09  0.5            1776800        1.2672011      17301.798      34603.555      1.6392259    
   3548800   162119.75      3.7297242     -4492979.3      0.078070783    480831.94     -4012147.3      1971.5572      1971.5572      1971.5572      1514.2214      3485.7786      1514.2214      3485.7786      1514.2214      3485.7786      7.6635176e+09  0.5            1776900        1.2730389      17129.679      34259.499      1.6334452    
   3549000   163099.94      3.7866688     -4490593        0.078070783    483739.1      -4006853.9      1971.5572      1971.5572      1971.5572      1514.2214      3485.7786      1514.2214      3485.7786      1514.2214      3485.7786      7.6635176e+09  0.5            1777000        1.2787988      17361.464      34722.759      1.6275647    
   3549200   166110.48      3.8199114     -4490117.6      0.078070783    492668.08     -3997449.5      1971.5572      1971.5572      1971.5572      1514.2214      3485.7786      1514.2214      3485.7786      1514.2214      3485.7786      7.6635176e+09  0.5            1777100        1.2849455      16268.606      32537.065      1.6221737    
   3549400   166007.62      3.8143626     -4489632.6      0.078070783    492362.99     -3997269.6      1971.5572      1971.5572      1971.5572      1514.2214      3485.7786      1514.2214      3485.7786      1514.2214      3485.7786      7.6635176e+09  0.5            1777200        1.290992       16538.608      33077.189      1.6166502    
   3549600   162045.09      3.7498869     -4481774.5      0.078070783    480610.5      -4001164        1971.5572      1971.5572      1971.5572      1514.2214      3485.7786      1514.2214      3485.7786      1514.2214      3485.7786      7.6635176e+09  0.5            1777300        1.2967954      17231.338      34462.592      1.6108202    
   3549800   161752.71      3.7050925     -4481308.8      0.078070783    479743.32     -4001565.5      1971.5572      1971.5572      1971.5572      1514.2214      3485.7786      1514.2214      3485.7786      1514.2214      3485.7786      7.6635176e+09  0.5            1777400        1.3025726      17309.459      34619.236      1.6049581    
[...]
   4194400   312.14778      1.0806685     -5624443.3      0.10386964     925.80097     -5623517.5      1792.5696      1792.5696      1792.5696      1603.7152      3396.2848      1603.7152      3396.2848      1603.7152      3396.2848      5.7600738e+09  0.5            2099700        12.295978      11614.113      23228.34       0.45037107   
   4194600   312.08895      1.0715911     -5624580.3      0.10388401     925.62649     -5623654.6      1792.4869      1792.4869      1792.4869      1603.7565      3396.2435      1603.7565      3396.2435      1603.7565      3396.2435      5.7592772e+09  0.5            2099800        12.304886      11225.3        22450.441      0.44188826   
   4194800   311.98235      1.0612089     -5624717.2      0.10389779     925.31032     -5623791.9      1792.4077      1792.4077      1792.4077      1603.7962      3396.2038      1603.7962      3396.2038      1603.7962      3396.2038      5.7585136e+09  0.5            2099900        12.313624      11444.455      22889.13       0.43339885   
   4195000   311.8333       1.0333231     -5624855.8      0.10390886     924.86824     -5623931        1792.344       1792.344       1792.344       1603.828       3396.172       1603.828       3396.172       1603.828       3396.172       5.7579e+09     0.5            2100000        12.322266      11571.422      23142.756      0.4249058    
   4195200   311.84266      1.050787      -5632362.3      0.10393155     924.89603     -5631437.4      1792.2136      1792.2136      1792.2136      1603.8932      3396.1068      1603.8932      3396.1068      1603.8932      3396.1068      5.7566431e+09  0.5            2100100        12.330831      11675.063      23350.08       0.41640995   
   4195400   311.93782      0.92375257    -5632512.3      0.1039279      925.17825     -5631587.2      1792.2346      1792.2346      1792.2346      1603.8827      3396.1173      1603.8827      3396.1173      1603.8827      3396.1173      5.7568452e+09  0.5            2100200        12.339347      11742.383      23484.782      0.40791239   
   4195600   312.20446      1.0561874     -5640003.2      0.10397181     925.96908     -5639077.2      1791.9822      1791.9822      1791.9822      1604.0089      3395.9911      1604.0089      3395.9911      1604.0089      3395.9911      5.7544138e+09  0.5            2100300        12.348502      10922.837      21845.509      0.39943547   
   4195800   312.4141       0.93694117    -5640153.9      0.10397068     926.59085     -5639227.3      1791.9887      1791.9887      1791.9887      1604.0056      3395.9944      1604.0056      3395.9944      1604.0056      3395.9944      5.7544763e+09  0.5            2100400        12.357185      11517.993      23036.212      0.39094264   
   4196000   312.42952      1.0059893     -5640281.7      0.10399947     926.63658     -5639355.1      1791.8233      1791.8233      1791.8233      1604.0883      3395.9117      1604.0883      3395.9117      1604.0883      3395.9117      5.752883e+09   0.5            2100500        12.366058      11269.649      22513.654      0.38245579   
   4196200   312.27764      1.0882076     -5640407.8      0.10402927     926.18612     -5639481.6      1791.6522      1791.6522      1791.6522      1604.1739      3395.8261      1604.1739      3395.8261      1604.1739      3395.8261      5.7512352e+09  0.5            2100600        12.375043      11130.043      22285.411      0.37397113   
   4196400   312.11046      1.0349527     -5640552.2      0.10403689     925.6903      -5639626.5      1791.6085      1791.6085      1791.6085      1604.1958      3395.8042      1604.1958      3395.8042      1604.1958      3395.8042      5.7508141e+09  0.5            2100700        12.38348       11852.099      23703.987      0.36546996   
   4196600   312.03794      0.93104453    -5640702.2      0.10403634     925.4752      -5639776.8      1791.6116      1791.6116      1791.6116      1604.1942      3395.8058      1604.1942      3395.8058      1604.1942      3395.8058      5.7508444e+09  0.5            2100800        12.392009      11724.4        23448.575      0.35697153   
   4196800   312.02792      0.84222103    -5640849.1      0.10403824     925.44547     -5639923.7      1791.6007      1791.6007      1791.6007      1604.1996      3395.8004      1604.1996      3395.8004      1604.1996      3395.8004      5.7507394e+09  0.5            2100900        12.400553      11703.921      23408.059      0.34847346   
   4197000   312.06669      0.89546288    -5640979.9      0.10406297     925.56045     -5640054.3      1791.4588      1791.4588      1791.4588      1604.2706      3395.7294      1604.2706      3395.7294      1604.2706      3395.7294      5.7493727e+09  0.5            2101000        12.409198      11567.158      23134.225      0.3399781    
   4197200   312.11177      1.0070934     -5641102.9      0.10409697     925.69417     -5640177.2      1791.2637      1791.2637      1791.2637      1604.3681      3395.6319      1604.3681      3395.6319      1604.3681      3395.6319      5.747495e+09   0.5            2101100        12.417949      11427.232      22854.426      0.33148537   
   4197400   312.10343      0.92573579    -5641249.5      0.10410022     925.66944     -5640323.8      1791.2451      1791.2451      1791.2451      1604.3775      3395.6225      1604.3775      3395.6225      1604.3775      3395.6225      5.7473153e+09  0.5            2101200        12.426567      11604.267      23208.695      0.3229888    
   4197600   312.12271      0.85085219    -5641394.6      0.10410459     925.72662     -5640468.8      1791.22        1791.22        1791.22        1604.39        3395.61        1604.39        3395.61        1604.39        3395.61        5.7470743e+09  0.5            2101300        12.435102      11716.512      23432.841      0.31448999   
   4197800   312.21541      1.0825945     -5656253.6      0.10416461     926.00156     -5655327.6      1790.8759      1790.8759      1790.8759      1604.562       3395.438       1604.562       3395.438       1604.562       3395.438       5.7437629e+09  0.5            2101400        12.443806      11488.469      22977.02       0.3059953    
   4198000   312.0539       0.84272326    -5649045.1      0.10413839     925.52253     -5648119.5      1791.0262      1791.0262      1791.0262      1604.4869      3395.5131      1604.4869      3395.5131      1604.4869      3395.5131      5.7452088e+09  0.5            2101500        12.452337      11722.782      23445.139      0.29749616   
   4198200   312.05863      0.94756317    -5656545.1      0.10417471     925.53656     -5655619.6      1790.8181      1790.8181      1790.8181      1604.591       3395.409       1604.591       3395.409       1604.591       3395.409       5.7432059e+09  0.5            2101600        12.461065      11456.573      22913.479      0.28900157   
   4198400   312.12313      1.1059438     -5656659.7      0.10421734     925.72786     -5655733.9      1790.5739      1790.5739      1790.5739      1604.7131      3395.2869      1604.7131      3395.2869      1604.7131      3395.2869      5.7408569e+09  0.5            2101700        12.469552      11782.874      23565.733      0.28050123   
   4198600   312.16751      1.0241897     -5656806.6      0.10422164     925.85949     -5655880.7      1790.5492      1790.5492      1790.5492      1604.7254      3395.2746      1604.7254      3395.2746      1604.7254      3395.2746      5.7406199e+09  0.5            2101800        12.478058      11756.581      23513.166      0.27200132   
   4198800   312.24246      0.91559433    -5656956.1      0.10422183     926.0818      -5656030.1      1790.5481      1790.5481      1790.5481      1604.7259      3395.2741      1604.7259      3395.2741      1604.7259      3395.2741      5.7406091e+09  0.5            2101900        12.486492      11857.518      23715.008      0.26349987   
   4199000   312.38309      1.0972187     -5657068        0.10427041     926.49889     -5656141.5      1790.27        1790.27        1790.27        1604.865       3395.135       1604.865       3395.135       1604.865       3395.135       5.7379348e+09  0.5            2102000        12.495031      11709.912      23419.988      0.25500069   
   4199200   312.41345      0.92972828    -5657227.7      0.10426075     926.58891     -5656301.1      1790.3253      1790.3253      1790.3253      1604.8373      3395.1627      1604.8373      3395.1627      1604.8373      3395.1627      5.7384667e+09  0.5            2102100        12.503776      11435.998      22871.872      0.24650548   
   4199400   312.40234      0.94968859    -5657363.7      0.10428109     926.55597     -5656437.1      1790.2089      1790.2089      1790.2089      1604.8956      3395.1044      1604.8956      3395.1044      1604.8956      3395.1044      5.7373469e+09  0.5            2102200        12.512382      11619.472      23239.122      0.23800731   
   4199600   312.31888      1.0439205     -5657490.4      0.10431252     926.30844     -5656564.1      1790.0291      1790.0291      1790.0291      1604.9855      3395.0145      1604.9855      3395.0145      1604.9855      3395.0145      5.7356186e+09  0.5            2102300        12.520931      11697.206      23394.322      0.22950794   
   4199800   312.23276      1.0477432     -5665003.3      0.10433285     926.05301     -5664077.3      1789.9128      1789.9128      1789.9128      1605.0436      3394.9564      1605.0436      3394.9564      1605.0436      3394.9564      5.7345007e+09  0.5            2102400        12.529384      11829.56       23658.977      0.22100682   
   4200000   312.16757      0.97556299    -5665151.2      0.10433732     925.85965     -5664225.3      1789.8873      1789.8873      1789.8873      1605.0564      3394.9436      1605.0564      3394.9436      1605.0564      3394.9436      5.7342553e+09  0.5            2102500        12.539431      9953.2199      19906.471      0.21253278   
   4200200   312.19112      0.94808132    -5665292.8      0.10434911     925.92952     -5664366.8      1789.8198      1789.8198      1789.8198      1605.0901      3394.9099      1605.0901      3394.9099      1605.0901      3394.9099      5.7336073e+09  0.5            2102600        12.548102      11533.073      23066.242      0.20403422   
   4200400   312.22284      0.94030925    -5665432        0.10436405     926.0236      -5664505.9      1789.7344      1789.7344      1789.7344      1605.1328      3394.8672      1605.1328      3394.8672      1605.1328      3394.8672      5.7327864e+09  0.5            2102700        12.556708      11619.513      23238.904      0.19553443   
   4200600   312.23323      0.95489879    -5665568.6      0.10438244     926.05441     -5664642.5      1789.6293      1789.6293      1789.6293      1605.1854      3394.8146      1605.1854      3394.8146      1605.1854      3394.8146      5.7317763e+09  0.5            2102800        12.56543       11465.751      22931.761      0.1870362    
   4200800   312.25465      1.0312469     -5667591        0.10441216     926.11793     -5666664.9      1789.4595      1789.4595      1789.4595      1605.2703      3394.7297      1605.2703      3394.7297      1605.2703      3394.7297      5.7301448e+09  0.5            2102900        12.574369      11187.369      22374.631      0.17854076   
   4201000   312.17006      1.0008482     -5667733.3      0.10442315     925.86706     -5666807.4      1789.3967      1789.3967      1789.3967      1605.3017      3394.6983      1605.3017      3394.6983      1605.3017      3394.6983      5.7295418e+09  0.5            2103000        12.58299       11598.557      23196.762      0.17004044   
   4201200   312.12042      0.95603849    -5667876.7      0.10443201     925.71981     -5666951        1789.3461      1789.3461      1789.3461      1605.3269      3394.6731      1605.3269      3394.6731      1605.3269      3394.6731      5.7290559e+09  0.5            2103100        12.591747      11419.227      22838.796      0.16154169   
   4201400   312.13901      0.91986753    -5668018.5      0.10444268     925.77495     -5667092.8      1789.2852      1789.2852      1789.2852      1605.3574      3394.6426      1605.3574      3394.6426      1605.3574      3394.6426      5.7284706e+09  0.5            2103200        12.600416      11535.715      23071.489      0.15304152   
   4201600   312.20921      0.96865972    -5668150.1      0.10446722     925.98317     -5667224.1      1789.1451      1789.1451      1789.1451      1605.4275      3394.5725      1605.4275      3394.5725      1605.4275      3394.5725      5.7271249e+09  0.5            2103300        12.609162      11434.34       22868.284      0.144542     
   4201800   312.24058      1.0937168     -5668270.9      0.10450409     926.07621     -5667344.8      1788.9346      1788.9346      1788.9346      1605.5327      3394.4673      1605.5327      3394.4673      1605.5327      3394.4673      5.7251045e+09  0.5            2103400        12.617761      11629.109      23258.499      0.13604057   
   4202000   312.17575      1.0947801     -5668407.7      0.10452124     925.88393     -5667481.8      1788.8368      1788.8368      1788.8368      1605.5816      3394.4184      1605.5816      3394.4184      1605.5816      3394.4184      5.7241652e+09  0.5            2103500        12.626261      11765.087      23530.062      0.12753801   
   4202200   312.17507      0.86730919    -5668573.5      0.10450156     925.88193     -5667647.6      1788.9491      1788.9491      1788.9491      1605.5255      3394.4745      1605.5255      3394.4745      1605.5255      3394.4745      5.7252431e+09  0.5            2103600        12.634726      11812.989      23626.204      0.11903512   
   4202400   312.2549       0.87625703    -5668710.1      0.10451997     926.11868     -5667784        1788.844       1788.844       1788.844       1605.578       3394.422       1605.578       3394.422       1605.578       3394.422       5.7242344e+09  0.5            2103700        12.643111      11925.32       23850.379      0.11053159   
   4202600   312.26591      1.1136135     -5668817.7      0.10457469     926.15135     -5667891.5      1788.5319      1788.5319      1788.5319      1605.734       3394.266       1605.734       3394.266       1605.734       3394.266       5.721239e+09   0.5            2103800        12.651602      11777.396      23554.92       0.10202907   
   4202800   312.14229      1.1739828     -5668946        0.10460084     925.78469     -5668020.2      1788.3829      1788.3829      1788.3829      1605.8086      3394.1914      1605.8086      3394.1914      1605.8086      3394.1914      5.7198088e+09  0.5            2103900        12.660255      11557.535      23115.214      0.093527754  
   4203000   311.96343      0.90859805    -5669118.1      0.1045744      925.2542      -5668192.9      1788.5336      1788.5336      1788.5336      1605.7332      3394.2668      1605.7332      3394.2668      1605.7332      3394.2668      5.7212548e+09  0.5            2104000        12.669112      11290.218      22580.423      0.085027612  
   4203200   312.13933      0.92868552    -5669251.3      0.10459572     925.77591     -5668325.5      1788.4121      1788.4121      1788.4121      1605.794       3394.206       1605.794       3394.206       1605.794       3394.206       5.720089e+09   0.5            2104100        12.677978      11278.724      22557.492      0.076527045  
   4203400   312.44996      1.1435284     -5669358.9      0.1046493      926.69722     -5668432.2      1788.1068      1788.1068      1788.1068      1605.9466      3394.0534      1605.9466      3394.0534      1605.9466      3394.0534      5.7171602e+09  0.5            2104200        12.686628      11560.376      23120.716      0.068024829  
   4203600   312.4116       0.96168143    -5669522.1      0.10463624     926.58343     -5668595.6      1788.1812      1788.1812      1788.1812      1605.9094      3394.0906      1605.9094      3394.0906      1605.9094      3394.0906      5.7178738e+09  0.5            2104300        12.695276      11563.568      23127.082      0.059522404  
   4203800   312.14659      0.88000205    -5669670.1      0.10463874     925.79744     -5668744.3      1788.167       1788.167       1788.167       1605.9165      3394.0835      1605.9165      3394.0835      1605.9165      3394.0835      5.7177374e+09  0.5            2104400        12.703898      11599.024      23198.199      0.051019679  
   4204000   311.87995      0.91838443    -5669803.2      0.1046604      925.00661     -5668878.2      1788.0436      1788.0436      1788.0436      1605.9782      3394.0218      1605.9782      3394.0218      1605.9782      3394.0218      5.716554e+09   0.5            2104500        12.712337      11849.443      23698.721      0.042516184  
   4204200   311.88276      1.0224095     -5669926.5      0.10469333     925.01495     -5669001.5      1787.8561      1787.8561      1787.8561      1606.0719      3393.9281      1606.0719      3393.9281      1606.0719      3393.9281      5.7147559e+09  0.5            2104600        12.721029      11504.975      23009.902      0.034013452  
   4204400   312.0618       1.098967      -5670051.8      0.10472276     925.54597     -5669126.2      1787.6886      1787.6886      1787.6886      1606.1557      3393.8443      1606.1557      3393.8443      1606.1557      3393.8443      5.7131499e+09  0.5            2104700        12.729617      11644.323      23288.662      0.025510258  
   4204600   312.18847      1.0146459     -5670199.4      0.10472608     925.92167     -5669273.5      1787.6697      1787.6697      1787.6697      1606.1651      3393.8349      1606.1651      3393.8349      1606.1651      3393.8349      5.7129687e+09  0.5            2104800        12.738142      11729.669      23459.296      0.017006868  
   4204800   312.14921      0.91004       -5670348.7      0.10472569     925.8052      -5669422.9      1787.6719      1787.6719      1787.6719      1606.164       3393.836       1606.164       3393.836       1606.164       3393.836       5.7129899e+09  0.5            2104900        12.746674      11719.977      23439.921      0.0085034535 
   4205000   311.98033      0.9770269     -5670476.7      0.10475293     925.30435     -5669551.4      1787.517       1787.517       1787.517       1606.2415      3393.7585      1606.2415      3393.7585      1606.2415      3393.7585      5.7115044e+09  0.5            2105000        12.755233      11667.928      23335.821      0            
Loop time of 12.7553 on 4 procs for 300000 steps with 996 atoms

Performance: 1016.050 ns/day, 0.024 hours/ns, 23519.681 timesteps/s
99.5% CPU use with 4 MPI tasks x no OpenMP threads

MPI task timing breakdown:
Section |  min time  |  avg time  |  max time  |%varavg| %total
---------------------------------------------------------------
Pair    | 1.7703     | 2.0094     | 2.4656     |  19.0 | 15.75
Neigh   | 0.019882   | 0.021617   | 0.024868   |   1.3 |  0.17
Comm    | 3.9005     | 4.2712     | 4.4928     |  11.3 | 33.49
Output  | 0.054984   | 0.059947   | 0.073338   |   3.2 |  0.47
Modify  | 5.3018     | 5.3826     | 5.5318     |   3.9 | 42.20
Other   |            | 1.011      |            |       |  7.92

Nlocal:            249 ave         283 max         231 min
Histogram: 2 0 1 0 0 0 0 0 0 1
Nghost:          218.5 ave         228 max         205 min
Histogram: 1 0 0 0 0 1 0 1 0 1
Neighs:         188.75 ave         258 max         158 min
Histogram: 2 1 0 0 0 0 0 0 0 1

Total # of neighbors = 755
Ave neighs/atom = 0.75803213
Neighbor list builds = 378
Dangerous builds = 53

# run_style
run_style verlet

# write restart
write_restart ${write_res}
write_restart ./pgnpmf/37/equpmf6.res
System init for write_restart ...
Generated 0 of 1 mixed pair_coeff terms from geometric mixing rule

Total wall time: 0:00:24
