LAMMPS (23 Jun 2022 - Update 1)
OMP_NUM_THREADS environment is not set. Defaulting to 1 thread. (src/comm.cpp:98)
  using 1 OpenMP thread(s) per MPI task
# Read restart
read_restart ${read_res}
read_restart ./pgnpmf/37/equpmf49.res
Reading restart file ...
  restart file = 23 Jun 2022, LAMMPS = 23 Jun 2022
  restoring atom style atomic from restart
  orthogonal box = (2109.888 2109.888 2109.888) to (2890.112 2890.112 2890.112)
  1 by 2 by 2 MPI processor grid
  restoring pair style table from restart
  996 atoms
  read_restart CPU = 0.007 seconds

# Settings

pair_style table spline 9941

pair_coeff 1 1 ./pgnpmf/N20.txt DE_GNP 75.6
pair_coeff 2 2 ./pgnpmf/N100.txt DE_GNP 115.92
WARNING: 3 of 9941 force values in table DE_GNP are inconsistent with -dE/dr.
WARNING:  Should only be flagged at inflection points (src/pair_table.cpp:463)
pair_coeff 1 2 ./pgnpmf/mixed_potential.txt DE_GNP 95.66
WARNING: 1562 of 9941 force values in table DE_GNP are inconsistent with -dE/dr.
WARNING:  Should only be flagged at inflection points (src/pair_table.cpp:463)

#Neigh_list Calc Frequency

neigh_modify delay 0 every 1 check yes

# Saving Frequency (50 frames)

variable ts_save equal ${steps_equ}
variable ts_save equal 5000

# Dump
#dump 1 all custom ${ts_save} ./pgnpmf/${folder}/equilibration/trajectory/trajectory_${usic}_${trial}.equ.custom type x y z ix iy iz
#dump_modify 1 first no sort id
dump 2 all cfg 50000 ./pgnpmf/${folder}/equilibration/trajectory/dumpgen.tens_*.cfg mass type xs ys zs fx fy fz
dump 2 all cfg 50000 ./pgnpmf/37/equilibration/trajectory/dumpgen.tens_*.cfg mass type xs ys zs fx fy fz
dump_modify 2 element N20 N100

# thermo_style
thermo_style custom step temp press pe density ke etotal lx ly lz xlo xhi ylo yhi zlo zhi vol dt time cpu tpcpu spcpu cpuremain

# run info
timestep ${ts}
timestep 0.1
thermo 200

# fix

fix 1 all momentum 1000 linear 1 1 1 angular
variable T equal ${temp}
variable T equal 300
fix 2 all nvt temp ${T} 370000 100.0
fix 2 all nvt temp 300 370000 100.0

run 100000
Generated 0 of 1 mixed pair_coeff terms from geometric mixing rule
Unused restart file global fix info:
  fix style: npt, fix ID: 5
Neighbor list info ...
  update every 1 steps, delay 0 steps, check yes
  max neighbors/atom: 2000, page size: 100000
  master list distance cutoff = 117.92
  ghost atom cutoff = 117.92
  binsize = 58.96, bins = 14 14 14
  1 neighbor lists, perpetual/occasional/extra = 1 0 0
  (1) pair table, perpetual
      attributes: half, newton on
      pair build: half/bin/atomonly/newton
      stencil: half/bin/3d
      bin: standard
Per MPI rank memory allocation (min/avg/max) = 3.08 | 3.082 | 3.084 Mbytes
   Step          Temp          Press          PotEng        Density         KinEng         TotEng           Lx             Ly             Lz            Xlo            Xhi            Ylo            Yhi            Zlo            Zhi           Volume           Dt            Time           CPU           T/CPU          S/CPU         CPULeft    
  34305000   307.9471      -1.5084517     -39917319       1.2596762      913.34214     -39916406       780.22391      780.22391      780.22391      2109.888       2890.112       2109.888       2890.112       2109.888       2890.112       4.7496079e+08  0.1            14635000       0              0              0              0            
  34305200   346.49672     -1.7022601     -39917419       1.2596762      1027.6767     -39916391       780.22391      780.22391      780.22391      2109.888       2890.112       2109.888       2890.112       2109.888       2890.112       4.7496079e+08  0.1            14635020       0.014916745    1340.7058      13406.314      7.4446693    
  34305400   400.47746     -1.9066647     -39917526       1.2596762      1187.7785     -39916338       780.22391      780.22391      780.22391      2109.888       2890.112       2109.888       2890.112       2109.888       2890.112       4.7496079e+08  0.1            14635040       0.029263132    1394.0922      13940.917      7.2871033    
  34305600   459.7089      -2.126603      -39917641       1.2596762      1363.4534     -39916277       780.22391      780.22391      780.22391      2109.888       2890.112       2109.888       2890.112       2109.888       2890.112       4.7496079e+08  0.1            14635060       0.043519651    1402.8738      14028.784      7.2101256    
  34305800   530.9102      -2.3612972     -39917764       1.2596762      1574.6298     -39916189       780.22391      780.22391      780.22391      2109.888       2890.112       2109.888       2890.112       2109.888       2890.112       4.7496079e+08  0.1            14635080       0.057751691    1405.2811      14052.861      7.1614659    
  34306000   614.20823     -2.6127432     -39917896       1.2596762      1821.6839     -39916074       780.22391      780.22391      780.22391      2109.888       2890.112       2109.888       2890.112       2109.888       2890.112       4.7496079e+08  0.1            14635100       0.072465953    1359.2219      13592.158      7.174358     
  34306200   710.10463     -2.8821182     -39918038       1.2596762      2106.1036     -39915932       780.22391      780.22391      780.22391      2109.888       2890.112       2109.888       2890.112       2109.888       2890.112       4.7496079e+08  0.1            14635120       0.086895075    1386.0813      13860.777      7.1545486    
  34306400   820.08246     -3.1711456     -39918191       1.2596762      2432.2875     -39915758       780.22391      780.22391      780.22391      2109.888       2890.112       2109.888       2890.112       2109.888       2890.112       4.7496079e+08  0.1            14635140       0.10116155     1401.8941      14019.018      7.1248134    
  34306600   945.74391     -3.7644257     -39925732       1.2596762      2804.9875     -39922927       780.22391      780.22391      780.22391      2109.888       2890.112       2109.888       2890.112       2109.888       2890.112       4.7496079e+08  0.1            14635160       0.11540255     1404.3985      14043.987      7.097392     
  34306800   1088.9767     -4.0977582     -39925908       1.2596762      3229.8025     -39922678       780.22391      780.22391      780.22391      2109.888       2890.112       2109.888       2890.112       2109.888       2890.112       4.7496079e+08  0.1            14635180       0.12964031     1404.716       14047.218      7.0727151    
  34307000   1251.7678     -4.3365704     -39924202       1.2596762      3712.6255     -39920489       780.22391      780.22391      780.22391      2109.888       2890.112       2109.888       2890.112       2109.888       2890.112       4.7496079e+08  0.1            14635200       0.14388354     1404.1814      14041.719      7.0503989    
  34307200   1436.5268     -4.7206198     -39924404       1.2596762      4260.6036     -39920143       780.22391      780.22391      780.22391      2109.888       2890.112       2109.888       2890.112       2109.888       2890.112       4.7496079e+08  0.1            14635220       0.15825919     1391.237       13912.367      7.0354374    
  34307400   1645.7754     -5.1338313     -39924620       1.2596762      4881.2153     -39919738       780.22391      780.22391      780.22391      2109.888       2890.112       2109.888       2890.112       2109.888       2890.112       4.7496079e+08  0.1            14635240       0.17293977     1362.345       13623.497      7.0329694    
  34307600   1882.3494     -5.5785356     -39924850       1.2596762      5582.8714     -39919268       780.22391      780.22391      780.22391      2109.888       2890.112       2109.888       2890.112       2109.888       2890.112       4.7496079e+08  0.1            14635260       0.18732218     1390.5852      13905.865      7.0174542    
  34307800   2149.3656     -6.0563517     -39925097       1.2596762      6374.8164     -39918722       780.22391      780.22391      780.22391      2109.888       2890.112       2109.888       2890.112       2109.888       2890.112       4.7496079e+08  0.1            14635280       0.2015412      1406.5614      14065.545      6.9964352    
  34308000   2450.1816     -6.56741       -39925360       1.2596762      7267.0082     -39918093       780.22391      780.22391      780.22391      2109.888       2890.112       2109.888       2890.112       2109.888       2890.112       4.7496079e+08  0.1            14635300       0.21580418     1402.2364      14022.306      6.9777435    
  34308200   2788.582      -7.1105047     -39925640       1.2596762      8270.6722     -39917370       780.22391      780.22391      780.22391      2109.888       2890.112       2109.888       2890.112       2109.888       2890.112       4.7496079e+08  0.1            14635320       0.2308658      1327.881       13278.835      6.9837554    
  34308400   3168.5436     -7.6834332     -39925939       1.2596762      9397.6025     -39916542       780.22391      780.22391      780.22391      2109.888       2890.112       2109.888       2890.112       2109.888       2890.112       4.7496079e+08  0.1            14635340       0.24507976     1407.069       14070.761      6.963207     
  34308600   3594.3657     -8.2822619     -39926257       1.2596762      10660.551     -39915597       780.22391      780.22391      780.22391      2109.888       2890.112       2109.888       2890.112       2109.888       2890.112       4.7496079e+08  0.1            14635360       0.25930413     1406.0318      14060.296      6.943644     
  34308800   4070.6252     -8.9023735     -39926595       1.2596762      12073.092     -39914522       780.22391      780.22391      780.22391      2109.888       2890.112       2109.888       2890.112       2109.888       2890.112       4.7496079e+08  0.1            14635380       0.27410676     1351.1178      13511.168      6.9392811    
  34309000   4602.0994     -9.5382929     -39926954       1.2596762      13649.394     -39913305       780.22391      780.22391      780.22391      2109.888       2890.112       2109.888       2890.112       2109.888       2890.112       4.7496079e+08  0.1            14635400       0.28836543     1402.6499      14026.411      6.9208254    
  34309200   5193.8973     -10.18259      -39927335       1.2596762      15404.611     -39911931       780.22391      780.22391      780.22391      2109.888       2890.112       2109.888       2890.112       2109.888       2890.112       4.7496079e+08  0.1            14635420       0.30267717     1397.4543      13974.608      6.9039725    
  34309400   5851.1632     -10.829666     -39927739       1.2596762      17354         -39910385       780.22391      780.22391      780.22391      2109.888       2890.112       2109.888       2890.112       2109.888       2890.112       4.7496079e+08  0.1            14635440       0.31695513     1400.7647      14007.682      6.8866157    
  34309600   6579.1237     -11.472306     -39928167       1.2596762      19513.062     -39908654       780.22391      780.22391      780.22391      2109.888       2890.112       2109.888       2890.112       2109.888       2890.112       4.7496079e+08  0.1            14635460       0.33119403     1404.6015      14046.064      6.8687182    
  34309800   7382.9354     -12.097642     -39928620       1.2596762      21897.092     -39906723       780.22391      780.22391      780.22391      2109.888       2890.112       2109.888       2890.112       2109.888       2890.112       4.7496079e+08  0.1            14635480       0.34546679     1401.2721      14012.687      6.8517981    
  34310000   8267.4803     -12.700716     -39929098       1.2596762      24520.57      -39904578       780.22391      780.22391      780.22391      2109.888       2890.112       2109.888       2890.112       2109.888       2890.112       4.7496079e+08  0.1            14635500       0.35976633     1398.6412      13986.277      6.835605     
  34310200   9237.3675     -13.568192     -39936980       1.2596762      27397.164     -39909583       780.22391      780.22391      780.22391      2109.888       2890.112       2109.888       2890.112       2109.888       2890.112       4.7496079e+08  0.1            14635520       0.37474966     1334.8223      13348.295      6.8320134    
  34310400   10296.497     -14.144979     -39937512       1.2596762      30538.443     -39906973       780.22391      780.22391      780.22391      2109.888       2890.112       2109.888       2890.112       2109.888       2890.112       4.7496079e+08  0.1            14635540       0.38899239     1404.2214      14042.253      6.8146072    
  34310600   11447.819     -14.732706     -39938070       1.2596762      33953.156     -39904117       780.22391      780.22391      780.22391      2109.888       2890.112       2109.888       2890.112       2109.888       2890.112       4.7496079e+08  0.1            14635560       0.40324735     1403.0207      14030.186      6.7976342    
  34310800   12693.109     -15.347619     -39938657       1.2596762      37646.567     -39901010       780.22391      780.22391      780.22391      2109.888       2890.112       2109.888       2890.112       2109.888       2890.112       4.7496079e+08  0.1            14635580       0.41747025     1406.184       14061.888      6.7803263    
  34311000   14032.52      -15.988096     -39939271       1.2596762      41619.136     -39897652       780.22391      780.22391      780.22391      2109.888       2890.112       2109.888       2890.112       2109.888       2890.112       4.7496079e+08  0.1            14635600       0.43174112     1401.4575      14014.564      6.7639762    
  34311200   15464.346     -16.639637     -39939914       1.2596762      45865.796     -39894049       780.22391      780.22391      780.22391      2109.888       2890.112       2109.888       2890.112       2109.888       2890.112       4.7496079e+08  0.1            14635620       0.44605068     1397.6598      13976.495      6.7483492    
  34311400   16984.436     -17.007861     -39933208       1.2596762      50374.241     -39882834       780.22391      780.22391      780.22391      2109.888       2890.112       2109.888       2890.112       2109.888       2890.112       4.7496079e+08  0.1            14635640       0.46033182     1400.4553      14004.31       6.7323888    
  34311600   18585.725     -17.684268     -39933908       1.2596762      55123.513     -39878785       780.22391      780.22391      780.22391      2109.888       2890.112       2109.888       2890.112       2109.888       2890.112       4.7496079e+08  0.1            14635660       0.47514239     1350.3852      13504.165      6.7240145    
  34311800   20257.79      -18.424723     -39934637       1.2596762      60082.701     -39874554       780.22391      780.22391      780.22391      2109.888       2890.112       2109.888       2890.112       2109.888       2890.112       4.7496079e+08  0.1            14635680       0.48937096     1405.6245      14056.252      6.7072897    
  34312000   21986.5       -19.552577     -39942771       1.2596762      65209.893     -39877561       780.22391      780.22391      780.22391      2109.888       2890.112       2109.888       2890.112       2109.888       2890.112       4.7496079e+08  0.1            14635700       0.50361888     1403.7055      14036.969      6.6909677    
  34312200   23753.651     -20.511668     -39943554       1.2596762      70451.096     -39873103       780.22391      780.22391      780.22391      2109.888       2890.112       2109.888       2890.112       2109.888       2890.112       4.7496079e+08  0.1            14635720       0.51789521     1400.9306      14009.418      6.6751196    
  34312400   25536.373     -21.552717     -39944365       1.2596762      75738.483     -39868626       780.22391      780.22391      780.22391      2109.888       2890.112       2109.888       2890.112       2109.888       2890.112       4.7496079e+08  0.1            14635740       0.5321159      1406.3971      14063.993      6.658665     
  34312600   27307.265     -22.768828     -39947095       1.2596762      80990.783     -39866104       780.22391      780.22391      780.22391      2109.888       2890.112       2109.888       2890.112       2109.888       2890.112       4.7496079e+08  0.1            14635760       0.54636346     1403.7525      14037.469      6.6426544    
  34312800   29034.677     -23.927746     -39947953       1.2596762      86114.122     -39861839       780.22391      780.22391      780.22391      2109.888       2890.112       2109.888       2890.112       2109.888       2890.112       4.7496079e+08  0.1            14635780       0.56068284     1396.7031      13967.014      6.6275847    
  34313000   30683.164     -25.131048     -39948833       1.2596762      91003.381     -39857830       780.22391      780.22391      780.22391      2109.888       2890.112       2109.888       2890.112       2109.888       2890.112       4.7496079e+08  0.1            14635800       0.57566015     1335.3471      13353.334      6.6201198    
  34313200   32214.722     -26.314954     -39949732       1.2596762      95545.836     -39854187       780.22391      780.22391      780.22391      2109.888       2890.112       2109.888       2890.112       2109.888       2890.112       4.7496079e+08  0.1            14635820       0.59018924     1376.5426      13765.533      6.607267     
  34313400   33590.384     -27.735841     -39958026       1.2596762      99625.92      -39858400       780.22391      780.22391      780.22391      2109.888       2890.112       2109.888       2890.112       2109.888       2890.112       4.7496079e+08  0.1            14635840       0.60482534     1366.4749      13664.677      6.5955031    
  34313600   34773.309     -28.864745     -39958955       1.2596762      103134.37     -39855821       780.22391      780.22391      780.22391      2109.888       2890.112       2109.888       2890.112       2109.888       2890.112       4.7496079e+08  0.1            14635860       0.61939261     1372.9178      13729.197      6.582877     
  34313800   35732.882     -30.080335     -39959893       1.2596762      105980.37     -39853913       780.22391      780.22391      780.22391      2109.888       2890.112       2109.888       2890.112       2109.888       2890.112       4.7496079e+08  0.1            14635880       0.63424201     1346.8574      13468.473      6.5730841    
  34314000   36450.461     -31.443835     -39960835       1.2596762      108108.64     -39852727       780.22391      780.22391      780.22391      2109.888       2890.112       2109.888       2890.112       2109.888       2890.112       4.7496079e+08  0.1            14635900       0.64990233     1277.1313      12771.315      6.5712622    
  34314200   36924.939     -32.904419     -39961779       1.2596762      109515.9      -39852263       780.22391      780.22391      780.22391      2109.888       2890.112       2109.888       2890.112       2109.888       2890.112       4.7496079e+08  0.1            14635920       0.66560876     1273.3726      12733.776      6.5692937    
  34314400   37176.541     -34.155783     -39955344       1.2596762      110262.12     -39845082       780.22391      780.22391      780.22391      2109.888       2890.112       2109.888       2890.112       2109.888       2890.112       4.7496079e+08  0.1            14635940       0.68094381     1304.1947      13042.055      6.5631641    
  34314600   37247.166     -35.763197     -39956283       1.2596762      110471.59     -39845812       780.22391      780.22391      780.22391      2109.888       2890.112       2109.888       2890.112       2109.888       2890.112       4.7496079e+08  0.1            14635960       0.69599982     1328.3709      13283.563      6.5540229    
  34314800   37195.704     -37.342293     -39957216       1.2596762      110318.96     -39846897       780.22391      780.22391      780.22391      2109.888       2890.112       2109.888       2890.112       2109.888       2890.112       4.7496079e+08  0.1            14635980       0.71087021     1344.9558      13449.622      6.5429311    
  34315000   37089.84      -38.784266     -39958141       1.2596762      110004.98     -39848136       780.22391      780.22391      780.22391      2109.888       2890.112       2109.888       2890.112       2109.888       2890.112       4.7496079e+08  0.1            14636000       0.72804565     1164.4582      11644.535      6.5524343    
  34315200   36998.024     -40.105729     -39959057       1.2596762      109732.66     -39849324       780.22391      780.22391      780.22391      2109.888       2890.112       2109.888       2890.112       2109.888       2890.112       4.7496079e+08  0.1            14636020       0.74387264     1263.6617      12636.531      6.5490199    
  34315400   36983.401     -41.432739     -39959964       1.2596762      109689.29     -39850275       780.22391      780.22391      780.22391      2109.888       2890.112       2109.888       2890.112       2109.888       2890.112       4.7496079e+08  0.1            14636040       0.7593993      1288.1028      12881.115      6.54254      
  34315600   37100.455     -42.787255     -39960866       1.2596762      110036.46     -39850829       780.22391      780.22391      780.22391      2109.888       2890.112       2109.888       2890.112       2109.888       2890.112       4.7496079e+08  0.1            14636060       0.77497943     1283.6908      12836.966      6.5361689    
  34315800   37393.863     -44.076913     -39961763       1.2596762      110906.68     -39850856       780.22391      780.22391      780.22391      2109.888       2890.112       2109.888       2890.112       2109.888       2890.112       4.7496079e+08  0.1            14636080       0.78987566     1342.6189      13425.824      6.5238127    
  34316000   37897.364     -44.992396     -39955280       1.2596762      112400.02     -39842880       780.22391      780.22391      780.22391      2109.888       2890.112       2109.888       2890.112       2109.888       2890.112       4.7496079e+08  0.1            14636100       0.80482236     1338.083       13381.124      6.5117672    
  34316200   38631.664     -46.509609     -39963552       1.2596762      114577.88     -39848974       780.22391      780.22391      780.22391      2109.888       2890.112       2109.888       2890.112       2109.888       2890.112       4.7496079e+08  0.1            14636120       0.81975321     1339.5139      13395.232      6.4994919    
  34316400   39601.27      -47.62108      -39957071       1.2596762      117453.64     -39839617       780.22391      780.22391      780.22391      2109.888       2890.112       2109.888       2890.112       2109.888       2890.112       4.7496079e+08  0.1            14636140       0.83452334     1354.0523      13540.5        6.4858801    
  34316600   40791.168     -49.080079     -39957975       1.2596762      120982.77     -39836993       780.22391      780.22391      780.22391      2109.888       2890.112       2109.888       2890.112       2109.888       2890.112       4.7496079e+08  0.1            14636160       0.8494942      1335.9617      13359.604      6.4737515    
  34316800   42166.029     -50.154274     -39951512       1.2596762      125060.48     -39826451       780.22391      780.22391      780.22391      2109.888       2890.112       2109.888       2890.112       2109.888       2890.112       4.7496079e+08  0.1            14636180       0.86430372     1350.4838      13504.944      6.460322     
  34317000   43673.676     -51.095254     -39945057       1.2596762      129532.02     -39815525       780.22391      780.22391      780.22391      2109.888       2890.112       2109.888       2890.112       2109.888       2890.112       4.7496079e+08  0.1            14636200       0.87983918     1287.3748      12873.578      6.452174     
  34317200   45252.114     -52.183408     -39945989       1.2596762      134213.52     -39811776       780.22391      780.22391      780.22391      2109.888       2890.112       2109.888       2890.112       2109.888       2890.112       4.7496079e+08  0.1            14636220       0.89485951     1331.5296      13315.368      6.4400729    
  34317400   46835.695     -53.108315     -39946930       1.2596762      138910.27     -39808020       780.22391      780.22391      780.22391      2109.888       2890.112       2109.888       2890.112       2109.888       2890.112       4.7496079e+08  0.1            14636240       0.91001991     1319.189       13191.549      6.4288744    
  34317600   48360.083     -54.056029     -39949775       1.2596762      143431.46     -39806343       780.22391      780.22391      780.22391      2109.888       2890.112       2109.888       2890.112       2109.888       2890.112       4.7496079e+08  0.1            14636260       0.92503816     1331.74        13317.807      6.4165524    
  34317800   49765.46      -54.895707     -39950731       1.2596762      147599.68     -39803131       780.22391      780.22391      780.22391      2109.888       2890.112       2109.888       2890.112       2109.888       2890.112       4.7496079e+08  0.1            14636280       0.94006085     1331.3256      13313.252      6.4041818    
  34318000   50999.084     -55.717272     -39951691       1.2596762      151258.49     -39800432       780.22391      780.22391      780.22391      2109.888       2890.112       2109.888       2890.112       2109.888       2890.112       4.7496079e+08  0.1            14636300       0.95497842     1340.6952      13406.887      6.3910273    
  34318200   52019.572     -56.555533     -39952650       1.2596762      154285.16     -39798365       780.22391      780.22391      780.22391      2109.888       2890.112       2109.888       2890.112       2109.888       2890.112       4.7496079e+08  0.1            14636320       0.97035998     1300.2376      13002.464      6.3808703    
  34318400   52800.886     -57.732637     -39960985       1.2596762      156602.47     -39804382       780.22391      780.22391      780.22391      2109.888       2890.112       2109.888       2890.112       2109.888       2890.112       4.7496079e+08  0.1            14636340       0.98564741     1308.3034      13083.043      6.3699453    
  34318600   53335.854     -58.633339     -39960042       1.2596762      158189.13     -39801852       780.22391      780.22391      780.22391      2109.888       2890.112       2109.888       2890.112       2109.888       2890.112       4.7496079e+08  0.1            14636360       1.000771       1322.4336      13224.176      6.3578557    
  34318800   53639.112     -59.892752     -39960987       1.2596762      159088.56     -39801898       780.22391      780.22391      780.22391      2109.888       2890.112       2109.888       2890.112       2109.888       2890.112       4.7496079e+08  0.1            14636380       1.015631       1345.8993      13459.091      6.344029     
  34319000   53746.734     -61.398546     -39961924       1.2596762      159407.76     -39802517       780.22391      780.22391      780.22391      2109.888       2890.112       2109.888       2890.112       2109.888       2890.112       4.7496079e+08  0.1            14636400       1.0306715      1329.7505      13297.42       6.3312829    
  34319200   53712.933     -63.514174     -39972128       1.2596762      159307.51     -39812820       780.22391      780.22391      780.22391      2109.888       2890.112       2109.888       2890.112       2109.888       2890.112       4.7496079e+08  0.1            14636420       1.0457229      1328.7704      13287.807      6.3185374    
  34319400   53603.017     -65.302721     -39973051       1.2596762      158981.51     -39814069       780.22391      780.22391      780.22391      2109.888       2890.112       2109.888       2890.112       2109.888       2890.112       4.7496079e+08  0.1            14636440       1.0607831      1327.994       13279.722      6.3057829    
  34319600   53485.541     -66.994085     -39973963       1.2596762      158633.09     -39815330       780.22391      780.22391      780.22391      2109.888       2890.112       2109.888       2890.112       2109.888       2890.112       4.7496079e+08  0.1            14636460       1.0765968      1264.739       12647.553      6.2973683    
  34319800   53427.135     -68.850305     -39982242       1.2596762      158459.86     -39823782       780.22391      780.22391      780.22391      2109.888       2890.112       2109.888       2890.112       2109.888       2890.112       4.7496079e+08  0.1            14636480       1.0919443      1303.1407      13031.487      6.2860718    
  34320000   53487.819     -70.27647      -39983133       1.2596762      158639.84     -39824493       780.22391      780.22391      780.22391      2109.888       2890.112       2109.888       2890.112       2109.888       2890.112       4.7496079e+08  0.1            14636500       1.107417       1292.5829      12925.68       6.2753792    
  34320200   53717.467     -71.542578     -39984014       1.2596762      159320.96     -39824693       780.22391      780.22391      780.22391      2109.888       2890.112       2109.888       2890.112       2109.888       2890.112       4.7496079e+08  0.1            14636520       1.1229977      1283.6446      12836.546      6.2651592    
  34320400   54154.785     -72.701189     -39984887       1.2596762      160618        -39824269       780.22391      780.22391      780.22391      2109.888       2890.112       2109.888       2890.112       2109.888       2890.112       4.7496079e+08  0.1            14636540       1.1385492      1286.0613      12860.622      6.2546406    
  34320600   54824.807     -73.734754     -39985753       1.2596762      162605.22     -39823148       780.22391      780.22391      780.22391      2109.888       2890.112       2109.888       2890.112       2109.888       2890.112       4.7496079e+08  0.1            14636560       1.1536895      1320.9774      13209.806      6.2417688    
  34320800   55736.664     -74.434126     -39979237       1.2596762      165309.71     -39813927       780.22391      780.22391      780.22391      2109.888       2890.112       2109.888       2890.112       2109.888       2890.112       4.7496079e+08  0.1            14636580       1.1691427      1294.2176      12942.13       6.2305085    
  34321000   56881.503     -75.153759     -39972721       1.2596762      168705.19     -39804016       780.22391      780.22391      780.22391      2109.888       2890.112       2109.888       2890.112       2109.888       2890.112       4.7496079e+08  0.1            14636600       1.1846143      1292.7093      12927.018      6.2192388    
  34321200   58230.58      -75.687508     -39966208       1.2596762      172706.43     -39793502       780.22391      780.22391      780.22391      2109.888       2890.112       2109.888       2890.112       2109.888       2890.112       4.7496079e+08  0.1            14636620       1.1997777      1318.9547      13189.603      6.2062709    
  34321400   59735.851     -76.082073     -39967073       1.2596762      177170.92     -39789902       780.22391      780.22391      780.22391      2109.888       2890.112       2109.888       2890.112       2109.888       2890.112       4.7496079e+08  0.1            14636640       1.2147232      1338.1905      13381.921      6.1921387    
  34321600   61335.73      -76.454881     -39969831       1.2596762      181916.01     -39787915       780.22391      780.22391      780.22391      2109.888       2890.112       2109.888       2890.112       2109.888       2890.112       4.7496079e+08  0.1            14636660       1.2299674      1311.945       13119.431      6.1794899    
  34321800   62962.28      -76.944509     -39970691       1.2596762      186740.2      -39783951       780.22391      780.22391      780.22391      2109.888       2890.112       2109.888       2890.112       2109.888       2890.112       4.7496079e+08  0.1            14636680       1.2452048      1312.5918      13125.875      6.1667417    
  34322000   64545.866     -77.399612     -39964174       1.2596762      191436.97     -39772737       780.22391      780.22391      780.22391      2109.888       2890.112       2109.888       2890.112       2109.888       2890.112       4.7496079e+08  0.1            14636700       1.260718       1289.2108      12892.064      6.1552847    
  34322200   66019.695     -78.141519     -39965032       1.2596762      195808.21     -39769224       780.22391      780.22391      780.22391      2109.888       2890.112       2109.888       2890.112       2109.888       2890.112       4.7496079e+08  0.1            14636720       1.2768676      1238.4447      12384.463      6.1467934    
  34322400   67324.239     -78.443804     -39951132       1.2596762      199677.36     -39751454       780.22391      780.22391      780.22391      2109.888       2890.112       2109.888       2890.112       2109.888       2890.112       4.7496079e+08  0.1            14636740       1.2921259      1310.7581      13107.723      6.1338966    
  34322600   68412.379     -79.522673     -39951982       1.2596762      202904.68     -39749077       780.22391      780.22391      780.22391      2109.888       2890.112       2109.888       2890.112       2109.888       2890.112       4.7496079e+08  0.1            14636760       1.3072144      1325.492       13254.874      6.1201526    
  34322800   69252.71      -80.751005     -39952826       1.2596762      205397.03     -39747429       780.22391      780.22391      780.22391      2109.888       2890.112       2109.888       2890.112       2109.888       2890.112       4.7496079e+08  0.1            14636780       1.3221244      1341.4         13413.912      6.1055524    
  34323000   69833.249     -81.875322     -39953662       1.2596762      207118.85     -39746543       780.22391      780.22391      780.22391      2109.888       2890.112       2109.888       2890.112       2109.888       2890.112       4.7496079e+08  0.1            14636800       1.3370187      1342.7965      13427.965      6.0908748    
  34323200   70163.962     -83.068711     -39961864       1.2596762      208099.71     -39753765       780.22391      780.22391      780.22391      2109.888       2890.112       2109.888       2890.112       2109.888       2890.112       4.7496079e+08  0.1            14636820       1.3519895      1335.9364      13359.406      6.0765356    
  34323400   70277.152     -83.621219     -39955296       1.2596762      208435.43     -39746861       780.22391      780.22391      780.22391      2109.888       2890.112       2109.888       2890.112       2109.888       2890.112       4.7496079e+08  0.1            14636840       1.367147       1319.4877      13194.849      6.0630104    
  34323600   70225.568     -84.663174     -39956092       1.2596762      208282.43     -39747810       780.22391      780.22391      780.22391      2109.888       2890.112       2109.888       2890.112       2109.888       2890.112       4.7496079e+08  0.1            14636860       1.3824022      1311.0174      13110.199      6.049879     
  34323800   70075.932     -85.577206     -39949498       1.2596762      207838.63     -39741659       780.22391      780.22391      780.22391      2109.888       2890.112       2109.888       2890.112       2109.888       2890.112       4.7496079e+08  0.1            14636880       1.3972831      1343.9769      13439.828      6.0350856    
  34324000   69900.914     -86.658358     -39950269       1.2596762      207319.54     -39742949       780.22391      780.22391      780.22391      2109.888       2890.112       2109.888       2890.112       2109.888       2890.112       4.7496079e+08  0.1            14636900       1.4122145      1339.4922      13394.863      6.0205039    
  34324200   69772.286     -87.487673     -39951026       1.2596762      206938.04     -39744088       780.22391      780.22391      780.22391      2109.888       2890.112       2109.888       2890.112       2109.888       2890.112       4.7496079e+08  0.1            14636920       1.4272691      1328.4899      13284.917      6.0064345    
  34324400   69755.636     -88.128736     -39951767       1.2596762      206888.66     -39744878       780.22391      780.22391      780.22391      2109.888       2890.112       2109.888       2890.112       2109.888       2890.112       4.7496079e+08  0.1            14636940       1.4421866      1340.7062      13407.125      5.9917749    
  34324600   69907.847     -88.775755     -39952492       1.2596762      207340.1      -39745152       780.22391      780.22391      780.22391      2109.888       2890.112       2109.888       2890.112       2109.888       2890.112       4.7496079e+08  0.1            14636960       1.4571431      1337.214       13372.151      5.9772701    
  34324800   70273.875     -89.387444     -39953205       1.2596762      208425.71     -39744779       780.22391      780.22391      780.22391      2109.888       2890.112       2109.888       2890.112       2109.888       2890.112       4.7496079e+08  0.1            14636980       1.4727174      1284.1683      12841.595      5.9652593    
  34325000   70883.523     -90.013067     -39953905       1.2596762      210233.87     -39743671       780.22391      780.22391      780.22391      2109.888       2890.112       2109.888       2890.112       2109.888       2890.112       4.7496079e+08  0.1            14637000       1.4880618      1303.4057      13034.088      5.9522573    
  34325200   71750.751     -91.146181     -39961975       1.2596762      212805.98     -39749169       780.22391      780.22391      780.22391      2109.888       2890.112       2109.888       2890.112       2109.888       2890.112       4.7496079e+08  0.1            14637020       1.5032014      1321.0328      13210.31       5.9383996    
  34325400   72869.095     -92.127398     -39964555       1.2596762      216122.88     -39748432       780.22391      780.22391      780.22391      2109.888       2890.112       2109.888       2890.112       2109.888       2890.112       4.7496079e+08  0.1            14637040       1.5184296      1313.3583      13133.611      5.9248622    
  34325600   74211.059     -92.826568     -39965231       1.2596762      220103.02     -39745128       780.22391      780.22391      780.22391      2109.888       2890.112       2109.888       2890.112       2109.888       2890.112       4.7496079e+08  0.1            14637060       1.5335029      1326.8437      13268.44       5.9106956    
  34325800   75729.995     -93.22169      -39965898       1.2596762      224608.05     -39741290       780.22391      780.22391      780.22391      2109.888       2890.112       2109.888       2890.112       2109.888       2890.112       4.7496079e+08  0.1            14637080       1.5485695      1327.4446      13274.412      5.8964856    
  34326000   77363.924     -93.267047     -39966555       1.2596762      229454.13     -39737101       780.22391      780.22391      780.22391      2109.888       2890.112       2109.888       2890.112       2109.888       2890.112       4.7496079e+08  0.1            14637100       1.5635338      1336.5089      13365.071      5.881875     
  34326200   79041.485     -93.202466     -39967198       1.2596762      234429.62     -39732768       780.22391      780.22391      780.22391      2109.888       2890.112       2109.888       2890.112       2109.888       2890.112       4.7496079e+08  0.1            14637120       1.5792091      1275.8991      12759.07       5.8698994    
  34326400   80688.839     -93.413569     -39967829       1.2596762      239315.51     -39728514       780.22391      780.22391      780.22391      2109.888       2890.112       2109.888       2890.112       2109.888       2890.112       4.7496079e+08  0.1            14637140       1.5942567      1329.1055      13291.047      5.8555506    
  34326600   82234.914     -93.96925      -39968453       1.2596762      243901.03     -39724552       780.22391      780.22391      780.22391      2109.888       2890.112       2109.888       2890.112       2109.888       2890.112       4.7496079e+08  0.1            14637160       1.6092763      1331.605       13316.026      5.8410856    
  34326800   83615.411     -94.655064     -39969069       1.2596762      247995.45     -39721073       780.22391      780.22391      780.22391      2109.888       2890.112       2109.888       2890.112       2109.888       2890.112       4.7496079e+08  0.1            14637180       1.6243863      1323.6203      13236.188      5.8269361    
  34327000   84776.75      -95.262109     -39969674       1.2596762      251439.87     -39718234       780.22391      780.22391      780.22391      2109.888       2890.112       2109.888       2890.112       2109.888       2890.112       4.7496079e+08  0.1            14637200       1.6395372      1320.0569      13200.525      5.812914     
  34327200   85681.831     -95.821155     -39970267       1.2596762      254124.26     -39716142       780.22391      780.22391      780.22391      2109.888       2890.112       2109.888       2890.112       2109.888       2890.112       4.7496079e+08  0.1            14637220       1.6548896      1302.7063      13027.165      5.7995774    
  34327400   86314.159     -96.209993     -39970845       1.2596762      255999.68     -39714845       780.22391      780.22391      780.22391      2109.888       2890.112       2109.888       2890.112       2109.888       2890.112       4.7496079e+08  0.1            14637240       1.6705588      1276.4052      12764.02       5.7873016    
  34327600   86679.27      -96.29798      -39971405       1.2596762      257082.57     -39714323       780.22391      780.22391      780.22391      2109.888       2890.112       2109.888       2890.112       2109.888       2890.112       4.7496079e+08  0.1            14637260       1.6862576      1274.0011      12740.016      5.7750673    
  34327800   86806.687     -96.297825     -39971948       1.2596762      257460.47     -39714487       780.22391      780.22391      780.22391      2109.888       2890.112       2109.888       2890.112       2109.888       2890.112       4.7496079e+08  0.1            14637280       1.701727       1292.8385      12928.313      5.7619983    
  34328000   86746.663     -95.82217      -39965093       1.2596762      257282.45     -39707811       780.22391      780.22391      780.22391      2109.888       2890.112       2109.888       2890.112       2109.888       2890.112       4.7496079e+08  0.1            14637300       1.7170978      1301.1854      13011.844      5.7485537    
  34328200   86565.824     -95.911943     -39965598       1.2596762      256746.1      -39708852       780.22391      780.22391      780.22391      2109.888       2890.112       2109.888       2890.112       2109.888       2890.112       4.7496079e+08  0.1            14637320       1.7324248      1304.8904      13049.04       5.7349316    
  34328400   86339.576     -96.263281     -39966085       1.2596762      256075.07     -39710010       780.22391      780.22391      780.22391      2109.888       2890.112       2109.888       2890.112       2109.888       2890.112       4.7496079e+08  0.1            14637340       1.7477312      1306.6191      13066.169      5.7212143    
  34328600   86144.762     -96.568642     -39964660       1.2596762      255497.27     -39709163       780.22391      780.22391      780.22391      2109.888       2890.112       2109.888       2890.112       2109.888       2890.112       4.7496079e+08  0.1            14637360       1.7630992      1301.4277      13014.3        5.707668     
  34328800   86054.037     -96.77462      -39959630       1.2596762      255228.18     -39704402       780.22391      780.22391      780.22391      2109.888       2890.112       2109.888       2890.112       2109.888       2890.112       4.7496079e+08  0.1            14637380       1.7794079      1226.3408      12263.289      5.6971041    
  34329000   86130.055     -97.009282     -39960066       1.2596762      255453.65     -39704612       780.22391      780.22391      780.22391      2109.888       2890.112       2109.888       2890.112       2109.888       2890.112       4.7496079e+08  0.1            14637400       1.7947084      1307.1422      13071.429      5.6832519    
  34329200   86424.226     -97.011072     -39960486       1.2596762      256326.13     -39704160       780.22391      780.22391      780.22391      2109.888       2890.112       2109.888       2890.112       2109.888       2890.112       4.7496079e+08  0.1            14637420       1.8098887      1317.5002      13175.087      5.6689979    
  34329400   86971.005     -97.153729     -39968268       1.2596762      257947.83     -39710320       780.22391      780.22391      780.22391      2109.888       2890.112       2109.888       2890.112       2109.888       2890.112       4.7496079e+08  0.1            14637440       1.8255205      1279.4437      12794.38       5.6561287    
  34329600   87788.004     -97.019517     -39968657       1.2596762      260370.97     -39708286       780.22391      780.22391      780.22391      2109.888       2890.112       2109.888       2890.112       2109.888       2890.112       4.7496079e+08  0.1            14637460       1.8410001      1292.022       12920.24       5.642748     
  34329800   88872.242     -96.756581     -39967137       1.2596762      263586.72     -39703551       780.22391      780.22391      780.22391      2109.888       2890.112       2109.888       2890.112       2109.888       2890.112       4.7496079e+08  0.1            14637480       1.856596       1282.3816      12823.731      5.6296866    
  34330000   90198.63      -96.813689     -39974877       1.2596762      267520.66     -39707356       780.22391      780.22391      780.22391      2109.888       2890.112       2109.888       2890.112       2109.888       2890.112       4.7496079e+08  0.1            14637500       1.8727231      1240.1603      12401.64       5.6181777    
  34330200   91721.375     -96.720602     -39982600       1.2596762      272036.98     -39710563       780.22391      780.22391      780.22391      2109.888       2890.112       2109.888       2890.112       2109.888       2890.112       4.7496079e+08  0.1            14637520       1.889258       1209.5614      12095.592      5.6078054    
  34330400   93378.006     -96.258614     -39982928       1.2596762      276950.39     -39705978       780.22391      780.22391      780.22391      2109.888       2890.112       2109.888       2890.112       2109.888       2890.112       4.7496079e+08  0.1            14637540       1.9056036      1223.5798      12235.825      5.59678      
  34330600   95095.181     -95.684523     -39981342       1.2596762      282043.37     -39699298       780.22391      780.22391      780.22391      2109.888       2890.112       2109.888       2890.112       2109.888       2890.112       4.7496079e+08  0.1            14637560       1.9220335      1217.2786      12172.775      5.5859188    
  34330800   96796.418     -95.479933     -39981266       1.2596762      287089.08     -39694177       780.22391      780.22391      780.22391      2109.888       2890.112       2109.888       2890.112       2109.888       2890.112       4.7496079e+08  0.1            14637580       1.9383975      1222.2069      12222.101      5.5747783    
  34331000   98406.548     -94.892956     -39966791       1.2596762      291864.57     -39674926       780.22391      780.22391      780.22391      2109.888       2890.112       2109.888       2890.112       2109.888       2890.112       4.7496079e+08  0.1            14637600       1.9546999      1226.8065      12268.044      5.5633839    
  34331200   99856.146     -94.711518     -39967058       1.2596762      296163.94     -39670894       780.22391      780.22391      780.22391      2109.888       2890.112       2109.888       2890.112       2109.888       2890.112       4.7496079e+08  0.1            14637620       1.971303       1204.5929      12045.906      5.5527617    
  34331400   101086.02     -94.569088     -39967674       1.2596762      299811.64     -39667863       780.22391      780.22391      780.22391      2109.888       2890.112       2109.888       2890.112       2109.888       2890.112       4.7496079e+08  0.1            14637640       1.9876693      1222.0252      12220.277      5.5413886    
  34331600   102054.51     -94.450788     -39967901       1.2596762      302684.09     -39665217       780.22391      780.22391      780.22391      2109.888       2890.112       2109.888       2890.112       2109.888       2890.112       4.7496079e+08  0.1            14637660       2.0036219      1253.7191      12537.228      5.528798     
  34331800   102741.59     -94.206835     -39958836       1.2596762      304721.91     -39654114       780.22391      780.22391      780.22391      2109.888       2890.112       2109.888       2890.112       2109.888       2890.112       4.7496079e+08  0.1            14637680       2.0196814      1245.3611      12453.585      5.5164504    
  34332000   103150.43     -94.329187     -39959026       1.2596762      305934.48     -39653092       780.22391      780.22391      780.22391      2109.888       2890.112       2109.888       2890.112       2109.888       2890.112       4.7496079e+08  0.1            14637700       2.0357221      1246.8284      12468.29       5.5039964    
  34332200   103306.6      -94.238305     -39959197       1.2596762      306397.66     -39652800       780.22391      780.22391      780.22391      2109.888       2890.112       2109.888       2890.112       2109.888       2890.112       4.7496079e+08  0.1            14637720       2.051678       1253.4476      12534.5        5.491264     
  34332400   103257.09     -94.04325      -39961244       1.2596762      306250.82     -39654993       780.22391      780.22391      780.22391      2109.888       2890.112       2109.888       2890.112       2109.888       2890.112       4.7496079e+08  0.1            14637740       2.0678871      1233.879       12338.7        5.4791533    
  34332600   103066.68     -93.719351     -39963270       1.2596762      305686.1      -39657584       780.22391      780.22391      780.22391      2109.888       2890.112       2109.888       2890.112       2109.888       2890.112       4.7496079e+08  0.1            14637760       2.0843827      1212.4464      12124.52       5.4677355    
  34332800   102810.69     -93.425588     -39963381       1.2596762      304926.86     -39658454       780.22391      780.22391      780.22391      2109.888       2890.112       2109.888       2890.112       2109.888       2890.112       4.7496079e+08  0.1            14637780       2.1008062      1217.7628      12177.612      5.4560578    
  34333000   102569.1      -93.177316     -39963473       1.2596762      304210.31     -39659263       780.22391      780.22391      780.22391      2109.888       2890.112       2109.888       2890.112       2109.888       2890.112       4.7496079e+08  0.1            14637800       2.1168848      1243.8872      12438.859      5.4434253    
  34333200   102418.66     -92.624351     -39961651       1.2596762      303764.13     -39657887       780.22391      780.22391      780.22391      2109.888       2890.112       2109.888       2890.112       2109.888       2890.112       4.7496079e+08  0.1            14637820       2.1330265      1239.0294      12390.324      5.4309041    
  34333400   102427.68     -91.619476     -39946948       1.2596762      303790.88     -39643157       780.22391      780.22391      780.22391      2109.888       2890.112       2109.888       2890.112       2109.888       2890.112       4.7496079e+08  0.1            14637840       2.1491606      1239.6193      12396.158      5.4183129    
  34333600   102652.75     -91.379832     -39952465       1.2596762      304458.39     -39648006       780.22391      780.22391      780.22391      2109.888       2890.112       2109.888       2890.112       2109.888       2890.112       4.7496079e+08  0.1            14637860       2.1653186      1237.7752      12377.751      5.4057325    
  34333800   103134.62     -90.420842     -39945103       1.2596762      305887.59     -39639215       780.22391      780.22391      780.22391      2109.888       2890.112       2109.888       2890.112       2109.888       2890.112       4.7496079e+08  0.1            14637880       2.1820486      1195.447       11954.495      5.394516     
  34334000   103895.21     -89.403482     -39943209       1.2596762      308143.42     -39635065       780.22391      780.22391      780.22391      2109.888       2890.112       2109.888       2890.112       2109.888       2890.112       4.7496079e+08  0.1            14637900       2.1981151      1244.8288      12448.233      5.3815991    
  34334200   104934.48     -88.057311     -39935814       1.2596762      311225.8      -39624588       780.22391      780.22391      780.22391      2109.888       2890.112       2109.888       2890.112       2109.888       2890.112       4.7496079e+08  0.1            14637920       2.2142823      1237.0842      12370.897      5.3688827    
  34334400   106230.19     -86.920754     -39935779       1.2596762      315068.77     -39620710       780.22391      780.22391      780.22391      2109.888       2890.112       2109.888       2890.112       2109.888       2890.112       4.7496079e+08  0.1            14637940       2.2304806      1234.695       12346.946      5.3561945    
  34334600   107739.11     -85.736268     -39935725       1.2596762      319544.07     -39616181       780.22391      780.22391      780.22391      2109.888       2890.112       2109.888       2890.112       2109.888       2890.112       4.7496079e+08  0.1            14637960       2.2466402      1237.6501      12376.544      5.3433667    
  34334800   109400.72     -84.324124     -39928277       1.2596762      324472.25     -39603805       780.22391      780.22391      780.22391      2109.888       2890.112       2109.888       2890.112       2109.888       2890.112       4.7496079e+08  0.1            14637980       2.2629835      1223.7483      12237.389      5.3309271    
  34335000   111141.02     -83.438626     -39930086       1.2596762      329633.81     -39600452       780.22391      780.22391      780.22391      2109.888       2890.112       2109.888       2890.112       2109.888       2890.112       4.7496079e+08  0.1            14638000       2.2801441      1165.4586      11654.612      5.3203425    
  34335200   112879.34     -82.550405     -39929980       1.2596762      334789.5      -39595191       780.22391      780.22391      780.22391      2109.888       2890.112       2109.888       2890.112       2109.888       2890.112       4.7496079e+08  0.1            14638020       2.2966943      1208.4413      12084.473      5.3082597    
  34335400   114536.27     -82.133287     -39937600       1.2596762      339703.8      -39597896       780.22391      780.22391      780.22391      2109.888       2890.112       2109.888       2890.112       2109.888       2890.112       4.7496079e+08  0.1            14638040       2.3132117      1210.836       12108.391      5.2960435    
  34335600   116040        -81.237391     -39937453       1.2596762      344163.72     -39593289       780.22391      780.22391      780.22391      2109.888       2890.112       2109.888       2890.112       2109.888       2890.112       4.7496079e+08  0.1            14638060       2.3300262      1189.4592      11894.331      5.2844452    
  34335800   117329.81     -80.088051     -39937288       1.2596762      347989.18     -39589298       780.22391      780.22391      780.22391      2109.888       2890.112       2109.888       2890.112       2109.888       2890.112       4.7496079e+08  0.1            14638080       2.3463387      1226.0565      12260.807      5.2716497    
  34336000   118360.93     -78.479725     -39929725       1.2596762      351047.4      -39578678       780.22391      780.22391      780.22391      2109.888       2890.112       2109.888       2890.112       2109.888       2890.112       4.7496079e+08  0.1            14638100       2.3627884      1215.8038      12158          5.2591162    
  34336200   119108.6      -77.864544     -39936898       1.2596762      353264.9      -39583633       780.22391      780.22391      780.22391      2109.888       2890.112       2109.888       2890.112       2109.888       2890.112       4.7496079e+08  0.1            14638120       2.3799746      1163.7348      11637.336      5.2481554    
  34336400   119570.43     -77.419808     -39936671       1.2596762      354634.67     -39582036       780.22391      780.22391      780.22391      2109.888       2890.112       2109.888       2890.112       2109.888       2890.112       4.7496079e+08  0.1            14638140       2.3962122      1231.7176      12317.08       5.2350429    
  34336600   119768.36     -76.853987     -39936425       1.2596762      355221.7      -39581203       780.22391      780.22391      780.22391      2109.888       2890.112       2109.888       2890.112       2109.888       2890.112       4.7496079e+08  0.1            14638160       2.4123636      1238.2847      12382.917      5.2217043    
  34336800   119746.71     -75.893272     -39928784       1.2596762      355157.5      -39573626       780.22391      780.22391      780.22391      2109.888       2890.112       2109.888       2890.112       2109.888       2890.112       4.7496079e+08  0.1            14638180       2.4284982      1239.5745      12395.782      5.2082941    
  34337000   119567.99     -75.095712     -39933988       1.2596762      354627.42     -39579360       780.22391      780.22391      780.22391      2109.888       2890.112       2109.888       2890.112       2109.888       2890.112       4.7496079e+08  0.1            14638200       2.4439892      1291.0654      12910.692      5.1934831    
  34337200   119306.29     -73.999402     -39933693       1.2596762      353851.24     -39579841       780.22391      780.22391      780.22391      2109.888       2890.112       2109.888       2890.112       2109.888       2890.112       4.7496079e+08  0.1            14638220       2.4593172      1304.8115      13048.173      5.178319     
  34337400   119041.27     -73.038078     -39933379       1.2596762      353065.23     -39580314       780.22391      780.22391      780.22391      2109.888       2890.112       2109.888       2890.112       2109.888       2890.112       4.7496079e+08  0.1            14638240       2.4746325      1305.8612      13058.647      5.1631275    
  34337600   118853.13     -72.026679     -39925673       1.2596762      352507.22     -39573166       780.22391      780.22391      780.22391      2109.888       2890.112       2109.888       2890.112       2109.888       2890.112       4.7496079e+08  0.1            14638260       2.4894351      1351.1418      13511.346      5.1468738    
  34337800   118814.67     -71.097376     -39923437       1.2596762      352393.14     -39571044       780.22391      780.22391      780.22391      2109.888       2890.112       2109.888       2890.112       2109.888       2890.112       4.7496079e+08  0.1            14638280       2.503855       1386.9288      13869.309      5.1298549    
  34338000   118985.42     -69.644589     -39921186       1.2596762      352899.58     -39568286       780.22391      780.22391      780.22391      2109.888       2890.112       2109.888       2890.112       2109.888       2890.112       4.7496079e+08  0.1            14638300       2.5182684      1387.6468      13876.34       5.112853     
  34338200   119408.64     -67.799149     -39918914       1.2596762      354154.79     -39564759       780.22391      780.22391      780.22391      2109.888       2890.112       2109.888       2890.112       2109.888       2890.112       4.7496079e+08  0.1            14638320       2.5326245      1393.1503      13931.651      5.0957667    
  34338400   120110.8      -66.473907     -39918519       1.2596762      356237.35     -39562282       780.22391      780.22391      780.22391      2109.888       2890.112       2109.888       2890.112       2109.888       2890.112       4.7496079e+08  0.1            14638340       2.5468951      1401.4787      14014.822      5.0785433    
  34338600   121098.66     -66.2343       -39927387       1.2596762      359167.25     -39568220       780.22391      780.22391      780.22391      2109.888       2890.112       2109.888       2890.112       2109.888       2890.112       4.7496079e+08  0.1            14638360       2.5612662      1391.659       13916.547      5.0615546    
  34338800   122354.84     -65.966369     -39936249       1.2596762      362892.96     -39573356       780.22391      780.22391      780.22391      2109.888       2890.112       2109.888       2890.112       2109.888       2890.112       4.7496079e+08  0.1            14638380       2.5759555      1361.5518      13615.559      5.0452188    
  34339000   123837        -64.592795     -39935825       1.2596762      367288.91     -39568537       780.22391      780.22391      780.22391      2109.888       2890.112       2109.888       2890.112       2109.888       2890.112       4.7496079e+08  0.1            14638400       2.5907407      1352.6846      13526.76       5.0290903    
  34339200   125483.79     -62.946637     -39942762       1.2596762      372173.12     -39570589       780.22391      780.22391      780.22391      2109.888       2890.112       2109.888       2890.112       2109.888       2890.112       4.7496079e+08  0.1            14638420       2.6051417      1388.8069      13888.167      5.0122361    
  34339400   127221.89     -61.282785     -39949681       1.2596762      377328.17     -39572353       780.22391      780.22391      780.22391      2109.888       2890.112       2109.888       2890.112       2109.888       2890.112       4.7496079e+08  0.1            14638440       2.6195191      1391.0702      13910.69       4.9953663    
  34339600   128971.03     -59.409641     -39949202       1.2596762      382515.96     -39566686       780.22391      780.22391      780.22391      2109.888       2890.112       2109.888       2890.112       2109.888       2890.112       4.7496079e+08  0.1            14638460       2.6338608      1394.5273      13945.241      4.9784582    
  34339800   130652.17     -57.703609     -39948706       1.2596762      387502.04     -39561204       780.22391      780.22391      780.22391      2109.888       2890.112       2109.888       2890.112       2109.888       2890.112       4.7496079e+08  0.1            14638480       2.6481984      1394.929       13949.38       4.9615715    
  34340000   132192.5      -56.077369     -39948196       1.2596762      392070.52     -39556125       780.22391      780.22391      780.22391      2109.888       2890.112       2109.888       2890.112       2109.888       2890.112       4.7496079e+08  0.1            14638500       2.6625719      1391.4555      13914.357      4.9447811    
  34340200   133529.22     -54.687096     -39955050       1.2596762      396035.11     -39559015       780.22391      780.22391      780.22391      2109.888       2890.112       2109.888       2890.112       2109.888       2890.112       4.7496079e+08  0.1            14638520       2.6772944      1358.4641      13584.796      4.9286598    
  34340400   134614.12     -52.979969     -39961889       1.2596762      399252.83     -39562636       780.22391      780.22391      780.22391      2109.888       2890.112       2109.888       2890.112       2109.888       2890.112       4.7496079e+08  0.1            14638540       2.6919023      1369.122       13691.108      4.9123461    
  34340600   135418.7      -51.020705     -39961701       1.2596762      401639.14     -39560062       780.22391      780.22391      780.22391      2109.888       2890.112       2109.888       2890.112       2109.888       2890.112       4.7496079e+08  0.1            14638560       2.7065048      1369.6307      13696.33       4.8960411    
  34340800   135937.61     -49.087318     -39961131       1.2596762      403178.18     -39557953       780.22391      780.22391      780.22391      2109.888       2890.112       2109.888       2890.112       2109.888       2890.112       4.7496079e+08  0.1            14638580       2.7208304      1396.1066      13961.134      4.8792586    
  34341000   136188.93     -47.813276     -39973411       1.2596762      403923.56     -39569488       780.22391      780.22391      780.22391      2109.888       2890.112       2109.888       2890.112       2109.888       2890.112       4.7496079e+08  0.1            14638600       2.7351186      1399.7711      13997.713      4.8624368    
  34341200   136212.14     -46.577243     -39973189       1.2596762      403992.42     -39569197       780.22391      780.22391      780.22391      2109.888       2890.112       2109.888       2890.112       2109.888       2890.112       4.7496079e+08  0.1            14638620       2.7494609      1394.4741      13944.719      4.8457386    
  34341400   136064.62     -45.355699     -39972588       1.2596762      403554.87     -39569033       780.22391      780.22391      780.22391      2109.888       2890.112       2109.888       2890.112       2109.888       2890.112       4.7496079e+08  0.1            14638640       2.7636982      1404.7585      14047.582      4.828883     
  34341600   135818.9      -44.224918     -39970085       1.2596762      402826.1      -39567258       780.22391      780.22391      780.22391      2109.888       2890.112       2109.888       2890.112       2109.888       2890.112       4.7496079e+08  0.1            14638660       2.7783191      1367.9044      13679.094      4.8127203    
  34341800   135554.53     -43.208902     -39969470       1.2596762      402041.98     -39567428       780.22391      780.22391      780.22391      2109.888       2890.112       2109.888       2890.112       2109.888       2890.112       4.7496079e+08  0.1            14638680       2.7927506      1385.8519      13858.506      4.7962492    
  34342000   135350.3      -42.11004      -39970742       1.2596762      401436.25     -39569306       780.22391      780.22391      780.22391      2109.888       2890.112       2109.888       2890.112       2109.888       2890.112       4.7496079e+08  0.1            14638700       2.8071072      1393.085       13930.742      4.779673     
  34342200   135280.26     -40.523709     -39968217       1.2596762      401228.53     -39566989       780.22391      780.22391      780.22391      2109.888       2890.112       2109.888       2890.112       2109.888       2890.112       4.7496079e+08  0.1            14638720       2.8214346      1395.9091      13959.183      4.763071     
  34342400   135408        -38.939737     -39967581       1.2596762      401607.4      -39565973       780.22391      780.22391      780.22391      2109.888       2890.112       2109.888       2890.112       2109.888       2890.112       4.7496079e+08  0.1            14638740       2.835745       1397.6025      13976.017      4.7464646    
  34342600   135781.97     -37.494625     -39968832       1.2596762      402716.56     -39566116       780.22391      780.22391      780.22391      2109.888       2890.112       2109.888       2890.112       2109.888       2890.112       4.7496079e+08  0.1            14638760       2.8499886      1404.1492      14041.516      4.7297718    
  34342800   136431.78     -35.896665     -39968183       1.2596762      404643.84     -39563539       780.22391      780.22391      780.22391      2109.888       2890.112       2109.888       2890.112       2109.888       2890.112       4.7496079e+08  0.1            14638780       2.8642177      1405.5692      14055.715      4.7130812    
  34343000   137365.71     -33.461566     -39947289       1.2596762      407413.78     -39539875       780.22391      780.22391      780.22391      2109.888       2890.112       2109.888       2890.112       2109.888       2890.112       4.7496079e+08  0.1            14638800       2.8789257      1359.8         13597.887      4.6971984    
  34343200   138569.28     -31.759864     -39946629       1.2596762      410983.46     -39535645       780.22391      780.22391      780.22391      2109.888       2890.112       2109.888       2890.112       2109.888       2890.112       4.7496079e+08  0.1            14638820       2.8933622      1385.386       13853.947      4.6808878    
  34343400   140005.15     -29.991488     -39945961       1.2596762      415242.11     -39530719       780.22391      780.22391      780.22391      2109.888       2890.112       2109.888       2890.112       2109.888       2890.112       4.7496079e+08  0.1            14638840       2.9076084      1403.8764      14038.778      4.6642919    
  34343600   141617.05     -28.177419     -39945284       1.2596762      420022.86     -39525261       780.22391      780.22391      780.22391      2109.888       2890.112       2109.888       2890.112       2109.888       2890.112       4.7496079e+08  0.1            14638860       2.9218358      1405.7395      14057.409      4.6476903    
  34343800   143333.96     -26.352588     -39951974       1.2596762      425115.04     -39526859       780.22391      780.22391      780.22391      2109.888       2890.112       2109.888       2890.112       2109.888       2890.112       4.7496079e+08  0.1            14638880       2.9360727      1404.7963      14047.961      4.6311283    
  34344000   145078.4      -24.222927     -39953174       1.2596762      430288.9      -39522885       780.22391      780.22391      780.22391      2109.888       2890.112       2109.888       2890.112       2109.888       2890.112       4.7496079e+08  0.1            14638900       2.9503748      1398.3932      13983.848      4.6146925    
  34344200   146771.73     -21.857803     -39952473       1.2596762      435311.16     -39517162       780.22391      780.22391      780.22391      2109.888       2890.112       2109.888       2890.112       2109.888       2890.112       4.7496079e+08  0.1            14638920       2.9649784      1369.5161      13695.112      4.5987458    
  34344400   148338.53     -19.43881      -39951766       1.2596762      439958.14     -39511807       780.22391      780.22391      780.22391      2109.888       2890.112       2109.888       2890.112       2109.888       2890.112       4.7496079e+08  0.1            14638940       2.9796825      1360.1586      13601.701      4.582967     
  34344600   149713.06     -16.97249      -39951049       1.2596762      444034.85     -39507014       780.22391      780.22391      780.22391      2109.888       2890.112       2109.888       2890.112       2109.888       2890.112       4.7496079e+08  0.1            14638960       2.9940682      1390.2877      13902.916      4.5667133    
  34344800   150846.57     -14.796449     -39950328       1.2596762      447396.75     -39502931       780.22391      780.22391      780.22391      2109.888       2890.112       2109.888       2890.112       2109.888       2890.112       4.7496079e+08  0.1            14638980       3.008305       1404.7982      14047.967      4.5502542    
  34345000   151709.43     -12.590456     -39949609       1.2596762      449955.91     -39499653       780.22391      780.22391      780.22391      2109.888       2890.112       2109.888       2890.112       2109.888       2890.112       4.7496079e+08  0.1            14639000       3.0226101      1398.1118      13980.971      4.5339187    
  34345200   152291.19     -10.350967     -39948891       1.2596762      451681.37     -39497209       780.22391      780.22391      780.22391      2109.888       2890.112       2109.888       2890.112       2109.888       2890.112       4.7496079e+08  0.1            14639020       3.036877       1401.8513      14018.669      4.5175465    
  34345400   152602.92     -7.6060601     -39938899       1.2596762      452605.91     -39486293       780.22391      780.22391      780.22391      2109.888       2890.112       2109.888       2890.112       2109.888       2890.112       4.7496079e+08  0.1            14639040       3.0511404      1402.1938      14021.926      4.5011904    
  34345600   152678.14     -5.2514249     -39938178       1.2596762      452829.02     -39485349       780.22391      780.22391      780.22391      2109.888       2890.112       2109.888       2890.112       2109.888       2890.112       4.7496079e+08  0.1            14639060       3.065333       1409.1776      14091.771      4.4847514    
  34345800   152569.45     -3.4225495     -39939347       1.2596762      452506.65     -39486841       780.22391      780.22391      780.22391      2109.888       2890.112       2109.888       2890.112       2109.888       2890.112       4.7496079e+08  0.1            14639080       3.0799868      1364.8425      13648.36       4.4690036    
  34346000   152346.8      -2.1580364     -39938623       1.2596762      451846.3      -39486777       780.22391      780.22391      780.22391      2109.888       2890.112       2109.888       2890.112       2109.888       2890.112       4.7496079e+08  0.1            14639100       3.0943425      1393.1699      13931.659      4.4528376    
  34346200   152090.09     -1.9458834     -39960043       1.2596762      451084.92     -39508958       780.22391      780.22391      780.22391      2109.888       2890.112       2109.888       2890.112       2109.888       2890.112       4.7496079e+08  0.1            14639120       3.1086935      1393.6431      13936.464      4.436682     
  34346400   151876.78     -0.075034407   -39951956       1.2596762      450452.26     -39501503       780.22391      780.22391      780.22391      2109.888       2890.112       2109.888       2890.112       2109.888       2890.112       4.7496079e+08  0.1            14639140       3.1228939      1408.4061      14084.161      4.4203309    
  34346600   151778.45      1.904952      -39951241       1.2596762      450160.62     -39501080       780.22391      780.22391      780.22391      2109.888       2890.112       2109.888       2890.112       2109.888       2890.112       4.7496079e+08  0.1            14639160       3.1371033      1407.5202      14075.136      4.4040133    
  34346800   151861.56      3.3515452     -39950522       1.2596762      450407.1      -39500115       780.22391      780.22391      780.22391      2109.888       2890.112       2109.888       2890.112       2109.888       2890.112       4.7496079e+08  0.1            14639180       3.151331       1405.7043      14057.116      4.3877412    
  34347000   152181.09      4.5718956     -39949810       1.2596762      451354.8      -39498455       780.22391      780.22391      780.22391      2109.888       2890.112       2109.888       2890.112       2109.888       2890.112       4.7496079e+08  0.1            14639200       3.1655919      1402.4152      14023.944      4.3715354    
  34347200   152771.27      6.5461505     -39949103       1.2596762      453105.22     -39495997       780.22391      780.22391      780.22391      2109.888       2890.112       2109.888       2890.112       2109.888       2890.112       4.7496079e+08  0.1            14639220       3.1804531      1345.8064      13458.176      4.3561685    
  34347400   153642.82      9.6845812     -39941017       1.2596762      455690.16     -39485327       780.22391      780.22391      780.22391      2109.888       2890.112       2109.888       2890.112       2109.888       2890.112       4.7496079e+08  0.1            14639240       3.1946986      1403.9561      14039.638      4.3399707    
  34347600   154786.8       12.646535     -39933301       1.2596762      459083.09     -39474217       780.22391      780.22391      780.22391      2109.888       2890.112       2109.888       2890.112       2109.888       2890.112       4.7496079e+08  0.1            14639260       3.2092459      1374.8239      13748.156      4.324198     
  34347800   156173.65      14.935828     -39932601       1.2596762      463196.37     -39469404       780.22391      780.22391      780.22391      2109.888       2890.112       2109.888       2890.112       2109.888       2890.112       4.7496079e+08  0.1            14639280       3.2234867      1404.4172      14044.224      4.308027     
  34348000   157751.3       16.943891     -39939284       1.2596762      467875.53     -39471409       780.22391      780.22391      780.22391      2109.888       2890.112       2109.888       2890.112       2109.888       2890.112       4.7496079e+08  0.1            14639300       3.2377646      1400.7613      14007.574      4.2919234    
  34348200   159450.72      19.602567     -39931213       1.2596762      472915.85     -39458297       780.22391      780.22391      780.22391      2109.888       2890.112       2109.888       2890.112       2109.888       2890.112       4.7496079e+08  0.1            14639320       3.2520835      1396.7516      13967.515      4.2758904    
  34348400   161194.57      21.754617     -39923141       1.2596762      478087.94     -39445053       780.22391      780.22391      780.22391      2109.888       2890.112       2109.888       2890.112       2109.888       2890.112       4.7496079e+08  0.1            14639340       3.266344       1402.4808      14024.871      4.2597969    
  34348600   162904.17      23.932434     -39915073       1.2596762      483158.45     -39431914       780.22391      780.22391      780.22391      2109.888       2890.112       2109.888       2890.112       2109.888       2890.112       4.7496079e+08  0.1            14639360       3.2811762      1348.4217      13484.192      4.2444599    
  34348800   164501.51      26.470118     -39908898       1.2596762      487896.01     -39421002       780.22391      780.22391      780.22391      2109.888       2890.112       2109.888       2890.112       2109.888       2890.112       4.7496079e+08  0.1            14639380       3.2953591      1410.1434      14101.44       4.2282945    
  34349000   165919.38      28.708272     -39915954       1.2596762      492101.27     -39423852       780.22391      780.22391      780.22391      2109.888       2890.112       2109.888       2890.112       2109.888       2890.112       4.7496079e+08  0.1            14639400       3.3096181      1402.6276      14026.206      4.2122439    
  34349200   167105.71      31.330273     -39915268       1.2596762      495619.81     -39419648       780.22391      780.22391      780.22391      2109.888       2890.112       2109.888       2890.112       2109.888       2890.112       4.7496079e+08  0.1            14639420       3.3239433      1396.1359      13961.401      4.1962932    
  34349400   168024.06      34.092017     -39914217       1.2596762      498343.56     -39415873       780.22391      780.22391      780.22391      2109.888       2890.112       2109.888       2890.112       2109.888       2890.112       4.7496079e+08  0.1            14639440       3.3382035      1402.4673      14024.705      4.1802759    
  34349600   168658.53      36.065454     -39913534       1.2596762      500225.35     -39413309       780.22391      780.22391      780.22391      2109.888       2890.112       2109.888       2890.112       2109.888       2890.112       4.7496079e+08  0.1            14639460       3.3524614      1402.7533      14027.543      4.1642709    
  34349800   169017.27      37.180429     -39927610       1.2596762      501289.32     -39426321       780.22391      780.22391      780.22391      2109.888       2890.112       2109.888       2890.112       2109.888       2890.112       4.7496079e+08  0.1            14639480       3.3667077      1403.8796      14038.81       4.1482675    
[...]
  34994400   307.59931     -0.58447063    -39980106       1.2970125      912.31065     -39979193       772.6643       772.6643       772.6643       2113.6679      2886.3321      2113.6679      2886.3321      2113.6679      2886.3321      4.612884e+08   0.1            14703940       26.59637       1140.981       11409.811      0.97415877   
  34994600   307.6065       1.905443      -39980198       1.2971024      912.33195     -39979286       772.64645      772.64645      772.64645      2113.6768      2886.3232      2113.6768      2886.3232      2113.6768      2886.3232      4.6125643e+08  0.1            14703960       26.613969      1136.3861      11363.892      0.95575038   
  34994800   307.59199      1.4490911     -39980290       1.2970927      912.28893     -39979378       772.64838      772.64838      772.64838      2113.6758      2886.3242      2113.6758      2886.3242      2113.6758      2886.3242      4.6125989e+08  0.1            14703980       26.631646      1131.4407      11314.408      0.93734581   
  34995000   307.54048     -0.2646054     -39980383       1.2970404      912.13614     -39979471       772.65875      772.65875      772.65875      2113.6706      2886.3294      2113.6706      2886.3294      2113.6706      2886.3294      4.6127847e+08  0.1            14704000       26.649514      1119.3099      11193.024      0.91894886   
  34995200   307.58267      1.8860732     -39980475       1.2971188      912.26129     -39979563       772.64319      772.64319      772.64319      2113.6784      2886.3216      2113.6784      2886.3216      2113.6784      2886.3216      4.6125059e+08  0.1            14704020       26.66758       1107.0489      11070.522      0.90055931   
  34995400   307.6025       1.3012469     -39980567       1.2971047      912.32011     -39979655       772.64599      772.64599      772.64599      2113.677       2886.323       2113.677       2886.323       2113.677       2886.323       4.6125561e+08  0.1            14704040       26.685244      1132.2456      11322.499      0.88215692   
  34995600   307.58836     -0.18074929    -39980660       1.2970602      912.27818     -39979748       772.65482      772.65482      772.65482      2113.6726      2886.3274      2113.6726      2886.3274      2113.6726      2886.3274      4.6127142e+08  0.1            14704060       26.702838      1136.7364      11367.37       0.86375329   
  34995800   307.58734      1.8501673     -39980752       1.2971345      912.27513     -39979840       772.64008      772.64008      772.64008      2113.68        2886.32        2113.68        2886.32        2113.68        2886.32        4.6124502e+08  0.1            14704080       26.720516      1131.35        11313.487      0.84535342   
  34996000   307.54241      1.4512101     -39980844       1.2971265      912.14189     -39979932       772.64165      772.64165      772.64165      2113.6792      2886.3208      2113.6792      2886.3208      2113.6792      2886.3208      4.6124784e+08  0.1            14704100       26.738158      1133.6766      11336.737      0.82695343   
  34996200   307.56356     -0.34317999    -39980937       1.2970715      912.2046      -39980024       772.65258      772.65258      772.65258      2113.6737      2886.3263      2113.6737      2886.3263      2113.6737      2886.3263      4.6126742e+08  0.1            14704120       26.756485      1091.3052      10913.056      0.80857517   
  34996400   307.59704      1.6142604     -39981029       1.2971431      912.30392     -39980116       772.63837      772.63837      772.63837      2113.6808      2886.3192      2113.6808      2886.3192      2113.6808      2886.3192      4.6124196e+08  0.1            14704140       26.774069      1137.3701      11373.573      0.79017509   
  34996600   307.59307      2.1132672     -39981121       1.2971654      912.29214     -39980209       772.63394      772.63394      772.63394      2113.683       2886.317       2113.683       2886.317       2113.683       2886.317       4.6123404e+08  0.1            14704160       26.791696      1134.6116      11346.276      0.77177734   
  34996800   307.56675     -0.51890487    -39981213       1.2970819      912.21408     -39980301       772.6505       772.6505       772.6505       2113.6747      2886.3253      2113.6747      2886.3253      2113.6747      2886.3253      4.612637e+08   0.1            14704180       26.809396      1129.9799      11299.776      0.75338268   
  34997000   307.5288       0.51020002    -39981306       1.2971221      912.10152     -39980393       772.64254      772.64254      772.64254      2113.6787      2886.3213      2113.6787      2886.3213      2113.6787      2886.3213      4.6124944e+08  0.1            14704200       26.827129      1127.7972      11277.927      0.73498993   
  34997200   307.57373      3.1956518     -39981397       1.2972179      912.23478     -39980485       772.62351      772.62351      772.62351      2113.6882      2886.3118      2113.6882      2886.3118      2113.6882      2886.3118      4.6121535e+08  0.1            14704220       26.844943      1122.7571      11227.654      0.71660018   
  34997400   307.58379      0.81693916    -39981490       1.297143       912.2646      -39980578       772.63838      772.63838      772.63838      2113.6808      2886.3192      2113.6808      2886.3192      2113.6808      2886.3192      4.6124199e+08  0.1            14704240       26.863272      1091.1473      10911.438      0.69822465   
  34997600   307.5625      -1.8572078     -39981582       1.2970582      912.20146     -39980669       772.65523      772.65523      772.65523      2113.6724      2886.3276      2113.6724      2886.3276      2113.6724      2886.3276      4.6127216e+08  0.1            14704260       26.881046      1125.273       11252.743      0.67983512   
  34997800   307.56793      1.5699601     -39981674       1.2971788      912.21757     -39980762       772.63127      772.63127      772.63127      2113.6844      2886.3156      2113.6844      2886.3156      2113.6844      2886.3156      4.6122926e+08  0.1            14704280       26.898838      1124.0702      11240.699      0.6614469    
  34998000   307.54         4.751475      -39981764       1.297291       912.13473     -39980852       772.60899      772.60899      772.60899      2113.6955      2886.3045      2113.6955      2886.3045      2113.6955      2886.3045      4.6118935e+08  0.1            14704300       26.916791      1114.0037      11139.99       0.64306334   
  34998200   307.54976      0.86012957    -39981858       1.2971652      912.16368     -39980946       772.63398      772.63398      772.63398      2113.683       2886.317       2113.683       2886.317       2113.683       2886.317       4.6123411e+08  0.1            14704320       26.934882      1105.5051      11055.112      0.62468356   
  34998400   307.54835     -3.6860003     -39981949       1.2970174      912.15951     -39981037       772.66332      772.66332      772.66332      2113.6683      2886.3317      2113.6683      2886.3317      2113.6683      2886.3317      4.6128666e+08  0.1            14704340       26.953143      1095.2434      10952.45       0.60630799   
  34998600   307.55626     -0.76131503    -39982042       1.2971208      912.18295     -39981130       772.64279      772.64279      772.64279      2113.6786      2886.3214      2113.6786      2886.3214      2113.6786      2886.3214      4.6124989e+08  0.1            14704360       26.971111      1113.1195      11131.158      0.58792618   
  34998800   307.57475      5.2973649     -39982132       1.2973294      912.23779     -39981219       772.60137      772.60137      772.60137      2113.6993      2886.3007      2113.6993      2886.3007      2113.6993      2886.3007      4.6117571e+08  0.1            14704380       26.988922      1122.8591      11228.607      0.56954165   
  34999000   307.5269       4.9675462     -39982224       1.2973233      912.09589     -39981312       772.6026       772.6026       772.6026       2113.6987      2886.3013      2113.6987      2886.3013      2113.6987      2886.3013      4.611779e+08   0.1            14704400       27.00673       1123.121       11231.141      0.55115781   
  34999200   307.51097     -3.8310115     -39980421       1.2970287      912.04863     -39979509       772.66108      772.66108      772.66108      2113.6695      2886.3305      2113.6695      2886.3305      2113.6695      2886.3305      4.6128265e+08  0.1            14704420       27.024505      1125.1773      11251.838      0.53277412   
  34999400   307.57998      4.699122      -39982408       1.297324       912.25331     -39981496       772.60244      772.60244      772.60244      2113.6988      2886.3012      2113.6988      2886.3012      2113.6988      2886.3012      4.6117763e+08  0.1            14704440       27.042529      1109.6083      11096.029      0.514396     
  34999600   307.53605     -1.8195749     -39980606       1.2971061      912.12303     -39979694       772.64571      772.64571      772.64571      2113.6771      2886.3229      2113.6771      2886.3229      2113.6771      2886.3229      4.6125511e+08  0.1            14704460       27.061326      1064.0065      10640.042      0.49603251   
  34999800   307.55661      4.5825507     -39982591       1.2973298      912.18399     -39981679       772.6013       772.6013       772.6013       2113.6994      2886.3006      2113.6994      2886.3006      2113.6994      2886.3006      4.6117557e+08  0.1            14704480       27.079401      1106.5083      11065.084      0.4776557    
  35000000   307.4704      -2.7175846     -39980789       1.2970858      911.9283      -39979877       772.64973      772.64973      772.64973      2113.6751      2886.3249      2113.6751      2886.3249      2113.6751      2886.3249      4.6126232e+08  0.1            14704500       27.099377      1001.1923      10012.024      0.45931152   
  35000200   307.53182      2.8560645     -39982776       1.2972816      912.11047     -39981864       772.61087      772.61087      772.61087      2113.6946      2886.3054      2113.6946      2886.3054      2113.6946      2886.3054      4.6119272e+08  0.1            14704520       27.117661      1093.8822      10938.753      0.44093762   
  35000400   307.54183      0.45648958    -39980973       1.2972019      912.14015     -39980061       772.62669      772.62669      772.62669      2113.6867      2886.3133      2113.6867      2886.3133      2113.6867      2886.3133      4.6122105e+08  0.1            14704540       27.135666      1110.7791      11107.798      0.4225595    
  35000600   307.55073      3.6527514     -39981064       1.2973137      912.16656     -39980152       772.60449      772.60449      772.60449      2113.6978      2886.3022      2113.6978      2886.3022      2113.6978      2886.3022      4.6118129e+08  0.1            14704560       27.153614      1114.3272      11143.163      0.40418104   
  35000800   307.53264      3.0712481     -39981156       1.297299       912.11291     -39980244       772.6074       772.6074       772.6074       2113.6963      2886.3037      2113.6963      2886.3037      2113.6963      2886.3037      4.6118651e+08  0.1            14704580       27.171624      1110.5415      11105.511      0.38580402   
  35001000   307.47683      1.6992663     -39981248       1.2972579      911.94739     -39980336       772.61557      772.61557      772.61557      2113.6922      2886.3078      2113.6922      2886.3078      2113.6922      2886.3078      4.6120114e+08  0.1            14704600       27.189196      1138.136       11381.327      0.36742161   
  35001200   307.49501     -0.97848947    -39979444       1.297169       912.00131     -39978532       772.63322      772.63322      772.63322      2113.6834      2886.3166      2113.6834      2886.3166      2113.6834      2886.3166      4.6123275e+08  0.1            14704620       27.206817      1135.0142      11350.151      0.3490409    
  35001400   307.52822     -0.21759136    -39979536       1.2971992      912.09979     -39978624       772.62722      772.62722      772.62722      2113.6864      2886.3136      2113.6864      2886.3136      2113.6864      2886.3136      4.61222e+08    0.1            14704640       27.224519      1129.8303      11298.36       0.3306622    
  35001600   307.51857     -0.74592756    -39979627       1.2971863      912.07117     -39978715       772.62978      772.62978      772.62978      2113.6851      2886.3149      2113.6851      2886.3149      2113.6851      2886.3149      4.6122658e+08  0.1            14704660       27.242092      1138.1045      11381.012      0.31228294   
  35001800   307.50059     -0.51557092    -39979719       1.2971988      912.01784     -39978807       772.6273       772.6273       772.6273       2113.6863      2886.3137      2113.6863      2886.3137      2113.6863      2886.3137      4.6122215e+08  0.1            14704680       27.260352      1095.2613      10952.619      0.29391218   
  35002000   307.45435      0.17499348    -39979810       1.2972267      911.88069     -39978898       772.62177      772.62177      772.62177      2113.6891      2886.3109      2113.6891      2886.3109      2113.6891      2886.3109      4.6121224e+08  0.1            14704700       27.277926      1138.0871      11380.85       0.27553463   
  35002200   307.49233      1.0594633     -39979901       1.297261       911.99335     -39978989       772.61496      772.61496      772.61496      2113.6925      2886.3075      2113.6925      2886.3075      2113.6925      2886.3075      4.6120004e+08  0.1            14704720       27.295553      1134.5981      11346.045      0.25715867   
  35002400   307.52106      1.8769162     -39979992       1.2972931      912.07856     -39979080       772.60859      772.60859      772.60859      2113.6957      2886.3043      2113.6957      2886.3043      2113.6957      2886.3043      4.6118863e+08  0.1            14704740       27.31312       1138.512       11385.043      0.23878318   
  35002600   307.51421      2.4225663     -39980083       1.2973161      912.05824     -39979171       772.60402      772.60402      772.60402      2113.698       2886.302       2113.698       2886.302       2113.698       2886.302       4.6118045e+08  0.1            14704760       27.330634      1141.9103      11419.151      0.22040836   
  35002800   307.49939      2.5745713     -39980174       1.2973259      912.01428     -39979262       772.60207      772.60207      772.60207      2113.699       2886.301       2113.699       2886.301       2113.699       2886.301       4.6117696e+08  0.1            14704780       27.348536      1117.2022      11171.99       0.20203756   
  35003000   307.45004      2.2956189     -39980266       1.2973213      911.86793     -39979354       772.60298      772.60298      772.60298      2113.6985      2886.3015      2113.6985      2886.3015      2113.6985      2886.3015      4.6117859e+08  0.1            14704800       27.366552      1110.1377      11101.342      0.18366815   
  35003200   307.47872      1.6216199     -39980357       1.2973035      911.95299     -39979445       772.60651      772.60651      772.60651      2113.6967      2886.3033      2113.6967      2886.3033      2113.6967      2886.3033      4.6118491e+08  0.1            14704820       27.384289      1127.5959      11276.053      0.16529753   
  35003400   307.49707      0.65310217    -39980448       1.2972759      912.00739     -39979536       772.61199      772.61199      772.61199      2113.694       2886.306       2113.694       2886.306       2113.694       2886.306       4.6119473e+08  0.1            14704840       27.402084      1123.8934      11238.896      0.14692808   
  35003600   307.48195     -0.43723274    -39980539       1.2972442      911.96256     -39979627       772.61829      772.61829      772.61829      2113.6909      2886.3091      2113.6909      2886.3091      2113.6909      2886.3091      4.61206e+08    0.1            14704860       27.41977       1130.8612      11308.629      0.12855888   
  35003800   307.46207     -1.3815112     -39980630       1.2972174      911.90361     -39979718       772.62361      772.62361      772.62361      2113.6882      2886.3118      2113.6882      2886.3118      2113.6882      2886.3118      4.6121554e+08  0.1            14704880       27.43744       1131.8294      11318.304      0.11019053   
  35004000   307.41267     -1.7868532     -39980721       1.2972086      911.75709     -39979809       772.62536      772.62536      772.62536      2113.6873      2886.3127      2113.6873      2886.3127      2113.6873      2886.3127      4.6121866e+08  0.1            14704900       27.455531      1105.5482      11055.395      0.091824528  
  35004200   307.448       -1.1888558     -39980812       1.2972333      911.86186     -39979900       772.62045      772.62045      772.62045      2113.6898      2886.3102      2113.6898      2886.3102      2113.6898      2886.3102      4.6120987e+08  0.1            14704920       27.4737        1100.743       11007.435      0.0734591    
  35004400   307.48134      0.66409315    -39980903       1.2973         911.96075     -39979991       772.60721      772.60721      772.60721      2113.6964      2886.3036      2113.6964      2886.3036      2113.6964      2886.3036      4.6118616e+08  0.1            14704940       27.491584      1118.3792      11183.84       0.055093359  
  35004600   307.48647      3.3535879     -39980992       1.2973948      911.97597     -39980080       772.5884       772.5884       772.5884       2113.7058      2886.2942      2113.7058      2886.2942      2113.7058      2886.2942      4.6115248e+08  0.1            14704960       27.509423      1121.1058      11211.087      0.036728205  
  35004800   307.484        5.6436831     -39981081       1.2974762      911.96864     -39980169       772.57223      772.57223      772.57223      2113.7139      2886.2861      2113.7139      2886.2861      2113.7139      2886.2861      4.6112353e+08  0.1            14704980       27.527217      1123.9829      11239.811      0.018363722  
  35005000   307.43969      6.0724895     -39981172       1.2974954      911.83722     -39980260       772.56842      772.56842      772.56842      2113.7158      2886.2842      2113.7158      2886.2842      2113.7158      2886.2842      4.6111671e+08  0.1            14705000       27.54489       1131.6543      11316.515      0            
Loop time of 27.545 on 4 procs for 300000 steps with 996 atoms

Performance: 94.101 ns/day, 0.255 hours/ns, 10891.287 timesteps/s
99.5% CPU use with 4 MPI tasks x 1 OpenMP threads

MPI task timing breakdown:
Section |  min time  |  avg time  |  max time  |%varavg| %total
---------------------------------------------------------------
Pair    | 6.4801     | 10.993     | 14.293     |  87.1 | 39.91
Neigh   | 0.0050757  | 0.0081293  | 0.010026   |   2.1 |  0.03
Comm    | 6.3505     | 9.5489     | 13.902     |  90.1 | 34.67
Output  | 0.07914    | 0.089727   | 0.12024    |   5.9 |  0.33
Modify  | 5.4939     | 5.7526     | 5.8821     |   6.4 | 20.88
Other   |            | 1.153      |            |       |  4.19

Nlocal:            249 ave         289 max         177 min
Histogram: 1 0 0 0 0 0 0 1 1 1
Nghost:            619 ave         642 max         604 min
Histogram: 1 0 1 1 0 0 0 0 0 1
Neighs:        1413.75 ave        1870 max         744 min
Histogram: 1 0 0 0 0 1 0 0 1 1

Total # of neighbors = 5655
Ave neighs/atom = 5.6777108
Neighbor list builds = 43
Dangerous builds = 20

# run_style
run_style verlet

# write restart
write_restart ${write_res}
write_restart ./pgnpmf/37/equpmf50.res
System init for write_restart ...
Generated 0 of 1 mixed pair_coeff terms from geometric mixing rule

Total wall time: 0:00:58
