LAMMPS (23 Jun 2022 - Update 1)
# Read restart
read_restart ${read_res}
read_restart ./pgnpmf/37/equpmf4.res
Reading restart file ...
  restart file = 23 Jun 2022, LAMMPS = 23 Jun 2022
  restoring atom style atomic from restart
  orthogonal box = (1394.6069 1394.6069 1394.6069) to (3605.3931 3605.3931 3605.3931)
  1 by 2 by 2 MPI processor grid
  restoring pair style table from restart
  996 atoms
  read_restart CPU = 0.007 seconds

# Settings

pair_style table spline 9941

pair_coeff 1 1 ./pgnpmf/N20.txt DE_GNP 75.6
pair_coeff 2 2 ./pgnpmf/N100.txt DE_GNP 115.92
WARNING: 3 of 9941 force values in table DE_GNP are inconsistent with -dE/dr.
WARNING:  Should only be flagged at inflection points (../pair_table.cpp:463)
pair_coeff 1 2 ./pgnpmf/mixed_potential.txt DE_GNP 95.66
WARNING: 1562 of 9941 force values in table DE_GNP are inconsistent with -dE/dr.
WARNING:  Should only be flagged at inflection points (../pair_table.cpp:463)

#Neigh_list Calc Frequency

neigh_modify delay 0 every 1 check yes

# Saving Frequency (50 frames)

variable ts_save equal ${steps_equ}
variable ts_save equal 5000

# Dump
#dump 1 all custom ${ts_save} ./pgnpmf/${folder}/equilibration/trajectory/trajectory_${usic}_${trial}.equ.custom type x y z ix iy iz
#dump_modify 1 first no sort id
dump 2 all cfg 50000 ./pgnpmf/${folder}/equilibration/trajectory/dumpgen.tens_*.cfg mass type xs ys zs fx fy fz
dump 2 all cfg 50000 ./pgnpmf/37/equilibration/trajectory/dumpgen.tens_*.cfg mass type xs ys zs fx fy fz
dump_modify 2 element N20 N100

# thermo_style
thermo_style custom step temp press pe density ke etotal lx ly lz xlo xhi ylo yhi zlo zhi vol dt time cpu tpcpu spcpu cpuremain

# run info
timestep ${ts}
timestep 0.5
thermo 200

# fix

fix 1 all momentum 1000 linear 1 1 1 angular
variable T equal ${temp}
variable T equal 300
fix 2 all nvt temp ${T} 370000 100.0
fix 2 all nvt temp 300 370000 100.0

run 100000
Generated 0 of 1 mixed pair_coeff terms from geometric mixing rule
Unused restart file global fix info:
  fix style: npt, fix ID: 5
Neighbor list info ...
  update every 1 steps, delay 0 steps, check yes
  max neighbors/atom: 2000, page size: 100000
  master list distance cutoff = 117.92
  ghost atom cutoff = 117.92
  binsize = 58.96, bins = 38 38 38
  1 neighbor lists, perpetual/occasional/extra = 1 0 0
  (1) pair table, perpetual
      attributes: half, newton on
      pair build: half/bin/atomonly/newton
      stencil: half/bin/3d
      bin: standard
Per MPI rank memory allocation (min/avg/max) = 3.162 | 3.162 | 3.163 Mbytes
   Step          Temp          Press          PotEng        Density         KinEng         TotEng           Lx             Ly             Lz            Xlo            Xhi            Ylo            Yhi            Zlo            Zhi           Volume           Dt            Time           CPU           T/CPU          S/CPU         CPULeft    
   2805000   311.91386      0.98206792    -4476555.9      0.055370245    925.1072      -4475630.8      2210.7862      2210.7862      2210.7862      1394.6069      3605.3931      1394.6069      3605.3931      1394.6069      3605.3931      1.0805385e+10  0.5            1405000        0              0              0              0            
   2805200   421.37079      0.92039849    -4476712        0.055370245    1249.7462     -4475462.2      2210.7862      2210.7862      2210.7862      1394.6069      3605.3931      1394.6069      3605.3931      1394.6069      3605.3931      1.0805385e+10  0.5            1405100        0.006101688    16387.207      32769.657      3.045892     
   2805400   648.47782      0.84746108    -4476898.2      0.055370245    1923.3243     -4474974.9      2210.7862      2210.7862      2210.7862      1394.6069      3605.3931      1394.6069      3605.3931      1394.6069      3605.3931      1.0805385e+10  0.5            1405200        0.011700186    17862.313      35725.08       2.9138812    
   2805600   1028.7163      0.76005706    -4477126.6      0.055370245    3051.0759     -4474075.5      2210.7862      2210.7862      2210.7862      1394.6069      3605.3931      1394.6069      3605.3931      1394.6069      3605.3931      1.0805385e+10  0.5            1405300        0.01717925     18251.363      36502.645      2.8463672    
   2805800   1627.2133      0.65089448    -4477405.9      0.055370245    4826.1618     -4472579.8      2210.7862      2210.7862      2210.7862      1394.6069      3605.3931      1394.6069      3605.3931      1394.6069      3605.3931      1.0805385e+10  0.5            1405400        0.022622594    18371.03       36742.161      2.8054663    
   2806000   2512.768       0.51710033    -4477744.1      0.055370245    7452.6338     -4470291.5      2210.7862      2210.7862      2210.7862      1394.6069      3605.3931      1394.6069      3605.3931      1394.6069      3605.3931      1.0805385e+10  0.5            1405500        0.028194701    17946.452      35892.363      2.7914961    
   2806200   3709.5912      0.36500674    -4478144.5      0.055370245    11002.299     -4467142.2      2210.7862      2210.7862      2210.7862      1394.6069      3605.3931      1394.6069      3605.3931      1394.6069      3605.3931      1.0805385e+10  0.5            1405600        0.033689468    18199.18       36398.844      2.7739409    
   2806400   5112.09        0.20852919    -4478598.9      0.055370245    15161.978     -4463436.9      2210.7862      2210.7862      2210.7862      1394.6069      3605.3931      1394.6069      3605.3931      1394.6069      3605.3931      1.0805385e+10  0.5            1405700        0.039185984    18193.598      36387.368      2.7599534    
   2806600   6412.4135      0.021798473   -4479088.4      0.055370245    19018.616     -4460069.8      2210.7862      2210.7862      2210.7862      1394.6069      3605.3931      1394.6069      3605.3931      1394.6069      3605.3931      1.0805385e+10  0.5            1405800        0.044656251    18280.613      36561.173      2.74648      
   2806800   7218.068      -0.19891207    -4479591.7      0.055370245    21408.111     -4458183.6      2210.7862      2210.7862      2210.7862      1394.6069      3605.3931      1394.6069      3605.3931      1394.6069      3605.3931      1.0805385e+10  0.5            1405900        0.050118994    18305.611      36611.248      2.7343812    
   2807000   7567.755      -0.42690087    -4480072.7      0.055370245    22445.25      -4457627.4      2210.7862      2210.7862      2210.7862      1394.6069      3605.3931      1394.6069      3605.3931      1394.6069      3605.3931      1.0805385e+10  0.5            1406000        0.055593073    18267.913      36408.28       2.7251078    
   2807200   8129.3376     -0.67735277    -4480528.2      0.055370245    24110.851     -4456417.4      2210.7862      2210.7862      2210.7862      1394.6069      3605.3931      1394.6069      3605.3931      1394.6069      3605.3931      1.0805385e+10  0.5            1406100        0.061164672    17948.298      36020.505      2.7191353    
   2807400   9183.7905     -0.9322473     -4480958.3      0.055370245    27238.259     -4453720        2210.7862      2210.7862      2210.7862      1394.6069      3605.3931      1394.6069      3605.3931      1394.6069      3605.3931      1.0805385e+10  0.5            1406200        0.066786369    17788.153      35576.389      2.7160622    
   2807600   10182.463     -1.184191      -4481362.4      0.055370245    30200.228     -4451162.1      2210.7862      2210.7862      2210.7862      1394.6069      3605.3931      1394.6069      3605.3931      1394.6069      3605.3931      1.0805385e+10  0.5            1406300        0.072421038    17747.082      35494.341      2.7130832    
   2807800   10717.263     -1.4185398     -4481736.4      0.055370245    31786.396     -4449950.1      2210.7862      2210.7862      2210.7862      1394.6069      3605.3931      1394.6069      3605.3931      1394.6069      3605.3931      1.0805385e+10  0.5            1406400        0.078224381    17231.486      34462.859      2.7155784    
   2808000   11141.483     -1.6603501     -4482070.8      0.055370245    33044.592     -4449026.2      2210.7862      2210.7862      2210.7862      1394.6069      3605.3931      1394.6069      3605.3931      1394.6069      3605.3931      1.0805385e+10  0.5            1406500        0.083892153    17643.567      35287.01       2.7125841    
   2808200   11986.784     -1.917958      -4489744.2      0.055370245    35551.674     -4454192.5      2210.7862      2210.7862      2210.7862      1394.6069      3605.3931      1394.6069      3605.3931      1394.6069      3605.3931      1.0805385e+10  0.5            1406600        0.090410438    15341.452      30683.054      2.7349788    
   2808400   13063.093     -2.1714786     -4497374.6      0.055370245    38743.905     -4458630.7      2210.7862      2210.7862      2210.7862      1394.6069      3605.3931      1394.6069      3605.3931      1394.6069      3605.3931      1.0805385e+10  0.5            1406700        0.095968343    17992.773      35985.676      2.7266863    
   2808600   13805.235     -2.3971603     -4497582.9      0.055370245    40945.029     -4456637.9      2210.7862      2210.7862      2210.7862      1394.6069      3605.3931      1394.6069      3605.3931      1394.6069      3605.3931      1.0805385e+10  0.5            1406800        0.1014293      18311.48       36622.471      2.7161089    
   2808800   14214.38      -2.6227104     -4497735.4      0.055370245    42158.514     -4455576.8      2210.7862      2210.7862      2210.7862      1394.6069      3605.3931      1394.6069      3605.3931      1394.6069      3605.3931      1.0805385e+10  0.5            1406900        0.10707747     17704.743      35409.392      2.7108041    
   2809000   14852.612     -2.8571913     -4497847.7      0.055370245    44051.452     -4453796.3      2210.7862      2210.7862      2210.7862      1394.6069      3605.3931      1394.6069      3605.3931      1394.6069      3605.3931      1.0805385e+10  0.5            1407000        0.11257432     18192.327      36384.514      2.7018354    
   2809200   15884.837     -3.0911613     -4497907.1      0.055370245    47112.933     -4450794.1      2210.7862      2210.7862      2210.7862      1394.6069      3605.3931      1394.6069      3605.3931      1394.6069      3605.3931      1.0805385e+10  0.5            1407100        0.11816148     17860.256      35720.652      2.6955272    
   2809400   16812.22      -3.2964926     -4497913.1      0.055370245    49863.465     -4448049.7      2210.7862      2210.7862      2210.7862      1394.6069      3605.3931      1394.6069      3605.3931      1394.6069      3605.3931      1.0805385e+10  0.5            1407200        0.12366251     18217.724      36435.978      2.6868938    
   2809600   17324.009     -3.50451       -4497864.1      0.055370245    51381.382     -4446482.7      2210.7862      2210.7862      2210.7862      1394.6069      3605.3931      1394.6069      3605.3931      1394.6069      3605.3931      1.0805385e+10  0.5            1407300        0.12915041     18222.126      36444.058      2.6785092    
   2809800   17808.68      -3.7096651     -4497768.5      0.055370245    52818.87      -4444949.6      2210.7862      2210.7862      2210.7862      1394.6069      3605.3931      1394.6069      3605.3931      1394.6069      3605.3931      1.0805385e+10  0.5            1407400        0.13464093     18213.188      36426.276      2.6704201    
   2810000   18694.726     -3.934175      -4497619.9      0.055370245    55446.799     -4442173.1      2210.7862      2210.7862      2210.7862      1394.6069      3605.3931      1394.6069      3605.3931      1394.6069      3605.3931      1.0805385e+10  0.5            1407500        0.14028757     17709.597      35418.905      2.6655054    
   2810200   19727.565     -4.1556719     -4497415.6      0.055370245    58510.103     -4438905.5      2210.7862      2210.7862      2210.7862      1394.6069      3605.3931      1394.6069      3605.3931      1394.6069      3605.3931      1.0805385e+10  0.5            1407600        0.14583786     18017.08       36034.445      2.6587743    
   2810400   20415.261     -4.3600599     -4497156.1      0.055370245    60549.744     -4436606.4      2210.7862      2210.7862      2210.7862      1394.6069      3605.3931      1394.6069      3605.3931      1394.6069      3605.3931      1.0805385e+10  0.5            1407700        0.15132794     18214.936      36430.025      2.6510748    
   2810600   20855.348     -4.5256029     -4496861.9      0.055370245    61855.003     -4435006.9      2210.7862      2210.7862      2210.7862      1394.6069      3605.3931      1394.6069      3605.3931      1394.6069      3605.3931      1.0805385e+10  0.5            1407800        0.15681863     18212.571      36425.241      2.6435476    
   2810800   21553.359     -4.6825465     -4496526.6      0.055370245    63925.238     -4432601.3      2210.7862      2210.7862      2210.7862      1394.6069      3605.3931      1394.6069      3605.3931      1394.6069      3605.3931      1.0805385e+10  0.5            1407900        0.16233038     18142.963      36285.846      2.6365019    
   2811000   22579.813     -4.8434085     -4496169.3      0.055370245    66969.603     -4429199.7      2210.7862      2210.7862      2210.7862      1394.6069      3605.3931      1394.6069      3605.3931      1394.6069      3605.3931      1.0805385e+10  0.5            1408000        0.16781442     18234.835      36469.763      2.6291239    
   2811200   23444.447     -4.9959271     -4495772.6      0.055370245    69534.027     -4426238.6      2210.7862      2210.7862      2210.7862      1394.6069      3605.3931      1394.6069      3605.3931      1394.6069      3605.3931      1.0805385e+10  0.5            1408100        0.17371215     16955.409      33910.582      2.6281286    
   2811400   23945.535     -5.167319      -4495351.1      0.055370245    71020.207     -4424330.9      2210.7862      2210.7862      2210.7862      1394.6069      3605.3931      1394.6069      3605.3931      1394.6069      3605.3931      1.0805385e+10  0.5            1408200        0.17950254     17270.218      34540.214      2.6252546    
   2811600   24490.177     -5.3309557     -4494912.3      0.055370245    72635.562     -4422276.7      2210.7862      2210.7862      2210.7862      1394.6069      3605.3931      1394.6069      3605.3931      1394.6069      3605.3931      1.0805385e+10  0.5            1408300        0.18517226     17637.652      35275.471      2.6204962    
   2811800   25409.144     -5.4683744     -4494463.2      0.055370245    75361.133     -4419102.1      2210.7862      2210.7862      2210.7862      1394.6069      3605.3931      1394.6069      3605.3931      1394.6069      3605.3931      1.0805385e+10  0.5            1408400        0.19068015     18155.674      36311.737      2.6134668    
   2812000   26395.47      -5.6103211     -4494376        0.055370245    78286.484     -4416089.5      2210.7862      2210.7862      2210.7862      1394.6069      3605.3931      1394.6069      3605.3931      1394.6069      3605.3931      1.0805385e+10  0.5            1408500        0.19616864     18219.987      36439.729      2.6062673    
   2812200   27039.301     -5.7547817     -4493921.1      0.055370245    80196.026     -4413725        2210.7862      2210.7862      2210.7862      1394.6069      3605.3931      1394.6069      3605.3931      1394.6069      3605.3931      1.0805385e+10  0.5            1408600        0.20186841     17544.432      35088.698      2.6018864    
   2812400   27509.522     -5.8575859     -4493481.6      0.055370245    81590.657     -4411891        2210.7862      2210.7862      2210.7862      1394.6069      3605.3931      1394.6069      3605.3931      1394.6069      3605.3931      1.0805385e+10  0.5            1408700        0.20737837     18148.988      36298.102      2.5950577    
   2812600   28265.541     -5.9606596     -4493065.3      0.055370245    83832.938     -4409232.4      2210.7862      2210.7862      2210.7862      1394.6069      3605.3931      1394.6069      3605.3931      1394.6069      3605.3931      1.0805385e+10  0.5            1408800        0.21284488     18293.287      36586.495      2.5877704    
   2812800   29281.221     -6.0359807     -4492678        0.055370245    86845.348     -4405832.6      2210.7862      2210.7862      2210.7862      1394.6069      3605.3931      1394.6069      3605.3931      1394.6069      3605.3931      1.0805385e+10  0.5            1408900        0.21837331     18088.341      36176.983      2.581308     
   2813000   30092.27      -6.1072812     -4492330.2      0.055370245    89250.844     -4403079.4      2210.7862      2210.7862      2210.7862      1394.6069      3605.3931      1394.6069      3605.3931      1394.6069      3605.3931      1.0805385e+10  0.5            1409000        0.22389038     18125.425      36250.554      2.5747635    
   2813200   30581.566     -6.1886786     -4492025        0.055370245    90702.052     -4401323        2210.7862      2210.7862      2210.7862      1394.6069      3605.3931      1394.6069      3605.3931      1394.6069      3605.3931      1.0805385e+10  0.5            1409100        0.2295551      17653.251      35306.502      2.5699201    
   2813400   31171.611     -6.2488048     -4491756.5      0.055370245    92452.067     -4399304.4      2210.7862      2210.7862      2210.7862      1394.6069      3605.3931      1394.6069      3605.3931      1394.6069      3605.3931      1.0805385e+10  0.5            1409200        0.23504269     18222.856      36445.978      2.5631068    
   2813600   32123.074     -6.3003137     -4491531.7      0.055370245    95274.017     -4396257.7      2210.7862      2210.7862      2210.7862      1394.6069      3605.3931      1394.6069      3605.3931      1394.6069      3605.3931      1.0805385e+10  0.5            1409300        0.24059425     18012.984      36026.085      2.5570338    
   2813800   33078.2       -6.3369966     -4491346.9      0.055370245    98106.833     -4393240.1      2210.7862      2210.7862      2210.7862      1394.6069      3605.3931      1394.6069      3605.3931      1394.6069      3605.3931      1.0805385e+10  0.5            1409400        0.24611618     18109.653      36219.404      2.5506791    
   2814000   33672.127     -6.3542517     -4491200.1      0.055370245    99868.363     -4391331.7      2210.7862      2210.7862      2210.7862      1394.6069      3605.3931      1394.6069      3605.3931      1394.6069      3605.3931      1.0805385e+10  0.5            1409500        0.25172004     17844.776      35689.08       2.5451906    
   2814200   34147.064     -6.3645218     -4491090.9      0.055370245    101276.98     -4389813.9      2210.7862      2210.7862      2210.7862      1394.6069      3605.3931      1394.6069      3605.3931      1394.6069      3605.3931      1.0805385e+10  0.5            1409600        0.25724935     18085.469      36170.911      2.5389594    
   2814400   34959.684     -6.3645047     -4491021.4      0.055370245    103687.14     -4387334.3      2210.7862      2210.7862      2210.7862      1394.6069      3605.3931      1394.6069      3605.3931      1394.6069      3605.3931      1.0805385e+10  0.5            1409700        0.26274602     18192.903      36386.063      2.5324434    
   2814600   35994.831     -6.3472873     -4490982.2      0.055370245    106757.29     -4384224.9      2210.7862      2210.7862      2210.7862      1394.6069      3605.3931      1394.6069      3605.3931      1394.6069      3605.3931      1.0805385e+10  0.5            1409800        0.26824028     18200.813      36401.759      2.5259475    
   2814800   36752.034     -6.3424074     -4490969.4      0.055370245    109003.08     -4381966.4      2210.7862      2210.7862      2210.7862      1394.6069      3605.3931      1394.6069      3605.3931      1394.6069      3605.3931      1.0805385e+10  0.5            1409900        0.27400002     17361.762      34722.873      2.5219378    
   2815000   37193.479     -6.3065611     -4490980.1      0.055370245    110312.36     -4380667.7      2210.7862      2210.7862      2210.7862      1394.6069      3605.3931      1394.6069      3605.3931      1394.6069      3605.3931      1.0805385e+10  0.5            1410000        0.27983708     17131.815      34264.042      2.5186605    
   2815200   37827.805     -6.2699814     -4491016.2      0.055370245    112193.71     -4378822.5      2210.7862      2210.7862      2210.7862      1394.6069      3605.3931      1394.6069      3605.3931      1394.6069      3605.3931      1.0805385e+10  0.5            1410100        0.2854758      17734.591      35468.973      2.5133248    
   2815400   38860.058     -6.1946623     -4491064.7      0.055370245    115255.28     -4375809.4      2210.7862      2210.7862      2210.7862      1394.6069      3605.3931      1394.6069      3605.3931      1394.6069      3605.3931      1.0805385e+10  0.5            1410200        0.29097909     18170.919      36341.93       2.5069153    
   2815600   39805.517     -6.1289808     -4491124.9      0.055370245    118059.42     -4373065.4      2210.7862      2210.7862      2210.7862      1394.6069      3605.3931      1394.6069      3605.3931      1394.6069      3605.3931      1.0805385e+10  0.5            1410300        0.2966275      17704.182      35408.408      2.5017623    
   2815800   40309.149     -6.063398      -4491185        0.055370245    119553.15     -4371631.8      2210.7862      2210.7862      2210.7862      1394.6069      3605.3931      1394.6069      3605.3931      1394.6069      3605.3931      1.0805385e+10  0.5            1410400        0.30216531     18057.589      36115.105      2.4956788    
   2816000   40764.325     -5.9878469     -4491246.7      0.055370245    120903.16     -4370343.5      2210.7862      2210.7862      2210.7862      1394.6069      3605.3931      1394.6069      3605.3931      1394.6069      3605.3931      1.0805385e+10  0.5            1410500        0.30770063     18065.721      36130.979      2.4895955    
   2816200   41744.251     -5.8921334     -4491305.3      0.055370245    123809.53     -4367495.8      2210.7862      2210.7862      2210.7862      1394.6069      3605.3931      1394.6069      3605.3931      1394.6069      3605.3931      1.0805385e+10  0.5            1410600        0.31325515     18003.554      36007.561      2.4836821    
   2816400   42949.103     -5.7683467     -4491729.8      0.055370245    127383        -4364346.8      2210.7862      2210.7862      2210.7862      1394.6069      3605.3931      1394.6069      3605.3931      1394.6069      3605.3931      1.0805385e+10  0.5            1410700        0.31896512     17513.31       35026.214      2.4789909    
   2816600   43610.215     -5.6213322     -4491774.5      0.055370245    129343.8      -4362430.7      2210.7862      2210.7862      2210.7862      1394.6069      3605.3931      1394.6069      3605.3931      1394.6069      3605.3931      1.0805385e+10  0.5            1410800        0.32447962     18133.977      36268.501      2.4727742    
   2816800   43798.4       -5.4900254     -4491809.3      0.055370245    129901.94     -4361907.4      2210.7862      2210.7862      2210.7862      1394.6069      3605.3931      1394.6069      3605.3931      1394.6069      3605.3931      1.0805385e+10  0.5            1410900        0.33007925     17858.157      35716.384      2.4672181    
   2817000   44583.61      -5.3317834     -4491829.7      0.055370245    132230.8      -4359598.9      2210.7862      2210.7862      2210.7862      1394.6069      3605.3931      1394.6069      3605.3931      1394.6069      3605.3931      1.0805385e+10  0.5            1411000        0.33573451     17682.844      35365.337      2.4620681    
   2817200   46343.89      -5.1755867     -4491832        0.055370245    137451.62     -4354380.4      2210.7862      2210.7862      2210.7862      1394.6069      3605.3931      1394.6069      3605.3931      1394.6069      3605.3931      1.0805385e+10  0.5            1411100        0.34131345     17924.465      35849.284      2.4563523    
   2817400   46912.51      -5.0149113     -4491811.3      0.055370245    139138.1      -4352673.2      2210.7862      2210.7862      2210.7862      1394.6069      3605.3931      1394.6069      3605.3931      1394.6069      3605.3931      1.0805385e+10  0.5            1411200        0.34683032     18126.22       36252.131      2.4502033    
   2817600   45617.92      -4.8431025     -4491776        0.055370245    135298.46     -4356477.6      2210.7862      2210.7862      2210.7862      1394.6069      3605.3931      1394.6069      3605.3931      1394.6069      3605.3931      1.0805385e+10  0.5            1411300        0.35237961     18020.307      36041.082      2.4442976    
   2817800   45095.445     -4.6541296     -4491717.6      0.055370245    133748.85     -4357968.7      2210.7862      2210.7862      2210.7862      1394.6069      3605.3931      1394.6069      3605.3931      1394.6069      3605.3931      1.0805385e+10  0.5            1411400        0.35803987     17666.936      35333.61       2.4391609    
   2818000   48498.279     -4.411975      -4491654.1      0.055370245    143841.34     -4347812.7      2210.7862      2210.7862      2210.7862      1394.6069      3605.3931      1394.6069      3605.3931      1394.6069      3605.3931      1.0805385e+10  0.5            1411500        0.36359519     18000.831      36002.09       2.4333041    
   2818200   49503.889     -4.1931079     -4491568.8      0.055370245    146823.88     -4344744.9      2210.7862      2210.7862      2210.7862      1394.6069      3605.3931      1394.6069      3605.3931      1394.6069      3605.3931      1.0805385e+10  0.5            1411600        0.36918808     17879.898      35759.279      2.427705     
   2818400   49582.313     -3.9788301     -4491458.8      0.055370245    147056.48     -4344402.3      2210.7862      2210.7862      2210.7862      1394.6069      3605.3931      1394.6069      3605.3931      1394.6069      3605.3931      1.0805385e+10  0.5            1411700        0.37499098     17232.799      34465.579      2.4234625    
   2818600   50386.397     -3.7307314     -4491326.9      0.055370245    149441.32     -4341885.6      2210.7862      2210.7862      2210.7862      1394.6069      3605.3931      1394.6069      3605.3931      1394.6069      3605.3931      1.0805385e+10  0.5            1411800        0.38100117     16638.456      33277.128      2.4204908    
   2818800   52907.904     -3.4739942     -4491152.9      0.055370245    156919.87     -4334233        2210.7862      2210.7862      2210.7862      1394.6069      3605.3931      1394.6069      3605.3931      1394.6069      3605.3931      1.0805385e+10  0.5            1411900        0.38651179     18146.703      36293.544      2.4143111    
   2819000   53202.24      -3.2177669     -4490940.3      0.055370245    157792.84     -4333147.5      2210.7862      2210.7862      2210.7862      1394.6069      3605.3931      1394.6069      3605.3931      1394.6069      3605.3931      1.0805385e+10  0.5            1412000        0.39218063     17640.144      35280.12       2.4091223    
   2819200   50252.173     -2.9953385     -4498077        0.055370245    149043.22     -4349033.8      2210.7862      2210.7862      2210.7862      1394.6069      3605.3931      1394.6069      3605.3931      1394.6069      3605.3931      1.0805385e+10  0.5            1412100        0.39783108     17697.843      35395.373      2.4038088    
   2819400   50469.317     -2.741274      -4497834.5      0.055370245    149687.25     -4348147.2      2210.7862      2210.7862      2210.7862      1394.6069      3605.3931      1394.6069      3605.3931      1394.6069      3605.3931      1.0805385e+10  0.5            1412200        0.40339521     17972.284      35944.846      2.3979724    
   2819600   53941.073     -2.4476176     -4499463.9      0.055370245    159984.15     -4339479.7      2210.7862      2210.7862      2210.7862      1394.6069      3605.3931      1394.6069      3605.3931      1394.6069      3605.3931      1.0805385e+10  0.5            1412300        0.40910899     17501.429      35002.767      2.3930197    
   2819800   54990.964     -2.1500714     -4499163.7      0.055370245    163098.03     -4336065.7      2210.7862      2210.7862      2210.7862      1394.6069      3605.3931      1394.6069      3605.3931      1394.6069      3605.3931      1.0805385e+10  0.5            1412400        0.41470748     17862.077      35724.576      2.3873816    
   2820000   56147.196     -1.8445252     -4498825.8      0.055370245    166527.3      -4332298.5      2210.7862      2210.7862      2210.7862      1394.6069      3605.3931      1394.6069      3605.3931      1394.6069      3605.3931      1.0805385e+10  0.5            1412500        0.42028917     17915.689      35831.018      2.3816501    
   2820200   56999.451     -1.5511676     -4498460.4      0.055370245    169055.01     -4329405.4      2210.7862      2210.7862      2210.7862      1394.6069      3605.3931      1394.6069      3605.3931      1394.6069      3605.3931      1.0805385e+10  0.5            1412600        0.42603037     17417.867      34835.474      2.376813     
   2820400   57446.193     -1.2572503     -4498063.6      0.055370245    170380.01     -4327683.6      2210.7862      2210.7862      2210.7862      1394.6069      3605.3931      1394.6069      3605.3931      1394.6069      3605.3931      1.0805385e+10  0.5            1412700        0.43162494     17874.638      35749.358      2.3711458    
   2820600   58198.519     -0.95077725    -4497657.9      0.055370245    172611.34     -4325046.6      2210.7862      2210.7862      2210.7862      1394.6069      3605.3931      1394.6069      3605.3931      1394.6069      3605.3931      1.0805385e+10  0.5            1412800        0.43720179     17931.253      35862.571      2.365385     
   2820800   59691.847     -0.64444877    -4497240.2      0.055370245    177040.41     -4320199.8      2210.7862      2210.7862      2210.7862      1394.6069      3605.3931      1394.6069      3605.3931      1394.6069      3605.3931      1.0805385e+10  0.5            1412900        0.44286667     17652.665      35305.411      2.3600977    
   2821000   60430.563     -0.348226      -4496823.7      0.055370245    179231.37     -4317592.4      2210.7862      2210.7862      2210.7862      1394.6069      3605.3931      1394.6069      3605.3931      1394.6069      3605.3931      1.0805385e+10  0.5            1413000        0.44844313     17932.417      35864.494      2.3543375    
   2821200   59384.684     -0.094970786   -4503800.8      0.055370245    176129.39     -4327671.4      2210.7862      2210.7862      2210.7862      1394.6069      3605.3931      1394.6069      3605.3931      1394.6069      3605.3931      1.0805385e+10  0.5            1413100        0.45413256     17576.459      35153.493      2.3491653    
   2821400   58692.68       0.15881319    -4503481.4      0.055370245    174076.97     -4329404.4      2210.7862      2210.7862      2210.7862      1394.6069      3605.3931      1394.6069      3605.3931      1394.6069      3605.3931      1.0805385e+10  0.5            1413200        0.45983071     17549.54       35098.871      2.3440257    
   2821600   62187.922      0.48010861    -4503228.8      0.055370245    184443.53     -4318785.2      2210.7862      2210.7862      2210.7862      1394.6069      3605.3931      1394.6069      3605.3931      1394.6069      3605.3931      1.0805385e+10  0.5            1413300        0.46536233     18077.959      36155.924      2.3380355    
   2821800   63629.204      0.75325371    -4503033.4      0.055370245    188718.24     -4314315.2      2210.7862      2210.7862      2210.7862      1394.6069      3605.3931      1394.6069      3605.3931      1394.6069      3605.3931      1.0805385e+10  0.5            1413400        0.47112206     17361.955      34723.922      2.3331861    
   2822000   62623.467      0.99439517    -4502913.7      0.055370245    185735.32     -4317178.4      2210.7862      2210.7862      2210.7862      1394.6069      3605.3931      1394.6069      3605.3931      1394.6069      3605.3931      1.0805385e+10  0.5            1413500        0.47676263     17728.632      35456.643      2.3277343    
   2822200   62124.836      1.2074191     -4502900.6      0.055370245    184256.42     -4318644.1      2210.7862      2210.7862      2210.7862      1394.6069      3605.3931      1394.6069      3605.3931      1394.6069      3605.3931      1.0805385e+10  0.5            1413600        0.48285257     16420.612      32841.855      2.3244395    
   2822400   66109.574      1.4865914     -4502992.6      0.055370245    196074.78     -4306917.8      2210.7862      2210.7862      2210.7862      1394.6069      3605.3931      1394.6069      3605.3931      1394.6069      3605.3931      1.0805385e+10  0.5            1413700        0.48841884     17965.433      35930.665      2.3185953    
   2822600   67386.526      1.7014732     -4503185.4      0.055370245    199862.1      -4303323.3      2210.7862      2210.7862      2210.7862      1394.6069      3605.3931      1394.6069      3605.3931      1394.6069      3605.3931      1.0805385e+10  0.5            1413800        0.49408207     17657.556      35314.812      2.3132122    
   2822800   65016.528      1.8921331     -4510863.4      0.055370245    192832.91     -4318030.5      2210.7862      2210.7862      2210.7862      1394.6069      3605.3931      1394.6069      3605.3931      1394.6069      3605.3931      1.0805385e+10  0.5            1413900        0.49978801     17525.661      35051.518      2.3080193    
   2823000   64630.637      2.0942124     -4511263.7      0.055370245    191688.39     -4319575.3      2210.7862      2210.7862      2210.7862      1394.6069      3605.3931      1394.6069      3605.3931      1394.6069      3605.3931      1.0805385e+10  0.5            1414000        0.50535142     17974.558      35949.201      2.3022197    
   2823200   69458.695      2.3215442     -4519189.4      0.055370245    206007.96     -4313181.5      2210.7862      2210.7862      2210.7862      1394.6069      3605.3931      1394.6069      3605.3931      1394.6069      3605.3931      1.0805385e+10  0.5            1414100        0.51102265     17632.956      35266.042      2.296803     
   2823400   70261.355      2.48471       -4527254        0.055370245    208388.57     -4318865.4      2210.7862      2210.7862      2210.7862      1394.6069      3605.3931      1394.6069      3605.3931      1394.6069      3605.3931      1.0805385e+10  0.5            1414200        0.51669875     17617.74       35235.256      2.2914555    
   2823600   68451.517      2.6339123     -4528024.1      0.055370245    203020.76     -4325003.3      2210.7862      2210.7862      2210.7862      1394.6069      3605.3931      1394.6069      3605.3931      1394.6069      3605.3931      1.0805385e+10  0.5            1414300        0.52228354     17905.712      35811.559      2.2857016    
   2823800   68118.19       2.796712      -4528889.7      0.055370245    202032.15     -4326857.5      2210.7862      2210.7862      2210.7862      1394.6069      3605.3931      1394.6069      3605.3931      1394.6069      3605.3931      1.0805385e+10  0.5            1414400        0.52789388     17824.257      35648.768      2.2800608    
   2824000   71618.705      2.9688868     -4529869.1      0.055370245    212414.35     -4317454.7      2210.7862      2210.7862      2210.7862      1394.6069      3605.3931      1394.6069      3605.3931      1394.6069      3605.3931      1.0805385e+10  0.5            1414500        0.53359457     17541.579      35082.789      2.274807     
   2824200   74278.21       3.1201611     -4530970.8      0.055370245    220302.19     -4310668.6      2210.7862      2210.7862      2210.7862      1394.6069      3605.3931      1394.6069      3605.3931      1394.6069      3605.3931      1.0805385e+10  0.5            1414600        0.53924923     17684.764      35369.721      2.2693488    
   2824400   72117.085      3.2018875     -4532133.7      0.055370245    213892.5      -4318241.2      2210.7862      2210.7862      2210.7862      1394.6069      3605.3931      1394.6069      3605.3931      1394.6069      3605.3931      1.0805385e+10  0.5            1414700        0.54480447     18000.948      36002.038      2.2634741    
   2824600   71830.022      3.2907254     -4533357.8      0.055370245    213041.09     -4320316.7      2210.7862      2210.7862      2210.7862      1394.6069      3605.3931      1394.6069      3605.3931      1394.6069      3605.3931      1.0805385e+10  0.5            1414800        0.55049902     17560.431      35120.856      2.2581779    
   2824800   73279.326      3.3891866     -4542010.8      0.055370245    217339.59     -4324671.2      2210.7862      2210.7862      2210.7862      1394.6069      3605.3931      1394.6069      3605.3931      1394.6069      3605.3931      1.0805385e+10  0.5            1414900        0.55608611     17898.46       35796.278      2.2524383    
   2825000   75304.636      3.5024248     -4543313        0.055370245    223346.47     -4319966.5      2210.7862      2210.7862      2210.7862      1394.6069      3605.3931      1394.6069      3605.3931      1394.6069      3605.3931      1.0805385e+10  0.5            1415000        0.56166552     17884.938      35770.042      2.2467182    
   2825200   76193.978      3.5813094     -4551975.4      0.055370245    225984.18     -4325991.2      2210.7862      2210.7862      2210.7862      1394.6069      3605.3931      1394.6069      3605.3931      1394.6069      3605.3931      1.0805385e+10  0.5            1415100        0.56741526     17428.131      34856.602      2.2415796    
   2825400   73815.212      3.6204107     -4553187.4      0.055370245    218928.98     -4334258.4      2210.7862      2210.7862      2210.7862      1394.6069      3605.3931      1394.6069      3605.3931      1394.6069      3605.3931      1.0805385e+10  0.5            1415200        0.57315607     17419.236      34838.217      2.2364407    
   2825600   73203.6        3.6917799     -4554321.3      0.055370245    217115        -4337206.3      2210.7862      2210.7862      2210.7862      1394.6069      3605.3931      1394.6069      3605.3931      1394.6069      3605.3931      1.0805385e+10  0.5            1415300        0.57901497     17068.044      34136.468      2.2317453    
   2825800   78187.514      3.8133757     -4555379.5      0.055370245    231896.82     -4323482.6      2210.7862      2210.7862      2210.7862      1394.6069      3605.3931      1394.6069      3605.3931      1394.6069      3605.3931      1.0805385e+10  0.5            1415400        0.5848432      17157.859      34315.188      2.226911     
   2826000   79461.224      3.8994392     -4556307.2      0.055370245    235674.52     -4320632.7      2210.7862      2210.7862      2210.7862      1394.6069      3605.3931      1394.6069      3605.3931      1394.6069      3605.3931      1.0805385e+10  0.5            1415500        0.590449       17838.533      35677.251      2.2212208    
   2826200   78072.286      3.9416526     -4557034.4      0.055370245    231555.06     -4325479.3      2210.7862      2210.7862      2210.7862      1394.6069      3605.3931      1394.6069      3605.3931      1394.6069      3605.3931      1.0805385e+10  0.5            1415600        0.59608508     17742.901      35485.613      2.215645     
   2826400   77674.682      3.9967337     -4572295.4      0.055370245    230375.8      -4341919.6      2210.7862      2210.7862      2210.7862      1394.6069      3605.3931      1394.6069      3605.3931      1394.6069      3605.3931      1.0805385e+10  0.5            1415700        0.60180598     17479.834      34959.974      2.210379     
   2826600   82796.976      4.1462382     -4572561.5      0.055370245    245568.05     -4326993.4      2210.7862      2210.7862      2210.7862      1394.6069      3605.3931      1394.6069      3605.3931      1394.6069      3605.3931      1.0805385e+10  0.5            1415800        0.60737296     17963.087      35926.328      2.2045462    
   2826800   84128.193      4.2366101     -4572527.5      0.055370245    249516.31     -4323011.2      2210.7862      2210.7862      2210.7862      1394.6069      3605.3931      1394.6069      3605.3931      1394.6069      3605.3931      1.0805385e+10  0.5            1415900        0.61309796     17467.179      34934.248      2.1992855    
   2827000   80460.154      4.2698714     -4572179        0.055370245    238637.25     -4333541.8      2210.7862      2210.7862      2210.7862      1394.6069      3605.3931      1394.6069      3605.3931      1394.6069      3605.3931      1.0805385e+10  0.5            1416000        0.61872749     17763.608      35527.216      2.1936773    
   2827200   80107.156      4.3509347     -4578919.6      0.055370245    237590.3      -4341329.3      2210.7862      2210.7862      2210.7862      1394.6069      3605.3931      1394.6069      3605.3931      1394.6069      3605.3931      1.0805385e+10  0.5            1416100        0.62438715     17668.99       35337.575      2.1881749    
   2827400   82624.703      4.4693018     -4577988        0.055370245    245057.1      -4332930.9      2210.7862      2210.7862      2210.7862      1394.6069      3605.3931      1394.6069      3605.3931      1394.6069      3605.3931      1.0805385e+10  0.5            1416200        0.63011508     17458.067      34916.689      2.1829058    
   2827600   83702.387      4.5879098     -4584153.9      0.055370245    248253.41     -4335900.5      2210.7862      2210.7862      2210.7862      1394.6069      3605.3931      1394.6069      3605.3931      1394.6069      3605.3931      1.0805385e+10  0.5            1416300        0.6357252      17825.039      35649.925      2.1772253    
   2827800   83942.114      4.6915562     -4582698.7      0.055370245    248964.42     -4333734.3      2210.7862      2210.7862      2210.7862      1394.6069      3605.3931      1394.6069      3605.3931      1394.6069      3605.3931      1.0805385e+10  0.5            1416400        0.64141531     17574.26       35148.248      2.171817     
   2828000   85132.644      4.7887083     -4581039.3      0.055370245    252495.42     -4328543.9      2210.7862      2210.7862      2210.7862      1394.6069      3605.3931      1394.6069      3605.3931      1394.6069      3605.3931      1.0805385e+10  0.5            1416500        0.64706574     17697.749      35395.273      2.1662709    
   2828200   88428.827      4.9308793     -4579172        0.055370245    262271.59     -4316900.4      2210.7862      2210.7862      2210.7862      1394.6069      3605.3931      1394.6069      3605.3931      1394.6069      3605.3931      1.0805385e+10  0.5            1416600        0.65269238     17772.713      35545.868      2.1606436    
   2828400   91842.606      5.1024056     -4577093.9      0.055370245    272396.54     -4304697.4      2210.7862      2210.7862      2210.7862      1394.6069      3605.3931      1394.6069      3605.3931      1394.6069      3605.3931      1.0805385e+10  0.5            1416700        0.65839979     17521.073      35042.576      2.1552811    
   2828600   86136.882      5.1359191     -4574895.3      0.055370245    255473.9      -4319421.4      2210.7862      2210.7862      2210.7862      1394.6069      3605.3931      1394.6069      3605.3931      1394.6069      3605.3931      1.0805385e+10  0.5            1416800        0.66404653     17709.305      35418.39       2.1497166    
   2828800   83478.964      5.2065265     -4572749.4      0.055370245    247590.76     -4325158.6      2210.7862      2210.7862      2210.7862      1394.6069      3605.3931      1394.6069      3605.3931      1394.6069      3605.3931      1.0805385e+10  0.5            1416900        0.66963864     17882.466      35764.848      2.1439755    
   2829000   87711.293      5.3516134     -4570645.2      0.055370245    260143.45     -4310501.8      2210.7862      2210.7862      2210.7862      1394.6069      3605.3931      1394.6069      3605.3931      1394.6069      3605.3931      1.0805385e+10  0.5            1417000        0.67546815     17153.865      34307.659      2.1389893    
   2829200   90160.112      5.4776917     -4568602        0.055370245    267406.42     -4301195.5      2210.7862      2210.7862      2210.7862      1394.6069      3605.3931      1394.6069      3605.3931      1394.6069      3605.3931      1.0805385e+10  0.5            1417100        0.68155767     16421.844      32843.57       2.1348028    
   2829400   90939.68       5.6046286     -4566679.3      0.055370245    269718.54     -4296960.7      2210.7862      2210.7862      2210.7862      1394.6069      3605.3931      1394.6069      3605.3931      1394.6069      3605.3931      1.0805385e+10  0.5            1417200        0.68722839     17634.367      35268.604      2.1292879    
   2829600   91491.588      5.6982891     -4564939.5      0.055370245    271355.45     -4293584.1      2210.7862      2210.7862      2210.7862      1394.6069      3605.3931      1394.6069      3605.3931      1394.6069      3605.3931      1.0805385e+10  0.5            1417300        0.69285254     17780.585      35561.207      2.1236274    
   2829800   93936.896      5.8440532     -4563413.7      0.055370245    278608        -4284805.7      2210.7862      2210.7862      2210.7862      1394.6069      3605.3931      1394.6069      3605.3931      1394.6069      3605.3931      1.0805385e+10  0.5            1417400        0.69844582     17878.556      35757.265      2.1178741    
   2830000   95699.255      5.9477666     -4562104.2      0.055370245    283835        -4278269.2      2210.7862      2210.7862      2210.7862      1394.6069      3605.3931      1394.6069      3605.3931      1394.6069      3605.3931      1.0805385e+10  0.5            1417500        0.7042283      17293.382      34586.452      2.1126916    
   2830200   91910.984      5.9764734     -4561030        0.055370245    272599.34     -4288430.7      2210.7862      2210.7862      2210.7862      1394.6069      3605.3931      1394.6069      3605.3931      1394.6069      3605.3931      1.0805385e+10  0.5            1417600        0.70987131     17721.215      35443.033      2.1070843    
   2830400   89441.165      6.0213278     -4560212.4      0.055370245    265274.09     -4294938.4      2210.7862      2210.7862      2210.7862      1394.6069      3605.3931      1394.6069      3605.3931      1394.6069      3605.3931      1.0805385e+10  0.5            1417700        0.71551249     17726.772      35453.525      2.1014716    
   2830600   95297.887      6.1736487     -4559618        0.055370245    282644.57     -4276973.4      2210.7862      2210.7862      2210.7862      1394.6069      3605.3931      1394.6069      3605.3931      1394.6069      3605.3931      1.0805385e+10  0.5            1417800        0.72120841     17556.482      35112.865      2.0960177    
   2830800   96712.581      6.2533827     -4559164.5      0.055370245    286840.42     -4272324        2210.7862      2210.7862      2210.7862      1394.6069      3605.3931      1394.6069      3605.3931      1394.6069      3605.3931      1.0805385e+10  0.5            1417900        0.72681146     17847.285      35694.437      2.0902932    
   2831000   95720.533      6.3039695     -4558813.7      0.055370245    283898.1      -4274915.6      2210.7862      2210.7862      2210.7862      1394.6069      3605.3931      1394.6069      3605.3931      1394.6069      3605.3931      1.0805385e+10  0.5            1418000        0.73252414     17504.931      35010.077      2.0848822    
   2831200   95840.785      6.3612777     -4558538.5      0.055370245    284254.76     -4274283.8      2210.7862      2210.7862      2210.7862      1394.6069      3605.3931      1394.6069      3605.3931      1394.6069      3605.3931      1.0805385e+10  0.5            1418100        0.73817052     17710.494      35421.125      2.0792798    
   2831400   100161.22      6.4448231     -4565655.4      0.055370245    297068.77     -4268586.6      2210.7862      2210.7862      2210.7862      1394.6069      3605.3931      1394.6069      3605.3931      1394.6069      3605.3931      1.0805385e+10  0.5            1418200        0.74377993     17827.193      35653.884      2.0735741    
   2831600   102344.51      6.51607       -4572701.8      0.055370245    303544.18     -4269157.6      2210.7862      2210.7862      2210.7862      1394.6069      3605.3931      1394.6069      3605.3931      1394.6069      3605.3931      1.0805385e+10  0.5            1418300        0.74943645     17678.733      35357.56       2.0679998    
   2831800   96780.686      6.5036378     -4572260.4      0.055370245    287042.42     -4285218        2210.7862      2210.7862      2210.7862      1394.6069      3605.3931      1394.6069      3605.3931      1394.6069      3605.3931      1.0805385e+10  0.5            1418400        0.75502598     17890.557      35781.35       2.0622407    
   2832000   95249.454      6.5495297     -4571727.9      0.055370245    282500.93     -4289227        2210.7862      2210.7862      2210.7862      1394.6069      3605.3931      1394.6069      3605.3931      1394.6069      3605.3931      1.0805385e+10  0.5            1418500        0.76107688     16526.552      33052.901      2.0577318    
   2832200   98558.485      6.6551442     -4571071.9      0.055370245    292315.2      -4278756.7      2210.7862      2210.7862      2210.7862      1394.6069      3605.3931      1394.6069      3605.3931      1394.6069      3605.3931      1.0805385e+10  0.5            1418600        0.76707853     16662.121      33324.402      2.0530684    
   2832400   101707.52      6.7320076     -4570237.9      0.055370245    301654.93     -4268582.9      2210.7862      2210.7862      2210.7862      1394.6069      3605.3931      1394.6069      3605.3931      1394.6069      3605.3931      1.0805385e+10  0.5            1418700        0.77316689     16424.792      32849.482      2.0486154    
   2832600   103686.04      6.7678411     -4576550.1      0.055370245    307523.06     -4269027        2210.7862      2210.7862      2210.7862      1394.6069      3605.3931      1394.6069      3605.3931      1394.6069      3605.3931      1.0805385e+10  0.5            1418800        0.77928879     16334.723      32669.479      2.0442268    
   2832800   103427.8       6.811215      -4575244.5      0.055370245    306757.14     -4268487.4      2210.7862      2210.7862      2210.7862      1394.6069      3605.3931      1394.6069      3605.3931      1394.6069      3605.3931      1.0805385e+10  0.5            1418900        0.78503079     17415.422      34830.742      2.0388265    
   2833000   101381.97      6.8431354     -4573373.6      0.055370245    300689.39     -4272684.2      2210.7862      2210.7862      2210.7862      1394.6069      3605.3931      1394.6069      3605.3931      1394.6069      3605.3931      1.0805385e+10  0.5            1419000        0.79113407     16384.477      32768.422      2.0343506    
   2833200   102438.73      6.8892768     -4571705.8      0.055370245    303823.66     -4267882.2      2210.7862      2210.7862      2210.7862      1394.6069      3605.3931      1394.6069      3605.3931      1394.6069      3605.3931      1.0805385e+10  0.5            1419100        0.7967584      17780.104      35561.34       2.0286312    
   2833400   107487.45      7.006186      -4569851.4      0.055370245    318797.68     -4251053.7      2210.7862      2210.7862      2210.7862      1394.6069      3605.3931      1394.6069      3605.3931      1394.6069      3605.3931      1.0805385e+10  0.5            1419200        0.80251346     17376.023      34751.278      2.0232436    
   2833600   107492.99      7.0677618     -4567841.4      0.055370245    318814.09     -4249027.4      2210.7862      2210.7862      2210.7862      1394.6069      3605.3931      1394.6069      3605.3931      1394.6069      3605.3931      1.0805385e+10  0.5            1419300        0.80803437     18112.831      36226.05       2.0172661    
   2833800   104193.35      7.0599389     -4565757.1      0.055370245    309027.68     -4256729.4      2210.7862      2210.7862      2210.7862      1394.6069      3605.3931      1394.6069      3605.3931      1394.6069      3605.3931      1.0805385e+10  0.5            1419400        0.81355278     18121.47       36242.96       2.0112883    
   2834000   102901.22      7.0852734     -4563697.6      0.055370245    305195.35     -4258502.2      2210.7862      2210.7862      2210.7862      1394.6069      3605.3931      1394.6069      3605.3931      1394.6069      3605.3931      1.0805385e+10  0.5            1419500        0.81924472     17568.607      35137.22       2.0057424    
   2834200   109821.35      7.230439      -4561665.1      0.055370245    325719.81     -4235945.3      2210.7862      2210.7862      2210.7862      1394.6069      3605.3931      1394.6069      3605.3931      1394.6069      3605.3931      1.0805385e+10  0.5            1419600        0.82487859     17749.867      35499.904      2.000053     
   2834400   110954.39      7.2904236     -4559662.2      0.055370245    329080.29     -4230581.9      2210.7862      2210.7862      2210.7862      1394.6069      3605.3931      1394.6069      3605.3931      1394.6069      3605.3931      1.0805385e+10  0.5            1419700        0.83045067     17946.529      35892.737      1.9942165    
   2834600   108175         7.2826789     -4557410.2      0.055370245    320836.87     -4236573.3      2210.7862      2210.7862      2210.7862      1394.6069      3605.3931      1394.6069      3605.3931      1394.6069      3605.3931      1.0805385e+10  0.5            1419800        0.83613822     17582.223      35164.575      1.988658     
   2834800   107157.82      7.2865932     -4555717.4      0.055370245    317820.03     -4237897.3      2210.7862      2210.7862      2210.7862      1394.6069      3605.3931      1394.6069      3605.3931      1394.6069      3605.3931      1.0805385e+10  0.5            1419900        0.84167552     18059.268      36118.373      1.982744     
   2835000   113876.54      7.4218429     -4554211.2      0.055370245    337747.12     -4216464.1      2210.7862      2210.7862      2210.7862      1394.6069      3605.3931      1394.6069      3605.3931      1394.6069      3605.3931      1.0805385e+10  0.5            1420000        0.84726992     17875.171      35750.304      1.9769956    
   2835200   114640.99      7.443195      -4552822.5      0.055370245    340014.41     -4212808.1      2210.7862      2210.7862      2210.7862      1394.6069      3605.3931      1394.6069      3605.3931      1394.6069      3605.3931      1.0805385e+10  0.5            1420100        0.85302        17390.766      34781.526      1.9715546    
   2835400   110982.28      7.3849419     -4551587.8      0.055370245    329163        -4222424.8      2210.7862      2210.7862      2210.7862      1394.6069      3605.3931      1394.6069      3605.3931      1394.6069      3605.3931      1.0805385e+10  0.5            1420200        0.85865883     17734.471      35469.118      1.9658815    
   2835600   110559.23      7.4190957     -4550158.7      0.055370245    327908.29     -4222250.4      2210.7862      2210.7862      2210.7862      1394.6069      3605.3931      1394.6069      3605.3931      1394.6069      3605.3931      1.0805385e+10  0.5            1420300        0.86422276     17973.034      35946.3        1.9600393    
   2835800   119312.38      7.5525335     -4549213.3      0.055370245    353869.3      -4195344        2210.7862      2210.7862      2210.7862      1394.6069      3605.3931      1394.6069      3605.3931      1394.6069      3605.3931      1.0805385e+10  0.5            1420400        0.8699081      17588.859      35177.502      1.9544736    
   2836000   118317.07      7.5654304     -4548265.5      0.055370245    350917.3      -4197348.2      2210.7862      2210.7862      2210.7862      1394.6069      3605.3931      1394.6069      3605.3931      1394.6069      3605.3931      1.0805385e+10  0.5            1420500        0.87565287     17407.146      34814.523      1.9490383    
   2836200   113676.67      7.5144194     -4547311.9      0.055370245    337154.31     -4210157.6      2210.7862      2210.7862      2210.7862      1394.6069      3605.3931      1394.6069      3605.3931      1394.6069      3605.3931      1.0805385e+10  0.5            1420600        0.88171107     16506.575      33012.779      1.9442905    
   2836400   113644.79      7.5212365     -4546348.7      0.055370245    337059.75     -4209288.9      2210.7862      2210.7862      2210.7862      1394.6069      3605.3931      1394.6069      3605.3931      1394.6069      3605.3931      1.0805385e+10  0.5            1420700        0.88738151     17635.325      35270.905      1.9386787    
   2836600   119194.06      7.5940255     -4545295.2      0.055370245    353518.39     -4191776.8      2210.7862      2210.7862      2210.7862      1394.6069      3605.3931      1394.6069      3605.3931      1394.6069      3605.3931      1.0805385e+10  0.5            1420800        0.89297529     17877.037      35754.069      1.9329004    
   2836800   120712.76      7.644285      -4544081.7      0.055370245    358022.69     -4186059        2210.7862      2210.7862      2210.7862      1394.6069      3605.3931      1394.6069      3605.3931      1394.6069      3605.3931      1.0805385e+10  0.5            1420900        0.89856474     17890.826      35781.555      1.9271149    
   2837000   118557.82      7.6401034     -4542691.2      0.055370245    351631.34     -4191059.8      2210.7862      2210.7862      2210.7862      1394.6069      3605.3931      1394.6069      3605.3931      1394.6069      3605.3931      1.0805385e+10  0.5            1421000        0.90426708     17536.642      35073.247      1.921597     
   2837200   117886.08      7.6683689     -4541141.5      0.055370245    349639.03     -4191502.5      2210.7862      2210.7862      2210.7862      1394.6069      3605.3931      1394.6069      3605.3931      1394.6069      3605.3931      1.0805385e+10  0.5            1421100        0.90994179     17622.049      35244.322      1.9159688    
   2837400   120080.77      7.7305605     -4539433.5      0.055370245    356148.29     -4183285.3      2210.7862      2210.7862      2210.7862      1394.6069      3605.3931      1394.6069      3605.3931      1394.6069      3605.3931      1.0805385e+10  0.5            1421200        0.91547352     18077.629      36155.074      1.9100662    
   2837600   124881.3       7.8048648     -4537522.8      0.055370245    370386.2      -4167136.6      2210.7862      2210.7862      2210.7862      1394.6069      3605.3931      1394.6069      3605.3931      1394.6069      3605.3931      1.0805385e+10  0.5            1421300        0.92116425     17572.169      35144.258      1.9044974    
   2837800   125586.03      7.8062855     -4533475.6      0.055370245    372476.37     -4160999.2      2210.7862      2210.7862      2210.7862      1394.6069      3605.3931      1394.6069      3605.3931      1394.6069      3605.3931      1.0805385e+10  0.5            1421400        0.92669634     18076.668      36153.571      1.8986015    
   2838000   116740.4       7.6560749     -4531187.7      0.055370245    346241.05     -4184946.6      2210.7862      2210.7862      2210.7862      1394.6069      3605.3931      1394.6069      3605.3931      1394.6069      3605.3931      1.0805385e+10  0.5            1421500        0.93236011     17656.019      35312.181      1.8930017    
   2838200   117704.64      7.674581      -4528876.2      0.055370245    349100.89     -4179775.3      2210.7862      2210.7862      2210.7862      1394.6069      3605.3931      1394.6069      3605.3931      1394.6069      3605.3931      1.0805385e+10  0.5            1421600        0.93795099     17886.243      35772.205      1.8872068    
   2838400   123603.85      7.7271142     -4526520.6      0.055370245    366597.4      -4159923.2      2210.7862      2210.7862      2210.7862      1394.6069      3605.3931      1394.6069      3605.3931      1394.6069      3605.3931      1.0805385e+10  0.5            1421700        0.94343088     18248.668      36497.309      1.8812165    
   2838600   125182.45      7.6933112     -4524151.5      0.055370245    371279.39     -4152872.1      2210.7862      2210.7862      2210.7862      1394.6069      3605.3931      1394.6069      3605.3931      1394.6069      3605.3931      1.0805385e+10  0.5            1421800        0.94911686     17587.136      35174.297      1.8756398    
   2838800   125342.3       7.6794421     -4521833.5      0.055370245    371753.47     -4150080        2210.7862      2210.7862      2210.7862      1394.6069      3605.3931      1394.6069      3605.3931      1394.6069      3605.3931      1.0805385e+10  0.5            1421900        0.9546546      18057.791      36115.399      1.8697714    
   2839000   126471.48      7.6620138     -4519630.2      0.055370245    375102.53     -4144527.6      2210.7862      2210.7862      2210.7862      1394.6069      3605.3931      1394.6069      3605.3931      1394.6069      3605.3931      1.0805385e+10  0.5            1422000        0.96030752     17689.835      35379.376      1.8641308    
   2839200   130502.07      7.6812664     -4517591.1      0.055370245    387056.89     -4130534.2      2210.7862      2210.7862      2210.7862      1394.6069      3605.3931      1394.6069      3605.3931      1394.6069      3605.3931      1.0805385e+10  0.5            1422100        0.96593908     17757.164      35514.863      1.8584482    
   2839400   130116.91      7.6250511     -4515756.2      0.055370245    385914.53     -4129841.7      2210.7862      2210.7862      2210.7862      1394.6069      3605.3931      1394.6069      3605.3931      1394.6069      3605.3931      1.0805385e+10  0.5            1422200        0.97147808     18053.921      36107.92       1.8525899    
   2839600   123400.92      7.4795135     -4514193.3      0.055370245    365995.54     -4148197.7      2210.7862      2210.7862      2210.7862      1394.6069      3605.3931      1394.6069      3605.3931      1394.6069      3605.3931      1.0805385e+10  0.5            1422300        0.97732206     17111.544      34222.719      1.8473122    
   2839800   124156.65      7.4483043     -4514853.1      0.055370245    368236.94     -4146616.1      2210.7862      2210.7862      2210.7862      1394.6069      3605.3931      1394.6069      3605.3931      1394.6069      3605.3931      1.0805385e+10  0.5            1422400        0.98331977     16673.083      33346.55       1.8423158    
   2840000   131722.95      7.4984775     -4513865.3      0.055370245    390677.89     -4123187.4      2210.7862      2210.7862      2210.7862      1394.6069      3605.3931      1394.6069      3605.3931      1394.6069      3605.3931      1.0805385e+10  0.5            1422500        0.98906633     17401.421      34802.413      1.8368417    
   2840200   131272.98      7.4224006     -4513102        0.055370245    389343.32     -4123758.7      2210.7862      2210.7862      2210.7862      1394.6069      3605.3931      1394.6069      3605.3931      1394.6069      3605.3931      1.0805385e+10  0.5            1422600        0.9946675      17853.642      35707.1        1.8310966    
   2840400   129399.78      7.3038778     -4505164.5      0.055370245    383787.59     -4121376.9      2210.7862      2210.7862      2210.7862      1394.6069      3605.3931      1394.6069      3605.3931      1394.6069      3605.3931      1.0805385e+10  0.5            1422700        1.0002697      17850.121      35700.796      1.8253547    
   2840600   130627.74      7.2390767     -4506697.2      0.055370245    387429.59     -4119267.6      2210.7862      2210.7862      2210.7862      1394.6069      3605.3931      1394.6069      3605.3931      1394.6069      3605.3931      1.0805385e+10  0.5            1422800        1.0059672      17551.641      35102.844      1.8197872    
   2840800   137561.71      7.225459      -4504595.9      0.055370245    407995.1      -4096600.8      2210.7862      2210.7862      2210.7862      1394.6069      3605.3931      1394.6069      3605.3931      1394.6069      3605.3931      1.0805385e+10  0.5            1422900        1.0115838      17804.515      35609.232      1.8140729    
   2841000   137185.63      7.098547      -4519223.8      0.055370245    406879.68     -4112344.1      2210.7862      2210.7862      2210.7862      1394.6069      3605.3931      1394.6069      3605.3931      1394.6069      3605.3931      1.0805385e+10  0.5            1423000        1.0171632      17923.129      35846.553      1.8082936    
   2841200   129323.17      6.9062588     -4526889        0.055370245    383560.37     -4143328.6      2210.7862      2210.7862      2210.7862      1394.6069      3605.3931      1394.6069      3605.3931      1394.6069      3605.3931      1.0805385e+10  0.5            1423100        1.0229505      17279.101      34558.155      1.8028832    
   2841400   130635.71      6.769231      -4528749.2      0.055370245    387453.24     -4141296        2210.7862      2210.7862      2210.7862      1394.6069      3605.3931      1394.6069      3605.3931      1394.6069      3605.3931      1.0805385e+10  0.5            1423200        1.0285635      17815.966      35631.766      1.797164     
   2841600   135047.17      6.6583559     -4528670.7      0.055370245    400537.2      -4128133.5      2210.7862      2210.7862      2210.7862      1394.6069      3605.3931      1394.6069      3605.3931      1394.6069      3605.3931      1.0805385e+10  0.5            1423300        1.0342985      17436.831      34873.918      1.791657     
   2841800   138065.51      6.5438767     -4528469.2      0.055370245    409489.31     -4118979.9      2210.7862      2210.7862      2210.7862      1394.6069      3605.3931      1394.6069      3605.3931      1394.6069      3605.3931      1.0805385e+10  0.5            1423400        1.0399111      17816.794      35633.404      1.7859377    
   2842000   137816.13      6.3716784     -4528098        0.055370245    408749.7      -4119348.3      2210.7862      2210.7862      2210.7862      1394.6069      3605.3931      1394.6069      3605.3931      1394.6069      3605.3931      1.0805385e+10  0.5            1423500        1.0455939      17596.944      35193.894      1.780339     
   2842200   133216.25      6.1556425     -4542315.3      0.055370245    395106.89     -4147208.4      2210.7862      2210.7862      2210.7862      1394.6069      3605.3931      1394.6069      3605.3931      1394.6069      3605.3931      1.0805385e+10  0.5            1423600        1.0513968      17232.704      34465.152      1.7749423    
   2842400   131937.81      6.0083756     -4549027.4      0.055370245    391315.13     -4157712.3      2210.7862      2210.7862      2210.7862      1394.6069      3605.3931      1394.6069      3605.3931      1394.6069      3605.3931      1.0805385e+10  0.5            1423700        1.0570355      17734.506      35469.2        1.7692664    
   2842600   140819.51      5.9730156     -4548217.5      0.055370245    417657.42     -4130560.1      2210.7862      2210.7862      2210.7862      1394.6069      3605.3931      1394.6069      3605.3931      1394.6069      3605.3931      1.0805385e+10  0.5            1423800        1.0626289      17878.37       35756.728      1.7635152    
   2842800   142253.46      5.8206331     -4554596.3      0.055370245    421910.4      -4132685.9      2210.7862      2210.7862      2210.7862      1394.6069      3605.3931      1394.6069      3605.3931      1394.6069      3605.3931      1.0805385e+10  0.5            1423900        1.0684022      17321.104      34642.394      1.7580621    
   2843000   139257.67      5.6375536     -4553074.8      0.055370245    413025.15     -4140049.6      2210.7862      2210.7862      2210.7862      1394.6069      3605.3931      1394.6069      3605.3931      1394.6069      3605.3931      1.0805385e+10  0.5            1424000        1.0742282      17164.609      34328.853      1.7526915    
   2843200   137457.97      5.4935729     -4551831.6      0.055370245    407687.42     -4144144.1      2210.7862      2210.7862      2210.7862      1394.6069      3605.3931      1394.6069      3605.3931      1394.6069      3605.3931      1.0805385e+10  0.5            1424100        1.0802952      16482.358      32965.032      1.747706     
   2843400   145110.86      5.4399068     -4550518.1      0.055370245    430385.18     -4120132.9      2210.7862      2210.7862      2210.7862      1394.6069      3605.3931      1394.6069      3605.3931      1394.6069      3605.3931      1.0805385e+10  0.5            1424200        1.0860817      17281.744      34563.261      1.7422593    
   2843600   147722.75      5.3223755     -4549139.1      0.055370245    438131.78     -4111007.3      2210.7862      2210.7862      2210.7862      1394.6069      3605.3931      1394.6069      3605.3931      1394.6069      3605.3931      1.0805385e+10  0.5            1424300        1.0917626      17603.068      35206.501      1.7366408    
   2843800   141904.63      5.1266715     -4555153.2      0.055370245    420875.8      -4134277.4      2210.7862      2210.7862      2210.7862      1394.6069      3605.3931      1394.6069      3605.3931      1394.6069      3605.3931      1.0805385e+10  0.5            1424400        1.0974512      17578.801      35157.331      1.7310346    
   2844000   139945.02      4.9370553     -4553893.1      0.055370245    415063.77     -4138829.4      2210.7862      2210.7862      2210.7862      1394.6069      3605.3931      1394.6069      3605.3931      1394.6069      3605.3931      1.0805385e+10  0.5            1424500        1.1031146      17657.403      35241.024      1.7254061    
   2844200   147539.51      4.8701868     -4552737.8      0.055370245    437588.33     -4115149.5      2210.7862      2210.7862      2210.7862      1394.6069      3605.3931      1394.6069      3605.3931      1394.6069      3605.3931      1.0805385e+10  0.5            1424600        1.1089069      17264.26       34599.197      1.7199405    
   2844400   151011.91      4.7502178     -4551693.7      0.055370245    447887.14     -4103806.5      2210.7862      2210.7862      2210.7862      1394.6069      3605.3931      1394.6069      3605.3931      1394.6069      3605.3931      1.0805385e+10  0.5            1424700        1.1145293      17786.059      35572.422      1.7142283    
   2844600   146939.76      4.5308503     -4550768.7      0.055370245    435809.5      -4114959.2      2210.7862      2210.7862      2210.7862      1394.6069      3605.3931      1394.6069      3605.3931      1394.6069      3605.3931      1.0805385e+10  0.5            1424800        1.1202492      17482.67       34964.894      1.7086662    
   2844800   143775.73      4.3402706     -4542656.3      0.055370245    426425.3      -4116231        2210.7862      2210.7862      2210.7862      1394.6069      3605.3931      1394.6069      3605.3931      1394.6069      3605.3931      1.0805385e+10  0.5            1424900        1.1258903      17726.876      35453.607      1.7029831    
   2845000   147441.75      4.1712909     -4549502.9      0.055370245    437298.37     -4112204.5      2210.7862      2210.7862      2210.7862      1394.6069      3605.3931      1394.6069      3605.3931      1394.6069      3605.3931      1.0805385e+10  0.5            1425000        1.1316474      17370.037      34740.642      1.6974741    
   2845200   154102.54      4.0445082     -4549110.7      0.055370245    457053.66     -4092057.1      2210.7862      2210.7862      2210.7862      1394.6069      3605.3931      1394.6069      3605.3931      1394.6069      3605.3931      1.0805385e+10  0.5            1425100        1.1373058      17672.94       35345.256      1.6918163    
   2845400   151302.44      3.8256887     -4548847.5      0.055370245    448748.83     -4100098.6      2210.7862      2210.7862      2210.7862      1394.6069      3605.3931      1394.6069      3605.3931      1394.6069      3605.3931      1.0805385e+10  0.5            1425200        1.1430562      17389.78       34779.887      1.686294     
   2845600   143947.36      3.5135296     -4549089        0.055370245    426934.33     -4122154.6      2210.7862      2210.7862      2210.7862      1394.6069      3605.3931      1394.6069      3605.3931      1394.6069      3605.3931      1.0805385e+10  0.5            1425300        1.148644       17896.134      35792.55       1.6805316    
   2845800   148889.8       3.3777298     -4556478.2      0.055370245    441593.15     -4114885.1      2210.7862      2210.7862      2210.7862      1394.6069      3605.3931      1394.6069      3605.3931      1394.6069      3605.3931      1.0805385e+10  0.5            1425400        1.1543714      17460.07       34920.017      1.6749732    
   2846000   158627.32      3.304148      -4556576.3      0.055370245    470473.71     -4086102.6      2210.7862      2210.7862      2210.7862      1394.6069      3605.3931      1394.6069      3605.3931      1394.6069      3605.3931      1.0805385e+10  0.5            1425500        1.1600348      17657.185      35314.164      1.6693214    
   2846200   152434.64      3.028957      -4556694.2      0.055370245    452106.82     -4104587.4      2210.7862      2210.7862      2210.7862      1394.6069      3605.3931      1394.6069      3605.3931      1394.6069      3605.3931      1.0805385e+10  0.5            1425600        1.1657871      17384.212      34768.363      1.6637964    
   2846400   148051.02      2.7953601     -4554912.1      0.055370245    439105.41     -4115806.7      2210.7862      2210.7862      2210.7862      1394.6069      3605.3931      1394.6069      3605.3931      1394.6069      3605.3931      1.0805385e+10  0.5            1425700        1.1714354      17704.828      35410.207      1.6581214    
   2846600   153330.73      2.6468972     -4554996.1      0.055370245    454764.54     -4100231.6      2210.7862      2210.7862      2210.7862      1394.6069      3605.3931      1394.6069      3605.3931      1394.6069      3605.3931      1.0805385e+10  0.5            1425800        1.177106       17634.545      35268.741      1.6524786    
   2846800   159131.62      2.4792442     -4554974.8      0.055370245    471969.43     -4083005.3      2210.7862      2210.7862      2210.7862      1394.6069      3605.3931      1394.6069      3605.3931      1394.6069      3605.3931      1.0805385e+10  0.5            1425900        1.183302       16139.473      32279.14       1.647567     
   2847000   156568.77      2.2551547     -4552894.3      0.055370245    464368.26     -4088526.1      2210.7862      2210.7862      2210.7862      1394.6069      3605.3931      1394.6069      3605.3931      1394.6069      3605.3931      1.0805385e+10  0.5            1426000        1.1888954      17878.377      35756.561      1.6418271    
   2847200   152940.61      2.0256652     -4552545.8      0.055370245    453607.47     -4098938.3      2210.7862      2210.7862      2210.7862      1394.6069      3605.3931      1394.6069      3605.3931      1394.6069      3605.3931      1.0805385e+10  0.5            1426100        1.1946926      17249.62       34499.021      1.6363354    
   2847400   157338.42      1.9191315     -4552030.1      0.055370245    466650.96     -4085379.2      2210.7862      2210.7862      2210.7862      1394.6069      3605.3931      1394.6069      3605.3931      1394.6069      3605.3931      1.0805385e+10  0.5            1426200        1.2002966      17844.365      35689.068      1.6305944    
   2847600   168008.85      1.8667188     -4551695        0.055370245    498298.46     -4053396.6      2210.7862      2210.7862      2210.7862      1394.6069      3605.3931      1394.6069      3605.3931      1394.6069      3605.3931      1.0805385e+10  0.5            1426300        1.2060158      17485.11       34970.103      1.6250099    
   2847800   159274.19      1.6035042     -4550781.6      0.055370245    472392.27     -4078389.4      2210.7862      2210.7862      2210.7862      1394.6069      3605.3931      1394.6069      3605.3931      1394.6069      3605.3931      1.0805385e+10  0.5            1426400        1.2116375      17788.122      35576.142      1.619294     
   2848000   154522.35      1.3676235     -4549738.7      0.055370245    458298.76     -4091439.9      2210.7862      2210.7862      2210.7862      1394.6069      3605.3931      1394.6069      3605.3931      1394.6069      3605.3931      1.0805385e+10  0.5            1426500        1.2173924      17376.533      34753.186      1.6137554    
   2848200   158855.17      1.2690457     -4541170.1      0.055370245    471149.5      -4070020.6      2210.7862      2210.7862      2210.7862      1394.6069      3605.3931      1394.6069      3605.3931      1394.6069      3605.3931      1.0805385e+10  0.5            1426600        1.223065       17628.548      35257.04       1.6081067    
   2848400   164732.1       1.219401      -4532417.1      0.055370245    488579.93     -4043837.2      2210.7862      2210.7862      2210.7862      1394.6069      3605.3931      1394.6069      3605.3931      1394.6069      3605.3931      1.0805385e+10  0.5            1426700        1.2288581      17262.052      34524.301      1.6026148    
   2848600   162783.87      1.1192135     -4515774.2      0.055370245    482801.66     -4032972.5      2210.7862      2210.7862      2210.7862      1394.6069      3605.3931      1394.6069      3605.3931      1394.6069      3605.3931      1.0805385e+10  0.5            1426800        1.2344388      17918.742      35837.451      1.5968455    
   2848800   159708.99      0.9721567     -4513844.7      0.055370245    473681.84     -4040162.9      2210.7862      2210.7862      2210.7862      1394.6069      3605.3931      1394.6069      3605.3931      1394.6069      3605.3931      1.0805385e+10  0.5            1426900        1.2401742      17435.536      34871.248      1.5912764    
   2849000   160465.66      0.88749139    -4504837.3      0.055370245    475926.06     -4028911.3      2210.7862      2210.7862      2210.7862      1394.6069      3605.3931      1394.6069      3605.3931      1394.6069      3605.3931      1.0805385e+10  0.5            1427000        1.2458093      17746.084      35491.929      1.5855781    
   2849200   162600.71      0.83497431    -4488422.1      0.055370245    482258.42     -4006163.7      2210.7862      2210.7862      2210.7862      1394.6069      3605.3931      1394.6069      3605.3931      1394.6069      3605.3931      1.0805385e+10  0.5            1427100        1.2515788      17332.311      34664.797      1.58005      
   2849400   166053.97      0.81165917    -4479373.1      0.055370245    492500.47     -3986872.7      2210.7862      2210.7862      2210.7862      1394.6069      3605.3931      1394.6069      3605.3931      1394.6069      3605.3931      1.0805385e+10  0.5            1427200        1.2571826      17845.072      35690.099      1.5743122    
   2849600   167841.89      0.76199703    -4477682.9      0.055370245    497803.27     -3979879.7      2210.7862      2210.7862      2210.7862      1394.6069      3605.3931      1394.6069      3605.3931      1394.6069      3605.3931      1.0805385e+10  0.5            1427300        1.2629691      17281.538      34562.927      1.5688029    
   2849800   164643.59      0.66521667    -4475992.9      0.055370245    488317.42     -3987675.4      2210.7862      2210.7862      2210.7862      1394.6069      3605.3931      1394.6069      3605.3931      1394.6069      3605.3931      1.0805385e+10  0.5            1427400        1.2685963      17770.938      35542.04       1.5630943    
[...]
   3494400   310.4065       1.0959266     -4574281.3      0.077363032    920.63649     -4573360.6      1977.5512      1977.5512      1977.5512      1511.2244      3488.7756      1511.2244      3488.7756      1511.2244      3488.7756      7.7336268e+09  0.5            1749700        12.23322       11696.348      23392.625      0.44807242   
   3494600   310.47881      1.0243871     -4574409.6      0.077362708    920.85097     -4573488.7      1977.554       1977.554       1977.554       1511.223       3488.777       1511.223       3488.777       1511.223       3488.777       7.7336592e+09  0.5            1749800        12.241607      11923.735      23847.31       0.4396158    
   3494800   310.29922      1.0138549     -4574520        0.077373457    920.31832     -4573599.6      1977.4624      1977.4624      1977.4624      1511.2688      3488.7312      1511.2688      3488.7312      1511.2688      3488.7312      7.7325848e+09  0.5            1749900        12.250017      11890.55       23781.17       0.4311601    
   3495000   310.11136      1.0185476     -4576517.2      0.077389152    919.76114     -4575597.4      1977.3287      1977.3287      1977.3287      1511.3357      3488.6643      1511.3357      3488.6643      1511.3357      3488.6643      7.7310166e+09  0.5            1750000        12.25867       11556.042      23112.257      0.42271285   
   3495200   310.24203      1.0366261     -4576616.5      0.077407102    920.14871     -4575696.3      1977.1758      1977.1758      1977.1758      1511.4121      3488.5879      1511.4121      3488.5879      1511.4121      3488.5879      7.7292238e+09  0.5            1750100        12.267558      11251.324      22502.582      0.41427323   
   3495400   310.55897      1.0557694     -4577082.7      0.077426929    921.08873     -4576161.6      1977.0071      1977.0071      1977.0071      1511.4965      3488.5035      1511.4965      3488.5035      1511.4965      3488.5035      7.7272445e+09  0.5            1750200        12.275981      11872.971      23745.817      0.40581762   
   3495600   310.7504       1.0469793     -4584565.9      0.077442814    921.65649     -4583644.2      1976.8719      1976.8719      1976.8719      1511.5641      3488.4359      1511.5641      3488.4359      1511.5641      3488.4359      7.7256596e+09  0.5            1750300        12.284483      11761.907      23523.893      0.39736462   
   3495800   310.61709      1.026215      -4584681.1      0.077452117    921.26109     -4583759.9      1976.7927      1976.7927      1976.7927      1511.6036      3488.3964      1511.6036      3488.3964      1511.6036      3488.3964      7.7247316e+09  0.5            1750400        12.292935      11831.644      23663.321      0.38890997   
   3496000   310.35221      0.95675036    -4584809        0.077452135    920.4755      -4583888.5      1976.7926      1976.7926      1976.7926      1511.6037      3488.3963      1511.6037      3488.3963      1511.6037      3488.3963      7.7247298e+09  0.5            1750500        12.301414      11793.269      23586.349      0.38045618   
   3496200   310.36452      1.0123425     -4584901.5      0.077476768    920.51199     -4583981        1976.583       1976.583       1976.583       1511.7085      3488.2915      1511.7085      3488.2915      1511.7085      3488.2915      7.7222738e+09  0.5            1750600        12.309853      11850.072      23700.347      0.37200111   
   3496400   310.49349      1.0311987     -4585004.2      0.077494357    920.89452     -4584083.3      1976.4335      1976.4335      1976.4335      1511.7833      3488.2167      1511.7833      3488.2167      1511.7833      3488.2167      7.7205211e+09  0.5            1750700        12.318384      11721.65       23443.226      0.36354881   
   3496600   310.62255      0.98530772    -4592499.5      0.077502485    921.27729     -4591578.2      1976.3644      1976.3644      1976.3644      1511.8178      3488.1822      1511.8178      3488.1822      1511.8178      3488.1822      7.7197114e+09  0.5            1750800        12.326795      11888.435      23776.865      0.35509294   
   3496800   310.59942      0.98569907    -4592609.3      0.077515841    921.20869     -4591688.1      1976.2509      1976.2509      1976.2509      1511.8746      3488.1254      1511.8746      3488.1254      1511.8746      3488.1254      7.7183813e+09  0.5            1750900        12.335138      11986.339      23972.75       0.34663521   
   3497000   310.54321      1.0402502     -4592703.4      0.07753981     921.04196     -4591782.4      1976.0472      1976.0472      1976.0472      1511.9764      3488.0236      1511.9764      3488.0236      1511.9764      3488.0236      7.7159954e+09  0.5            1751000        12.343575      11853.578      23707.154      0.33818019   
   3497200   310.52963      0.9455515     -4592839        0.077535412    921.00168     -4591918        1976.0846      1976.0846      1976.0846      1511.9577      3488.0423      1511.9577      3488.0423      1511.9577      3488.0423      7.716433e+09   0.5            1751100        12.352025      11833.744      23667.381      0.32972558   
   3497400   310.65194      1.0433011     -4592921.9      0.077567918    921.36446     -4592000.5      1975.8085      1975.8085      1975.8085      1512.0957      3487.9043      1512.0957      3487.9043      1512.0957      3487.9043      7.7131993e+09  0.5            1751200        12.360688      11543.387      23086.858      0.32127649   
   3497600   310.61471      0.9911692     -4593047.3      0.07757124     921.25404     -4592126        1975.7803      1975.7803      1975.7803      1512.1098      3487.8902      1512.1098      3487.8902      1512.1098      3487.8902      7.712869e+09   0.5            1751300        12.369606      11213.092      22426.297      0.31283357   
   3497800   310.46232      0.95661109    -4593167.1      0.077577728    920.80206     -4592246.3      1975.7252      1975.7252      1975.7252      1512.1374      3487.8626      1512.1374      3487.8626      1512.1374      3487.8626      7.712224e+09   0.5            1751400        12.37799       11927.285      23854.421      0.30437687   
   3498000   310.36774      1.035771      -4593254.3      0.077606464    920.52153     -4592333.8      1975.4813      1975.4813      1975.4813      1512.2593      3487.7407      1512.2593      3487.7407      1512.2593      3487.7407      7.7093684e+09  0.5            1751500        12.386462      11804.27       23608.311      0.29592235   
   3498200   310.5022       1.070918      -4601091.4      0.077632342    920.92035     -4600170.4      1975.2618      1975.2618      1975.2618      1512.3691      3487.6309      1512.3691      3487.6309      1512.3691      3487.6309      7.7067984e+09  0.5            1751600        12.395035      11663.71       23327.579      0.28747018   
   3498400   310.63607      0.9029712     -4593506.5      0.077609736    921.31738     -4592585.2      1975.4536      1975.4536      1975.4536      1512.2732      3487.7268      1512.2732      3487.7268      1512.2732      3487.7268      7.7090434e+09  0.5            1751700        12.403422      11923.978      23848.004      0.27901363   
   3498600   310.77359      0.87318762    -4601363.8      0.077623084    921.72525     -4600442.1      1975.3403      1975.3403      1975.3403      1512.3298      3487.6702      1512.3298      3487.6702      1512.3298      3487.6702      7.7077177e+09  0.5            1751800        12.411815      11915.101      23830.415      0.27055731   
   3498800   310.79905      0.97215324    -4601447.7      0.077657303    921.80076     -4600525.9      1975.0502      1975.0502      1975.0502      1512.4749      3487.5251      1512.4749      3487.5251      1512.4749      3487.5251      7.7043214e+09  0.5            1751900        12.420159      11983.989      23967.653      0.26210007   
   3499000   310.78744      1.1183321     -4601514.6      0.077700603    921.76632     -4600592.8      1974.6832      1974.6832      1974.6832      1512.6584      3487.3416      1512.6584      3487.3416      1512.6584      3487.3416      7.700028e+09   0.5            1752000        12.428711      11693.118      23386.236      0.25364721   
   3499200   310.78249      1.0813004     -4601637.2      0.077707565    921.75165     -4600715.4      1974.6242      1974.6242      1974.6242      1512.6879      3487.3121      1512.6879      3487.3121      1512.6879      3487.3121      7.6993381e+09  0.5            1752100        12.437181      11806.657      23613.624      0.2451926    
   3499400   310.67918      0.89302541    -4601801.2      0.077684738    921.44524     -4600879.7      1974.8176      1974.8176      1974.8176      1512.5912      3487.4088      1512.5912      3487.4088      1512.5912      3487.4088      7.7016005e+09  0.5            1752200        12.445623      11845.919      23691.638      0.23673743   
   3499600   310.65633      1.0502788     -4601871.1      0.077728089    921.37747     -4600949.8      1974.4504      1974.4504      1974.4504      1512.7748      3487.2252      1512.7748      3487.2252      1512.7748      3487.2252      7.6973051e+09  0.5            1752300        12.454044      11873.929      23747.847      0.22828192   
   3499800   310.5475       0.99292105    -4601999.2      0.077730195    921.05468     -4601078.2      1974.4326      1974.4326      1974.4326      1512.7837      3487.2163      1512.7837      3487.2163      1512.7837      3487.2163      7.6970965e+09  0.5            1752400        12.462923      11262.621      22525.303      0.21983451   
   3500000   310.53069      0.9768257     -4602114.9      0.077740485    921.00483     -4601193.9      1974.3455      1974.3455      1974.3455      1512.8273      3487.1727      1512.8273      3487.1727      1512.8273      3487.1727      7.6960778e+09  0.5            1752500        12.473738      9246.8804      18493.528      0.21141933   
   3500200   310.6236       1.0425131     -4602208        0.077766381    921.2804      -4601286.7      1974.1263      1974.1263      1974.1263      1512.9368      3487.0632      1512.9368      3487.0632      1512.9368      3487.0632      7.693515e+09   0.5            1752600        12.482205      11809.99       23620.102      0.20296273   
   3500400   310.52858      0.95017184    -4602344.5      0.077761941    920.99859     -4601423.5      1974.1639      1974.1639      1974.1639      1512.9181      3487.0819      1512.9181      3487.0819      1512.9181      3487.0819      7.6939543e+09  0.5            1752700        12.490777      11666.206      23332.603      0.19450773   
   3500600   310.542        1.0227743     -4602434.1      0.077790004    921.03837     -4601513.1      1973.9264      1973.9264      1973.9264      1513.0368      3486.9632      1513.0368      3486.9632      1513.0368      3486.9632      7.6911786e+09  0.5            1752800        12.499219      11845.919      23691.706      0.18605065   
   3500800   310.70442      1.0352584     -4602539.8      0.077807166    921.5201      -4601618.3      1973.7813      1973.7813      1973.7813      1513.1093      3486.8907      1513.1093      3486.8907      1513.1093      3486.8907      7.6894821e+09  0.5            1752900        12.507674      11826.443      23653.042      0.17759379   
   3501000   310.73845      0.95362631    -4602673.7      0.07780523     921.62104     -4601752        1973.7977      1973.7977      1973.7977      1513.1012      3486.8988      1513.1012      3486.8988      1513.1012      3486.8988      7.6896736e+09  0.5            1753000        12.516089      11883.807      23767.608      0.16913637   
   3501200   310.58523      1.0443006     -4602761.5      0.07783484     921.16659     -4601840.3      1973.5474      1973.5474      1973.5474      1513.2263      3486.7737      1513.2263      3486.7737      1513.2263      3486.7737      7.6867482e+09  0.5            1753100        12.524587      11767.307      23534.661      0.16068008   
   3501400   310.2337       0.95327622    -4602898        0.077829535    920.12399     -4601977.8      1973.5922      1973.5922      1973.5922      1513.2039      3486.7961      1513.2039      3486.7961      1513.2039      3486.7961      7.6872721e+09  0.5            1753200        12.533109      11734.426      23468.694      0.15222403   
   3501600   310.1586       1.0462246     -4602982.3      0.077859648    919.90127     -4602062.4      1973.3377      1973.3377      1973.3377      1513.3311      3486.6689      1513.3311      3486.6689      1513.3311      3486.6689      7.684299e+09   0.5            1753300        12.541592      11788.558      23577.115      0.14376743   
   3501800   310.23159      0.96649647    -4603112.9      0.07785759     920.11773     -4602192.7      1973.3551      1973.3551      1973.3551      1513.3224      3486.6776      1513.3224      3486.6776      1513.3224      3486.6776      7.6845021e+09  0.5            1753400        12.549991      11906.263      23812.736      0.1353099    
   3502000   310.34643      0.99908298    -4603212.3      0.077877149    920.45833     -4602291.9      1973.1899      1973.1899      1973.1899      1513.4051      3486.5949      1513.4051      3486.5949      1513.4051      3486.5949      7.6825721e+09  0.5            1753500        12.558622      11586.522      23172.936      0.12685479   
   3502200   310.37998      1.0486805     -4603306.1      0.077900188    920.55786     -4602385.5      1972.9954      1972.9954      1972.9954      1513.5023      3486.4977      1513.5023      3486.4977      1513.5023      3486.4977      7.6803001e+09  0.5            1753600        12.567515      11244.306      22488.665      0.11840191   
   3502400   310.21719      0.96014798    -4603438        0.077896546    920.07503     -4602517.9      1973.0261      1973.0261      1973.0261      1513.4869      3486.5131      1513.4869      3486.5131      1513.4869      3486.5131      7.6806591e+09  0.5            1753700        12.576026      11748.867      23497.715      0.10994511   
   3502600   310.18789      0.94113666    -4603548.1      0.077907489    919.98812     -4602628.1      1972.9337      1972.9337      1972.9337      1513.5331      3486.4669      1513.5331      3486.4669      1513.5331      3486.4669      7.6795802e+09  0.5            1753800        12.584417      11918.11       23836.047      0.10148725   
   3502800   310.4457       0.99714421    -4603637.8      0.077933934    920.75277     -4602717.1      1972.7105      1972.7105      1972.7105      1513.6447      3486.3553      1513.6447      3486.3553      1513.6447      3486.3553      7.6769744e+09  0.5            1753900        12.592834      11881.202      23762.528      0.093029682  
   3503000   310.58736      1.0764333     -4603723        0.077963213    921.17292     -4602801.8      1972.4636      1972.4636      1972.4636      1513.7682      3486.2318      1513.7682      3486.2318      1513.7682      3486.2318      7.6740913e+09  0.5            1754000        12.601296      11817.673      23635.2        0.08457247   
   3503200   310.24406      0.91469518    -4603876.6      0.077944588    920.15472     -4602956.4      1972.6206      1972.6206      1972.6206      1513.6897      3486.3103      1513.6897      3486.3103      1513.6897      3486.3103      7.675925e+09   0.5            1754100        12.609722      11867.204      23734.697      0.076115037  
   3503400   309.97442      1.0834045     -4603937.9      0.077989164    919.35501     -4603018.5      1972.2448      1972.2448      1972.2448      1513.8776      3486.1224      1513.8776      3486.1224      1513.8776      3486.1224      7.6715378e+09  0.5            1754200        12.618282      11682.384      23364.576      0.067658362  
   3503600   309.98023      0.95774489    -4604078.5      0.07797872     919.37221     -4603159.1      1972.3328      1972.3328      1972.3328      1513.8336      3486.1664      1513.8336      3486.1664      1513.8336      3486.1664      7.6725652e+09  0.5            1754300        12.626747      11813.677      23627.549      0.059201101  
   3503800   310.17268      0.98028588    -4604178.9      0.077996244    919.943       -4603258.9      1972.1851      1972.1851      1972.1851      1513.9075      3486.0925      1513.9075      3486.0925      1513.9075      3486.0925      7.6708414e+09  0.5            1754400        12.635153      11896.354      23792.56       0.050743595  
   3504000   310.1421       1.0966665     -4604251.1      0.078031697    919.8523      -4603331.3      1971.8863      1971.8863      1971.8863      1514.0568      3485.9432      1514.0568      3485.9432      1514.0568      3485.9432      7.6673562e+09  0.5            1754500        12.643655      11761.082      23522.358      0.04228652   
   3504200   309.92616      0.91102519    -4604406.9      0.078009373    919.21186     -4603487.6      1972.0744      1972.0744      1972.0744      1513.9628      3486.0372      1513.9628      3486.0372      1513.9628      3486.0372      7.6695503e+09  0.5            1754600        12.652141      11784.84       23569.374      0.03382926   
   3504400   310.00072      0.90209087    -4604511.8      0.078022224    919.43301     -4603592.3      1971.9661      1971.9661      1971.9661      1514.0169      3485.9831      1514.0169      3485.9831      1514.0169      3485.9831      7.6682871e+09  0.5            1754700        12.661196      11043.064      22086.342      0.025373144  
   3504600   310.23294      1.0379928     -4604578.5      0.078063432    920.12173     -4603658.3      1971.6191      1971.6191      1971.6191      1514.1904      3485.8096      1514.1904      3485.8096      1514.1904      3485.8096      7.6642392e+09  0.5            1754800        12.67008       11256.122      22512.126      0.016915998  
   3504800   310.20305      1.0762891     -4604672.2      0.078084373    920.03307     -4603752.2      1971.4428      1971.4428      1971.4428      1514.2786      3485.7214      1514.2786      3485.7214      1514.2786      3485.7214      7.6621838e+09  0.5            1754900        12.678501      11875.588      23751.144      0.0084579742 
   3505000   309.93091      0.93746209    -4604815.5      0.078070783    919.22594     -4603896.2      1971.5572      1971.5572      1971.5572      1514.2214      3485.7786      1514.2214      3485.7786      1514.2214      3485.7786      7.6635176e+09  0.5            1755000        12.686885      11927.659      23822.694      0            
Loop time of 12.6869 on 4 procs for 300000 steps with 996 atoms

Performance: 1021.523 ns/day, 0.023 hours/ns, 23646.358 timesteps/s
99.6% CPU use with 4 MPI tasks x no OpenMP threads

MPI task timing breakdown:
Section |  min time  |  avg time  |  max time  |%varavg| %total
---------------------------------------------------------------
Pair    | 1.5146     | 1.7572     | 2.3459     |  25.8 | 13.85
Neigh   | 0.032923   | 0.035607   | 0.04187    |   1.9 |  0.28
Comm    | 3.927      | 4.4089     | 4.5899     |  13.3 | 34.75
Output  | 0.054272   | 0.069051   | 0.11177    |   9.4 |  0.54
Modify  | 5.3481     | 5.4035     | 5.5267     |   3.1 | 42.59
Other   |            | 1.013      |            |       |  7.98

Nlocal:            249 ave         290 max         228 min
Histogram: 1 2 0 0 0 0 0 0 0 1
Nghost:          204.5 ave         222 max         183 min
Histogram: 1 0 0 0 0 1 1 0 0 1
Neighs:         150.25 ave         208 max         125 min
Histogram: 2 1 0 0 0 0 0 0 0 1

Total # of neighbors = 601
Ave neighs/atom = 0.60341365
Neighbor list builds = 634
Dangerous builds = 59

# run_style
run_style verlet

# write restart
write_restart ${write_res}
write_restart ./pgnpmf/37/equpmf5.res
System init for write_restart ...
Generated 0 of 1 mixed pair_coeff terms from geometric mixing rule

Total wall time: 0:00:23
