LAMMPS (23 Jun 2022 - Update 1)
OMP_NUM_THREADS environment is not set. Defaulting to 1 thread. (src/comm.cpp:98)
  using 1 OpenMP thread(s) per MPI task
# Read restart
read_restart ${read_res}
read_restart ./pgnpmf/37/equpmf68.res
Reading restart file ...
  restart file = 23 Jun 2022, LAMMPS = 23 Jun 2022
  restoring atom style atomic from restart
  orthogonal box = (2145.439 2145.439 2145.439) to (2854.561 2854.561 2854.561)
  2 by 1 by 2 MPI processor grid
  restoring pair style table from restart
  996 atoms
  read_restart CPU = 0.011 seconds

# Settings

pair_style table spline 9941

pair_coeff 1 1 ./pgnpmf/N20.txt DE_GNP 75.6
pair_coeff 2 2 ./pgnpmf/N100.txt DE_GNP 115.92
WARNING: 3 of 9941 force values in table DE_GNP are inconsistent with -dE/dr.
WARNING:  Should only be flagged at inflection points (src/pair_table.cpp:463)
pair_coeff 1 2 ./pgnpmf/mixed_potential.txt DE_GNP 95.66
WARNING: 1562 of 9941 force values in table DE_GNP are inconsistent with -dE/dr.
WARNING:  Should only be flagged at inflection points (src/pair_table.cpp:463)

#Neigh_list Calc Frequency

neigh_modify delay 0 every 1 check yes

# Saving Frequency (50 frames)

variable ts_save equal ${steps_equ}
variable ts_save equal 5000

# Dump
#dump 1 all custom ${ts_save} ./pgnpmf/${folder}/equilibration/trajectory/trajectory_${usic}_${trial}.equ.custom type x y z ix iy iz
#dump_modify 1 first no sort id
dump 2 all cfg 50000 ./pgnpmf/${folder}/equilibration/trajectory/dumpgen.tens_*.cfg mass type xs ys zs fx fy fz
dump 2 all cfg 50000 ./pgnpmf/37/equilibration/trajectory/dumpgen.tens_*.cfg mass type xs ys zs fx fy fz
dump_modify 2 element N20 N100

# thermo_style
thermo_style custom step temp press pe density ke etotal lx ly lz xlo xhi ylo yhi zlo zhi vol dt time cpu tpcpu spcpu cpuremain

# run info
timestep ${ts}
timestep 0.1
thermo 200

# fix

fix 1 all momentum 1000 linear 1 1 1 angular
variable T equal ${temp}
variable T equal 300
fix 2 all nvt temp ${T} 370000 100.0
fix 2 all nvt temp 300 370000 100.0

run 100000
Generated 0 of 1 mixed pair_coeff terms from geometric mixing rule
Unused restart file global fix info:
  fix style: npt, fix ID: 5
Neighbor list info ...
  update every 1 steps, delay 0 steps, check yes
  max neighbors/atom: 2000, page size: 100000
  master list distance cutoff = 117.92
  ghost atom cutoff = 117.92
  binsize = 58.96, bins = 13 13 13
  1 neighbor lists, perpetual/occasional/extra = 1 0 0
  (1) pair table, perpetual
      attributes: half, newton on
      pair build: half/bin/atomonly/newton
      stencil: half/bin/3d
      bin: standard
Per MPI rank memory allocation (min/avg/max) = 3.081 | 3.082 | 3.082 Mbytes
   Step          Temp          Press          PotEng        Density         KinEng         TotEng           Lx             Ly             Lz            Xlo            Xhi            Ylo            Yhi            Zlo            Zhi           Volume           Dt            Time           CPU           T/CPU          S/CPU         CPULeft    
  47605000   305.17421     -2.4143906     -43221396       1.6778521      905.11802     -43220491       709.12207      709.12207      709.12207      2145.439       2854.561       2145.439       2854.561       2145.439       2854.561       3.5658495e+08  0.1            15965000       0              0              0              0            
  47605200   331.61095     -2.5008958     -43221460       1.6778521      983.52691     -43220477       709.12207      709.12207      709.12207      2145.439       2854.561       2145.439       2854.561       2145.439       2854.561       3.5658495e+08  0.1            15965020       0.014370161    1391.6972      13916.068      7.1719923    
  47605400   371.42401     -2.5867757     -43221528       1.6778521      1101.6087     -43220426       709.12207      709.12207      709.12207      2145.439       2854.561       2145.439       2854.561       2145.439       2854.561       3.5658495e+08  0.1            15965040       0.028931942    1373.4656      13734.736      7.2069905    
  47605600   414.49253     -2.6769037     -43221599       1.6778521      1229.3459     -43220370       709.12207      709.12207      709.12207      2145.439       2854.561       2145.439       2854.561       2145.439       2854.561       3.5658495e+08  0.1            15965060       0.042927137    1429.0737      14290.723      7.1119696    
  47605800   466.83308     -2.7697793     -43221675       1.6778521      1384.583      -43220290       709.12207      709.12207      709.12207      2145.439       2854.561       2145.439       2854.561       2145.439       2854.561       3.5658495e+08  0.1            15965080       0.05657751     1465.1592      14651.66       7.0158901    
  47606000   527.97059     -2.8668511     -43221755       1.6778521      1565.9112     -43220189       709.12207      709.12207      709.12207      2145.439       2854.561       2145.439       2854.561       2145.439       2854.561       3.5658495e+08  0.1            15965100       0.070319039    1455.4406      14554.309      6.9618187    
  47606200   598.13362     -2.9692645     -43221840       1.6778521      1774.0081     -43220066       709.12207      709.12207      709.12207      2145.439       2854.561       2145.439       2854.561       2145.439       2854.561       3.5658495e+08  0.1            15965120       0.084059917    1455.5124      14555.219      6.9211164    
  47606400   678.29799     -3.0781588     -43221931       1.6778521      2011.7681     -43219919       709.12207      709.12207      709.12207      2145.439       2854.561       2145.439       2854.561       2145.439       2854.561       3.5658495e+08  0.1            15965140       0.097700392    1466.2234      14662.269      6.8810544    
  47606600   769.5502      -3.1948412     -43222027       1.6778521      2282.4136     -43219745       709.12207      709.12207      709.12207      2145.439       2854.561       2145.439       2854.561       2145.439       2854.561       3.5658495e+08  0.1            15965160       0.11136877     1463.2371      14632.4        6.8493138    
  47606800   873.16682     -3.3210123     -43222130       1.6778521      2589.7307     -43219540       709.12207      709.12207      709.12207      2145.439       2854.561       2145.439       2854.561       2145.439       2854.561       3.5658495e+08  0.1            15965180       0.12503663     1463.2883      14632.872      6.8215722    
  47607000   990.54782     -3.4588349     -43222239       1.6778521      2937.8717     -43219301       709.12207      709.12207      709.12207      2145.439       2854.561       2145.439       2854.561       2145.439       2854.561       3.5658495e+08  0.1            15965200       0.13911946     1420.1613      14201.467      6.8169722    
  47607200   1123.4263     -3.6107776     -43222355       1.6778521      3331.9767     -43219023       709.12207      709.12207      709.12207      2145.439       2854.561       2145.439       2854.561       2145.439       2854.561       3.5658495e+08  0.1            15965220       0.15283825     1457.8723      14578.782      6.7944488    
  47607400   1273.6155     -3.7788746     -43222479       1.6778521      3777.4239     -43218701       709.12207      709.12207      709.12207      2145.439       2854.561       2145.439       2854.561       2145.439       2854.561       3.5658495e+08  0.1            15965240       0.1664797      1466.1138      14661.181      6.7702608    
  47607600   1443.178      -3.9644632     -43222610       1.6778521      4280.3302     -43218329       709.12207      709.12207      709.12207      2145.439       2854.561       2145.439       2854.561       2145.439       2854.561       3.5658495e+08  0.1            15965260       0.18009555     1468.8729      14688.74       6.7467377    
  47607800   1634.4087     -4.1687765     -43222749       1.6778521      4847.5027     -43217902       709.12207      709.12207      709.12207      2145.439       2854.561       2145.439       2854.561       2145.439       2854.561       3.5658495e+08  0.1            15965280       0.19368159     1472.1019      14721.068      6.7235895    
  47608000   1849.7961     -4.3931275     -43222897       1.6778521      5486.3213     -43217411       709.12207      709.12207      709.12207      2145.439       2854.561       2145.439       2854.561       2145.439       2854.561       3.5658495e+08  0.1            15965300       0.20737531     1460.5187      14604.992      6.705211     
  47608200   2092.243      -4.638902      -43223054       1.6778521      6205.396      -43216849       709.12207      709.12207      709.12207      2145.439       2854.561       2145.439       2854.561       2145.439       2854.561       3.5658495e+08  0.1            15965320       0.22136567     1429.561       14295.767      6.6963742    
  47608400   2364.8183     -4.9072588     -43223221       1.6778521      7013.8287     -43216207       709.12207      709.12207      709.12207      2145.439       2854.561       2145.439       2854.561       2145.439       2854.561       3.5658495e+08  0.1            15965340       0.23538676     1426.4273      14264.281      6.6878104    
  47608600   2670.9306     -4.820747      -43216020       1.6778521      7921.7292     -43208098       709.12207      709.12207      709.12207      2145.439       2854.561       2145.439       2854.561       2145.439       2854.561       3.5658495e+08  0.1            15965360       0.24912344     1455.9488      14559.493      6.6710281    
  47608800   3014.3117     -5.0195464     -43215839       1.6778521      8940.1652     -43206899       709.12207      709.12207      709.12207      2145.439       2854.561       2145.439       2854.561       2145.439       2854.561       3.5658495e+08  0.1            15965380       0.26280689     1461.6152      14616.153      6.6532161    
  47609000   3398.9475     -5.3508115     -43216038       1.6778521      10080.959     -43205957       709.12207      709.12207      709.12207      2145.439       2854.561       2145.439       2854.561       2145.439       2854.561       3.5658495e+08  0.1            15965400       0.27650842     1459.69        14596.766      6.6362582    
  47609200   3829.2711     -5.696428      -43216249       1.6778521      11357.258     -43204892       709.12207      709.12207      709.12207      2145.439       2854.561       2145.439       2854.561       2145.439       2854.561       3.5658495e+08  0.1            15965420       0.29023682     1456.8404      14568.522      6.620212     
  47609400   4309.9217     -6.0478181     -43216472       1.6778521      12782.822     -43203689       709.12207      709.12207      709.12207      2145.439       2854.561       2145.439       2854.561       2145.439       2854.561       3.5658495e+08  0.1            15965440       0.30394431     1459.059       14590.592      6.603925     
  47609600   4845.8602     -6.3934369     -43216709       1.6778521      14372.366     -43202336       709.12207      709.12207      709.12207      2145.439       2854.561       2145.439       2854.561       2145.439       2854.561       3.5658495e+08  0.1            15965460       0.31763259     1461.1047      14611.041      6.5874659    
  47609800   5442.3024     -6.7227976     -43216958       1.6778521      16141.357     -43200817       709.12207      709.12207      709.12207      2145.439       2854.561       2145.439       2854.561       2145.439       2854.561       3.5658495e+08  0.1            15965480       0.33154596     1437.4641      14374.678      6.5757022    
  47610000   6104.6132     -7.0255571     -43217222       1.6778521      18105.709     -43199117       709.12207      709.12207      709.12207      2145.439       2854.561       2145.439       2854.561       2145.439       2854.561       3.5658495e+08  0.1            15965500       0.34542208     1441.3179      14413.053      6.5630631    
  47610200   6838.4177     -7.2930323     -43217501       1.6778521      20282.104     -43197219       709.12207      709.12207      709.12207      2145.439       2854.561       2145.439       2854.561       2145.439       2854.561       3.5658495e+08  0.1            15965520       0.35918388     1453.3055      14533.149      6.5482353    
  47610400   7649.2541     -7.5202922     -43217794       1.6778521      22686.969     -43195107       709.12207      709.12207      709.12207      2145.439       2854.561       2145.439       2854.561       2145.439       2854.561       3.5658495e+08  0.1            15965540       0.37288932     1459.2741      14592.774      6.5325045    
  47610600   8542.6286     -7.5397013     -43216208       1.6778521      25336.634     -43190872       709.12207      709.12207      709.12207      2145.439       2854.561       2145.439       2854.561       2145.439       2854.561       3.5658495e+08  0.1            15965560       0.38660154     1458.5519      14585.516      6.5170318    
  47610800   9523.8642     -7.8089035     -43218428       1.6778521      28246.886     -43190181       709.12207      709.12207      709.12207      2145.439       2854.561       2145.439       2854.561       2145.439       2854.561       3.5658495e+08  0.1            15965580       0.40031723     1458.1863      14581.866      6.5017367    
  47611000   10597.682     -7.9925158     -43220665       1.6778521      31431.729     -43189233       709.12207      709.12207      709.12207      2145.439       2854.561       2145.439       2854.561       2145.439       2854.561       3.5658495e+08  0.1            15965600       0.41403687     1457.7528      14577.393      6.4866144    
  47611200   11768.354     -7.9296183     -43221025       1.6778521      34903.831     -43186121       709.12207      709.12207      709.12207      2145.439       2854.561       2145.439       2854.561       2145.439       2854.561       3.5658495e+08  0.1            15965620       0.42783466     1449.5166      14495.258      6.4727561    
  47611400   13038.772     -7.8333077     -43221402       1.6778521      38671.771     -43182730       709.12207      709.12207      709.12207      2145.439       2854.561       2145.439       2854.561       2145.439       2854.561       3.5658495e+08  0.1            15965640       0.44186342     1425.6421      14256.448      6.4622827    
  47611600   14410.503     -7.7884328     -43221798       1.6778521      42740.198     -43179058       709.12207      709.12207      709.12207      2145.439       2854.561       2145.439       2854.561       2145.439       2854.561       3.5658495e+08  0.1            15965660       0.4555764      1458.4778      14584.788      6.4471249    
  47611800   15883.281     -7.4908621     -43214834       1.6778521      47108.319     -43167726       709.12207      709.12207      709.12207      2145.439       2854.561       2145.439       2854.561       2145.439       2854.561       3.5658495e+08  0.1            15965680       0.46933922     1453.1816      14531.767      6.4327374    
  47612000   17454.52      -7.7337832     -43215267       1.6778521      51768.465     -43163499       709.12207      709.12207      709.12207      2145.439       2854.561       2145.439       2854.561       2145.439       2854.561       3.5658495e+08  0.1            15965700       0.48307737     1455.8043      14557.946      6.4180587    
  47612200   19118.904     -8.0372987     -43215350       1.6778521      56704.873     -43158645       709.12207      709.12207      709.12207      2145.439       2854.561       2145.439       2854.561       2145.439       2854.561       3.5658495e+08  0.1            15965720       0.49689879     1447.0133      14470.26       6.4045032    
  47612400   20868.081     -8.5477521     -43214294       1.6778521      61892.766     -43152401       709.12207      709.12207      709.12207      2145.439       2854.561       2145.439       2854.561       2145.439       2854.561       3.5658495e+08  0.1            15965740       0.51060568     1459.1329      14591.332      6.3894977    
  47612600   22689.932     -9.1400523     -43214784       1.6778521      67296.205     -43147488       709.12207      709.12207      709.12207      2145.439       2854.561       2145.439       2854.561       2145.439       2854.561       3.5658495e+08  0.1            15965760       0.52428681     1461.8687      14618.683      6.37425      
  47612800   24567.609     -9.676217      -43215295       1.6778521      72865.219     -43142430       709.12207      709.12207      709.12207      2145.439       2854.561       2145.439       2854.561       2145.439       2854.561       3.5658495e+08  0.1            15965780       0.53834793     1422.3647      14223.638      6.3635737    
  47613000   26479.414     -9.7960379     -43208447       1.6778521      78535.452     -43129912       709.12207      709.12207      709.12207      2145.439       2854.561       2145.439       2854.561       2145.439       2854.561       3.5658495e+08  0.1            15965800       0.55207151     1457.3359      14573.272      6.3488492    
  47613200   28398.563     -10.223469     -43208994       1.6778521      84227.467     -43124767       709.12207      709.12207      709.12207      2145.439       2854.561       2145.439       2854.561       2145.439       2854.561       3.5658495e+08  0.1            15965820       0.56588014     1448.382       14483.935      6.33512      
  47613400   30293.042     -10.514862     -43209556       1.6778521      89846.314     -43119709       709.12207      709.12207      709.12207      2145.439       2854.561       2145.439       2854.561       2145.439       2854.561       3.5658495e+08  0.1            15965840       0.57964484     1452.9876      14529.792      6.3209123    
  47613600   32126.533     -10.672144     -43210130       1.6778521      95284.278     -43114846       709.12207      709.12207      709.12207      2145.439       2854.561       2145.439       2854.561       2145.439       2854.561       3.5658495e+08  0.1            15965860       0.59337556     1456.5925      14565.97       6.3063628    
  47613800   33859.541     -10.816155     -43210718       1.6778521      100424.21     -43110294       709.12207      709.12207      709.12207      2145.439       2854.561       2145.439       2854.561       2145.439       2854.561       3.5658495e+08  0.1            15965880       0.60714        1453.0097      14530.104      6.2922007    
  47614000   35450.059     -11.12097      -43211317       1.6778521      105141.54     -43106176       709.12207      709.12207      709.12207      2145.439       2854.561       2145.439       2854.561       2145.439       2854.561       3.5658495e+08  0.1            15965900       0.62093968     1449.3128      14493.001      6.2784143    
  47614200   36855.893     -11.680825     -43211925       1.6778521      109311.11     -43102614       709.12207      709.12207      709.12207      2145.439       2854.561       2145.439       2854.561       2145.439       2854.561       3.5658495e+08  0.1            15965920       0.63505622     1416.7818      14167.89       6.2677505    
  47614400   38038.8       -12.947467     -43219918       1.6778521      112819.5      -43107099       709.12207      709.12207      709.12207      2145.439       2854.561       2145.439       2854.561       2145.439       2854.561       3.5658495e+08  0.1            15965940       0.64872722     1462.9536      14629.536      6.2526466    
  47614600   38969.134     -14.416459     -43227915       1.6778521      115578.79     -43112336       709.12207      709.12207      709.12207      2145.439       2854.561       2145.439       2854.561       2145.439       2854.561       3.5658495e+08  0.1            15965960       0.6623761      1465.3165      14653.222      6.2373949    
  47614800   39631.392     -15.442556     -43228535       1.6778521      117542.98     -43110992       709.12207      709.12207      709.12207      2145.439       2854.561       2145.439       2854.561       2145.439       2854.561       3.5658495e+08  0.1            15965980       0.67606279     1461.2757      14607.58       6.2226043    
  47615000   40029.813     -16.321821     -43229153       1.6778521      118724.66     -43110428       709.12207      709.12207      709.12207      2145.439       2854.561       2145.439       2854.561       2145.439       2854.561       3.5658495e+08  0.1            15966000       0.68977373     1458.6816      14591.873      6.2079856    
  47615200   40192.416     -17.354686     -43229766       1.6778521      119206.93     -43110559       709.12207      709.12207      709.12207      2145.439       2854.561       2145.439       2854.561       2145.439       2854.561       3.5658495e+08  0.1            15966020       0.70472355     1337.8169      13378.202      6.20435      
  47615400   40169.762     -18.689553     -43230375       1.6778521      119139.74     -43111235       709.12207      709.12207      709.12207      2145.439       2854.561       2145.439       2854.561       2145.439       2854.561       3.5658495e+08  0.1            15966040       0.72016664     1295.0714      12950.637      6.2045331    
  47615600   40028.925     -20.158732     -43230979       1.6778521      118722.03     -43112257       709.12207      709.12207      709.12207      2145.439       2854.561       2145.439       2854.561       2145.439       2854.561       3.5658495e+08  0.1            15966060       0.73549768     1304.5352      13045.349      6.2031814    
  47615800   39844.581     -21.629053     -43231576       1.6778521      118175.28     -43113401       709.12207      709.12207      709.12207      2145.439       2854.561       2145.439       2854.561       2145.439       2854.561       3.5658495e+08  0.1            15966080       0.74915968     1463.9276      14639.392      6.1875227    
  47616000   39690.609     -22.975635     -43232168       1.6778521      117718.62     -43114450       709.12207      709.12207      709.12207      2145.439       2854.561       2145.439       2854.561       2145.439       2854.561       3.5658495e+08  0.1            15966100       0.7628077      1465.4083      14653.901      6.1718283    
  47616200   39634.165     -24.133092     -43232755       1.6778521      117551.21     -43115204       709.12207      709.12207      709.12207      2145.439       2854.561       2145.439       2854.561       2145.439       2854.561       3.5658495e+08  0.1            15966120       0.77649947     1460.7393      14607.565      6.1565489    
  47616400   39732.787     -24.910403     -43225960       1.6778521      117843.71     -43108116       709.12207      709.12207      709.12207      2145.439       2854.561       2145.439       2854.561       2145.439       2854.561       3.5658495e+08  0.1            15966140       0.79009619     1470.9372      14709.383      6.1405891    
  47616600   40032.521     -26.224301     -43226539       1.6778521      118732.69     -43107806       709.12207      709.12207      709.12207      2145.439       2854.561       2145.439       2854.561       2145.439       2854.561       3.5658495e+08  0.1            15966160       0.80374639     1465.1883      14651.932      6.1251175    
  47616800   40566.991     -27.051261     -43219739       1.6778521      120317.88     -43099421       709.12207      709.12207      709.12207      2145.439       2854.561       2145.439       2854.561       2145.439       2854.561       3.5658495e+08  0.1            15966180       0.81740477     1464.3004      14642.966      6.1097704    
  47617000   41354.037     -27.76627      -43220317       1.6778521      122652.19     -43097665       709.12207      709.12207      709.12207      2145.439       2854.561       2145.439       2854.561       2145.439       2854.561       3.5658495e+08  0.1            15966200       0.83119131     1450.6759      14506.7        6.0954207    
  47617200   42392.662     -28.602383     -43230171       1.6778521      125732.65     -43104438       709.12207      709.12207      709.12207      2145.439       2854.561       2145.439       2854.561       2145.439       2854.561       3.5658495e+08  0.1            15966220       0.84515829     1431.9636      14319.707      6.0823839    
  47617400   43659.954     -28.601316     -43230755       1.6778521      129491.32     -43101264       709.12207      709.12207      709.12207      2145.439       2854.561       2145.439       2854.561       2145.439       2854.561       3.5658495e+08  0.1            15966240       0.85879202     1466.9497      14669.504      6.0669649    
  47617600   45112.233     -28.491019     -43231342       1.6778521      133798.64     -43097543       709.12207      709.12207      709.12207      2145.439       2854.561       2145.439       2854.561       2145.439       2854.561       3.5658495e+08  0.1            15966260       0.87244976     1464.3676      14643.635      6.0517699    
  47617800   46690.899     -28.545781     -43233826       1.6778521      138480.82     -43095345       709.12207      709.12207      709.12207      2145.439       2854.561       2145.439       2854.561       2145.439       2854.561       3.5658495e+08  0.1            15966280       0.88616753     1457.9655      14579.727      6.0370305    
  47618000   48328.901     -28.812182     -43236313       1.6778521      143338.98     -43092974       709.12207      709.12207      709.12207      2145.439       2854.561       2145.439       2854.561       2145.439       2854.561       3.5658495e+08  0.1            15966300       0.89986469     1460.1364      14601.228      6.0221876    
  47618200   49956.681     -28.844889     -43229531       1.6778521      148166.82     -43081364       709.12207      709.12207      709.12207      2145.439       2854.561       2145.439       2854.561       2145.439       2854.561       3.5658495e+08  0.1            15966320       0.91367956     1447.7272      14477.373      6.0081502    
  47618400   51506.808     -29.343255     -43230127       1.6778521      152764.35     -43077362       709.12207      709.12207      709.12207      2145.439       2854.561       2145.439       2854.561       2145.439       2854.561       3.5658495e+08  0.1            15966340       0.92730184     1468.1735      14681.75       5.9928761    
  47618600   52918.08      -29.96405      -43230722       1.6778521      156950.05     -43073772       709.12207      709.12207      709.12207      2145.439       2854.561       2145.439       2854.561       2145.439       2854.561       3.5658495e+08  0.1            15966360       0.94144444     1414.1808      14141.81       5.9809548    
  47618800   54139.152     -30.596821     -43231318       1.6778521      160571.64     -43070747       709.12207      709.12207      709.12207      2145.439       2854.561       2145.439       2854.561       2145.439       2854.561       3.5658495e+08  0.1            15966380       0.95508939     1465.744       14657.427      5.9658618    
  47619000   55131.502     -30.947071     -43231548       1.6778521      163514.85     -43068033       709.12207      709.12207      709.12207      2145.439       2854.561       2145.439       2854.561       2145.439       2854.561       3.5658495e+08  0.1            15966400       0.96886859     1451.4546      14514.423      5.9516364    
  47619200   55872.275     -30.827714     -43224769       1.6778521      165711.92     -43059057       709.12207      709.12207      709.12207      2145.439       2854.561       2145.439       2854.561       2145.439       2854.561       3.5658495e+08  0.1            15966420       0.98254951     1461.898       14619.152      5.9368262    
  47619400   56357.251     -30.663109     -43216089       1.6778521      167150.31     -43048939       709.12207      709.12207      709.12207      2145.439       2854.561       2145.439       2854.561       2145.439       2854.561       3.5658495e+08  0.1            15966440       0.99633651     1450.64        14506.333      5.9226802    
  47619600   56605.288     -31.287046     -43216673       1.6778521      167885.96     -43048787       709.12207      709.12207      709.12207      2145.439       2854.561       2145.439       2854.561       2145.439       2854.561       3.5658495e+08  0.1            15966460       1.009944       1469.7897      14697.923      5.9074932    
  47619800   56657.131     -32.093392     -43217248       1.6778521      168039.72     -43049208       709.12207      709.12207      709.12207      2145.439       2854.561       2145.439       2854.561       2145.439       2854.561       3.5658495e+08  0.1            15966480       1.0236701      1457.0783      14570.727      5.8930316    
  47620000   56571.29      -33.003214     -43217445       1.6778521      167785.13     -43049660       709.12207      709.12207      709.12207      2145.439       2854.561       2145.439       2854.561       2145.439       2854.561       3.5658495e+08  0.1            15966500       1.0383935      1358.3787      13583.707      5.8842429    
  47620200   56417.477     -34.065585     -43218004       1.6778521      167328.93     -43050675       709.12207      709.12207      709.12207      2145.439       2854.561       2145.439       2854.561       2145.439       2854.561       3.5658495e+08  0.1            15966520       1.0521069      1458.434       14584.502      5.86966      
  47620400   56267.928     -34.436935     -43211177       1.6778521      166885.39     -43044292       709.12207      709.12207      709.12207      2145.439       2854.561       2145.439       2854.561       2145.439       2854.561       3.5658495e+08  0.1            15966540       1.0660804      1431.268       14312.594      5.8565319    
  47620600   56190.971     -34.979129     -43213614       1.6778521      166657.14     -43046957       709.12207      709.12207      709.12207      2145.439       2854.561       2145.439       2854.561       2145.439       2854.561       3.5658495e+08  0.1            15966560       1.0796959      1468.9241      14689.262      5.8414435    
  47620800   56246.969     -35.217391     -43214143       1.6778521      166823.22     -43047320       709.12207      709.12207      709.12207      2145.439       2854.561       2145.439       2854.561       2145.439       2854.561       3.5658495e+08  0.1            15966580       1.0933762      1461.9558      14619.451      5.8267383    
  47621000   56487.437     -35.908021     -43222040       1.6778521      167536.43     -43054504       709.12207      709.12207      709.12207      2145.439       2854.561       2145.439       2854.561       2145.439       2854.561       3.5658495e+08  0.1            15966600       1.1071252      1454.6285      14546.255      5.8124208    
  47621200   56951.998     -36.459653     -43222554       1.6778521      168914.27     -43053640       709.12207      709.12207      709.12207      2145.439       2854.561       2145.439       2854.561       2145.439       2854.561       3.5658495e+08  0.1            15966620       1.1208343      1458.8953      14589.079      5.7979077    
  47621400   57664.289     -37.05503      -43222699       1.6778521      171026.86     -43051672       709.12207      709.12207      709.12207      2145.439       2854.561       2145.439       2854.561       2145.439       2854.561       3.5658495e+08  0.1            15966640       1.1347682      1435.3657      14353.678      5.7845606    
  47621600   58628.731     -37.767171     -43223210       1.6778521      173887.31     -43049322       709.12207      709.12207      709.12207      2145.439       2854.561       2145.439       2854.561       2145.439       2854.561       3.5658495e+08  0.1            15966660       1.1484111      1465.9574      14659.533      5.769739     
  47621800   59830.147     -38.478245     -43223719       1.6778521      177450.59     -43046268       709.12207      709.12207      709.12207      2145.439       2854.561       2145.439       2854.561       2145.439       2854.561       3.5658495e+08  0.1            15966680       1.1621681      1453.8032      14538.068      5.75551      
  47622000   61233.466     -38.660923     -43216848       1.6778521      181612.7      -43035236       709.12207      709.12207      709.12207      2145.439       2854.561       2145.439       2854.561       2145.439       2854.561       3.5658495e+08  0.1            15966700       1.1758987      1456.5928      14565.801      5.7411642    
  47622200   62786.868     -38.708933     -43216986       1.6778521      186219.95     -43030766       709.12207      709.12207      709.12207      2145.439       2854.561       2145.439       2854.561       2145.439       2854.561       3.5658495e+08  0.1            15966720       1.189575       1462.384       14623.992      5.7265696    
  47622400   64425.734     -38.808802     -43219386       1.6778521      191080.67     -43028305       709.12207      709.12207      709.12207      2145.439       2854.561       2145.439       2854.561       2145.439       2854.561       3.5658495e+08  0.1            15966740       1.2031846      1469.5561      14695.517      5.7116806    
  47622600   66078.088     -38.75416      -43219885       1.6778521      195981.4      -43023904       709.12207      709.12207      709.12207      2145.439       2854.561       2145.439       2854.561       2145.439       2854.561       3.5658495e+08  0.1            15966760       1.216803       1468.599       14686.081      5.6968604    
  47622800   67671.069     -38.824809     -43220377       1.6778521      200706.03     -43019671       709.12207      709.12207      709.12207      2145.439       2854.561       2145.439       2854.561       2145.439       2854.561       3.5658495e+08  0.1            15966780       1.2304323      1467.4268      14674.217      5.6821189    
  47623000   69138.007     -39.369528     -43228239       1.6778521      205056.83     -43023183       709.12207      709.12207      709.12207      2145.439       2854.561       2145.439       2854.561       2145.439       2854.561       3.5658495e+08  0.1            15966800       1.2444988      1421.8223      14218.051      5.6693944    
  47623200   70421.805     -39.427842     -43228353       1.6778521      208864.45     -43019488       709.12207      709.12207      709.12207      2145.439       2854.561       2145.439       2854.561       2145.439       2854.561       3.5658495e+08  0.1            15966820       1.2581713      1462.7987      14628.085      5.6548684    
  47623400   71476.631     -39.809953     -43236206       1.6778521      211992.97     -43024214       709.12207      709.12207      709.12207      2145.439       2854.561       2145.439       2854.561       2145.439       2854.561       3.5658495e+08  0.1            15966840       1.271759       1471.915       14719.29       5.6399846    
  47623600   72273.737     -39.754568     -43236674       1.6778521      214357.11     -43022317       709.12207      709.12207      709.12207      2145.439       2854.561       2145.439       2854.561       2145.439       2854.561       3.5658495e+08  0.1            15966860       1.2853379      1472.8732      14728.7        5.6250906    
  47623800   72805.704     -39.633028     -43237132       1.6778521      215934.87     -43021197       709.12207      709.12207      709.12207      2145.439       2854.561       2145.439       2854.561       2145.439       2854.561       3.5658495e+08  0.1            15966880       1.2988901      1475.7814      14757.772      5.6101087    
  47624000   73088.138     -39.568599     -43237581       1.6778521      216772.55     -43020809       709.12207      709.12207      709.12207      2145.439       2854.561       2145.439       2854.561       2145.439       2854.561       3.5658495e+08  0.1            15966900       1.3126046      1458.3012      14582.907      5.5958504    
  47624200   73158.049     -39.837739     -43238021       1.6778521      216979.9      -43021041       709.12207      709.12207      709.12207      2145.439       2854.561       2145.439       2854.561       2145.439       2854.561       3.5658495e+08  0.1            15966920       1.3263648      1453.4718      14534.824      5.5817945    
  47624400   73071.455     -40.64613      -43245828       1.6778521      216723.07     -43029104       709.12207      709.12207      709.12207      2145.439       2854.561       2145.439       2854.561       2145.439       2854.561       3.5658495e+08  0.1            15966940       1.3405523      1409.6847      14096.866      5.5695201    
  47624600   72896.524     -41.111897     -43248141       1.6778521      216204.24     -43031936       709.12207      709.12207      709.12207      2145.439       2854.561       2145.439       2854.561       2145.439       2854.561       3.5658495e+08  0.1            15966960       1.3549332      1390.7096      13906.973      5.5580022    
  47624800   72706.642     -41.37736      -43248546       1.6778521      215641.07     -43032905       709.12207      709.12207      709.12207      2145.439       2854.561       2145.439       2854.561       2145.439       2854.561       3.5658495e+08  0.1            15966980       1.3689708      1424.7512      14247.592      5.5450331    
  47625000   72574.336     -41.734619     -43250831       1.6778521      215248.66     -43035582       709.12207      709.12207      709.12207      2145.439       2854.561       2145.439       2854.561       2145.439       2854.561       3.5658495e+08  0.1            15967000       1.3830933      1416.1799      14161.623      5.5323845    
  47625200   72567.369     -41.719579     -43251210       1.6778521      215227.99     -43035982       709.12207      709.12207      709.12207      2145.439       2854.561       2145.439       2854.561       2145.439       2854.561       3.5658495e+08  0.1            15967020       1.3977241      1366.9778      13669.813      5.5217129    
  47625400   72742.998     -41.603644     -43251580       1.6778521      215748.89     -43035831       709.12207      709.12207      709.12207      2145.439       2854.561       2145.439       2854.561       2145.439       2854.561       3.5658495e+08  0.1            15967040       1.4123882      1363.8722      13638.671      5.5110941    
  47625600   73143.992     -41.901432     -43251941       1.6778521      216938.21     -43035003       709.12207      709.12207      709.12207      2145.439       2854.561       2145.439       2854.561       2145.439       2854.561       3.5658495e+08  0.1            15967060       1.4267254      1394.9843      13950.018      5.4991349    
  47625800   73797.088     -42.547388     -43252291       1.6778521      218875.23     -43033416       709.12207      709.12207      709.12207      2145.439       2854.561       2145.439       2854.561       2145.439       2854.561       3.5658495e+08  0.1            15967080       1.4418069      1326.1279      13261.315      5.4899659    
  47626000   74711.407     -42.610931     -43250367       1.6778521      221587.01     -43028780       709.12207      709.12207      709.12207      2145.439       2854.561       2145.439       2854.561       2145.439       2854.561       3.5658495e+08  0.1            15967100       1.4564561      1365.2447      13652.246      5.47906      
  47626200   75875.421     -42.203986     -43243686       1.6778521      225039.37     -43018647       709.12207      709.12207      709.12207      2145.439       2854.561       2145.439       2854.561       2145.439       2854.561       3.5658495e+08  0.1            15967120       1.4708984      1384.827       13848.455      5.4673109    
  47626400   77257.802     -41.838488     -43245897       1.6778521      229139.38     -43016758       709.12207      709.12207      709.12207      2145.439       2854.561       2145.439       2854.561       2145.439       2854.561       3.5658495e+08  0.1            15967140       1.4849844      1419.869       14198.659      5.4542037    
  47626600   78809.918     -41.362132     -43246205       1.6778521      233742.81     -43012463       709.12207      709.12207      709.12207      2145.439       2854.561       2145.439       2854.561       2145.439       2854.561       3.5658495e+08  0.1            15967160       1.4995481      1373.2591      13732.641      5.4428142    
  47626800   80467.957     -40.859263     -43244611       1.6778521      238660.4      -43005951       709.12207      709.12207      709.12207      2145.439       2854.561       2145.439       2854.561       2145.439       2854.561       3.5658495e+08  0.1            15967180       1.5142811      1357.5036      13574.9        5.4319718    
  47627000   82158.898     -40.420764     -43244904       1.6778521      243675.57     -43001228       709.12207      709.12207      709.12207      2145.439       2854.561       2145.439       2854.561       2145.439       2854.561       3.5658495e+08  0.1            15967200       1.5290002      1358.7848      13587.908      5.4210096    
  47627200   83807.24      -39.939487     -43245187       1.6778521      248564.4      -42996622       709.12207      709.12207      709.12207      2145.439       2854.561       2145.439       2854.561       2145.439       2854.561       3.5658495e+08  0.1            15967220       1.5438558      1346.2903      13462.977      5.4104578    
  47627400   85340.141     -39.891518     -43252837       1.6778521      253110.84     -42999726       709.12207      709.12207      709.12207      2145.439       2854.561       2145.439       2854.561       2145.439       2854.561       3.5658495e+08  0.1            15967240       1.5583495      1379.8957      13798.552      5.3985794    
  47627600   86694.002     -39.798733     -43260107       1.6778521      257126.26     -43002981       709.12207      709.12207      709.12207      2145.439       2854.561       2145.439       2854.561       2145.439       2854.561       3.5658495e+08  0.1            15967260       1.5729713      1367.8285      13678.627      5.3870872    
  47627800   87817.838     -39.096261     -43252978       1.6778521      260459.45     -42992519       709.12207      709.12207      709.12207      2145.439       2854.561       2145.439       2854.561       2145.439       2854.561       3.5658495e+08  0.1            15967280       1.5875554      1371.3586      13713.529      5.3754159    
  47628000   88678.266     -38.770115     -43253213       1.6778521      263011.4      -42990202       709.12207      709.12207      709.12207      2145.439       2854.561       2145.439       2854.561       2145.439       2854.561       3.5658495e+08  0.1            15967300       1.6021527      1370.1229      13701.186      5.3637372    
  47628200   89262.701     -38.918598     -43260812       1.6778521      264744.78     -42996067       709.12207      709.12207      709.12207      2145.439       2854.561       2145.439       2854.561       2145.439       2854.561       3.5658495e+08  0.1            15967320       1.6166347      1381.0195      13810.286      5.3516264    
  47628400   89582.032     -38.757058     -43261017       1.6778521      265691.89     -42995325       709.12207      709.12207      709.12207      2145.439       2854.561       2145.439       2854.561       2145.439       2854.561       3.5658495e+08  0.1            15967340       1.6310424      1388.1459      13881.503      5.3392321    
  47628600   89670.824     -38.569334     -43261210       1.6778521      265955.23     -42995255       709.12207      709.12207      709.12207      2145.439       2854.561       2145.439       2854.561       2145.439       2854.561       3.5658495e+08  0.1            15967360       1.646055       1332.2179      13322.195      5.328762     
  47628800   89582.654     -38.296695     -43263285       1.6778521      265693.73     -42997592       709.12207      709.12207      709.12207      2145.439       2854.561       2145.439       2854.561       2145.439       2854.561       3.5658495e+08  0.1            15967380       1.6604855      1385.9575      13859.569      5.3163518    
  47629000   89385.882     -38.701801     -43278210       1.6778521      265110.12     -43013100       709.12207      709.12207      709.12207      2145.439       2854.561       2145.439       2854.561       2145.439       2854.561       3.5658495e+08  0.1            15967400       1.6750463      1373.5403      13735.329      5.3043216    
  47629200   89156.161     -38.414748     -43278733       1.6778521      264428.79     -43014305       709.12207      709.12207      709.12207      2145.439       2854.561       2145.439       2854.561       2145.439       2854.561       3.5658495e+08  0.1            15967420       1.6895462      1379.3202      13793.25       5.2920574    
  47629400   88971.116     -38.346836     -43286256       1.6778521      263879.97     -43022376       709.12207      709.12207      709.12207      2145.439       2854.561       2145.439       2854.561       2145.439       2854.561       3.5658495e+08  0.1            15967440       1.7038264      1400.5397      14005.119      5.2790771    
  47629600   88901.893     -38.066357     -43286389       1.6778521      263674.66     -43022715       709.12207      709.12207      709.12207      2145.439       2854.561       2145.439       2854.561       2145.439       2854.561       3.5658495e+08  0.1            15967460       1.7182181      1389.6899      13897.108      5.2664161    
  47629800   89009.9       -37.21129      -43271754       1.6778521      263995        -43007759       709.12207      709.12207      709.12207      2145.439       2854.561       2145.439       2854.561       2145.439       2854.561       3.5658495e+08  0.1            15967480       1.7329253      1359.8764      13598.787      5.2546843    
  47630000   89343.923     -37.124134     -43271862       1.6778521      264985.68     -43006877       709.12207      709.12207      709.12207      2145.439       2854.561       2145.439       2854.561       2145.439       2854.561       3.5658495e+08  0.1            15967500       1.7476147      1361.5367      13615.298      5.2428519    
  47630200   89936.692     -36.784849     -43271961       1.6778521      266743.78     -43005217       709.12207      709.12207      709.12207      2145.439       2854.561       2145.439       2854.561       2145.439       2854.561       3.5658495e+08  0.1            15967520       1.7621197      1378.8327      13788.251      5.2304264    
  47630400   90801.033     -36.015319     -43272047       1.6778521      269307.33     -43002740       709.12207      709.12207      709.12207      2145.439       2854.561       2145.439       2854.561       2145.439       2854.561       3.5658495e+08  0.1            15967540       1.7766263      1378.6755      13786.884      5.217973     
  47630600   91928.956     -35.174022     -43272120       1.6778521      272652.64     -42999467       709.12207      709.12207      709.12207      2145.439       2854.561       2145.439       2854.561       2145.439       2854.561       3.5658495e+08  0.1            15967560       1.7910696      1384.7223      13847.144      5.2053037    
  47630800   93291.534     -34.350088     -43272179       1.6778521      276693.92     -42995485       709.12207      709.12207      709.12207      2145.439       2854.561       2145.439       2854.561       2145.439       2854.561       3.5658495e+08  0.1            15967580       1.805826       1355.3179      13553.306      5.1935085    
  47631000   94840.925     -33.30057      -43272224       1.6778521      281289.27     -42990934       709.12207      709.12207      709.12207      2145.439       2854.561       2145.439       2854.561       2145.439       2854.561       3.5658495e+08  0.1            15967600       1.8207167      1343.1441      13431.244      5.182048     
  47631200   96514.356     -32.316439     -43272626       1.6778521      286252.51     -42986374       709.12207      709.12207      709.12207      2145.439       2854.561       2145.439       2854.561       2145.439       2854.561       3.5658495e+08  0.1            15967620       1.8358323      1323.1456      13231.368      5.1711702    
  47631400   98236.825     -31.131109     -43270752       1.6778521      291361.19     -42979391       709.12207      709.12207      709.12207      2145.439       2854.561       2145.439       2854.561       2145.439       2854.561       3.5658495e+08  0.1            15967640       1.8508492      1331.8262      13318.463      5.1599505    
  47631600   99929.388     -30.008639     -43270755       1.6778521      296381.17     -42974374       709.12207      709.12207      709.12207      2145.439       2854.561       2145.439       2854.561       2145.439       2854.561       3.5658495e+08  0.1            15967660       1.8660275      1317.6724      13176.768      5.1491204    
  47631800   101516.39     -28.960344     -43272637       1.6778521      301088.07     -42971549       709.12207      709.12207      709.12207      2145.439       2854.561       2145.439       2854.561       2145.439       2854.561       3.5658495e+08  0.1            15967680       1.8811084      1326.1771      13261.649      5.1379603    
  47632000   102930.46     -27.932143     -43276398       1.6778521      305282.08     -42971116       709.12207      709.12207      709.12207      2145.439       2854.561       2145.439       2854.561       2145.439       2854.561       3.5658495e+08  0.1            15967700       1.8959882      1344.1079      13441.17       5.1261976    
  47632200   104118.65     -27.756535     -43300389       1.6778521      308806.14     -42991583       709.12207      709.12207      709.12207      2145.439       2854.561       2145.439       2854.561       2145.439       2854.561       3.5658495e+08  0.1            15967720       1.9108056      1349.7644      13497.587      5.114222     
  47632400   105042.64     -26.252988     -43300340       1.6778521      311546.58     -42988793       709.12207      709.12207      709.12207      2145.439       2854.561       2145.439       2854.561       2145.439       2854.561       3.5658495e+08  0.1            15967740       1.9257039      1342.4308      13424.395      5.1024194    
  47632600   105684.46     -24.84337      -43302171       1.6778521      313450.18     -42988721       709.12207      709.12207      709.12207      2145.439       2854.561       2145.439       2854.561       2145.439       2854.561       3.5658495e+08  0.1            15967760       1.9407764      1326.9224      13269.291      5.0910289    
  47632800   106050.99     -23.620723     -43303990       1.6778521      314537.28     -42989452       709.12207      709.12207      709.12207      2145.439       2854.561       2145.439       2854.561       2145.439       2854.561       3.5658495e+08  0.1            15967780       1.9553304      1374.1675      13741.621      5.0782395    
  47633000   106171.65     -23.190819     -43311648       1.6778521      314895.14     -42996752       709.12207      709.12207      709.12207      2145.439       2854.561       2145.439       2854.561       2145.439       2854.561       3.5658495e+08  0.1            15967800       1.9696297      1398.6961      13986.77       5.0647694    
  47633200   106096.94     -22.625442     -43313441       1.6778521      314673.54     -42998767       709.12207      709.12207      709.12207      2145.439       2854.561       2145.439       2854.561       2145.439       2854.561       3.5658495e+08  0.1            15967820       1.9840542      1386.5288      13865.404      5.0516056    
  47633400   105892.88     -21.668905     -43313324       1.6778521      314068.33     -42999256       709.12207      709.12207      709.12207      2145.439       2854.561       2145.439       2854.561       2145.439       2854.561       3.5658495e+08  0.1            15967840       1.998388       1395.2963      13952.954      5.0381963    
  47633600   105636.4      -20.307424     -43311299       1.6778521      313307.63     -42997991       709.12207      709.12207      709.12207      2145.439       2854.561       2145.439       2854.561       2145.439       2854.561       3.5658495e+08  0.1            15967860       2.0135879      1315.7751      13157.806      5.0269366    
  47633800   105406.4      -19.103454     -43311154       1.6778521      312625.49     -42998529       709.12207      709.12207      709.12207      2145.439       2854.561       2145.439       2854.561       2145.439       2854.561       3.5658495e+08  0.1            15967880       2.0282209      1366.8069      13668.072      5.0142191    
  47634000   105278.14     -18.299046     -43310994       1.6778521      312245.05     -42998749       709.12207      709.12207      709.12207      2145.439       2854.561       2145.439       2854.561       2145.439       2854.561       3.5658495e+08  0.1            15967900       2.0429719      1355.8357      13558.315      5.0017655    
  47634200   105319.98     -17.94512      -43310821       1.6778521      312369.15     -42998451       709.12207      709.12207      709.12207      2145.439       2854.561       2145.439       2854.561       2145.439       2854.561       3.5658495e+08  0.1            15967920       2.0574532      1381.0946      13810.906      4.9886257    
  47634400   105586.32     -17.898326     -43310638       1.6778521      313159.11     -42997479       709.12207      709.12207      709.12207      2145.439       2854.561       2145.439       2854.561       2145.439       2854.561       3.5658495e+08  0.1            15967940       2.071789       1395.1082      13951.171      4.9751185    
  47634600   106114.41     -17.727261     -43310446       1.6778521      314725.35     -42995720       709.12207      709.12207      709.12207      2145.439       2854.561       2145.439       2854.561       2145.439       2854.561       3.5658495e+08  0.1            15967960       2.0861893      1388.84        13888.264      4.9617547    
  47634800   106921.77     -17.135949     -43310241       1.6778521      317119.91     -42993121       709.12207      709.12207      709.12207      2145.439       2854.561       2145.439       2854.561       2145.439       2854.561       3.5658495e+08  0.1            15967980       2.1006833      1379.9084      13799.246      4.9485955    
  47635000   108004.21     -15.987517     -43310023       1.6778521      320330.34     -42989693       709.12207      709.12207      709.12207      2145.439       2854.561       2145.439       2854.561       2145.439       2854.561       3.5658495e+08  0.1            15968000       2.1153085      1367.4935      13674.654      4.9357273    
  47635200   109336.19     -14.933652     -43317167       1.6778521      324280.85     -42992886       709.12207      709.12207      709.12207      2145.439       2854.561       2145.439       2854.561       2145.439       2854.561       3.5658495e+08  0.1            15968020       2.1299813      1363.0778      13631.029      4.9229426    
  47635400   110871.7      -13.562842     -43316548       1.6778521      328835.04     -42987713       709.12207      709.12207      709.12207      2145.439       2854.561       2145.439       2854.561       2145.439       2854.561       3.5658495e+08  0.1            15968040       2.1446856      1360.1395      13601.477      4.9102069    
  47635600   112548.12     -12.222362     -43316282       1.6778521      333807.15     -42982475       709.12207      709.12207      709.12207      2145.439       2854.561       2145.439       2854.561       2145.439       2854.561       3.5658495e+08  0.1            15968060       2.1591709      1380.7129      13807.024      4.8969488    
  47635800   114291.44     -11.432929     -43330388       1.6778521      338977.66     -42991411       709.12207      709.12207      709.12207      2145.439       2854.561       2145.439       2854.561       2145.439       2854.561       3.5658495e+08  0.1            15968080       2.1736977      1376.7661      13767.628      4.8837682    
  47636000   116022.79     -10.136456     -43328202       1.6778521      344112.69     -42984089       709.12207      709.12207      709.12207      2145.439       2854.561       2145.439       2854.561       2145.439       2854.561       3.5658495e+08  0.1            15968100       2.1885491      1346.6621      13466.564      4.8712931    
  47636200   117663.78     -9.1226449     -43327898       1.6778521      348979.72     -42978918       709.12207      709.12207      709.12207      2145.439       2854.561       2145.439       2854.561       2145.439       2854.561       3.5658495e+08  0.1            15968120       2.2029339      1390.3572      13903.679      4.8577575    
  47636400   119140.62     -7.5546369     -43327577       1.6778521      353359.88     -42974217       709.12207      709.12207      709.12207      2145.439       2854.561       2145.439       2854.561       2145.439       2854.561       3.5658495e+08  0.1            15968140       2.2173153      1390.6952      13906.574      4.8442048    
  47636600   120394.01     -5.4452214     -43328767       1.6778521      357077.33     -42971689       709.12207      709.12207      709.12207      2145.439       2854.561       2145.439       2854.561       2145.439       2854.561       3.5658495e+08  0.1            15968160       2.2316032      1399.7902      13998.3        4.8304376    
  47636800   121382.35     -3.5028359     -43326520       1.6778521      360008.65     -42966512       709.12207      709.12207      709.12207      2145.439       2854.561       2145.439       2854.561       2145.439       2854.561       3.5658495e+08  0.1            15968180       2.2461742      1372.5911      13725.999      4.8172718    
  47637000   122085.31     -2.1039794     -43326160       1.6778521      362093.55     -42964066       709.12207      709.12207      709.12207      2145.439       2854.561       2145.439       2854.561       2145.439       2854.561       3.5658495e+08  0.1            15968200       2.2606805      1378.6957      13786.765      4.8039525    
  47637200   122505.92     -0.6663464     -43327688       1.6778521      363341.04     -42964347       709.12207      709.12207      709.12207      2145.439       2854.561       2145.439       2854.561       2145.439       2854.561       3.5658495e+08  0.1            15968220       2.2752517      1372.5838      13725.86       4.7907529    
  47637400   122667.43      0.81089183    -43329206       1.6778521      363820.06     -42965386       709.12207      709.12207      709.12207      2145.439       2854.561       2145.439       2854.561       2145.439       2854.561       3.5658495e+08  0.1            15968240       2.2897652      1378.0242      13780.268      4.7774166    
  47637600   122615.39      2.3195605     -43328815       1.6778521      363665.72     -42965149       709.12207      709.12207      709.12207      2145.439       2854.561       2145.439       2854.561       2145.439       2854.561       3.5658495e+08  0.1            15968260       2.3043245      1373.6881      13736.904      4.764161     
  47637800   122414.09      4.5544359     -43319136       1.6778521      363068.67     -42956068       709.12207      709.12207      709.12207      2145.439       2854.561       2145.439       2854.561       2145.439       2854.561       3.5658495e+08  0.1            15968280       2.318779       1383.6542      13836.522      4.7506745    
  47638000   122139.41      6.1175548     -43318717       1.6778521      362253.99     -42956463       709.12207      709.12207      709.12207      2145.439       2854.561       2145.439       2854.561       2145.439       2854.561       3.5658495e+08  0.1            15968300       2.3333333      1374.1624      13741.472      4.7373795    
  47638200   121873.97      7.524089      -43318286       1.6778521      361466.73     -42956819       709.12207      709.12207      709.12207      2145.439       2854.561       2145.439       2854.561       2145.439       2854.561       3.5658495e+08  0.1            15968320       2.3481883      1346.3536      13463.643      4.7246733    
  47638400   121697.73      9.0389538     -43319742       1.6778521      360944.04     -42958798       709.12207      709.12207      709.12207      2145.439       2854.561       2145.439       2854.561       2145.439       2854.561       3.5658495e+08  0.1            15968340       2.3628587      1363.2877      13632.938      4.7115737    
  47638600   121681.9       10.98891      -43319296       1.6778521      360897.07     -42958399       709.12207      709.12207      709.12207      2145.439       2854.561       2145.439       2854.561       2145.439       2854.561       3.5658495e+08  0.1            15968360       2.3773998      1375.4091      13754.075      4.6982001    
  47638800   121885.79      13.338484     -43313362       1.6778521      361501.8      -42951860       709.12207      709.12207      709.12207      2145.439       2854.561       2145.439       2854.561       2145.439       2854.561       3.5658495e+08  0.1            15968380       2.3920633      1363.1847      13631.51       4.6850689    
  47639000   122350.12      15.102406     -43319911       1.6778521      362878.96     -42957032       709.12207      709.12207      709.12207      2145.439       2854.561       2145.439       2854.561       2145.439       2854.561       3.5658495e+08  0.1            15968400       2.4068227      1355.8024      13558.249      4.6720732    
  47639200   123097.31      16.748296     -43319439       1.6778521      365095.06     -42954344       709.12207      709.12207      709.12207      2145.439       2854.561       2145.439       2854.561       2145.439       2854.561       3.5658495e+08  0.1            15968420       2.4216188      1351.7183      13517.339      4.6591426    
  47639400   124128.68      19.396684     -43298719       1.6778521      368153.99     -42930565       709.12207      709.12207      709.12207      2145.439       2854.561       2145.439       2854.561       2145.439       2854.561       3.5658495e+08  0.1            15968440       2.4369313      1306.1208      13061.273      4.6471759    
  47639600   125422.72      21.469224     -43296332       1.6778521      371992.01     -42924340       709.12207      709.12207      709.12207      2145.439       2854.561       2145.439       2854.561       2145.439       2854.561       3.5658495e+08  0.1            15968460       2.4518697      1338.813       13387.99       4.6344644    
  47639800   126935.94      23.324378     -43303206       1.6778521      376480.07     -42926726       709.12207      709.12207      709.12207      2145.439       2854.561       2145.439       2854.561       2145.439       2854.561       3.5658495e+08  0.1            15968480       2.4668728      1333.0656      13330.566      4.6218474    
  47640000   128607.33      25.359508     -43302691       1.6778521      381437.24     -42921254       709.12207      709.12207      709.12207      2145.439       2854.561       2145.439       2854.561       2145.439       2854.561       3.5658495e+08  0.1            15968500       2.4819988      1322.2318      13222.349      4.6094321    
  47640200   130362.75      27.616525     -43302163       1.6778521      386643.67     -42915519       709.12207      709.12207      709.12207      2145.439       2854.561       2145.439       2854.561       2145.439       2854.561       3.5658495e+08  0.1            15968520       2.4968749      1344.448       13444.582      4.5965243    
  47640400   132121.21      30.078929     -43301622       1.6778521      391859.1      -42909763       709.12207      709.12207      709.12207      2145.439       2854.561       2145.439       2854.561       2145.439       2854.561       3.5658495e+08  0.1            15968540       2.5114925      1368.2065      13682.137      4.5831235    
  47640600   133802.08      32.376698     -43301069       1.6778521      396844.4      -42904224       709.12207      709.12207      709.12207      2145.439       2854.561       2145.439       2854.561       2145.439       2854.561       3.5658495e+08  0.1            15968560       2.5261926      1360.5207      13605.185      4.5698587    
  47640800   135330.47      34.517774     -43300503       1.6778521      401377.45     -42899125       709.12207      709.12207      709.12207      2145.439       2854.561       2145.439       2854.561       2145.439       2854.561       3.5658495e+08  0.1            15968580       2.5413836      1316.5647      13165.638      4.5574587    
  47641000   136642.14      35.975481     -43308826       1.6778521      405267.73     -42903558       709.12207      709.12207      709.12207      2145.439       2854.561       2145.439       2854.561       2145.439       2854.561       3.5658495e+08  0.1            15968600       2.5561529      1354.1296      13541.167      4.5442776    
  47641200   137691.5       37.723134     -43315610       1.6778521      408380.04     -42907230       709.12207      709.12207      709.12207      2145.439       2854.561       2145.439       2854.561       2145.439       2854.561       3.5658495e+08  0.1            15968620       2.5708368      1362.0849      13620.902      4.5309268    
  47641400   138452.25      40.033963     -43315003       1.6778521      410636.37     -42904366       709.12207      709.12207      709.12207      2145.439       2854.561       2145.439       2854.561       2145.439       2854.561       3.5658495e+08  0.1            15968640       2.5855182      1362.2296      13622.236      4.5175592    
  47641600   138921.26      41.182944     -43314382       1.6778521      412027.39     -42902354       709.12207      709.12207      709.12207      2145.439       2854.561       2145.439       2854.561       2145.439       2854.561       3.5658495e+08  0.1            15968660       2.6000169      1379.469       13794.572      4.5038594    
  47641800   139121.68      41.302453     -43313755       1.6778521      412621.82     -42901133       709.12207      709.12207      709.12207      2145.439       2854.561       2145.439       2854.561       2145.439       2854.561       3.5658495e+08  0.1            15968680       2.6151136      1324.8056      13248.083      4.491178     
  47642000   139098.38      41.778649     -43315392       1.6778521      412552.71     -42902839       709.12207      709.12207      709.12207      2145.439       2854.561       2145.439       2854.561       2145.439       2854.561       3.5658495e+08  0.1            15968700       2.6299774      1345.5374      13455.459      4.4780749    
  47642200   138911.49      43.317834     -43314758       1.6778521      411998.41     -42902760       709.12207      709.12207      709.12207      2145.439       2854.561       2145.439       2854.561       2145.439       2854.561       3.5658495e+08  0.1            15968720       2.6451526      1317.9441      13179.452      4.4654772    
  47642400   138635.13      45.481406     -43310328       1.6778521      411178.77     -42899149       709.12207      709.12207      709.12207      2145.439       2854.561       2145.439       2854.561       2145.439       2854.561       3.5658495e+08  0.1            15968740       2.6600785      1339.9575      13399.454      4.4524355    
  47642600   138351.42      47.154044     -43317059       1.6778521      410337.31     -42906721       709.12207      709.12207      709.12207      2145.439       2854.561       2145.439       2854.561       2145.439       2854.561       3.5658495e+08  0.1            15968760       2.6745559      1381.47        13814.89       4.4386288    
  47642800   138141.06      49.225586     -43316405       1.6778521      409713.4      -42906691       709.12207      709.12207      709.12207      2145.439       2854.561       2145.439       2854.561       2145.439       2854.561       3.5658495e+08  0.1            15968780       2.6890429      1380.5446      13805.5        4.4248313    
  47643000   138078.7       51.60292      -43308369       1.6778521      409528.44     -42898840       709.12207      709.12207      709.12207      2145.439       2854.561       2145.439       2854.561       2145.439       2854.561       3.5658495e+08  0.1            15968800       2.7035107      1382.3616      13823.522      4.4109958    
  47643200   138227.79      53.418354     -43307707       1.6778521      409970.64     -42897737       709.12207      709.12207      709.12207      2145.439       2854.561       2145.439       2854.561       2145.439       2854.561       3.5658495e+08  0.1            15968820       2.7179759      1382.6456      13826.519      4.3971483    
  47643400   138633.09      54.778441     -43307039       1.6778521      411172.71     -42895866       709.12207      709.12207      709.12207      2145.439       2854.561       2145.439       2854.561       2145.439       2854.561       3.5658495e+08  0.1            15968840       2.7327685      1352.0374      13520.401      4.3838198    
  47643600   139320.09      56.515274     -43298979       1.6778521      413210.28     -42885768       709.12207      709.12207      709.12207      2145.439       2854.561       2145.439       2854.561       2145.439       2854.561       3.5658495e+08  0.1            15968860       2.7491289      1222.4543      12224.568      4.3729706    
  47643800   140294.22      57.966513     -43298283       1.6778521      416099.47     -42882183       709.12207      709.12207      709.12207      2145.439       2854.561       2145.439       2854.561       2145.439       2854.561       3.5658495e+08  0.1            15968880       2.7635496      1386.8968      13868.98       4.3590047    
  47644000   141541.14      60.22419      -43297584       1.6778521      419797.71     -42877786       709.12207      709.12207      709.12207      2145.439       2854.561       2145.439       2854.561       2145.439       2854.561       3.5658495e+08  0.1            15968900       2.7780449      1379.7481      13797.347      4.3451515    
  47644200   143021.56      63.863425     -43287606       1.6778521      424188.49     -42863417       709.12207      709.12207      709.12207      2145.439       2854.561       2145.439       2854.561       2145.439       2854.561       3.5658495e+08  0.1            15968920       2.7925005      1383.5457      13835.566      4.3312293    
  47644400   144674.04      66.50476      -43288780       1.6778521      429089.6      -42859691       709.12207      709.12207      709.12207      2145.439       2854.561       2145.439       2854.561       2145.439       2854.561       3.5658495e+08  0.1            15968940       2.8069531      1383.8423      13838.409      4.3172972    
  47644600   146425.96      69.263174     -43280668       1.6778521      434285.64     -42846382       709.12207      709.12207      709.12207      2145.439       2854.561       2145.439       2854.561       2145.439       2854.561       3.5658495e+08  0.1            15968960       2.8215761      1367.7059      13676.925      4.3036201    
  47644800   148198.34      72.019428     -43279923       1.6778521      439542.35     -42840381       709.12207      709.12207      709.12207      2145.439       2854.561       2145.439       2854.561       2145.439       2854.561       3.5658495e+08  0.1            15968980       2.8362822      1359.9806      13599.986      4.2900588    
  47645000   149908.73      75.16397      -43279169       1.6778521      444615.21     -42834554       709.12207      709.12207      709.12207      2145.439       2854.561       2145.439       2854.561       2145.439       2854.561       3.5658495e+08  0.1            15969000       2.850969       1361.7577      13617.482      4.2764575    
  47645200   151480.88      78.472157     -43271028       1.6778521      449278.07     -42821750       709.12207      709.12207      709.12207      2145.439       2854.561       2145.439       2854.561       2145.439       2854.561       3.5658495e+08  0.1            15969020       2.8658078      1347.8075      13478.148      4.2630714    
  47645400   152848.2       81.475606     -43270256       1.6778521      453333.39     -42816922       709.12207      709.12207      709.12207      2145.439       2854.561       2145.439       2854.561       2145.439       2854.561       3.5658495e+08  0.1            15969040       2.8801676      1392.7647      13927.545      4.2489647    
  47645600   153959.7       83.908342     -43277221       1.6778521      456630        -42820591       709.12207      709.12207      709.12207      2145.439       2854.561       2145.439       2854.561       2145.439       2854.561       3.5658495e+08  0.1            15969060       2.8946636      1379.7239      13797.309      4.2350534    
  47645800   154785.76      87.026712     -43270950       1.6778521      459080.01     -42811870       709.12207      709.12207      709.12207      2145.439       2854.561       2145.439       2854.561       2145.439       2854.561       3.5658495e+08  0.1            15969080       2.909315       1365.0496      13650.527      4.2213627    
  47646000   155317.27      88.958485     -43277532       1.6778521      460656.43     -42816875       709.12207      709.12207      709.12207      2145.439       2854.561       2145.439       2854.561       2145.439       2854.561       3.5658495e+08  0.1            15969100       2.9238402      1376.8901      13768.682      4.207482     
  47646200   155571.27      91.51489      -43269352       1.6778521      461409.77     -42807942       709.12207      709.12207      709.12207      2145.439       2854.561       2145.439       2854.561       2145.439       2854.561       3.5658495e+08  0.1            15969120       2.9388849      1329.3835      13294.071      4.1943346    
  47646400   155585.48      93.878213     -43268542       1.6778521      461451.9      -42807090       709.12207      709.12207      709.12207      2145.439       2854.561       2145.439       2854.561       2145.439       2854.561       3.5658495e+08  0.1            15969140       2.9534144      1376.5223      13765.16       4.1804407    
  47646600   155419.11      96.099564     -43259980       1.6778521      460958.48     -42799022       709.12207      709.12207      709.12207      2145.439       2854.561       2145.439       2854.561       2145.439       2854.561       3.5658495e+08  0.1            15969160       2.9681677      1355.6107      13556.179      4.1668546    
  47646800   155146.52      97.137305     -43261059       1.6778521      460150.01     -42800909       709.12207      709.12207      709.12207      2145.439       2854.561       2145.439       2854.561       2145.439       2854.561       3.5658495e+08  0.1            15969180       2.9827993      1366.9271      13669.142      4.1530879    
  47647000   154847.58      98.10599      -43269513       1.6778521      459263.37     -42810250       709.12207      709.12207      709.12207      2145.439       2854.561       2145.439       2854.561       2145.439       2854.561       3.5658495e+08  0.1            15969200       2.9975021      1360.2872      13602.736      4.1394117    
  47647200   154603.45      100.4782      -43261307       1.6778521      458539.29     -42802768       709.12207      709.12207      709.12207      2145.439       2854.561       2145.439       2854.561       2145.439       2854.561       3.5658495e+08  0.1            15969220       3.0122762      1353.7109      13537.324      4.1258226    
  47647400   154491.8       102.27022     -43265954       1.6778521      458208.15     -42807746       709.12207      709.12207      709.12207      2145.439       2854.561       2145.439       2854.561       2145.439       2854.561       3.5658495e+08  0.1            15969240       3.0270616      1352.6989      13526.816      4.1122475    
  47647600   154580.79      103.68272     -43272494       1.6778521      458472.1      -42814022       709.12207      709.12207      709.12207      2145.439       2854.561       2145.439       2854.561       2145.439       2854.561       3.5658495e+08  0.1            15969260       3.0424118      1302.9081      13029.264      4.0994034    
  47647800   154920.12      105.58823     -43279027       1.6778521      459478.5      -42819548       709.12207      709.12207      709.12207      2145.439       2854.561       2145.439       2854.561       2145.439       2854.561       3.5658495e+08  0.1            15969280       3.0574762      1327.6391      13276.392      4.0861631    
  47648000   155542.18      108.13829     -43278176       1.6778521      461323.49     -42816852       709.12207      709.12207      709.12207      2145.439       2854.561       2145.439       2854.561       2145.439       2854.561       3.5658495e+08  0.1            15969300       3.0728011      1305.0612      13050.428      4.0732519    
  47648200   156461.06      110.04911     -43284705       1.6778521      464048.79     -42820656       709.12207      709.12207      709.12207      2145.439       2854.561       2145.439       2854.561       2145.439       2854.561       3.5658495e+08  0.1            15969320       3.0878596      1328.1626      13281.807      4.0599667    
  47648400   157662.35      112.94462     -43283485       1.6778521      467611.7      -42815874       709.12207      709.12207      709.12207      2145.439       2854.561       2145.439       2854.561       2145.439       2854.561       3.5658495e+08  0.1            15969340       3.1026876      1348.7948      13487.967      4.0463654    
  47648600   159109.69      116.82199     -43267875       1.6778521      471904.38     -42795970       709.12207      709.12207      709.12207      2145.439       2854.561       2145.439       2854.561       2145.439       2854.561       3.5658495e+08  0.1            15969360       3.1175115      1349.1776      13491.693      4.0327475    
  47648800   160745.27      119.38276     -43267010       1.6778521      476755.36     -42790255       709.12207      709.12207      709.12207      2145.439       2854.561       2145.439       2854.561       2145.439       2854.561       3.5658495e+08  0.1            15969380       3.1322769      1354.5168      13545.215      4.0190434    
  47649000   162495.27      121.5328      -43266130       1.6778521      481945.71     -42784184       709.12207      709.12207      709.12207      2145.439       2854.561       2145.439       2854.561       2145.439       2854.561       3.5658495e+08  0.1            15969400       3.147265       1334.3756      13343.648      4.0056137    
  47649200   164280.14      123.07404     -43265233       1.6778521      487239.46     -42777994       709.12207      709.12207      709.12207      2145.439       2854.561       2145.439       2854.561       2145.439       2854.561       3.5658495e+08  0.1            15969420       3.161795       1376.4552      13764.673      3.9915908    
  47649400   166018.68      124.92681     -43266224       1.6778521      492395.79     -42773828       709.12207      709.12207      709.12207      2145.439       2854.561       2145.439       2854.561       2145.439       2854.561       3.5658495e+08  0.1            15969440       3.1761511      1393.1557      13931.514      3.9773456    
  47649600   167631.37      126.96995     -43265310       1.6778521      497178.88     -42768131       709.12207      709.12207      709.12207      2145.439       2854.561       2145.439       2854.561       2145.439       2854.561       3.5658495e+08  0.1            15969460       3.190277       1415.8407      14158.465      3.9628135    
  47649800   169049.14      129.10648     -43264019       1.6778521      501383.86     -42762636       709.12207      709.12207      709.12207      2145.439       2854.561       2145.439       2854.561       2145.439       2854.561       3.5658495e+08  0.1            15969480       3.2045534      1400.921       14009.286      3.9484703    
[...]
  48294400   305.36495     -1.4649848     -43240438       1.6809304      905.68375     -43239532       708.68894      708.68894      708.68894      2145.6555      2854.3445      2145.6555      2854.3445      2145.6555      2854.3445      3.5593195e+08  0.1            16033940       25.334345      1062.4306      10624.312      0.92793395   
  48294600   305.3331      -3.7706607     -43240502       1.6808667      905.58928     -43239596       708.69789      708.69789      708.69789      2145.6511      2854.3489      2145.6511      2854.3489      2145.6511      2854.3489      3.5594542e+08  0.1            16033960       25.353579      1039.7957      10397.966      0.91048777   
  48294800   305.33379     -1.3696169     -43240567       1.6809415      905.59133     -43239661       708.68738      708.68738      708.68738      2145.6563      2854.3437      2145.6563      2854.3437      2145.6563      2854.3437      3.5592959e+08  0.1            16033980       25.372569      1053.231       10532.265      0.89303047   
  48295000   305.28456     -5.7563057     -43240630       1.6808166      905.44531     -43239725       708.70493      708.70493      708.70493      2145.6475      2854.3525      2145.6475      2854.3525      2145.6475      2854.3525      3.5595603e+08  0.1            16034000       25.391194      1073.777       10737.73       0.87555853   
  48295200   305.31143     -5.9023868     -43240694       1.6808165      905.525       -43239789       708.70495      708.70495      708.70495      2145.6475      2854.3525      2145.6475      2854.3525      2145.6475      2854.3525      3.5595606e+08  0.1            16034020       25.409172      1112.5048      11125.089      0.85806311   
  48295400   305.37479      5.3223985     -43248137       1.681162       905.71291     -43247231       708.65639      708.65639      708.65639      2145.6718      2854.3282      2145.6718      2854.3282      2145.6718      2854.3282      3.558829e+08   0.1            16034040       25.42737       1099.0141      10990.13       0.84057431   
  48295600   305.36411      8.6300545     -43248200       1.6812636      905.68126     -43247294       708.64211      708.64211      708.64211      2145.6789      2854.3211      2145.6789      2854.3211      2145.6789      2854.3211      3.5586139e+08  0.1            16034060       25.445256      1118.2164      11182.209      0.82307443   
  48295800   305.31916     -1.5296318     -43240889       1.6809576      905.54794     -43239984       708.68511      708.68511      708.68511      2145.6574      2854.3426      2145.6574      2854.3426      2145.6574      2854.3426      3.5592617e+08  0.1            16034080       25.462999      1127.2117      11272.199      0.80556951   
  48296000   305.27115     -5.8834218     -43240952       1.6808336      905.40554     -43240047       708.70254      708.70254      708.70254      2145.6487      2854.3513      2145.6487      2854.3513      2145.6487      2854.3513      3.5595244e+08  0.1            16034100       25.480279      1157.3501      11573.511      0.78804996   
  48296200   305.30259     -4.875927      -43241017       1.6808674      905.49879     -43240112       708.69779      708.69779      708.69779      2145.6511      2854.3489      2145.6511      2854.3489      2145.6511      2854.3489      3.5594528e+08  0.1            16034120       25.497399      1168.2702      11682.695      0.77052587   
  48296400   305.35101      2.2472829     -43241082       1.6810814      905.64239     -43240177       708.66771      708.66771      708.66771      2145.6661      2854.3339      2145.6661      2854.3339      2145.6661      2854.3339      3.5589996e+08  0.1            16034140       25.51436       1179.139       11791.363      0.75299767   
  48296600   305.30956     -3.4708169     -43241146       1.680917       905.51946     -43240241       708.69082      708.69082      708.69082      2145.6546      2854.3454      2145.6546      2854.3454      2145.6546      2854.3454      3.5593477e+08  0.1            16034160       25.531189      1188.4569      11884.595      0.73546642   
  48296800   305.31447     -0.17509755    -43241211       1.6810183      905.53401     -43240306       708.67659      708.67659      708.67659      2145.6617      2854.3383      2145.6617      2854.3383      2145.6617      2854.3383      3.5591333e+08  0.1            16034180       25.548054      1185.8595      11858.604      0.71793717   
  48297000   305.29622      3.6303009     -43241275       1.6811346      905.47988     -43240369       708.66024      708.66024      708.66024      2145.6699      2854.3301      2145.6699      2854.3301      2145.6699      2854.3301      3.558887e+08   0.1            16034200       25.565234      1164.1771      11641.713      0.70041744   
  48297200   305.32853      4.7880637     -43241339       1.6811728      905.57572     -43240433       708.65487      708.65487      708.65487      2145.6726      2854.3274      2145.6726      2854.3274      2145.6726      2854.3274      3.5588061e+08  0.1            16034220       25.581853      1203.3951      12034.001      0.68288322   
  48297400   305.3418       2.1912656     -43241404       1.6811002      905.61507     -43240498       708.66507      708.66507      708.66507      2145.6675      2854.3325      2145.6675      2854.3325      2145.6675      2854.3325      3.5589598e+08  0.1            16034240       25.598676      1188.8702      11888.682      0.66535554   
  48297600   305.30685     -1.5739435     -43241468       1.680993       905.51142     -43240562       708.68014      708.68014      708.68014      2145.6599      2854.3401      2145.6599      2854.3401      2145.6599      2854.3401      3.5591868e+08  0.1            16034260       25.61549       1189.478       11894.784      0.6478286    
  48297800   305.29868     -2.1765182     -43241532       1.6809791      905.48719     -43240626       708.6821       708.6821       708.6821       2145.659       2854.341       2145.659       2854.341       2145.659       2854.341       3.5592163e+08  0.1            16034280       25.632332      1187.556       11875.589      0.6303033    
  48298000   305.28125      1.4148578     -43241596       1.6810891      905.43549     -43240691       708.66664      708.66664      708.66664      2145.6667      2854.3333      2145.6667      2854.3333      2145.6667      2854.3333      3.5589835e+08  0.1            16034300       25.649328      1176.7475      11767.418      0.61278263   
  48298200   305.31977      4.4509305     -43241660       1.6811826      905.54975     -43240754       708.65349      708.65349      708.65349      2145.6733      2854.3267      2145.6733      2854.3267      2145.6733      2854.3267      3.5587854e+08  0.1            16034320       25.666574      1159.6772      11596.794      0.59526848   
  48298400   305.3337       2.1041258     -43241724       1.681117       905.59104     -43240819       708.66271      708.66271      708.66271      2145.6686      2854.3314      2145.6686      2854.3314      2145.6686      2854.3314      3.5589242e+08  0.1            16034340       25.683386      1189.6173      11896.236      0.57774494   
  48298600   305.29785     -2.2805059     -43241788       1.680991       905.48474     -43240883       708.68042      708.68042      708.68042      2145.6598      2854.3402      2145.6598      2854.3402      2145.6598      2854.3402      3.559191e+08   0.1            16034360       25.700225      1187.7486      11877.452      0.56022294   
  48298800   305.31393      2.8652645     -43249230       1.6811582      905.53241     -43248325       708.65693      708.65693      708.65693      2145.6715      2854.3285      2145.6715      2854.3285      2145.6715      2854.3285      3.5588372e+08  0.1            16034380       25.717058      1188.0909      11880.909      0.54270176   
  48299000   305.28514      3.3199113     -43249294       1.6811753      905.44704     -43248389       708.65452      708.65452      708.65452      2145.6727      2854.3273      2145.6727      2854.3273      2145.6727      2854.3273      3.5588009e+08  0.1            16034400       25.733976      1182.1905      11821.876      0.52518324   
  48299200   305.31136      3.0881587     -43249358       1.681172       905.5248      -43248453       708.65498      708.65498      708.65498      2145.6725      2854.3275      2145.6725      2854.3275      2145.6725      2854.3275      3.5588078e+08  0.1            16034420       25.750847      1185.4788      11854.84       0.5076646    
  48299400   305.31743     -1.559785      -43242045       1.6810266      905.54279     -43241139       708.67541      708.67541      708.67541      2145.6623      2854.3377      2145.6623      2854.3377      2145.6623      2854.3377      3.5591156e+08  0.1            16034440       25.768014      1164.9959      11649.929      0.49015249   
  48299600   305.31898      4.0941005     -43249486       1.681209       905.54738     -43248581       708.64979      708.64979      708.64979      2145.6751      2854.3249      2145.6751      2854.3249      2145.6751      2854.3249      3.5587296e+08  0.1            16034460       25.784858      1187.3558      11873.574      0.47263493   
  48299800   305.28492     -4.0130611     -43249550       1.680972       905.44637     -43248645       708.68309      708.68309      708.68309      2145.6585      2854.3415      2145.6585      2854.3415      2145.6585      2854.3415      3.5592313e+08  0.1            16034480       25.801657      1190.5666      11905.641      0.45511747   
  48300000   305.27794      2.0968932     -43249615       1.6811567      905.42567     -43248709       708.65714      708.65714      708.65714      2145.6714      2854.3286      2145.6714      2854.3286      2145.6714      2854.3286      3.5588403e+08  0.1            16034500       25.820251      1075.6113      10756.106      0.43763142   
  48300200   305.3158       5.2505635     -43249678       1.6812537      905.53797     -43248772       708.64351      708.64351      708.64351      2145.6782      2854.3218      2145.6782      2854.3218      2145.6782      2854.3218      3.5586349e+08  0.1            16034520       25.837146      1183.7703      11837.717      0.42011624   
  48300400   305.3073      -3.3285331     -43249742       1.6810024      905.51277     -43248837       708.67882      708.67882      708.67882      2145.6606      2854.3394      2145.6606      2854.3394      2145.6606      2854.3394      3.559167e+08   0.1            16034540       25.854187      1173.6387      11736.403      0.40260418   
  48300600   305.30179      0.51751265    -43249807       1.6811199      905.49641     -43248901       708.66231      708.66231      708.66231      2145.6688      2854.3312      2145.6688      2854.3312      2145.6688      2854.3312      3.5589181e+08  0.1            16034560       25.871168      1177.8079      11778.089      0.38509185   
  48300800   305.31355      5.2596037     -43249870       1.6812641      905.53128     -43248964       708.64205      708.64205      708.64205      2145.679       2854.321       2145.679       2854.321       2145.679       2854.321       3.5586129e+08  0.1            16034580       25.887968      1190.4847      11904.836      0.36757767   
  48301000   305.27051      1.0065902     -43249935       1.681141       905.40364     -43249030       708.65934      708.65934      708.65934      2145.6703      2854.3297      2145.6703      2854.3297      2145.6703      2854.3297      3.5588735e+08  0.1            16034600       25.904814      1187.231       11872.24       0.35006509   
  48301200   305.28246     -3.1638455     -43249998       1.6810203      905.43908     -43249093       708.6763       708.6763       708.6763       2145.6618      2854.3382      2145.6618      2854.3382      2145.6618      2854.3382      3.5591291e+08  0.1            16034620       25.92168       1185.8356      11858.391      0.33255365   
  48301400   305.30356     -3.2908801     -43250062       1.6810197      905.50165     -43249157       708.67639      708.67639      708.67639      2145.6618      2854.3382      2145.6618      2854.3382      2145.6618      2854.3382      3.5591303e+08  0.1            16034640       25.93855       1185.4977      11855.027      0.31504315   
  48301600   305.29997      0.82052648    -43252022       1.6811499      905.491       -43251116       708.6581       708.6581       708.6581       2145.671       2854.329       2145.671       2854.329       2145.671       2854.329       3.5588548e+08  0.1            16034660       25.955841      1156.6834      11566.805      0.29753833   
  48301800   305.2974       1.2315082     -43252086       1.6811652      905.4834      -43251180       708.65594      708.65594      708.65594      2145.672       2854.328       2145.672       2854.328       2145.672       2854.328       3.5588222e+08  0.1            16034680       25.972662      1189.0249      11890.237      0.28002872   
  48302000   305.27915      4.3465141     -43252149       1.681261       905.42926     -43251244       708.64248      708.64248      708.64248      2145.6788      2854.3212      2145.6788      2854.3212      2145.6788      2854.3212      3.5586194e+08  0.1            16034700       25.98942       1193.4138      11934.106      0.26251942   
  48302200   305.27746     -3.3449361     -43252213       1.6810354      905.42426     -43251308       708.67418      708.67418      708.67418      2145.6629      2854.3371      2145.6629      2854.3371      2145.6629      2854.3371      3.559097e+08   0.1            16034720       26.006291      1185.4933      11855.015      0.24501218   
  48302400   305.32342      3.1782407     -43252277       1.6812326      905.56056     -43251372       708.64648      708.64648      708.64648      2145.6768      2854.3232      2145.6768      2854.3232      2145.6768      2854.3232      3.5586797e+08  0.1            16034740       26.023084      1190.9387      11909.338      0.22750513   
  48302600   305.30138      2.5129171     -43252341       1.6812159      905.4952      -43251436       708.64882      708.64882      708.64882      2145.6756      2854.3244      2145.6756      2854.3244      2145.6756      2854.3244      3.558715e+08   0.1            16034760       26.039818      1195.2099      11952.131      0.20999855   
  48302800   305.27551     -3.1259644     -43252405       1.6810513      905.41847     -43251500       708.67195      708.67195      708.67195      2145.664       2854.336       2145.664       2854.336       2145.664       2854.336       3.5590635e+08  0.1            16034780       26.05695       1167.3697      11673.709      0.19249596   
  48303000   305.27544      4.8440706     -43252469       1.6812914      905.41827     -43251563       708.63821      708.63821      708.63821      2145.6809      2854.3191      2145.6809      2854.3191      2145.6809      2854.3191      3.5585551e+08  0.1            16034800       26.073818      1185.7033      11856.956      0.17499208   
  48303200   305.28529      0.17541449    -43252533       1.6811557      905.44746     -43251628       708.65728      708.65728      708.65728      2145.6714      2854.3286      2145.6714      2854.3286      2145.6714      2854.3286      3.5588424e+08  0.1            16034820       26.090443      1203.0203      12030.262      0.1574876    
  48303400   305.29968     -1.8398836     -43252597       1.6810988      905.49016     -43251692       708.66527      708.66527      708.66527      2145.6674      2854.3326      2145.6674      2854.3326      2145.6674      2854.3326      3.5589627e+08  0.1            16034840       26.106934      1212.7936      12127.94       0.13998357   
  48303600   305.3061       5.4606881     -43252660       1.6813191      905.50918     -43251755       708.63433      708.63433      708.63433      2145.6828      2854.3172      2145.6828      2854.3172      2145.6828      2854.3172      3.5584966e+08  0.1            16034860       26.123508      1206.7106      12067.134      0.12248129   
  48303800   305.27522     -1.6699983     -43252725       1.6811101      905.41759     -43251820       708.66368      708.66368      708.66368      2145.6682      2854.3318      2145.6682      2854.3318      2145.6682      2854.3318      3.5589388e+08  0.1            16034880       26.139998      1212.8498      12128.47       0.10497992   
  48304000   305.25104     -0.34731233    -43252789       1.6811526      905.34589     -43251884       708.65771      708.65771      708.65771      2145.6711      2854.3289      2145.6711      2854.3289      2145.6711      2854.3289      3.558849e+08   0.1            16034900       26.1569        1183.2639      11832.587      0.08748128   
  48304200   305.29822      5.409547      -43252852       1.6813268      905.48583     -43251946       708.63323      708.63323      708.63323      2145.6834      2854.3166      2145.6834      2854.3166      2145.6834      2854.3166      3.5584802e+08  0.1            16034920       26.173584      1198.7892      11987.963      0.06998285   
  48304400   305.2908      -2.7027478     -43252916       1.6810889      905.46383     -43252011       708.66667      708.66667      708.66667      2145.6667      2854.3333      2145.6667      2854.3333      2145.6667      2854.3333      3.5589839e+08  0.1            16034940       26.190403      1189.1055      11891.007      0.052485783  
  48304600   305.28208      0.36568478    -43252981       1.6811832      905.43795     -43252075       708.65341      708.65341      708.65341      2145.6733      2854.3267      2145.6733      2854.3267      2145.6733      2854.3267      3.5587842e+08  0.1            16034960       26.207228      1188.6814      11886.843      0.034989627  
  48304800   305.29669      5.8831408     -43253043       1.6813503      905.48127     -43252137       708.62994      708.62994      708.62994      2145.685       2854.315       2145.685       2854.315       2145.685       2854.315       3.5584306e+08  0.1            16034980       26.22407       1187.537       11875.38       0.017494378  
  48305000   305.23411     -3.3958531     -43253108       1.6810778      905.29568     -43252202       708.66822      708.66822      708.66822      2145.6659      2854.3341      2145.6659      2854.3341      2145.6659      2854.3341      3.5590073e+08  0.1            16035000       26.240931      1186.1762      11861.651      0            
Loop time of 26.241 on 4 procs for 300000 steps with 996 atoms

Performance: 98.777 ns/day, 0.243 hours/ns, 11432.504 timesteps/s
99.5% CPU use with 4 MPI tasks x 1 OpenMP threads

MPI task timing breakdown:
Section |  min time  |  avg time  |  max time  |%varavg| %total
---------------------------------------------------------------
Pair    | 11.963     | 12.786     | 13.478     |  15.1 | 48.72
Neigh   | 0.0061159  | 0.0068981  | 0.0074239  |   0.6 |  0.03
Comm    | 6.1473     | 6.7818     | 7.5386     |  19.3 | 25.84
Output  | 0.076882   | 0.086447   | 0.11406    |   5.4 |  0.33
Modify  | 5.403      | 5.5366     | 5.6786     |   4.2 | 21.10
Other   |            | 1.043      |            |       |  3.98

Nlocal:            249 ave         279 max         223 min
Histogram: 1 0 1 0 0 1 0 0 0 1
Nghost:          661.5 ave         673 max         648 min
Histogram: 1 0 0 0 0 1 1 0 0 1
Neighs:           1650 ave        1734 max        1544 min
Histogram: 1 0 0 1 0 0 0 0 0 2

Total # of neighbors = 6600
Ave neighs/atom = 6.626506
Neighbor list builds = 35
Dangerous builds = 3

# run_style
run_style verlet

# write restart
write_restart ${write_res}
write_restart ./pgnpmf/37/equpmf69.res
System init for write_restart ...
Generated 0 of 1 mixed pair_coeff terms from geometric mixing rule

Total wall time: 0:00:55
