LAMMPS (23 Jun 2022 - Update 1)
OMP_NUM_THREADS environment is not set. Defaulting to 1 thread. (src/comm.cpp:98)
  using 1 OpenMP thread(s) per MPI task
# Read restart
read_restart ${read_res}
read_restart ./pgnpmf/37/equpmf72.res
Reading restart file ...
  restart file = 23 Jun 2022, LAMMPS = 23 Jun 2022
  restoring atom style atomic from restart
  orthogonal box = (2146.1495 2146.1495 2146.1495) to (2853.8505 2853.8505 2853.8505)
  1 by 2 by 2 MPI processor grid
  restoring pair style table from restart
  996 atoms
  read_restart CPU = 0.008 seconds

# Settings

pair_style table spline 9941

pair_coeff 1 1 ./pgnpmf/N20.txt DE_GNP 75.6
pair_coeff 2 2 ./pgnpmf/N100.txt DE_GNP 115.92
WARNING: 3 of 9941 force values in table DE_GNP are inconsistent with -dE/dr.
WARNING:  Should only be flagged at inflection points (src/pair_table.cpp:463)
pair_coeff 1 2 ./pgnpmf/mixed_potential.txt DE_GNP 95.66
WARNING: 1562 of 9941 force values in table DE_GNP are inconsistent with -dE/dr.
WARNING:  Should only be flagged at inflection points (src/pair_table.cpp:463)

#Neigh_list Calc Frequency

neigh_modify delay 0 every 1 check yes

# Saving Frequency (50 frames)

variable ts_save equal ${steps_equ}
variable ts_save equal 5000

# Dump
#dump 1 all custom ${ts_save} ./pgnpmf/${folder}/equilibration/trajectory/trajectory_${usic}_${trial}.equ.custom type x y z ix iy iz
#dump_modify 1 first no sort id
dump 2 all cfg 50000 ./pgnpmf/${folder}/equilibration/trajectory/dumpgen.tens_*.cfg mass type xs ys zs fx fy fz
dump 2 all cfg 50000 ./pgnpmf/37/equilibration/trajectory/dumpgen.tens_*.cfg mass type xs ys zs fx fy fz
dump_modify 2 element N20 N100

# thermo_style
thermo_style custom step temp press pe density ke etotal lx ly lz xlo xhi ylo yhi zlo zhi vol dt time cpu tpcpu spcpu cpuremain

# run info
timestep ${ts}
timestep 0.1
thermo 200

# fix

fix 1 all momentum 1000 linear 1 1 1 angular
variable T equal ${temp}
variable T equal 300
fix 2 all nvt temp ${T} 370000 100.0
fix 2 all nvt temp 300 370000 100.0

run 100000
Generated 0 of 1 mixed pair_coeff terms from geometric mixing rule
Unused restart file global fix info:
  fix style: npt, fix ID: 5
Neighbor list info ...
  update every 1 steps, delay 0 steps, check yes
  max neighbors/atom: 2000, page size: 100000
  master list distance cutoff = 117.92
  ghost atom cutoff = 117.92
  binsize = 58.96, bins = 13 13 13
  1 neighbor lists, perpetual/occasional/extra = 1 0 0
  (1) pair table, perpetual
      attributes: half, newton on
      pair build: half/bin/atomonly/newton
      stencil: half/bin/3d
      bin: standard
Per MPI rank memory allocation (min/avg/max) = 3.082 | 3.083 | 3.084 Mbytes
   Step          Temp          Press          PotEng        Density         KinEng         TotEng           Lx             Ly             Lz            Xlo            Xhi            Ylo            Yhi            Zlo            Zhi           Volume           Dt            Time           CPU           T/CPU          S/CPU         CPULeft    
  50405000   305.16061     -1.2893835     -43513545       1.6879797      905.07767     -43512640       707.70102      707.70102      707.70102      2146.1495      2853.8505      2146.1495      2853.8505      2146.1495      2853.8505      3.5444549e+08  0.1            16245000       0              0              0              0            
  50405200   331.64556     -1.396501      -43513610       1.6879797      983.62955     -43512626       707.70102      707.70102      707.70102      2146.1495      2853.8505      2146.1495      2853.8505      2146.1495      2853.8505      3.5444549e+08  0.1            16245020       0.014732112    1357.5123      13574.284      7.3525599    
  50405400   371.51644     -1.5045645     -43513677       1.6879797      1101.8828     -43512576       707.70102      707.70102      707.70102      2146.1495      2853.8505      2146.1495      2853.8505      2146.1495      2853.8505      3.5444549e+08  0.1            16245040       0.0288396      1417.6849      14176.876      7.1816889    
  50405600   414.65361     -1.6185901     -43513749       1.6879797      1229.8236     -43512519       707.70102      707.70102      707.70102      2146.1495      2853.8505      2146.1495      2853.8505      2146.1495      2853.8505      3.5444549e+08  0.1            16245060       0.042965344    1415.8424      14158.509      7.1183317    
  50405800   467.0774      -1.7371232     -43513825       1.6879797      1385.3076     -43512439       707.70102      707.70102      707.70102      2146.1495      2853.8505      2146.1495      2853.8505      2146.1495      2853.8505      3.5444549e+08  0.1            16245080       0.05715211     1409.7883      14097.919      7.0871341    
  50406000   528.26532     -1.8617744     -43513905       1.6879797      1566.7853     -43512338       707.70102      707.70102      707.70102      2146.1495      2853.8505      2146.1495      2853.8505      2146.1495      2853.8505      3.5444549e+08  0.1            16245100       0.071799343    1365.4332      13654.198      7.1083899    
  50406200   598.52654     -1.9934051     -43513990       1.6879797      1775.1735     -43512215       707.70102      707.70102      707.70102      2146.1495      2853.8505      2146.1495      2853.8505      2146.1495      2853.8505      3.5444549e+08  0.1            16245120       0.086326119    1376.7266      13767.375      7.1077516    
  50406400   678.81159     -2.1333211     -43514081       1.6879797      2013.2914     -43512068       707.70102      707.70102      707.70102      2146.1495      2853.8505      2146.1495      2853.8505      2146.1495      2853.8505      3.5444549e+08  0.1            16245140       0.10079845     1381.984       13819.728      7.0992718    
  50406600   770.2242      -2.6624292     -43521556       1.6879797      2284.4126     -43519271       707.70102      707.70102      707.70102      2146.1495      2853.8505      2146.1495      2853.8505      2146.1495      2853.8505      3.5444549e+08  0.1            16245160       0.11539545     1370.1442      13701.446      7.0969859    
  50406800   874.0546      -2.8235857     -43521658       1.6879797      2592.3638     -43519066       707.70102      707.70102      707.70102      2146.1495      2853.8505      2146.1495      2853.8505      2146.1495      2853.8505      3.5444549e+08  0.1            16245180       0.13020182     1350.7806      13507.817      7.1033787    
  50407000   991.64062     -2.9973529     -43521768       1.6879797      2941.1129     -43518827       707.70102      707.70102      707.70102      2146.1495      2853.8505      2146.1495      2853.8505      2146.1495      2853.8505      3.5444549e+08  0.1            16245200       0.14501488     1350.1614      13501.614      7.1058497    
  50407200   1124.812      -3.1846422     -43521885       1.6879797      3336.0866     -43518549       707.70102      707.70102      707.70102      2146.1495      2853.8505      2146.1495      2853.8505      2146.1495      2853.8505      3.5444549e+08  0.1            16245220       0.15983848     1349.2087      13492.092      7.1056467    
  50407400   1275.3614     -3.3869174     -43522009       1.6879797      3782.602      -43518226       707.70102      707.70102      707.70102      2146.1495      2853.8505      2146.1495      2853.8505      2146.1495      2853.8505      3.5444549e+08  0.1            16245240       0.1751702      1304.4796      13044.742      7.1236869    
  50407600   1445.3655     -3.6054789     -43522140       1.6879797      4286.8181     -43517854       707.70102      707.70102      707.70102      2146.1495      2853.8505      2146.1495      2853.8505      2146.1495      2853.8505      3.5444549e+08  0.1            16245260       0.18974862     1371.8946      13719.118      7.108361     
  50407800   1637.1361     -3.8413917     -43522281       1.6879797      4855.5918     -43517425       707.70102      707.70102      707.70102      2146.1495      2853.8505      2146.1495      2853.8505      2146.1495      2853.8505      3.5444549e+08  0.1            16245280       0.20420642     1383.3337      13833.258      7.0889609    
  50408000   1853.1182     -4.0948653     -43522430       1.6879797      5496.1745     -43516934       707.70102      707.70102      707.70102      2146.1495      2853.8505      2146.1495      2853.8505      2146.1495      2853.8505      3.5444549e+08  0.1            16245300       0.21894038     1357.3712      13573.559      7.0791677    
  50408200   2096.3269     -4.3653507     -43522588       1.6879797      6217.5086     -43516371       707.70102      707.70102      707.70102      2146.1495      2853.8505      2146.1495      2853.8505      2146.1495      2853.8505      3.5444549e+08  0.1            16245320       0.23939792     977.65429      9776.5568      7.2418636    
  50408400   2369.8119     -4.6526151     -43522757       1.6879797      7028.6393     -43515728       707.70102      707.70102      707.70102      2146.1495      2853.8505      2146.1495      2853.8505      2146.1495      2853.8505      3.5444549e+08  0.1            16245340       0.25409129     1361.1341      13611.519      7.219254     
  50408600   2676.9916     -4.9570864     -43522935       1.6879797      7939.7056     -43514996       707.70102      707.70102      707.70102      2146.1495      2853.8505      2146.1495      2853.8505      2146.1495      2853.8505      3.5444549e+08  0.1            16245360       0.26921302     1322.607       13225.971      7.2089947    
  50408800   3021.5983     -5.439318      -43525020       1.6879797      8961.7766     -43516058       707.70102      707.70102      707.70102      2146.1495      2853.8505      2146.1495      2853.8505      2146.1495      2853.8505      3.5444549e+08  0.1            16245380       0.28414039     1339.8189      13398.258      7.1933033    
  50409000   3407.5621     -5.7807822     -43525221       1.6879797      10106.509     -43515114       707.70102      707.70102      707.70102      2146.1495      2853.8505      2146.1495      2853.8505      2146.1495      2853.8505      3.5444549e+08  0.1            16245400       0.29881836     1362.5955      13625.861      7.1717036    
  50409200   3839.439      -6.1395341     -43525434       1.6879797      11387.415     -43514047       707.70102      707.70102      707.70102      2146.1495      2853.8505      2146.1495      2853.8505      2146.1495      2853.8505      3.5444549e+08  0.1            16245420       0.31349783     1362.4532      13624.643      7.1507903    
  50409400   4321.8491     -6.5149175     -43525660       1.6879797      12818.198     -43512842       707.70102      707.70102      707.70102      2146.1495      2853.8505      2146.1495      2853.8505      2146.1495      2853.8505      3.5444549e+08  0.1            16245440       0.32815931     1364.1212      13641.235      7.1300564    
  50409600   4859.7834     -6.9057605     -43525899       1.6879797      14413.661     -43511485       707.70102      707.70102      707.70102      2146.1495      2853.8505      2146.1495      2853.8505      2146.1495      2853.8505      3.5444549e+08  0.1            16245460       0.34306999     1341.3204      13413.212      7.1150193    
  50409800   5458.5025     -7.3044373     -43526152       1.6879797      16189.405     -43509962       707.70102      707.70102      707.70102      2146.1495      2853.8505      2146.1495      2853.8505      2146.1495      2853.8505      3.5444549e+08  0.1            16245480       0.35785325     1352.8539      13528.499      7.0974738    
  50410000   6123.3794     -7.8576808     -43528314       1.6879797      18161.368     -43510153       707.70102      707.70102      707.70102      2146.1495      2853.8505      2146.1495      2853.8505      2146.1495      2853.8505      3.5444549e+08  0.1            16245500       0.37301938     1318.7414      13187.353      7.0874178    
  50410200   6860.2288     -8.2400297     -43528596       1.6879797      20346.794     -43508250       707.70102      707.70102      707.70102      2146.1495      2853.8505      2146.1495      2853.8505      2146.1495      2853.8505      3.5444549e+08  0.1            16245520       0.38801436     1333.7924      13337.915      7.0738435    
  50410400   7674.6408     -8.6171648     -43528895       1.6879797      22762.263     -43506133       707.70102      707.70102      707.70102      2146.1495      2853.8505      2146.1495      2853.8505      2146.1495      2853.8505      3.5444549e+08  0.1            16245540       0.4028002      1352.6157      13526.192      7.0565109    
  50410600   8572.2217     -8.9899071     -43529210       1.6879797      25424.404     -43503786       707.70102      707.70102      707.70102      2146.1495      2853.8505      2146.1495      2853.8505      2146.1495      2853.8505      3.5444549e+08  0.1            16245560       0.41747446     1362.9622      13629.669      7.0374652    
  50410800   9558.3485     -8.974186      -43522166       1.6879797      28349.163     -43493817       707.70102      707.70102      707.70102      2146.1495      2853.8505      2146.1495      2853.8505      2146.1495      2853.8505      3.5444549e+08  0.1            16245580       0.43215209     1362.6118      13626.108      7.018785     
  50411000   10637.745     -9.4288448     -43522886       1.6879797      31550.55      -43491335       707.70102      707.70102      707.70102      2146.1495      2853.8505      2146.1495      2853.8505      2146.1495      2853.8505      3.5444549e+08  0.1            16245600       0.44699903     1347.0798      13470.654      7.003025     
  50411200   11814.67      -9.3445513     -43515878       1.6879797      35041.202     -43480837       707.70102      707.70102      707.70102      2146.1495      2853.8505      2146.1495      2853.8505      2146.1495      2853.8505      3.5444549e+08  0.1            16245620       0.46193447     1339.1052      13391.218      6.9886554    
  50411400   13091.821     -9.7457401     -43518162       1.6879797      38829.11      -43479333       707.70102      707.70102      707.70102      2146.1495      2853.8505      2146.1495      2853.8505      2146.1495      2853.8505      3.5444549e+08  0.1            16245640       0.47723897     1306.7877      13067.855      6.9796569    
  50411600   14470.471     -9.9539103     -43518570       1.6879797      42918.056     -43475652       707.70102      707.70102      707.70102      2146.1495      2853.8505      2146.1495      2853.8505      2146.1495      2853.8505      3.5444549e+08  0.1            16245660       0.49194651     1359.8261      13598.259      6.9618259    
  50411800   15950.281     -9.9861974     -43517101       1.6879797      47307.035     -43469794       707.70102      707.70102      707.70102      2146.1495      2853.8505      2146.1495      2853.8505      2146.1495      2853.8505      3.5444549e+08  0.1            16245680       0.50680103     1346.4211      13464.056      6.9461902    
  50412000   17528.355     -10.163133     -43517547       1.6879797      51987.452     -43465559       707.70102      707.70102      707.70102      2146.1495      2853.8505      2146.1495      2853.8505      2146.1495      2853.8505      3.5444549e+08  0.1            16245700       0.52165646     1346.3088      13463.118      6.930613     
  50412200   19199.269     -10.35437      -43518011       1.6879797      56943.228     -43461067       707.70102      707.70102      707.70102      2146.1495      2853.8505      2146.1495      2853.8505      2146.1495      2853.8505      3.5444549e+08  0.1            16245720       0.5367056      1328.9784      13289.909      6.9175696    
  50412400   20954.132     -10.631433     -43518494       1.6879797      62147.985     -43456346       707.70102      707.70102      707.70102      2146.1495      2853.8505      2146.1495      2853.8505      2146.1495      2853.8505      3.5444549e+08  0.1            16245740       0.55163563     1339.5896      13395.592      6.9029372    
  50412600   22780.269     -11.009498     -43518996       1.6879797      67564.137     -43451432       707.70102      707.70102      707.70102      2146.1495      2853.8505      2146.1495      2853.8505      2146.1495      2853.8505      3.5444549e+08  0.1            16245760       0.56718331     1286.3624      12863.905      6.8957839    
  50412800   24660.603     -11.245084     -43517622       1.6879797      73141.03      -43444481       707.70102      707.70102      707.70102      2146.1495      2853.8505      2146.1495      2853.8505      2146.1495      2853.8505      3.5444549e+08  0.1            16245780       0.58275797     1284.134       12841.267      6.8885265    
  50413000   26573.14      -11.603645     -43518162       1.6879797      78813.435     -43439348       707.70102      707.70102      707.70102      2146.1495      2853.8505      2146.1495      2853.8505      2146.1495      2853.8505      3.5444549e+08  0.1            16245800       0.59796633     1315.0555      13150.531      6.8766434    
  50413200   28490.964     -11.941514     -43518719       1.6879797      84501.522     -43434217       707.70102      707.70102      707.70102      2146.1495      2853.8505      2146.1495      2853.8505      2146.1495      2853.8505      3.5444549e+08  0.1            16245820       0.61311973     1319.8524      13198.626      6.863976     
  50413400   30382.051     -12.241771     -43519292       1.6879797      90110.306     -43429181       707.70102      707.70102      707.70102      2146.1495      2853.8505      2146.1495      2853.8505      2146.1495      2853.8505      3.5444549e+08  0.1            16245840       0.62810325     1334.8045      13347.982      6.8493417    
  50413600   32209.743     -12.493403     -43519878       1.6879797      95531.069     -43424347       707.70102      707.70102      707.70102      2146.1495      2853.8505      2146.1495      2853.8505      2146.1495      2853.8505      3.5444549e+08  0.1            16245860       0.64311239     1332.5166      13325.209      6.8349641    
  50413800   33933.725     -12.770371     -43520477       1.6879797      100644.24     -43419833       707.70102      707.70102      707.70102      2146.1495      2853.8505      2146.1495      2853.8505      2146.1495      2853.8505      3.5444549e+08  0.1            16245880       0.65807786     1336.4029      13364.056      6.8201052    
  50414000   35511.544     -13.074891     -43521087       1.6879797      105323.9      -43415763       707.70102      707.70102      707.70102      2146.1495      2853.8505      2146.1495      2853.8505      2146.1495      2853.8505      3.5444549e+08  0.1            16245900       0.67346822     1299.5127      12994.985      6.8095389    
  50414200   36901.434     -13.27313      -43521705       1.6879797      109446.19     -43412259       707.70102      707.70102      707.70102      2146.1495      2853.8505      2146.1495      2853.8505      2146.1495      2853.8505      3.5444549e+08  0.1            16245920       0.68839444     1339.9253      13398.722      6.7941847    
  50414400   38065.488     -13.32584      -43522329       1.6879797      112898.66     -43409431       707.70102      707.70102      707.70102      2146.1495      2853.8505      2146.1495      2853.8505      2146.1495      2853.8505      3.5444549e+08  0.1            16245940       0.70392722     1287.6042      12876.536      6.7846842    
  50414600   38975.004     -13.377236     -43522958       1.6879797      115596.2      -43407361       707.70102      707.70102      707.70102      2146.1495      2853.8505      2146.1495      2853.8505      2146.1495      2853.8505      3.5444549e+08  0.1            16245960       0.71947564     1286.3051      12863.171      6.7750848    
  50414800   39616.364     -13.767222     -43523588       1.6879797      117498.41     -43406090       707.70102      707.70102      707.70102      2146.1495      2853.8505      2146.1495      2853.8505      2146.1495      2853.8505      3.5444549e+08  0.1            16245980       0.73598854     1211.1727      12111.714      6.7741208    
  50415000   39996.19      -14.63358      -43524221       1.6879797      118624.94     -43405596       707.70102      707.70102      707.70102      2146.1495      2853.8505      2146.1495      2853.8505      2146.1495      2853.8505      3.5444549e+08  0.1            16246000       0.75064762     1364.3296      13643.244      6.7558524    
  50415200   40144.272     -16.049001     -43526747       1.6879797      119064.14     -43407683       707.70102      707.70102      707.70102      2146.1495      2853.8505      2146.1495      2853.8505      2146.1495      2853.8505      3.5444549e+08  0.1            16246020       0.7658014      1319.8132      13198.058      6.7420777    
  50415400   40111.743     -17.519036     -43527744       1.6879797      118967.66     -43408776       707.70102      707.70102      707.70102      2146.1495      2853.8505      2146.1495      2853.8505      2146.1495      2853.8505      3.5444549e+08  0.1            16246040       0.78117048     1301.3064      13013.165      6.7301052    
  50415600   39965.913     -18.69283      -43528366       1.6879797      118535.14     -43409831       707.70102      707.70102      707.70102      2146.1495      2853.8505      2146.1495      2853.8505      2146.1495      2853.8505      3.5444549e+08  0.1            16246060       0.79639216     1313.8891      13138.948      6.7167646    
  50415800   39781.405     -19.889493     -43530876       1.6879797      117987.91     -43412888       707.70102      707.70102      707.70102      2146.1495      2853.8505      2146.1495      2853.8505      2146.1495      2853.8505      3.5444549e+08  0.1            16246080       0.81111239     1358.7138      13587.066      6.6992078    
  50416000   39632.141     -21.265029     -43538862       1.6879797      117545.21     -43421317       707.70102      707.70102      707.70102      2146.1495      2853.8505      2146.1495      2853.8505      2146.1495      2853.8505      3.5444549e+08  0.1            16246100       0.82609483     1334.8969      13348.894      6.6838789    
  50416200   39585.036     -22.22428      -43539466       1.6879797      117405.49     -43422061       707.70102      707.70102      707.70102      2146.1495      2853.8505      2146.1495      2853.8505      2146.1495      2853.8505      3.5444549e+08  0.1            16246120       0.84091832     1349.2056      13492.192      6.6672999    
  50416400   39696.601     -23.51036      -43547445       1.6879797      117736.39     -43429709       707.70102      707.70102      707.70102      2146.1495      2853.8505      2146.1495      2853.8505      2146.1495      2853.8505      3.5444549e+08  0.1            16246140       0.85567245     1355.5587      13555.563      6.6502444    
  50416600   40012.268     -23.921582     -43540666       1.6879797      118672.63     -43421993       707.70102      707.70102      707.70102      2146.1495      2853.8505      2146.1495      2853.8505      2146.1495      2853.8505      3.5444549e+08  0.1            16246160       0.87076037     1325.5525      13255.521      6.6358129    
  50416800   40564.287     -24.697859     -43541263       1.6879797      120309.86     -43420954       707.70102      707.70102      707.70102      2146.1495      2853.8505      2146.1495      2853.8505      2146.1495      2853.8505      3.5444549e+08  0.1            16246180       0.88560533     1347.2687      13472.736      6.6195421    
  50417000   41368.968     -25.599446     -43541861       1.6879797      122696.47     -43419164       707.70102      707.70102      707.70102      2146.1495      2853.8505      2146.1495      2853.8505      2146.1495      2853.8505      3.5444549e+08  0.1            16246200       0.90024811     1365.8568      13658.4        6.6018391    
  50417200   42424.183     -26.568649     -43542460       1.6879797      125826.14     -43416634       707.70102      707.70102      707.70102      2146.1495      2853.8505      2146.1495      2853.8505      2146.1495      2853.8505      3.5444549e+08  0.1            16246220       0.9151522      1341.9209      13419.317      6.5861134    
  50417400   43706.197     -27.613071     -43550443       1.6879797      129628.47     -43420814       707.70102      707.70102      707.70102      2146.1495      2853.8505      2146.1495      2853.8505      2146.1495      2853.8505      3.5444549e+08  0.1            16246240       0.92984316     1361.3557      13613.558      6.5689111    
  50417600   45170.455     -27.770316     -43551052       1.6879797      133971.32     -43417080       707.70102      707.70102      707.70102      2146.1495      2853.8505      2146.1495      2853.8505      2146.1495      2853.8505      3.5444549e+08  0.1            16246260       0.94482196     1335.2419      13352.514      6.5537806    
  50417800   46757.099     -27.546092     -43551663       1.6879797      138677.16     -43412986       707.70102      707.70102      707.70102      2146.1495      2853.8505      2146.1495      2853.8505      2146.1495      2853.8505      3.5444549e+08  0.1            16246280       0.95962972     1350.6427      13506.186      6.5374945    
  50418000   48398.54      -26.915526     -43544901       1.6879797      143545.52     -43401355       707.70102      707.70102      707.70102      2146.1495      2853.8505      2146.1495      2853.8505      2146.1495      2853.8505      3.5444549e+08  0.1            16246300       0.97476513     1321.3913      13213.968      6.5234458    
  50418200   50025.309     -26.767431     -43545520       1.6879797      148370.37     -43397150       707.70102      707.70102      707.70102      2146.1495      2853.8505      2146.1495      2853.8505      2146.1495      2853.8505      3.5444549e+08  0.1            16246320       0.98989665     1321.7499      13217.459      6.5093372    
  50418400   51570.198     -26.972208     -43553520       1.6879797      152952.36     -43400568       707.70102      707.70102      707.70102      2146.1495      2853.8505      2146.1495      2853.8505      2146.1495      2853.8505      3.5444549e+08  0.1            16246340       1.0047911      1342.7921      13428.04       6.4936658    
  50418600   52972.415     -26.924874     -43554144       1.6879797      157111.2      -43397033       707.70102      707.70102      707.70102      2146.1495      2853.8505      2146.1495      2853.8505      2146.1495      2853.8505      3.5444549e+08  0.1            16246360       1.0195853      1351.8961      13518.698      6.4773805    
  50418800   54180.234     -27.140508     -43554769       1.6879797      160693.48     -43394075       707.70102      707.70102      707.70102      2146.1495      2853.8505      2146.1495      2853.8505      2146.1495      2853.8505      3.5444549e+08  0.1            16246380       1.0344323      1347.0425      13470.694      6.46147      
  50419000   55154.599     -27.566309     -43555391       1.6879797      163583.36     -43391808       707.70102      707.70102      707.70102      2146.1495      2853.8505      2146.1495      2853.8505      2146.1495      2853.8505      3.5444549e+08  0.1            16246400       1.0491243      1361.3101      13613.043      6.444635     
  50419200   55874.387     -28.084307     -43556011       1.6879797      165718.18     -43390292       707.70102      707.70102      707.70102      2146.1495      2853.8505      2146.1495      2853.8505      2146.1495      2853.8505      3.5444549e+08  0.1            16246420       1.0640713      1338.0585      13380.585      6.4294024    
  50419400   56338.749     -28.617449     -43556627       1.6879797      167095.43     -43389531       707.70102      707.70102      707.70102      2146.1495      2853.8505      2146.1495      2853.8505      2146.1495      2853.8505      3.5444549e+08  0.1            16246440       1.0792229      1319.9906      13200.042      6.4153934    
  50419600   56568.873     -29.262727     -43557239       1.6879797      167777.96     -43389461       707.70102      707.70102      707.70102      2146.1495      2853.8505      2146.1495      2853.8505      2146.1495      2853.8505      3.5444549e+08  0.1            16246460       1.0940328      1350.3695      13503.668      6.3993603    
  50419800   56606.99      -30.309184     -43558215       1.6879797      167891.01     -43390324       707.70102      707.70102      707.70102      2146.1495      2853.8505      2146.1495      2853.8505      2146.1495      2853.8505      3.5444549e+08  0.1            16246480       1.1090347      1333.2343      13332.315      6.3844563    
  50420000   56511.916     -31.400347     -43558813       1.6879797      167609.03     -43391204       707.70102      707.70102      707.70102      2146.1495      2853.8505      2146.1495      2853.8505      2146.1495      2853.8505      3.5444549e+08  0.1            16246500       1.1242884      1311.1615      13111.49       6.3709824    
  50420200   56353.074     -32.384147     -43559769       1.6879797      167137.92     -43392631       707.70102      707.70102      707.70102      2146.1495      2853.8505      2146.1495      2853.8505      2146.1495      2853.8505      3.5444549e+08  0.1            16246520       1.1396724      1300.0475      13000.663      6.3581847    
  50420400   56202.471     -32.520323     -43552968       1.6879797      166691.25     -43386277       707.70102      707.70102      707.70102      2146.1495      2853.8505      2146.1495      2853.8505      2146.1495      2853.8505      3.5444549e+08  0.1            16246540       1.154743       1327.0926      13270.847      6.3436007    
  50420600   56129.238     -33.189033     -43560913       1.6879797      166474.04     -43394439       707.70102      707.70102      707.70102      2146.1495      2853.8505      2146.1495      2853.8505      2146.1495      2853.8505      3.5444549e+08  0.1            16246560       1.1705345      1266.5046      12664.999      6.3329046    
  50420800   56195.008     -33.488279     -43561471       1.6879797      166669.11     -43394802       707.70102      707.70102      707.70102      2146.1495      2853.8505      2146.1495      2853.8505      2146.1495      2853.8505      3.5444549e+08  0.1            16246580       1.1858743      1303.8024      13037.767      6.3196732    
  50421000   56450.526     -33.575801     -43554647       1.6879797      167426.95     -43387220       707.70102      707.70102      707.70102      2146.1495      2853.8505      2146.1495      2853.8505      2146.1495      2853.8505      3.5444549e+08  0.1            16246600       1.2010218      1320.3373      13203.662      6.3053773    
  50421200   56932.959     -34.497513     -43562574       1.6879797      168857.81     -43393716       707.70102      707.70102      707.70102      2146.1495      2853.8505      2146.1495      2853.8505      2146.1495      2853.8505      3.5444549e+08  0.1            16246620       1.2160127      1334.1502      13341.419      6.2902513    
  50421400   57663.402     -34.827242     -43563117       1.6879797      171024.23     -43392093       707.70102      707.70102      707.70102      2146.1495      2853.8505      2146.1495      2853.8505      2146.1495      2853.8505      3.5444549e+08  0.1            16246640       1.2310641      1328.7749      13287.95       6.2754361    
  50421600   58645.485     -35.085217     -43570666       1.6879797      173936.99     -43396729       707.70102      707.70102      707.70102      2146.1495      2853.8505      2146.1495      2853.8505      2146.1495      2853.8505      3.5444549e+08  0.1            16246660       1.2461402      1326.6169      13266.024      6.2607401    
  50421800   59863.06      -35.430621     -43578580       1.6879797      177548.21     -43401031       707.70102      707.70102      707.70102      2146.1495      2853.8505      2146.1495      2853.8505      2146.1495      2853.8505      3.5444549e+08  0.1            16246680       1.2613528      1314.6983      13146.999      6.2467106    
  50422000   61279.831     -35.383135     -43577217       1.6879797      181750.22     -43395467       707.70102      707.70102      707.70102      2146.1495      2853.8505      2146.1495      2853.8505      2146.1495      2853.8505      3.5444549e+08  0.1            16246700       1.2765882      1312.7294      13127.284      6.2327675    
  50422200   62842.506     -35.414615     -43577746       1.6879797      186384.97     -43391361       707.70102      707.70102      707.70102      2146.1495      2853.8505      2146.1495      2853.8505      2146.1495      2853.8505      3.5444549e+08  0.1            16246720       1.2916407      1328.6821      13286.776      6.21791      
  50422400   64485.57      -35.289045     -43578269       1.6879797      191258.14     -43387011       707.70102      707.70102      707.70102      2146.1495      2853.8505      2146.1495      2853.8505      2146.1495      2853.8505      3.5444549e+08  0.1            16246740       1.3063189      1362.5648      13625.709      6.2012719    
  50422600   66138.6       -35.368999     -43586169       1.6879797      196160.87     -43390009       707.70102      707.70102      707.70102      2146.1495      2853.8505      2146.1495      2853.8505      2146.1495      2853.8505      3.5444549e+08  0.1            16246760       1.3211408      1349.363       13493.566      6.1853517    
  50422800   67730.127     -34.498467     -43579313       1.6879797      200881.19     -43378432       707.70102      707.70102      707.70102      2146.1495      2853.8505      2146.1495      2853.8505      2146.1495      2853.8505      3.5444549e+08  0.1            16246780       1.3359887      1346.9897      13469.877      6.1695766    
  50423000   69192.13      -34.218563     -43579831       1.6879797      205217.35     -43374614       707.70102      707.70102      707.70102      2146.1495      2853.8505      2146.1495      2853.8505      2146.1495      2853.8505      3.5444549e+08  0.1            16246800       1.3509162      1339.795       13397.981      6.1541855    
  50423200   70466.512     -33.945684     -43572967       1.6879797      208997.05     -43363970       707.70102      707.70102      707.70102      2146.1495      2853.8505      2146.1495      2853.8505      2146.1495      2853.8505      3.5444549e+08  0.1            16246820       1.3663743      1293.8297      12938.208      6.1411878    
  50423400   71508.493     -33.709412     -43566098       1.6879797      212087.47     -43354011       707.70102      707.70102      707.70102      2146.1495      2853.8505      2146.1495      2853.8505      2146.1495      2853.8505      3.5444549e+08  0.1            16246840       1.3817011      1304.9028      13049.208      6.127554     
  50423600   72290.113     -33.359382     -43559222       1.6879797      214405.68     -43344816       707.70102      707.70102      707.70102      2146.1495      2853.8505      2146.1495      2853.8505      2146.1495      2853.8505      3.5444549e+08  0.1            16246860       1.3965163      1349.9695      13499.673      6.1116457    
  50423800   72805.019     -33.25893      -43559345       1.6879797      215932.84     -43343412       707.70102      707.70102      707.70102      2146.1495      2853.8505      2146.1495      2853.8505      2146.1495      2853.8505      3.5444549e+08  0.1            16246880       1.4113068      1352.2168      13522.187      6.095654     
  50424000   73070.036     -33.622856     -43561723       1.6879797      216718.86     -43345004       707.70102      707.70102      707.70102      2146.1495      2853.8505      2146.1495      2853.8505      2146.1495      2853.8505      3.5444549e+08  0.1            16246900       1.4264175      1323.5598      13235.506      6.0810535    
  50424200   73123.774     -34.258811     -43562195       1.6879797      216878.24     -43345317       707.70102      707.70102      707.70102      2146.1495      2853.8505      2146.1495      2853.8505      2146.1495      2853.8505      3.5444549e+08  0.1            16246920       1.4413702      1337.5549      13375.581      6.0657761    
  50424400   73023.464     -35.584927     -43564551       1.6879797      216580.73     -43347971       707.70102      707.70102      707.70102      2146.1495      2853.8505      2146.1495      2853.8505      2146.1495      2853.8505      3.5444549e+08  0.1            16246940       1.456124       1355.5471      13555.623      6.0496804    
  50424600   72838.811     -36.582518     -43565002       1.6879797      216033.07     -43348969       707.70102      707.70102      707.70102      2146.1495      2853.8505      2146.1495      2853.8505      2146.1495      2853.8505      3.5444549e+08  0.1            16246960       1.4716828      1285.4778      12854.667      6.0369121    
  50424800   72644.423     -36.980406     -43565441       1.6879797      215456.53     -43349984       707.70102      707.70102      707.70102      2146.1495      2853.8505      2146.1495      2853.8505      2146.1495      2853.8505      3.5444549e+08  0.1            16246980       1.4865166      1348.2696      13482.571      6.0211531    
  50425000   72513.543     -36.645033     -43558490       1.6879797      215068.35     -43343422       707.70102      707.70102      707.70102      2146.1495      2853.8505      2146.1495      2853.8505      2146.1495      2853.8505      3.5444549e+08  0.1            16247000       1.5012052      1361.5895      13615.976      6.0048314    
  50425200   72512.837     -36.568769     -43558906       1.6879797      215066.26     -43343840       707.70102      707.70102      707.70102      2146.1495      2853.8505      2146.1495      2853.8505      2146.1495      2853.8505      3.5444549e+08  0.1            16247020       1.5161184      1341.1108      13411.197      5.9894269    
  50425400   72697.51      -36.636691     -43561204       1.6879797      215613.98     -43345590       707.70102      707.70102      707.70102      2146.1495      2853.8505      2146.1495      2853.8505      2146.1495      2853.8505      3.5444549e+08  0.1            16247040       1.5310001      1343.8769      13438.778      5.9739132    
  50425600   73110.095     -36.253987     -43554217       1.6879797      216837.67     -43337380       707.70102      707.70102      707.70102      2146.1495      2853.8505      2146.1495      2853.8505      2146.1495      2853.8505      3.5444549e+08  0.1            16247060       1.5457183      1358.9091      13589.041      5.9577775    
  50425800   73777.623     -36.167053     -43556125       1.6879797      218817.5      -43337307       707.70102      707.70102      707.70102      2146.1495      2853.8505      2146.1495      2853.8505      2146.1495      2853.8505      3.5444549e+08  0.1            16247080       1.5603815      1363.9534      13639.573      5.9414616    
  50426000   74708.574     -35.939759     -43558393       1.6879797      221578.61     -43336814       707.70102      707.70102      707.70102      2146.1495      2853.8505      2146.1495      2853.8505      2146.1495      2853.8505      3.5444549e+08  0.1            16247100       1.5756756      1307.7055      13076.994      5.9275509    
  50426200   75890.875     -35.409401     -43558758       1.6879797      225085.2      -43333673       707.70102      707.70102      707.70102      2146.1495      2853.8505      2146.1495      2853.8505      2146.1495      2853.8505      3.5444549e+08  0.1            16247120       1.5906586      1334.8336      13348.398      5.912457     
  50426400   77291.518     -34.875129     -43559115       1.6879797      229239.38     -43329876       707.70102      707.70102      707.70102      2146.1495      2853.8505      2146.1495      2853.8505      2146.1495      2853.8505      3.5444549e+08  0.1            16247140       1.6055052      1347.1175      13471.205      5.8968637    
  50426600   78859.211     -34.115633     -43552085       1.6879797      233889.01     -43318196       707.70102      707.70102      707.70102      2146.1495      2853.8505      2146.1495      2853.8505      2146.1495      2853.8505      3.5444549e+08  0.1            16247160       1.6202674      1354.8099      13548.067      5.8809788    
  50426800   80528.974     -33.614297     -43552424       1.6879797      238841.37     -43313583       707.70102      707.70102      707.70102      2146.1495      2853.8505      2146.1495      2853.8505      2146.1495      2853.8505      3.5444549e+08  0.1            16247180       1.6349618      1361.0651      13610.634      5.864871     
  50427000   82226.441     -32.798133     -43552753       1.6879797      243875.9      -43308878       707.70102      707.70102      707.70102      2146.1495      2853.8505      2146.1495      2853.8505      2146.1495      2853.8505      3.5444549e+08  0.1            16247200       1.6498123      1346.7412      13467.347      5.8493439    
  50427200   83875.35      -31.846775     -43553070       1.6879797      248766.4      -43304304       707.70102      707.70102      707.70102      2146.1495      2853.8505      2146.1495      2853.8505      2146.1495      2853.8505      3.5444549e+08  0.1            16247220       1.6647488      1339.0143      13390.216      5.8341279    
  50427400   85403.521     -30.719252     -43551481       1.6879797      253298.81     -43298182       707.70102      707.70102      707.70102      2146.1495      2853.8505      2146.1495      2853.8505      2146.1495      2853.8505      3.5444549e+08  0.1            16247240       1.6799767      1313.3806      13133.842      5.819927     
  50427600   86747.774     -29.557967     -43544398       1.6879797      257285.74     -43287112       707.70102      707.70102      707.70102      2146.1495      2853.8505      2146.1495      2853.8505      2146.1495      2853.8505      3.5444549e+08  0.1            16247260       1.6949295      1337.5148      13375.133      5.8047675    
  50427800   87858.395     -29.496267     -43544682       1.6879797      260579.74     -43284103       707.70102      707.70102      707.70102      2146.1495      2853.8505      2146.1495      2853.8505      2146.1495      2853.8505      3.5444549e+08  0.1            16247280       1.7100315      1324.36        13243.314      5.7901151    
  50428000   88703.21      -29.684884     -43544957       1.6879797      263085.38     -43281872       707.70102      707.70102      707.70102      2146.1495      2853.8505      2146.1495      2853.8505      2146.1495      2853.8505      3.5444549e+08  0.1            16247300       1.7250736      1329.5886      13296.05       5.7752549    
  50428200   89271.205     -29.845934     -43552600       1.6879797      264770        -43287830       707.70102      707.70102      707.70102      2146.1495      2853.8505      2146.1495      2853.8505      2146.1495      2853.8505      3.5444549e+08  0.1            16247320       1.7400417      1336.1658      13361.763      5.7601463    
  50428400   89574.089     -29.461233     -43552852       1.6879797      265668.33     -43287183       707.70102      707.70102      707.70102      2146.1495      2853.8505      2146.1495      2853.8505      2146.1495      2853.8505      3.5444549e+08  0.1            16247340       1.7554669      1296.5882      12965.948      5.7465358    
  50428600   89646.947     -29.351341     -43553091       1.6879797      265884.42     -43287207       707.70102      707.70102      707.70102      2146.1495      2853.8505      2146.1495      2853.8505      2146.1495      2853.8505      3.5444549e+08  0.1            16247360       1.7711348      1276.4966      12764.907      5.7336812    
  50428800   89545.307     -29.246608     -43551058       1.6879797      265582.96     -43285475       707.70102      707.70102      707.70102      2146.1495      2853.8505      2146.1495      2853.8505      2146.1495      2853.8505      3.5444549e+08  0.1            16247380       1.7863598      1313.6255      13136.208      5.7193614    
  50429000   89337.487     -28.906029     -43551273       1.6879797      264966.59     -43286306       707.70102      707.70102      707.70102      2146.1495      2853.8505      2146.1495      2853.8505      2146.1495      2853.8505      3.5444549e+08  0.1            16247400       1.8013849      1331.0904      13310.838      5.7043947    
  50429200   89100.379     -27.910025     -43544097       1.6879797      264263.35     -43279833       707.70102      707.70102      707.70102      2146.1495      2853.8505      2146.1495      2853.8505      2146.1495      2853.8505      3.5444549e+08  0.1            16247420       1.8163225      1338.9277      13389.249      5.6891501    
  50429400   88912.068     -27.402346     -43544287       1.6879797      263704.83     -43280582       707.70102      707.70102      707.70102      2146.1495      2853.8505      2146.1495      2853.8505      2146.1495      2853.8505      3.5444549e+08  0.1            16247440       1.831132       1350.4729      13504.88       5.673515     
  50429600   88843.76      -26.542848     -43537087       1.6879797      263502.24     -43273584       707.70102      707.70102      707.70102      2146.1495      2853.8505      2146.1495      2853.8505      2146.1495      2853.8505      3.5444549e+08  0.1            16247460       1.8458773      1356.3777      13563.788      5.6576959    
  50429800   88956.618     -26.270383     -43537250       1.6879797      263836.97     -43273413       707.70102      707.70102      707.70102      2146.1495      2853.8505      2146.1495      2853.8505      2146.1495      2853.8505      3.5444549e+08  0.1            16247480       1.8606763      1351.4153      13514.21       5.6420586    
  50430000   89298.925     -25.998699     -43537400       1.6879797      264852.22     -43272547       707.70102      707.70102      707.70102      2146.1495      2853.8505      2146.1495      2853.8505      2146.1495      2853.8505      3.5444549e+08  0.1            16247500       1.875977       1307.1514      13071.444      5.6279382    
  50430200   89901.889     -25.421013     -43537535       1.6879797      266640.55     -43270894       707.70102      707.70102      707.70102      2146.1495      2853.8505      2146.1495      2853.8505      2146.1495      2853.8505      3.5444549e+08  0.1            16247520       1.8909345      1337.1242      13371.259      5.6127808    
  50430400   90777.586     -24.903026     -43539547       1.6879797      269237.79     -43270310       707.70102      707.70102      707.70102      2146.1495      2853.8505      2146.1495      2853.8505      2146.1495      2853.8505      3.5444549e+08  0.1            16247540       1.9054158      1381.0909      13810.931      5.5962278    
  50430600   91919.245     -24.49535      -43539654       1.6879797      272623.84     -43267030       707.70102      707.70102      707.70102      2146.1495      2853.8505      2146.1495      2853.8505      2146.1495      2853.8505      3.5444549e+08  0.1            16247560       1.9198438      1386.1907      13861.832      5.5795528    
  50430800   93298.646     -24.196262     -43539753       1.6879797      276715.01     -43263038       707.70102      707.70102      707.70102      2146.1495      2853.8505      2146.1495      2853.8505      2146.1495      2853.8505      3.5444549e+08  0.1            16247580       1.934327       1380.9255      13809.293      5.5630707    
  50431000   94865.867     -23.338214     -43539843       1.6879797      281363.24     -43258480       707.70102      707.70102      707.70102      2146.1495      2853.8505      2146.1495      2853.8505      2146.1495      2853.8505      3.5444549e+08  0.1            16247600       1.9487867      1383.1334      13831.268      5.5465539    
  50431200   96554.593     -21.802973     -43539920       1.6879797      286371.85     -43253548       707.70102      707.70102      707.70102      2146.1495      2853.8505      2146.1495      2853.8505      2146.1495      2853.8505      3.5444549e+08  0.1            16247620       1.9635079      1358.5684      13585.714      5.5308044    
  50431400   98289.161     -20.100159     -43532604       1.6879797      291516.41     -43241088       707.70102      707.70102      707.70102      2146.1495      2853.8505      2146.1495      2853.8505      2146.1495      2853.8505      3.5444549e+08  0.1            16247640       1.9781611      1364.914       13649.133      5.5148799    
  50431600   99990.177     -19.082993     -43534546       1.6879797      296561.47     -43237985       707.70102      707.70102      707.70102      2146.1495      2853.8505      2146.1495      2853.8505      2146.1495      2853.8505      3.5444549e+08  0.1            16247660       1.9926488      1380.4895      13804.93       5.4985183    
  50431800   101580.7      -17.107979     -43519819       1.6879797      301278.81     -43218541       707.70102      707.70102      707.70102      2146.1495      2853.8505      2146.1495      2853.8505      2146.1495      2853.8505      3.5444549e+08  0.1            16247680       2.0068604      1407.2948      14072.97       5.4814309    
  50432000   102992.92     -16.634412     -43527210       1.6879797      305467.32     -43221742       707.70102      707.70102      707.70102      2146.1495      2853.8505      2146.1495      2853.8505      2146.1495      2853.8505      3.5444549e+08  0.1            16247700       2.0212929      1385.7536      13857.432      5.464984     
  50432200   104173.65     -15.270736     -43519464       1.6879797      308969.24     -43210495       707.70102      707.70102      707.70102      2146.1495      2853.8505      2146.1495      2853.8505      2146.1495      2853.8505      3.5444549e+08  0.1            16247720       2.0354777      1409.9709      14099.822      5.4479022    
  50432400   105085.55     -14.244747     -43519453       1.6879797      311673.86     -43207780       707.70102      707.70102      707.70102      2146.1495      2853.8505      2146.1495      2853.8505      2146.1495      2853.8505      3.5444549e+08  0.1            16247740       2.0497514      1401.146       14011.307      5.4311003    
  50432600   105712.16     -13.343935     -43519430       1.6879797      313532.32     -43205898       707.70102      707.70102      707.70102      2146.1495      2853.8505      2146.1495      2853.8505      2146.1495      2853.8505      3.5444549e+08  0.1            16247760       2.0641945      1384.7789      13847.938      5.4147769    
  50432800   106060.98     -12.271485     -43517500       1.6879797      314566.89     -43202933       707.70102      707.70102      707.70102      2146.1495      2853.8505      2146.1495      2853.8505      2146.1495      2853.8505      3.5444549e+08  0.1            16247780       2.0787479      1374.2492      13742.405      5.3987684    
  50433000   106162.47     -11.07541      -43508177       1.6879797      314867.9      -43193309       707.70102      707.70102      707.70102      2146.1495      2853.8505      2146.1495      2853.8505      2146.1495      2853.8505      3.5444549e+08  0.1            16247800       2.0932686      1377.3092      13772.999      5.382698     
  50433200   106068.28     -10.684659     -43508111       1.6879797      314588.54     -43193522       707.70102      707.70102      707.70102      2146.1495      2853.8505      2146.1495      2853.8505      2146.1495      2853.8505      3.5444549e+08  0.1            16247820       2.1076104      1394.5572      13945.778      5.3661912    
  50433400   105846.53     -9.7386094     -43500651       1.6879797      313930.85     -43186720       707.70102      707.70102      707.70102      2146.1495      2853.8505      2146.1495      2853.8505      2146.1495      2853.8505      3.5444549e+08  0.1            16247840       2.1218494      1404.6047      14046.016      5.3494567    
  50433600   105575.3      -9.1839954     -43500553       1.6879797      313126.42     -43187426       707.70102      707.70102      707.70102      2146.1495      2853.8505      2146.1495      2853.8505      2146.1495      2853.8505      3.5444549e+08  0.1            16247860       2.1361347      1400.0406      14000.506      5.3328727    
  50433800   105336.17     -8.9167088     -43502338       1.6879797      312417.19     -43189920       707.70102      707.70102      707.70102      2146.1495      2853.8505      2146.1495      2853.8505      2146.1495      2853.8505      3.5444549e+08  0.1            16247880       2.150389       1403.0792      14030.615      5.3162451    
  50434000   105205.59     -7.8719118     -43494839       1.6879797      312029.89     -43182809       707.70102      707.70102      707.70102      2146.1495      2853.8505      2146.1495      2853.8505      2146.1495      2853.8505      3.5444549e+08  0.1            16247900       2.1647259      1395.0027      13949.926      5.2998529    
  50434200   105250.12     -6.8096175     -43494704       1.6879797      312161.96     -43182542       707.70102      707.70102      707.70102      2146.1495      2853.8505      2146.1495      2853.8505      2146.1495      2853.8505      3.5444549e+08  0.1            16247920       2.1792373      1378.2308      13782.483      5.2839093    
  50434400   105523.4      -5.3731877     -43494556       1.6879797      312972.47     -43181583       707.70102      707.70102      707.70102      2146.1495      2853.8505      2146.1495      2853.8505      2146.1495      2853.8505      3.5444549e+08  0.1            16247940       2.1935566      1396.7187      13967.18       5.2675255    
  50434600   106061.6      -3.2091248     -43487015       1.6879797      314568.75     -43172446       707.70102      707.70102      707.70102      2146.1495      2853.8505      2146.1495      2853.8505      2146.1495      2853.8505      3.5444549e+08  0.1            16247960       2.2077266      1411.4353      14113.955      5.2508152    
  50434800   106881.4      -1.9674946     -43486835       1.6879797      317000.19     -43169835       707.70102      707.70102      707.70102      2146.1495      2853.8505      2146.1495      2853.8505      2146.1495      2853.8505      3.5444549e+08  0.1            16247980       2.2218692      1414.1657      14142.035      5.2340727    
  50435000   107978.91     -1.2540163     -43486639       1.6879797      320255.31     -43166384       707.70102      707.70102      707.70102      2146.1495      2853.8505      2146.1495      2853.8505      2146.1495      2853.8505      3.5444549e+08  0.1            16248000       2.2360645      1408.911       14088.893      5.2174897    
  50435200   109329.1      -0.65109311    -43486432       1.6879797      324259.84     -43162173       707.70102      707.70102      707.70102      2146.1495      2853.8505      2146.1495      2853.8505      2146.1495      2853.8505      3.5444549e+08  0.1            16248020       2.2506091      1375.0753      13750.865      5.2017444    
  50435400   110885.02      0.2835525     -43486215       1.6879797      328874.54     -43157340       707.70102      707.70102      707.70102      2146.1495      2853.8505      2146.1495      2853.8505      2146.1495      2853.8505      3.5444549e+08  0.1            16248040       2.2649128      1398.2449      13982.556      5.1854633    
  50435600   112581.29      1.2024653     -43493361       1.6879797      333905.53     -43159455       707.70102      707.70102      707.70102      2146.1495      2853.8505      2146.1495      2853.8505      2146.1495      2853.8505      3.5444549e+08  0.1            16248060       2.2793423      1386.0474      13860.41       5.1694939    
  50435800   114342.28      2.5028354     -43494642       1.6879797      339128.46     -43155513       707.70102      707.70102      707.70102      2146.1495      2853.8505      2146.1495      2853.8505      2146.1495      2853.8505      3.5444549e+08  0.1            16248080       2.2937335      1389.7338      13897.35       5.1534585    
  50436000   116087.03      4.0616252     -43492489       1.6879797      344303.22     -43148186       707.70102      707.70102      707.70102      2146.1495      2853.8505      2146.1495      2853.8505      2146.1495      2853.8505      3.5444549e+08  0.1            16248100       2.307927       1409.0837      14090.797      5.1370045    
  50436200   117735.27      5.6447156     -43491848       1.6879797      349191.74     -43142656       707.70102      707.70102      707.70102      2146.1495      2853.8505      2146.1495      2853.8505      2146.1495      2853.8505      3.5444549e+08  0.1            16248120       2.322165       1404.7005      14047.127      5.1206768    
  50436400   119214.75      7.31899       -43491562       1.6879797      353579.75     -43137982       707.70102      707.70102      707.70102      2146.1495      2853.8505      2146.1495      2853.8505      2146.1495      2853.8505      3.5444549e+08  0.1            16248140       2.3363057      1414.3625      14143.618      5.1041631    
  50436600   120464.91      9.1813241     -43483882       1.6879797      357287.59     -43126595       707.70102      707.70102      707.70102      2146.1495      2853.8505      2146.1495      2853.8505      2146.1495      2853.8505      3.5444549e+08  0.1            16248160       2.3504714      1411.8648      14118.692      5.0877337    
  50436800   121443.8       10.530506     -43483932       1.6879797      360190.89     -43123742       707.70102      707.70102      707.70102      2146.1495      2853.8505      2146.1495      2853.8505      2146.1495      2853.8505      3.5444549e+08  0.1            16248180       2.3648242      1393.4504      13934.51       5.0717346    
  50437000   122131.07      12.171079     -43483602       1.6879797      362229.26     -43121372       707.70102      707.70102      707.70102      2146.1495      2853.8505      2146.1495      2853.8505      2146.1495      2853.8505      3.5444549e+08  0.1            16248200       2.3792973      1381.8708      13818.681      5.0560117    
  50437200   122528.78      13.687362     -43483255       1.6879797      363408.84     -43119846       707.70102      707.70102      707.70102      2146.1495      2853.8505      2146.1495      2853.8505      2146.1495      2853.8505      3.5444549e+08  0.1            16248220       2.3936615      1392.3529      13923.44       5.0400747    
  50437400   122662.96      15.298336     -43480995       1.6879797      363806.8      -43117189       707.70102      707.70102      707.70102      2146.1495      2853.8505      2146.1495      2853.8505      2146.1495      2853.8505      3.5444549e+08  0.1            16248240       2.4079719      1397.5855      13975.991      5.024045     
  50437600   122583.47      17.214637     -43469448       1.6879797      363571.06     -43105877       707.70102      707.70102      707.70102      2146.1495      2853.8505      2146.1495      2853.8505      2146.1495      2853.8505      3.5444549e+08  0.1            16248260       2.4221022      1415.4061      14153.958      5.0076635    
  50437800   122359.09      18.331279     -43467166       1.6879797      362905.56     -43104260       707.70102      707.70102      707.70102      2146.1495      2853.8505      2146.1495      2853.8505      2146.1495      2853.8505      3.5444549e+08  0.1            16248280       2.4362268      1415.9641      14159.368      4.991299     
  50438000   122067.08      18.962719     -43466768       1.6879797      362039.48     -43104728       707.70102      707.70102      707.70102      2146.1495      2853.8505      2146.1495      2853.8505      2146.1495      2853.8505      3.5444549e+08  0.1            16248300       2.4503748      1413.6268      14136.463      4.9750082    
  50438200   121790.61      20.16709      -43458983       1.6879797      361219.51     -43097764       707.70102      707.70102      707.70102      2146.1495      2853.8505      2146.1495      2853.8505      2146.1495      2853.8505      3.5444549e+08  0.1            16248320       2.4651891      1350.0399      13500.531      4.9600838    
  50438400   121609.75      20.991471     -43458568       1.6879797      360683.09     -43097885       707.70102      707.70102      707.70102      2146.1495      2853.8505      2146.1495      2853.8505      2146.1495      2853.8505      3.5444549e+08  0.1            16248340       2.4797546      1373.1127      13731.084      4.9446648    
  50438600   121595.03      22.210697     -43458143       1.6879797      360639.43     -43097503       707.70102      707.70102      707.70102      2146.1495      2853.8505      2146.1495      2853.8505      2146.1495      2853.8505      3.5444549e+08  0.1            16248360       2.494241       1380.597       13806.014      4.9290998    
  50438800   121803.61      24.367245     -43455807       1.6879797      361258.06     -43094549       707.70102      707.70102      707.70102      2146.1495      2853.8505      2146.1495      2853.8505      2146.1495      2853.8505      3.5444549e+08  0.1            16248380       2.508469       1405.6879      14056.829      4.9130414    
  50439000   122279.06      26.564913     -43453463       1.6879797      362668.19     -43090795       707.70102      707.70102      707.70102      2146.1495      2853.8505      2146.1495      2853.8505      2146.1495      2853.8505      3.5444549e+08  0.1            16248400       2.5227259      1402.7891      14027.831      4.8970616    
  50439200   123043.72      29.06324      -43445629       1.6879797      364936.11     -43080693       707.70102      707.70102      707.70102      2146.1495      2853.8505      2146.1495      2853.8505      2146.1495      2853.8505      3.5444549e+08  0.1            16248420       2.5369834      1402.8043      14028.096      4.8811011    
  50439400   124095.87      31.247993     -43445160       1.6879797      368056.69     -43077103       707.70102      707.70102      707.70102      2146.1495      2853.8505      2146.1495      2853.8505      2146.1495      2853.8505      3.5444549e+08  0.1            16248440       2.5512279      1404.0556      14040.447      4.8651373    
  50439600   125411.94      33.088757     -43444678       1.6879797      371960.03     -43072718       707.70102      707.70102      707.70102      2146.1495      2853.8505      2146.1495      2853.8505      2146.1495      2853.8505      3.5444549e+08  0.1            16248460       2.5656659      1385.2364      13852.452      4.8495578    
  50439800   126947.56      34.48325      -43451929       1.6879797      376514.54     -43075414       707.70102      707.70102      707.70102      2146.1495      2853.8505      2146.1495      2853.8505      2146.1495      2853.8505      3.5444549e+08  0.1            16248480       2.5801782      1378.1381      13781.41       4.8341312    
  50440000   128640.53      36.699515     -43445940       1.6879797      381535.73     -43064404       707.70102      707.70102      707.70102      2146.1495      2853.8505      2146.1495      2853.8505      2146.1495      2853.8505      3.5444549e+08  0.1            16248500       2.5945718      1389.52        13895.119      4.8184947    
  50440200   130414.71      39.035381     -43445053       1.6879797      386797.78     -43058255       707.70102      707.70102      707.70102      2146.1495      2853.8505      2146.1495      2853.8505      2146.1495      2853.8505      3.5444549e+08  0.1            16248520       2.6089297      1392.9568      13929.66       4.8028064    
  50440400   132186.32      40.990771     -43451895       1.6879797      392052.2      -43059843       707.70102      707.70102      707.70102      2146.1495      2853.8505      2146.1495      2853.8505      2146.1495      2853.8505      3.5444549e+08  0.1            16248540       2.6231502      1406.4103      14064.131      4.7868826    
  50440600   133872.5       42.677188     -43451340       1.6879797      397053.24     -43054287       707.70102      707.70102      707.70102      2146.1495      2853.8505      2146.1495      2853.8505      2146.1495      2853.8505      3.5444549e+08  0.1            16248560       2.6375181      1391.9964      13919.868      4.7712447    
  50440800   135398.69      43.694248     -43458145       1.6879797      401579.78     -43056565       707.70102      707.70102      707.70102      2146.1495      2853.8505      2146.1495      2853.8505      2146.1495      2853.8505      3.5444549e+08  0.1            16248580       2.6518312      1397.3024      13972.997      4.755523     
  50441000   136703.11      45.567421     -43457558       1.6879797      405448.59     -43052109       707.70102      707.70102      707.70102      2146.1495      2853.8505      2146.1495      2853.8505      2146.1495      2853.8505      3.5444549e+08  0.1            16248600       2.6666712      1347.7253      13477.21       4.7407532    
  50441200   137742.19      48.565457     -43449587       1.6879797      408530.37     -43041057       707.70102      707.70102      707.70102      2146.1495      2853.8505      2146.1495      2853.8505      2146.1495      2853.8505      3.5444549e+08  0.1            16248620       2.6815181      1347.0805      13470.932      4.7259945    
  50441400   138489.73      51.623954     -43441608       1.6879797      410747.53     -43030860       707.70102      707.70102      707.70102      2146.1495      2853.8505      2146.1495      2853.8505      2146.1495      2853.8505      3.5444549e+08  0.1            16248640       2.6958166      1398.7463      13987.485      4.7102769    
  50441600   138942.99      53.372332     -43440996       1.6879797      412091.85     -43028904       707.70102      707.70102      707.70102      2146.1495      2853.8505      2146.1495      2853.8505      2146.1495      2853.8505      3.5444549e+08  0.1            16248660       2.7101406      1396.2561      13962.533      4.6946191    
  50441800   139123.93      54.91531      -43440003       1.6879797      412628.5      -43027374       707.70102      707.70102      707.70102      2146.1495      2853.8505      2146.1495      2853.8505      2146.1495      2853.8505      3.5444549e+08  0.1            16248680       2.7244039      1402.1996      14021.965      4.6788716    
  50442000   139078.1       55.913163     -43446747       1.6879797      412492.56     -43034255       707.70102      707.70102      707.70102      2146.1495      2853.8505      2146.1495      2853.8505      2146.1495      2853.8505      3.5444549e+08  0.1            16248700       2.7386873      1400.2369      14002.416      4.6631739    
  50442200   138870.9       57.434226     -43438732       1.6879797      411878.02     -43026854       707.70102      707.70102      707.70102      2146.1495      2853.8505      2146.1495      2853.8505      2146.1495      2853.8505      3.5444549e+08  0.1            16248720       2.7530634      1391.1937      13911.895      4.6476485    
  50442400   138577.43      59.235746     -43430708       1.6879797      411007.63     -43019701       707.70102      707.70102      707.70102      2146.1495      2853.8505      2146.1495      2853.8505      2146.1495      2853.8505      3.5444549e+08  0.1            16248740       2.7674586      1389.3522      13893.582      4.6321671    
  50442600   138279.34      60.545891     -43439324       1.6879797      410123.53     -43029200       707.70102      707.70102      707.70102      2146.1495      2853.8505      2146.1495      2853.8505      2146.1495      2853.8505      3.5444549e+08  0.1            16248760       2.7821267      1363.5081      13634.952      4.6171503    
  50442800   138059.15      62.308558     -43438657       1.6879797      409470.46     -43029187       707.70102      707.70102      707.70102      2146.1495      2853.8505      2146.1495      2853.8505      2146.1495      2853.8505      3.5444549e+08  0.1            16248780       2.7962877      1412.3277      14123.373      4.6013027    
  50443000   137991.83      63.984044     -43437981       1.6879797      409270.78     -43028711       707.70102      707.70102      707.70102      2146.1495      2853.8505      2146.1495      2853.8505      2146.1495      2853.8505      3.5444549e+08  0.1            16248800       2.8104963      1407.6009      14076.022      4.5855503    
  50443200   138141.39      64.068009     -43453950       1.6879797      409714.37     -43044235       707.70102      707.70102      707.70102      2146.1495      2853.8505      2146.1495      2853.8505      2146.1495      2853.8505      3.5444549e+08  0.1            16248820       2.8246986      1408.2374      14082.429      4.5698036    
  50443400   138554.95      65.034896     -43460641       1.6879797      410940.95     -43049700       707.70102      707.70102      707.70102      2146.1495      2853.8505      2146.1495      2853.8505      2146.1495      2853.8505      3.5444549e+08  0.1            16248840       2.8388758      1410.7157      14107.18       4.5540331    
  50443600   139257.79      67.035436     -43459947       1.6879797      413025.51     -43046921       707.70102      707.70102      707.70102      2146.1495      2853.8505      2146.1495      2853.8505      2146.1495      2853.8505      3.5444549e+08  0.1            16248860       2.8530775      1408.2662      14082.62       4.5383184    
  50443800   140253.77      68.61508      -43472103       1.6879797      415979.49     -43056124       707.70102      707.70102      707.70102      2146.1495      2853.8505      2146.1495      2853.8505      2146.1495      2853.8505      3.5444549e+08  0.1            16248880       2.8676151      1375.7464      13757.501      4.5231486    
  50444000   141525.58      70.880408     -43471026       1.6879797      419751.58     -43051275       707.70102      707.70102      707.70102      2146.1495      2853.8505      2146.1495      2853.8505      2146.1495      2853.8505      3.5444549e+08  0.1            16248900       2.8822742      1364.3379      13643.247      4.508176     
  50444200   143030.03      73.005395     -43470306       1.6879797      424213.64     -43046092       707.70102      707.70102      707.70102      2146.1495      2853.8505      2146.1495      2853.8505      2146.1495      2853.8505      3.5444549e+08  0.1            16248920       2.8963843      1417.4402      14174.539      4.4923541    
  50444400   144705.03      75.466713     -43469570       1.6879797      429181.5      -43040388       707.70102      707.70102      707.70102      2146.1495      2853.8505      2146.1495      2853.8505      2146.1495      2853.8505      3.5444549e+08  0.1            16248940       2.9104554      1421.3392      14213.398      4.4764906    
  50444600   146475.91      78.064898     -43461439       1.6879797      434433.77     -43027006       707.70102      707.70102      707.70102      2146.1495      2853.8505      2146.1495      2853.8505      2146.1495      2853.8505      3.5444549e+08  0.1            16248960       2.9245127      1422.7507      14227.474      4.4606236    
  50444800   148264.09      80.296222     -43458787       1.6879797      439737.35     -43019050       707.70102      707.70102      707.70102      2146.1495      2853.8505      2146.1495      2853.8505      2146.1495      2853.8505      3.5444549e+08  0.1            16248980       2.9385869      1421.0469      14210.488      4.4448002    
  50445000   149984.58      82.739884     -43459915       1.6879797      444840.18     -43015074       707.70102      707.70102      707.70102      2146.1495      2853.8505      2146.1495      2853.8505      2146.1495      2853.8505      3.5444549e+08  0.1            16249000       2.9526628      1420.8629      14208.522      4.4289974    
  50445200   151559.6       85.872531     -43451757       1.6879797      449511.51     -43002246       707.70102      707.70102      707.70102      2146.1495      2853.8505      2146.1495      2853.8505      2146.1495      2853.8505      3.5444549e+08  0.1            16249020       2.9669758      1397.3387      13973.477      4.4135639    
  50445400   152922.43      88.124032     -43443589       1.6879797      453553.56     -42990036       707.70102      707.70102      707.70102      2146.1495      2853.8505      2146.1495      2853.8505      2146.1495      2853.8505      3.5444549e+08  0.1            16249040       2.981492       1377.7527      13777.531      4.3984418    
  50445600   154024.01      89.687713     -43442792       1.6879797      456820.74     -42985971       707.70102      707.70102      707.70102      2146.1495      2853.8505      2146.1495      2853.8505      2146.1495      2853.8505      3.5444549e+08  0.1            16249060       2.995602       1417.4382      14174.377      4.3827311    
  50445800   154832.61      91.959447     -43434604       1.6879797      459218.97     -42975385       707.70102      707.70102      707.70102      2146.1495      2853.8505      2146.1495      2853.8505      2146.1495      2853.8505      3.5444549e+08  0.1            16249080       3.009707       1417.9365      14179.388      4.3670288    
  50446000   155342.2       93.343886     -43443057       1.6879797      460730.35     -42982327       707.70102      707.70102      707.70102      2146.1495      2853.8505      2146.1495      2853.8505      2146.1495      2853.8505      3.5444549e+08  0.1            16249100       3.0238107      1418.0774      14180.715      4.3513402    
  50446200   155570.38      94.608469     -43449604       1.6879797      461407.14     -42988197       707.70102      707.70102      707.70102      2146.1495      2853.8505      2146.1495      2853.8505      2146.1495      2853.8505      3.5444549e+08  0.1            16249120       3.0379732      1412.1784      14121.831      4.335751     
  50446400   155559.03      96.144277     -43456144       1.6879797      461373.46     -42994770       707.70102      707.70102      707.70102      2146.1495      2853.8505      2146.1495      2853.8505      2146.1495      2853.8505      3.5444549e+08  0.1            16249140       3.0520484      1420.9408      14209.419      4.3200519    
  50446600   155369         97.776311     -43462678       1.6879797      460809.85     -43001868       707.70102      707.70102      707.70102      2146.1495      2853.8505      2146.1495      2853.8505      2146.1495      2853.8505      3.5444549e+08  0.1            16249160       3.0665977      1374.6387      13746.349      4.3050342    
  50446800   155075.61      100.5098      -43454453       1.6879797      459939.69     -42994513       707.70102      707.70102      707.70102      2146.1495      2853.8505      2146.1495      2853.8505      2146.1495      2853.8505      3.5444549e+08  0.1            16249180       3.0809956      1389.0903      13890.938      4.28981      
  50447000   154759.56      102.61733     -43453596       1.6879797      459002.3      -42994594       707.70102      707.70102      707.70102      2146.1495      2853.8505      2146.1495      2853.8505      2146.1495      2853.8505      3.5444549e+08  0.1            16249200       3.0952138      1406.6432      14066.448      4.2743456    
  50447200   154504.59      103.96751     -43452728       1.6879797      458246.08     -42994482       707.70102      707.70102      707.70102      2146.1495      2853.8505      2146.1495      2853.8505      2146.1495      2853.8505      3.5444549e+08  0.1            16249220       3.1093217      1417.6477      14176.452      4.2587419    
  50447400   154389.53      105.50493     -43451852       1.6879797      457904.83     -42993947       707.70102      707.70102      707.70102      2146.1495      2853.8505      2146.1495      2853.8505      2146.1495      2853.8505      3.5444549e+08  0.1            16249240       3.1233917      1421.4661      14214.669      4.2431008    
  50447600   154481.51      107.78144     -43449074       1.6879797      458177.63     -42990896       707.70102      707.70102      707.70102      2146.1495      2853.8505      2146.1495      2853.8505      2146.1495      2853.8505      3.5444549e+08  0.1            16249260       3.1374557      1422.0727      14220.691      4.2274664    
  50447800   154831.4       109.90141     -43448183       1.6879797      459215.37     -42988968       707.70102      707.70102      707.70102      2146.1495      2853.8505      2146.1495      2853.8505      2146.1495      2853.8505      3.5444549e+08  0.1            16249280       3.1514942      1424.6516      14246.589      4.2118126    
  50448000   155470.76      111.65538     -43447286       1.6879797      461111.65     -42986175       707.70102      707.70102      707.70102      2146.1495      2853.8505      2146.1495      2853.8505      2146.1495      2853.8505      3.5444549e+08  0.1            16249300       3.1656857      1409.2917      14092.799      4.1963769    
  50448200   156410.36      113.64687     -43446386       1.6879797      463898.42     -42982488       707.70102      707.70102      707.70102      2146.1495      2853.8505      2146.1495      2853.8505      2146.1495      2853.8505      3.5444549e+08  0.1            16249320       3.1800837      1389.0788      13890.833      4.1812238    
  50448400   157633.76      115.31032     -43462128       1.6879797      467526.92     -42994601       707.70102      707.70102      707.70102      2146.1495      2853.8505      2146.1495      2853.8505      2146.1495      2853.8505      3.5444549e+08  0.1            16249340       3.1942456      1412.2424      14122.427      4.1657699    
  50448600   159102.4       118.45116     -43453830       1.6879797      471882.76     -42981947       707.70102      707.70102      707.70102      2146.1495      2853.8505      2146.1495      2853.8505      2146.1495      2853.8505      3.5444549e+08  0.1            16249360       3.20838        1414.9859      14149.859      4.1502924    
  50448800   160756.7       120.91621     -43447777       1.6879797      476789.26     -42970988       707.70102      707.70102      707.70102      2146.1495      2853.8505      2146.1495      2853.8505      2146.1495      2853.8505      3.5444549e+08  0.1            16249380       3.222483       1418.1372      14181.4        4.1347869    
  50449000   162524.57      123.37719     -43444931       1.6879797      482032.61     -42962899       707.70102      707.70102      707.70102      2146.1495      2853.8505      2146.1495      2853.8505      2146.1495      2853.8505      3.5444549e+08  0.1            16249400       3.2366449      1412.2349      14122.275      4.1193691    
  50449200   164325.01      125.06938     -43453241       1.6879797      487372.52     -42965868       707.70102      707.70102      707.70102      2146.1495      2853.8505      2146.1495      2853.8505      2146.1495      2853.8505      3.5444549e+08  0.1            16249420       3.2508381      1409.132       14091.322      4.1040019    
  50449400   166076.04      126.9896      -43457757       1.6879797      492565.92     -42965191       707.70102      707.70102      707.70102      2146.1495      2853.8505      2146.1495      2853.8505      2146.1495      2853.8505      3.5444549e+08  0.1            16249440       3.2654573      1368.0611      13680.655      4.0891789    
  50449600   167695.43      129.77473     -43456778       1.6879797      497368.87     -42959410       707.70102      707.70102      707.70102      2146.1495      2853.8505      2146.1495      2853.8505      2146.1495      2853.8505      3.5444549e+08  0.1            16249460       3.279996       1375.6301      13756.3        4.074258     
  50449800   169111.18      132.93567     -43453888       1.6879797      501567.86     -42952320       707.70102      707.70102      707.70102      2146.1495      2853.8505      2146.1495      2853.8505      2146.1495      2853.8505      3.5444549e+08  0.1            16249480       3.2944779      1381.0424      13810.255      4.0592703    
[...]
  51094400   305.68761      1.820314      -43505510       1.6959806      906.6407      -43504603       706.5864       706.5864       706.5864       2146.7068      2853.2932      2146.7068      2853.2932      2146.7068      2853.2932      3.5277339e+08  0.1            16313940       25.757913      1151.9795      11519.75       0.94344818   
  51094600   305.65077     -1.6252404     -43505578       1.6958859      906.53144     -43504672       706.59954      706.59954      706.59954      2146.7002      2853.2998      2146.7002      2853.2998      2146.7002      2853.2998      3.5279308e+08  0.1            16313960       25.775496      1137.4864      11374.92       0.92563943   
  51094800   305.65143      1.9275909     -43505647       1.6959939      906.5334      -43504740       706.58454      706.58454      706.58454      2146.7077      2853.2923      2146.7077      2853.2923      2146.7077      2853.2923      3.5277061e+08  0.1            16313980       25.793617      1103.6543      11036.48       0.90784997   
  51095000   305.61416      3.4313421     -43505715       1.6960426      906.42287     -43504809       706.57778      706.57778      706.57778      2146.7111      2853.2889      2146.7111      2853.2889      2146.7111      2853.2889      3.5276048e+08  0.1            16314000       25.811614      1111.3049      11113.053      0.89005575   
  51095200   305.63118     -2.2950964     -43505783       1.6958821      906.47334     -43504877       706.60007      706.60007      706.60007      2146.7         2853.3         2146.7         2853.3         2146.7         2853.3         3.5279387e+08  0.1            16314020       25.829954      1090.4822      10904.806      0.87227284   
  51095400   305.66913      0.89593015    -43505852       1.6959798      906.58591     -43504945       706.58651      706.58651      706.58651      2146.7067      2853.2933      2146.7067      2853.2933      2146.7067      2853.2933      3.5277356e+08  0.1            16314040       25.847854      1117.3637      11173.639      0.85447459   
  51095600   305.66078      5.6475637     -43505919       1.6961225      906.56113     -43505013       706.56669      706.56669      706.56669      2146.7167      2853.2833      2146.7167      2853.2833      2146.7167      2853.2833      3.5274388e+08  0.1            16314060       25.865694      1121.0416      11210.487      0.83667429   
  51095800   305.61622     -3.8085973     -43505988       1.6958543      906.42899     -43505081       706.60394      706.60394      706.60394      2146.698       2853.302       2146.698       2853.302       2146.698       2853.302       3.5279966e+08  0.1            16314080       25.883865      1100.6627      11006.58       0.8188844    
  51096000   305.58662     -0.0052393348  -43506057       1.6959697      906.34119     -43505150       706.58791      706.58791      706.58791      2146.706       2853.294       2146.706       2853.294       2146.706       2853.294       3.5277566e+08  0.1            16314100       25.902239      1088.5255      10885.164      0.80110025   
  51096200   305.65151      8.0674405     -43506122       1.6962084      906.53366     -43505216       706.55477      706.55477      706.55477      2146.7226      2853.2774      2146.7226      2853.2774      2146.7226      2853.2774      3.5272601e+08  0.1            16314120       25.92062       1088.07        10880.826      0.78331551   
  51096400   305.63183     -5.2910504     -43506192       1.6958274      906.47527     -43505285       706.60766      706.60766      706.60766      2146.6962      2853.3038      2146.6962      2853.3038      2146.6962      2853.3038      3.5280524e+08  0.1            16314140       25.938585      1113.2811      11132.813      0.76551767   
  51096600   305.62501      0.11064092    -43506261       1.695989       906.45506     -43505355       706.58522      706.58522      706.58522      2146.7074      2853.2926      2146.7074      2853.2926      2146.7074      2853.2926      3.5277163e+08  0.1            16314160       25.956675      1105.5809      11055.82       0.74772321   
  51096800   305.64438      8.7584106     -43506326       1.6962443      906.51251     -43505420       706.54978      706.54978      706.54978      2146.7251      2853.2749      2146.7251      2853.2749      2146.7251      2853.2749      3.5271854e+08  0.1            16314180       25.974918      1096.3249      10963.245      0.72993264   
  51097000   305.59946      7.7823777     -43506395       1.6962214      906.37927     -43505489       706.55296      706.55296      706.55296      2146.7235      2853.2765      2146.7235      2853.2765      2146.7235      2853.2765      3.527233e+08   0.1            16314200       25.993528      1074.6391      10746.299      0.71215154   
  51097200   305.63511      7.6476235     -43506463       1.6962228      906.485       -43505556       706.55276      706.55276      706.55276      2146.7236      2853.2764      2146.7236      2853.2764      2146.7236      2853.2764      3.5272301e+08  0.1            16314220       26.01165       1103.6617      11036.68       0.69435623   
  51097400   305.66056      7.2460062     -43506531       1.6962165      906.5605      -43505625       706.55364      706.55364      706.55364      2146.7232      2853.2768      2146.7232      2853.2768      2146.7232      2853.2768      3.5272433e+08  0.1            16314240       26.02939       1127.3693      11273.686      0.67655057   
  51097600   305.63675      7.4245707     -43506599       1.6962268      906.48986     -43505692       706.5522       706.5522       706.5522       2146.7239      2853.2761      2146.7239      2853.2761      2146.7239      2853.2761      3.5272217e+08  0.1            16314260       26.047116      1128.289       11282.867      0.65874463   
  51097800   305.59871     -0.35416132    -43504774       1.6960025      906.37704     -43503868       706.58335      706.58335      706.58335      2146.7083      2853.2917      2146.7083      2853.2917      2146.7083      2853.2917      3.5276883e+08  0.1            16314280       26.064949      1121.537       11215.326      0.64094143   
  51098000   305.54495     -3.4236736     -43504841       1.6959188      906.21761     -43503935       706.59498      706.59498      706.59498      2146.7025      2853.2975      2146.7025      2853.2975      2146.7025      2853.2975      3.5278624e+08  0.1            16314300       26.083619      1071.2143      10712.179      0.62315821   
  51098200   305.6133       6.0978578     -43504908       1.6961993      906.42031     -43504002       706.55603      706.55603      706.55603      2146.722       2853.278       2146.722       2853.278       2146.722       2853.278       3.5272791e+08  0.1            16314320       26.101985      1089.017       10890.193      0.60536669   
  51098400   305.62096      0.5313012     -43504977       1.6960433      906.44305     -43504071       706.57769      706.57769      706.57769      2146.7112      2853.2888      2146.7112      2853.2888      2146.7112      2853.2888      3.5276034e+08  0.1            16314340       26.120147      1101.1841      11011.891      0.58756982   
  51098600   305.58268     -3.179969      -43505045       1.6959408      906.32951     -43504138       706.59192      706.59192      706.59192      2146.704       2853.296       2146.704       2853.296       2146.704       2853.296       3.5278166e+08  0.1            16314360       26.138967      1062.6676      10626.609      0.56978681   
  51098800   305.5992       4.964978      -43505112       1.6961813      906.3785      -43504205       706.55853      706.55853      706.55853      2146.7207      2853.2793      2146.7207      2853.2793      2146.7207      2853.2793      3.5273165e+08  0.1            16314380       26.157208      1096.4592      10964.602      0.55199014   
  51099000   305.54532      1.4532965     -43505180       1.6960845      906.21869     -43504274       706.57197      706.57197      706.57197      2146.714       2853.286       2146.714       2853.286       2146.714       2853.286       3.5275178e+08  0.1            16314400       26.175603      1087.2608      10872.605      0.53419604   
  51099200   305.56553     -3.0256764     -43505247       1.6959595      906.27865     -43504341       706.58932      706.58932      706.58932      2146.7053      2853.2947      2146.7053      2853.2947      2146.7053      2853.2947      3.5277777e+08  0.1            16314420       26.194344      1067.1698      10671.59       0.51640792   
  51099400   305.6164       4.0574114     -43505315       1.696169       906.42951     -43504408       706.56023      706.56023      706.56023      2146.7199      2853.2801      2146.7199      2853.2801      2146.7199      2853.2801      3.527342e+08   0.1            16314440       26.212788      1084.3756      10843.918      0.49861286   
  51099600   305.58411      2.0511113     -43505383       1.6961154      906.33376     -43504476       706.56767      706.56767      706.56767      2146.7162      2853.2838      2146.7162      2853.2838      2146.7162      2853.2838      3.5274534e+08  0.1            16314460       26.231147      1089.3609      10893.545      0.48081537   
  51099800   305.55609     -2.8141784     -43505450       1.695979       906.25064     -43504544       706.58661      706.58661      706.58661      2146.7067      2853.2933      2146.7067      2853.2933      2146.7067      2853.2933      3.5277371e+08  0.1            16314480       26.249879      1067.686       10676.809      0.4630237    
  51100000   305.53705      3.5896721     -43505517       1.6961685      906.19417     -43504611       706.5603       706.5603       706.5603       2146.7198      2853.2802      2146.7198      2853.2802      2146.7198      2853.2802      3.5273431e+08  0.1            16314500       26.270579      966.16971      9661.7139      0.4452641    
  51100200   305.56744      2.0793602     -43505585       1.696129       906.28431     -43504679       706.56579      706.56579      706.56579      2146.7171      2853.2829      2146.7171      2853.2829      2146.7171      2853.2829      3.5274252e+08  0.1            16314520       26.289854      1037.6288      10376.345      0.42747735   
  51100400   305.57767     -2.5576879     -43505652       1.6959989      906.31465     -43504746       706.58385      706.58385      706.58385      2146.7081      2853.2919      2146.7081      2853.2919      2146.7081      2853.2919      3.5276957e+08  0.1            16314540       26.308536      1070.5684      10705.636      0.40967934   
  51100600   305.57453      3.7530278     -43505719       1.6961853      906.30534     -43504813       706.55796      706.55796      706.55796      2146.721       2853.279       2146.721       2853.279       2146.721       2853.279       3.527308e+08   0.1            16314560       26.326836      1092.8624      10928.704      0.39187446   
  51100800   305.55559      1.3448336     -43505787       1.6961197      906.24914     -43504881       706.56708      706.56708      706.56708      2146.7165      2853.2835      2146.7165      2853.2835      2146.7165      2853.2835      3.5274446e+08  0.1            16314580       26.345267      1085.1686      10851.681      0.37407076   
  51101000   305.50279     -2.044125      -43505854       1.6960255      906.09257     -43504948       706.58015      706.58015      706.58015      2146.7099      2853.2901      2146.7099      2853.2901      2146.7099      2853.2901      3.5276404e+08  0.1            16314600       26.363488      1097.6315      10976.248      0.35626339   
  51101200   305.56083      4.3599996     -43505921       1.6962143      906.26471     -43505014       706.55394      706.55394      706.55394      2146.723       2853.277       2146.723       2853.277       2146.723       2853.277       3.5272478e+08  0.1            16314620       26.381746      1095.3723      10953.789      0.33845593   
  51101400   305.57157     -0.28327239    -43505988       1.6960839      906.29655     -43505082       706.57205      706.57205      706.57205      2146.714       2853.286       2146.714       2853.286       2146.714       2853.286       3.527519e+08   0.1            16314640       26.400269      1079.7583      10797.491      0.32065107   
  51101600   305.54538     -0.65284076    -43506056       1.6960769      906.21888     -43505149       706.57303      706.57303      706.57303      2146.7135      2853.2865      2146.7135      2853.2865      2146.7135      2853.2865      3.5275336e+08  0.1            16314660       26.418629      1089.3113      10893.219      0.30284339   
  51101800   305.55357      4.6218696     -43506122       1.6962327      906.24318     -43505216       706.55138      706.55138      706.55138      2146.7243      2853.2757      2146.7243      2853.2757      2146.7243      2853.2757      3.5272095e+08  0.1            16314680       26.437093      1083.1715      10831.691      0.28503608   
  51102000   305.48807     -2.5411646     -43506189       1.6960295      906.04889     -43505283       706.5796       706.5796       706.5796       2146.7102      2853.2898      2146.7102      2853.2898      2146.7102      2853.2898      3.5276321e+08  0.1            16314700       26.455161      1106.9352      11069.222      0.26722388   
  51102200   305.54159      2.4632423     -43506256       1.6961775      906.20763     -43505350       706.55905      706.55905      706.55905      2146.7205      2853.2795      2146.7205      2853.2795      2146.7205      2853.2795      3.5273244e+08  0.1            16314720       26.474262      1047.1078      10471.204      0.24942106   
  51102400   305.56956      2.6106995     -43506323       1.6961852      906.29059     -43505417       706.55798      706.55798      706.55798      2146.721       2853.279       2146.721       2853.279       2146.721       2853.279       3.5273083e+08  0.1            16314740       26.492435      1100.5276      11005.276      0.2316084    
  51102600   305.5245      -3.257306      -43506390       1.6960193      906.15695     -43505484       706.58102      706.58102      706.58102      2146.7095      2853.2905      2146.7095      2853.2905      2146.7095      2853.2905      3.5276533e+08  0.1            16314760       26.510344      1116.746       11167.382      0.21379312   
  51102800   305.54785      6.2851187     -43506456       1.696298       906.2262      -43505550       706.54232      706.54232      706.54232      2146.7288      2853.2712      2146.7288      2853.2712      2146.7288      2853.2712      3.5270737e+08  0.1            16314780       26.528416      1106.71        11067.135      0.19597892   
  51103000   305.47439     -3.2096668     -43506524       1.6960276      906.00833     -43505618       706.57986      706.57986      706.57986      2146.7101      2853.2899      2146.7101      2853.2899      2146.7101      2853.2899      3.527636e+08   0.1            16314800       26.546298      1118.4012      11183.915      0.17816309   
  51103200   305.53036      2.3937309     -43506591       1.6961926      906.17433     -43505685       706.55695      706.55695      706.55695      2146.7215      2853.2785      2146.7215      2853.2785      2146.7215      2853.2785      3.5272929e+08  0.1            16314820       26.564356      1107.563       11075.713      0.16034824   
  51103400   305.56103      3.1759311     -43506658       1.6962185      906.2653      -43505751       706.55335      706.55335      706.55335      2146.7233      2853.2767      2146.7233      2853.2767      2146.7233      2853.2767      3.527239e+08   0.1            16314840       26.582597      1096.449       10964.434      0.14253404   
  51103600   305.51024     -4.319439      -43506724       1.6960059      906.11466     -43505818       706.58289      706.58289      706.58289      2146.7086      2853.2914      2146.7086      2853.2914      2146.7086      2853.2914      3.5276813e+08  0.1            16314860       26.600853      1095.5064      10955.158      0.12471935   
  51103800   305.54378      8.1008183     -43506789       1.6963671      906.21414     -43505883       706.53273      706.53273      706.53273      2146.7336      2853.2664      2146.7336      2853.2664      2146.7336      2853.2664      3.5269301e+08  0.1            16314880       26.6189        1108.1972      11082.003      0.10690322   
  51104000   305.45382     -6.1455325     -43506857       1.6959601      905.94733     -43505951       706.58925      706.58925      706.58925      2146.7054      2853.2946      2146.7054      2853.2946      2146.7054      2853.2946      3.5277765e+08  0.1            16314900       26.636706      1123.205       11231.942      0.089085984  
  51104200   305.53538      6.7284124     -43506923       1.6963343      906.18922     -43506017       706.53728      706.53728      706.53728      2146.7314      2853.2686      2146.7314      2853.2686      2146.7314      2853.2686      3.5269983e+08  0.1            16314920       26.654504      1123.7528      11237.618      0.071268734  
  51104400   305.53169     -2.5207523     -43506992       1.6960714      906.17827     -43506086       706.57379      706.57379      706.57379      2146.7131      2853.2869      2146.7131      2853.2869      2146.7131      2853.2869      3.527545e+08   0.1            16314940       26.672281      1125.0738      11250.718      0.053451469  
  51104600   305.52339      2.2924913     -43507059       1.6962134      906.15367     -43506152       706.55407      706.55407      706.55407      2146.723       2853.277       2146.723       2853.277       2146.723       2853.277       3.5272498e+08  0.1            16314960       26.690681      1086.9515      10869.45       0.035635091  
  51104800   305.51106      1.423214      -43507125       1.6961918      906.1171      -43506219       706.55707      706.55707      706.55707      2146.7215      2853.2785      2146.7215      2853.2785      2146.7215      2853.2785      3.5272947e+08  0.1            16314980       26.709027      1090.1397      10901.447      0.017817898  
  51105000   305.4638      -0.46031788    -43507192       1.696141       905.97693     -43506286       706.56412      706.56412      706.56412      2146.7179      2853.2821      2146.7179      2853.2821      2146.7179      2853.2821      3.5274002e+08  0.1            16315000       26.727237      1098.311       10982.973      0            
Loop time of 26.7273 on 4 procs for 300000 steps with 996 atoms

Performance: 96.979 ns/day, 0.247 hours/ns, 11224.474 timesteps/s
99.5% CPU use with 4 MPI tasks x 1 OpenMP threads

MPI task timing breakdown:
Section |  min time  |  avg time  |  max time  |%varavg| %total
---------------------------------------------------------------
Pair    | 11.435     | 12.844     | 13.592     |  23.8 | 48.05
Neigh   | 0.0027119  | 0.0029681  | 0.0031923  |   0.4 |  0.01
Comm    | 6.4901     | 7.1768     | 8.4757     |  29.0 | 26.85
Output  | 0.078906   | 0.088519   | 0.1171     |   5.5 |  0.33
Modify  | 5.5527     | 5.5903     | 5.622      |   1.1 | 20.92
Other   |            | 1.025      |            |       |  3.84

Nlocal:            249 ave         270 max         229 min
Histogram: 1 1 0 0 0 0 0 0 1 1
Nghost:            687 ave         694 max         681 min
Histogram: 2 0 0 0 0 0 0 1 0 1
Neighs:         1659.5 ave        1796 max        1544 min
Histogram: 2 0 0 0 0 0 0 1 0 1

Total # of neighbors = 6638
Ave neighs/atom = 6.6646586
Neighbor list builds = 15
Dangerous builds = 0

# run_style
run_style verlet

# write restart
write_restart ${write_res}
write_restart ./pgnpmf/37/equpmf73.res
System init for write_restart ...
Generated 0 of 1 mixed pair_coeff terms from geometric mixing rule

Total wall time: 0:00:56
