LAMMPS (23 Jun 2022 - Update 1)
# Read restart
read_restart ${read_res}
read_restart ./pgnpmf/37/equpmf8.res
Reading restart file ...
  restart file = 23 Jun 2022, LAMMPS = 23 Jun 2022
  restoring atom style atomic from restart
  orthogonal box = (1718.1633 1718.1633 1718.1633) to (3281.8367 3281.8367 3281.8367)
  1 by 2 by 2 MPI processor grid
  restoring pair style table from restart
  996 atoms
  read_restart CPU = 0.006 seconds

# Settings

pair_style table spline 9941

pair_coeff 1 1 ./pgnpmf/N20.txt DE_GNP 75.6
pair_coeff 2 2 ./pgnpmf/N100.txt DE_GNP 115.92
WARNING: 3 of 9941 force values in table DE_GNP are inconsistent with -dE/dr.
WARNING:  Should only be flagged at inflection points (../pair_table.cpp:463)
pair_coeff 1 2 ./pgnpmf/mixed_potential.txt DE_GNP 95.66
WARNING: 1562 of 9941 force values in table DE_GNP are inconsistent with -dE/dr.
WARNING:  Should only be flagged at inflection points (../pair_table.cpp:463)

#Neigh_list Calc Frequency

neigh_modify delay 0 every 1 check yes

# Saving Frequency (50 frames)

variable ts_save equal ${steps_equ}
variable ts_save equal 5000

# Dump
#dump 1 all custom ${ts_save} ./pgnpmf/${folder}/equilibration/trajectory/trajectory_${usic}_${trial}.equ.custom type x y z ix iy iz
#dump_modify 1 first no sort id
dump 2 all cfg 50000 ./pgnpmf/${folder}/equilibration/trajectory/dumpgen.tens_*.cfg mass type xs ys zs fx fy fz
dump 2 all cfg 50000 ./pgnpmf/37/equilibration/trajectory/dumpgen.tens_*.cfg mass type xs ys zs fx fy fz
dump_modify 2 element N20 N100

# thermo_style
thermo_style custom step temp press pe density ke etotal lx ly lz xlo xhi ylo yhi zlo zhi vol dt time cpu tpcpu spcpu cpuremain

# run info
timestep ${ts}
timestep 0.5
thermo 200

# fix

fix 1 all momentum 1000 linear 1 1 1 angular
variable T equal ${temp}
variable T equal 300
fix 2 all nvt temp ${T} 370000 100.0
fix 2 all nvt temp 300 370000 100.0

run 100000
Generated 0 of 1 mixed pair_coeff terms from geometric mixing rule
Unused restart file global fix info:
  fix style: npt, fix ID: 5
Neighbor list info ...
  update every 1 steps, delay 0 steps, check yes
  max neighbors/atom: 2000, page size: 100000
  master list distance cutoff = 117.92
  ghost atom cutoff = 117.92
  binsize = 58.96, bins = 27 27 27
  1 neighbor lists, perpetual/occasional/extra = 1 0 0
  (1) pair table, perpetual
      attributes: half, newton on
      pair build: half/bin/atomonly/newton
      stencil: half/bin/3d
      bin: standard
Per MPI rank memory allocation (min/avg/max) = 3.104 | 3.104 | 3.104 Mbytes
   Step          Temp          Press          PotEng        Density         KinEng         TotEng           Lx             Ly             Lz            Xlo            Xhi            Ylo            Yhi            Zlo            Zhi           Volume           Dt            Time           CPU           T/CPU          S/CPU         CPULeft    
   5605000   310.12691      1.1025211     -8853125.5      0.15648709     919.80727     -8852205.7      1563.6734      1563.6734      1563.6734      1718.1633      3281.8367      1718.1633      3281.8367      1718.1633      3281.8367      3.8232983e+09  0.5            2805000        0              0              0              0            
   5605200   412.02414      0.94288389    -8853259.6      0.15648709     1222.0249     -8852037.6      1563.6734      1563.6734      1563.6734      1718.1633      3281.8367      1718.1633      3281.8367      1718.1633      3281.8367      3.8232983e+09  0.5            2805100        0.007186724    13913.069      27822.545      3.593299     
   5605400   627.3167       0.75708414    -8853419.6      0.15648709     1860.5624     -8851559.1      1563.6734      1563.6734      1563.6734      1718.1633      3281.8367      1718.1633      3281.8367      1718.1633      3281.8367      3.8232983e+09  0.5            2805200        0.013979209    14722.413      29444.782      3.4814224    
   5605600   989.70859      0.53955527    -8853616.6      0.15648709     2935.3827     -8850681.2      1563.6734      1563.6734      1563.6734      1718.1633      3281.8367      1718.1633      3281.8367      1718.1633      3281.8367      3.8232983e+09  0.5            2805300        0.020686391    14909.342      29819.147      3.4274319    
   5605800   1564.1206      0.27169946    -8853859.4      0.15648709     4639.0346     -8849220.3      1563.6734      1563.6734      1563.6734      1718.1633      3281.8367      1718.1633      3281.8367      1718.1633      3281.8367      3.8232983e+09  0.5            2805400        0.027270927    15187.147      30374.115      3.3818816    
   5606000   2423.602      -0.065364741   -8854158.3      0.15648709     7188.1757     -8846970.2      1563.6734      1563.6734      1563.6734      1718.1633      3281.8367      1718.1633      3281.8367      1718.1633      3281.8367      3.8232983e+09  0.5            2805500        0.033990274    14882.715      29765.656      3.3652468    
   5606200   3604.4807     -0.46861887    -8854518.8      0.15648709     10690.551     -8843828.2      1563.6734      1563.6734      1563.6734      1718.1633      3281.8367      1718.1633      3281.8367      1718.1633      3281.8367      3.8232983e+09  0.5            2805600        0.040667291    14976.633      29953.159      3.3484563    
   5606400   5021.6536     -0.96647007    -8854938.9      0.15648709     14893.753     -8840045.1      1563.6734      1563.6734      1563.6734      1718.1633      3281.8367      1718.1633      3281.8367      1718.1633      3281.8367      3.8232983e+09  0.5            2805700        0.047278924    15124.802      30249.704      3.3299411    
   5606600   6382.2289     -1.5158057     -8855410.3      0.15648709     18929.091     -8836481.2      1563.6734      1563.6734      1563.6734      1718.1633      3281.8367      1718.1633      3281.8367      1718.1633      3281.8367      3.8232983e+09  0.5            2805800        0.053882438    15143.501      30286.873      3.3139042    
   5606800   7259.428      -2.0222086     -8855910.4      0.15648709     21530.781     -8834379.6      1563.6734      1563.6734      1563.6734      1718.1633      3281.8367      1718.1633      3281.8367      1718.1633      3281.8367      3.8232983e+09  0.5            2805900        0.060558226    14979.505      29959.104      3.3039061    
   5607000   7609.2395     -2.5992766     -8856407.5      0.15648709     22568.289     -8833839.2      1563.6734      1563.6734      1563.6734      1718.1633      3281.8367      1718.1633      3281.8367      1718.1633      3281.8367      3.8232983e+09  0.5            2806000        0.067198224    15060.341      30120.672      3.2928153    
   5607200   8104.5622     -3.1783272     -8856895        0.15648709     24037.37      -8832857.6      1563.6734      1563.6734      1563.6734      1718.1633      3281.8367      1718.1633      3281.8367      1718.1633      3281.8367      3.8232983e+09  0.5            2806100        0.074012455    14675.004      29349.918      3.2902893    
   5607400   9147.1386     -3.7217245     -8857386.1      0.15648709     27129.553     -8830256.6      1563.6734      1563.6734      1563.6734      1718.1633      3281.8367      1718.1633      3281.8367      1718.1633      3281.8367      3.8232983e+09  0.5            2806200        0.081136675    14036.624      28073.288      3.2996464    
   5607600   10209.86      -4.2619556     -8857887.1      0.15648709     30281.484     -8827605.6      1563.6734      1563.6734      1563.6734      1718.1633      3281.8367      1718.1633      3281.8367      1718.1633      3281.8367      3.8232983e+09  0.5            2806300        0.087805561    14994.968      29989.67       3.289419     
   5607800   10768.567     -4.8364347     -8858382.2      0.15648709     31938.556     -8826443.6      1563.6734      1563.6734      1563.6734      1718.1633      3281.8367      1718.1633      3281.8367      1718.1633      3281.8367      3.8232983e+09  0.5            2806400        0.094388728    15190.278      30380.957      3.2767126    
   5608000   11133.868     -5.3733352     -8858863.2      0.15648709     33022.006     -8825841.2      1563.6734      1563.6734      1563.6734      1718.1633      3281.8367      1718.1633      3281.8367      1718.1633      3281.8367      3.8232983e+09  0.5            2806500        0.10090957     15335.219      30670.208      3.2628175    
   5608200   11938.277     -5.9215412     -8859327.9      0.15648709     35407.808     -8823920.1      1563.6734      1563.6734      1563.6734      1718.1633      3281.8367      1718.1633      3281.8367      1718.1633      3281.8367      3.8232983e+09  0.5            2806600        0.10774823     14622.94       29245.974      3.2594515    
   5608400   13072.922     -6.5589504     -8859786.8      0.15648709     38773.058     -8821013.7      1563.6734      1563.6734      1563.6734      1718.1633      3281.8367      1718.1633      3281.8367      1718.1633      3281.8367      3.8232983e+09  0.5            2806700        0.11428494     15298.426      30596.857      3.2470974    
   5608600   13871.431     -7.2339482     -8860236.5      0.15648709     41141.361     -8819095.1      1563.6734      1563.6734      1563.6734      1718.1633      3281.8367      1718.1633      3281.8367      1718.1633      3281.8367      3.8232983e+09  0.5            2806800        0.12107219     14733.388      29466.824      3.2421029    
   5608800   14230.367     -7.9602552     -8860661.1      0.15648709     42205.93      -8818455.2      1563.6734      1563.6734      1563.6734      1718.1633      3281.8367      1718.1633      3281.8367      1718.1633      3281.8367      3.8232983e+09  0.5            2806900        0.12762416     15262.841      30525.604      3.2309599    
   5609000   14790.918     -8.6556394     -8861057.6      0.15648709     43868.471     -8817189.1      1563.6734      1563.6734      1563.6734      1718.1633      3281.8367      1718.1633      3281.8367      1718.1633      3281.8367      3.8232983e+09  0.5            2807000        0.13430668     14964.408      29928.941      3.2234093    
   5609200   15860.486     -9.3597042     -8861426.6      0.15648709     47040.71      -8814385.9      1563.6734      1563.6734      1563.6734      1718.1633      3281.8367      1718.1633      3281.8367      1718.1633      3281.8367      3.8232983e+09  0.5            2807100        0.1410037      14931.883      29863.891      3.2162756    
   5609400   16884.962     -9.9652438     -8861776.9      0.15648709     50079.209     -8811697.6      1563.6734      1563.6734      1563.6734      1718.1633      3281.8367      1718.1633      3281.8367      1718.1633      3281.8367      3.8232983e+09  0.5            2807200        0.14756849     15232.868      30465.481      3.2063061    
   5609600   17378.931     -10.548566     -8862099.5      0.15648709     51544.274     -8810555.2      1563.6734      1563.6734      1563.6734      1718.1633      3281.8367      1718.1633      3281.8367      1718.1633      3281.8367      3.8232983e+09  0.5            2807300        0.15422836     15015.383      30030.756      3.1986042    
   5609800   17752.412     -11.008301     -8862395.5      0.15648709     52651.986     -8809743.5      1563.6734      1563.6734      1563.6734      1718.1633      3281.8367      1718.1633      3281.8367      1718.1633      3281.8367      3.8232983e+09  0.5            2807400        0.16101951     14724.962      29449.976      3.1935956    
   5610000   18627.234     -11.493207     -8870040.5      0.15648709     55246.625     -8814793.9      1563.6734      1563.6734      1563.6734      1718.1633      3281.8367      1718.1633      3281.8367      1718.1633      3281.8367      3.8232983e+09  0.5            2807500        0.16765517     15070.159      30140.654      3.1857077    
   5610200   19785.232     -11.904906     -8870298.5      0.15648709     58681.139     -8811617.4      1563.6734      1563.6734      1563.6734      1718.1633      3281.8367      1718.1633      3281.8367      1718.1633      3281.8367      3.8232983e+09  0.5            2807600        0.17438711     14854.488      29708.606      3.1792492    
   5610400   20517.619     -12.392925     -8870541.2      0.15648709     60853.328     -8809687.9      1563.6734      1563.6734      1563.6734      1718.1633      3281.8367      1718.1633      3281.8367      1718.1633      3281.8367      3.8232983e+09  0.5            2807700        0.18150564     14047.838      28095.929      3.1797461    
   5610600   20828.178     -12.814609     -8870762        0.15648709     61774.418     -8808987.6      1563.6734      1563.6734      1563.6734      1718.1633      3281.8367      1718.1633      3281.8367      1718.1633      3281.8367      3.8232983e+09  0.5            2807800        0.18814896     15052.78       30105.62       3.1716879    
   5610800   21442.966     -13.247099     -8870971.8      0.15648709     63597.822     -8807374        1563.6734      1563.6734      1563.6734      1718.1633      3281.8367      1718.1633      3281.8367      1718.1633      3281.8367      3.8232983e+09  0.5            2807900        0.19476398     15117.071      30234.275      3.1632683    
   5611000   22583.529     -13.648476     -8871175.7      0.15648709     66980.625     -8804195.1      1563.6734      1563.6734      1563.6734      1718.1633      3281.8367      1718.1633      3281.8367      1718.1633      3281.8367      3.8232983e+09  0.5            2808000        0.20151744     14807.216      29562.538      3.1573246    
   5611200   23577.383     -14.077565     -8875176.5      0.15648709     69928.303     -8805248.2      1563.6734      1563.6734      1563.6734      1718.1633      3281.8367      1718.1633      3281.8367      1718.1633      3281.8367      3.8232983e+09  0.5            2808100        0.20818978     14987.313      30027.677      3.1497408    
   5611400   23988.075     -14.505459     -8875388.8      0.15648709     71146.376     -8804242.5      1563.6734      1563.6734      1563.6734      1718.1633      3281.8367      1718.1633      3281.8367      1718.1633      3281.8367      3.8232983e+09  0.5            2808200        0.21479486     15139.853      30279.674      3.1414048    
   5611600   24365.817     -14.925019     -8875606.7      0.15648709     72266.723     -8803340        1563.6734      1563.6734      1563.6734      1718.1633      3281.8367      1718.1633      3281.8367      1718.1633      3281.8367      3.8232983e+09  0.5            2808300        0.22141859     15097.177      30194.44       3.1334379    
   5611800   25336.377     -15.264391     -8877749.2      0.15648709     75145.314     -8802603.8      1563.6734      1563.6734      1563.6734      1718.1633      3281.8367      1718.1633      3281.8367      1718.1633      3281.8367      3.8232983e+09  0.5            2808400        0.22798077     15238.896      30477.551      3.1247065    
   5612000   26520.559     -15.56503      -8878033.2      0.15648709     78657.486     -8799375.7      1563.6734      1563.6734      1563.6734      1718.1633      3281.8367      1718.1633      3281.8367      1718.1633      3281.8367      3.8232983e+09  0.5            2808500        0.23479517     14674.737      29349.496      3.11945      
   5612200   27163.131     -15.85134      -8885730.2      0.15648709     80563.294     -8805166.9      1563.6734      1563.6734      1563.6734      1718.1633      3281.8367      1718.1633      3281.8367      1718.1633      3281.8367      3.8232983e+09  0.5            2808600        0.24149089     14934.88       29869.676      3.1125774    
   5612400   27413.773     -16.06399      -8886082.6      0.15648709     81306.674     -8804775.9      1563.6734      1563.6734      1563.6734      1718.1633      3281.8367      1718.1633      3281.8367      1718.1633      3281.8367      3.8232983e+09  0.5            2808700        0.24810068     15129.161      30258.5        3.1046379    
   5612600   28103.301     -16.28915      -8893862.4      0.15648709     83351.749     -8810510.6      1563.6734      1563.6734      1563.6734      1718.1633      3281.8367      1718.1633      3281.8367      1718.1633      3281.8367      3.8232983e+09  0.5            2808800        0.25474894     15041.622      30083.313      3.0972348    
   5612800   29334.084     -16.440523     -8894306.3      0.15648709     87002.136     -8807304.2      1563.6734      1563.6734      1563.6734      1718.1633      3281.8367      1718.1633      3281.8367      1718.1633      3281.8367      3.8232983e+09  0.5            2808900        0.26140298     15028.378      30056.959      3.08994      
   5613000   30278.018     -16.537666     -8894789        0.15648709     89801.754     -8804987.2      1563.6734      1563.6734      1563.6734      1718.1633      3281.8367      1718.1633      3281.8367      1718.1633      3281.8367      3.8232983e+09  0.5            2809000        0.26817262     14771.653      29542.931      3.0840109    
   5613200   30567.772     -16.674761     -8895298.9      0.15648709     90661.139     -8804637.8      1563.6734      1563.6734      1563.6734      1718.1633      3281.8367      1718.1633      3281.8367      1718.1633      3281.8367      3.8232983e+09  0.5            2809100        0.27498747     14674.042      29348.239      3.0785416    
   5613400   30948.822     -16.70863      -8895831.5      0.15648709     91791.296     -8804040.2      1563.6734      1563.6734      1563.6734      1718.1633      3281.8367      1718.1633      3281.8367      1718.1633      3281.8367      3.8232983e+09  0.5            2809200        0.28204495     14169.283      28338.426      3.0756561    
   5613600   32045.987     -16.767227     -8896379.4      0.15648709     95045.384     -8801334        1563.6734      1563.6734      1563.6734      1718.1633      3281.8367      1718.1633      3281.8367      1718.1633      3281.8367      3.8232983e+09  0.5            2809300        0.28867186     15090.123      30180.712      3.0679982    
   5613800   33273.723     -16.805362     -8904321.5      0.15648709     98686.734     -8805634.8      1563.6734      1563.6734      1563.6734      1718.1633      3281.8367      1718.1633      3281.8367      1718.1633      3281.8367      3.8232983e+09  0.5            2809400        0.29521368     15286.278      30572.186      3.0595084    
   5614000   33787.207     -16.788505     -8904877.7      0.15648709     100209.68     -8804668        1563.6734      1563.6734      1563.6734      1718.1633      3281.8367      1718.1633      3281.8367      1718.1633      3281.8367      3.8232983e+09  0.5            2809500        0.30198018     14778.477      29556.885      3.0533774    
   5614200   33937.293     -16.760553     -8905413        0.15648709     100654.82     -8804758.2      1563.6734      1563.6734      1563.6734      1718.1633      3281.8367      1718.1633      3281.8367      1718.1633      3281.8367      3.8232983e+09  0.5            2809600        0.30867998     14925.917      29851.963      3.0465576    
   5614400   34727.064     -16.668793     -8905920.2      0.15648709     102997.21     -8802923        1563.6734      1563.6734      1563.6734      1718.1633      3281.8367      1718.1633      3281.8367      1718.1633      3281.8367      3.8232983e+09  0.5            2809700        0.31526207     15192.8        30385.619      3.0386096    
   5614600   36105.213     -16.495361     -8913773.3      0.15648709     107084.67     -8806688.6      1563.6734      1563.6734      1563.6734      1718.1633      3281.8367      1718.1633      3281.8367      1718.1633      3281.8367      3.8232983e+09  0.5            2809800        0.32185413     15169.647      30339.493      3.0308121    
   5614800   36987.338     -16.277856     -8914200.3      0.15648709     109700.97     -8804499.3      1563.6734      1563.6734      1563.6734      1718.1633      3281.8367      1718.1633      3281.8367      1718.1633      3281.8367      3.8232983e+09  0.5            2809900        0.32849178     15065.587      30131.214      3.0234838    
   5615000   37097.46      -16.03911      -8914559.2      0.15648709     110027.58     -8804531.6      1563.6734      1563.6734      1563.6734      1718.1633      3281.8367      1718.1633      3281.8367      1718.1633      3281.8367      3.8232983e+09  0.5            2810000        0.33526336     14767.556      29534.707      3.0173897    
   5615200   37483.122     -15.800501     -8914847.2      0.15648709     111171.42     -8803675.8      1563.6734      1563.6734      1563.6734      1718.1633      3281.8367      1718.1633      3281.8367      1718.1633      3281.8367      3.8232983e+09  0.5            2810100        0.3419415      14974.133      29948.557      3.0104451    
   5615400   38790.329     -15.437549     -8915054.6      0.15648709     115048.47     -8800006.2      1563.6734      1563.6734      1563.6734      1718.1633      3281.8367      1718.1633      3281.8367      1718.1633      3281.8367      3.8232983e+09  0.5            2810200        0.34855935     15110.871      30221.761      3.00299      
   5615600   40059.893     -15.06961      -8915182.3      0.15648709     118813.88     -8796368.4      1563.6734      1563.6734      1563.6734      1718.1633      3281.8367      1718.1633      3281.8367      1718.1633      3281.8367      3.8232983e+09  0.5            2810300        0.35519984     15059.102      30118.214      2.9957591    
   5615800   40388.848     -14.698464     -8915220.8      0.15648709     119789.53     -8795431.3      1563.6734      1563.6734      1563.6734      1718.1633      3281.8367      1718.1633      3281.8367      1718.1633      3281.8367      3.8232983e+09  0.5            2810400        0.36199327     14720.131      29440.04       2.9898132    
   5616000   40430.666     -14.329454     -8915171.3      0.15648709     119913.56     -8795257.8      1563.6734      1563.6734      1563.6734      1718.1633      3281.8367      1718.1633      3281.8367      1718.1633      3281.8367      3.8232983e+09  0.5            2810500        0.36858221     15176.794      30353.274      2.9821834    
   5616200   41439.677     -13.916175     -8915051.8      0.15648709     122906.19     -8792145.6      1563.6734      1563.6734      1563.6734      1718.1633      3281.8367      1718.1633      3281.8367      1718.1633      3281.8367      3.8232983e+09  0.5            2810600        0.37533105     14817.546      29635.5        2.9758558    
   5616400   42977.761     -13.426993     -8916750.4      0.15648709     127468        -8789282.4      1563.6734      1563.6734      1563.6734      1718.1633      3281.8367      1718.1633      3281.8367      1718.1633      3281.8367      3.8232983e+09  0.5            2810700        0.38236785     14210.906      28421.893      2.9717524    
   5616600   43651.303     -12.987917     -8916487.4      0.15648709     129465.66     -8787021.8      1563.6734      1563.6734      1563.6734      1718.1633      3281.8367      1718.1633      3281.8367      1718.1633      3281.8367      3.8232983e+09  0.5            2810800        0.38915203     14740.129      29480.046      2.9656231    
   5616800   43592.093     -12.451393     -8916173.2      0.15648709     129290.05     -8786883.2      1563.6734      1563.6734      1563.6734      1718.1633      3281.8367      1718.1633      3281.8367      1718.1633      3281.8367      3.8232983e+09  0.5            2810900        0.39581996     14997.277      29994.487      2.9586021    
   5617000   44344.06      -11.934275     -8915813        0.15648709     131520.31     -8784292.7      1563.6734      1563.6734      1563.6734      1718.1633      3281.8367      1718.1633      3281.8367      1718.1633      3281.8367      3.8232983e+09  0.5            2811000        0.40243314     15121.245      30242.527      2.9511921    
   5617200   46530.557     -11.306758     -8915408.8      0.15648709     138005.26     -8777403.5      1563.6734      1563.6734      1563.6734      1718.1633      3281.8367      1718.1633      3281.8367      1718.1633      3281.8367      3.8232983e+09  0.5            2811100        0.40907323     15060.044      30120.5        2.9440003    
   5617400   46796.951     -10.6799       -8914964.6      0.15648709     138795.36     -8776169.3      1563.6734      1563.6734      1563.6734      1718.1633      3281.8367      1718.1633      3281.8367      1718.1633      3281.8367      3.8232983e+09  0.5            2811200        0.41580684     14850.837      29701.538      2.9374885    
   5617600   45184.351     -10.163418     -8914505.6      0.15648709     134012.54     -8780493.1      1563.6734      1563.6734      1563.6734      1718.1633      3281.8367      1718.1633      3281.8367      1718.1633      3281.8367      3.8232983e+09  0.5            2811300        0.42247772     14990.593      29981.088      2.9305344    
   5617800   44157.616     -9.5902294     -8914056.3      0.15648709     130967.34     -8783088.9      1563.6734      1563.6734      1563.6734      1718.1633      3281.8367      1718.1633      3281.8367      1718.1633      3281.8367      3.8232983e+09  0.5            2811400        0.42907387     15160.421      30320.832      2.9230794    
   5618000   47721.87      -8.9409358     -8915520.4      0.15648709     141538.58     -8773981.8      1563.6734      1563.6734      1563.6734      1718.1633      3281.8367      1718.1633      3281.8367      1718.1633      3281.8367      3.8232983e+09  0.5            2811500        0.43570792     15073.61       30146.851      2.9159061    
   5618200   49362.379     -8.3059471     -8915097        0.15648709     146404.17     -8768692.8      1563.6734      1563.6734      1563.6734      1718.1633      3281.8367      1718.1633      3281.8367      1718.1633      3281.8367      3.8232983e+09  0.5            2811600        0.44255857     14597.24       29194.6        2.9101724    
   5618400   50256.96      -7.6678068     -8914699.9      0.15648709     149057.42     -8765642.5      1563.6734      1563.6734      1563.6734      1718.1633      3281.8367      1718.1633      3281.8367      1718.1633      3281.8367      3.8232983e+09  0.5            2811700        0.44927988     14878.154      29756.383      2.9035686    
   5618600   50676.933     -6.9960431     -8914347        0.15648709     150303.02     -8764043.9      1563.6734      1563.6734      1563.6734      1718.1633      3281.8367      1718.1633      3281.8367      1718.1633      3281.8367      3.8232983e+09  0.5            2811800        0.45597162     14943.736      29887.776      2.896774     
   5618800   51448.926     -6.4367097     -8921429.6      0.15648709     152592.68     -8768836.9      1563.6734      1563.6734      1563.6734      1718.1633      3281.8367      1718.1633      3281.8367      1718.1633      3281.8367      3.8232983e+09  0.5            2811900        0.46270463     14852.092      29703.995      2.8902404    
   5619000   53271.511     -5.8442931     -8923086.2      0.15648709     157998.29     -8765087.9      1563.6734      1563.6734      1563.6734      1718.1633      3281.8367      1718.1633      3281.8367      1718.1633      3281.8367      3.8232983e+09  0.5            2812000        0.46974065     14212.485      28424.91       2.8855632    
   5619200   54029.261     -5.2703708     -8930286.8      0.15648709     160245.71     -8770041.1      1563.6734      1563.6734      1563.6734      1718.1633      3281.8367      1718.1633      3281.8367      1718.1633      3281.8367      3.8232983e+09  0.5            2812100        0.47663057     14514.125      29028.284      2.8799354    
   5619400   52038.177     -4.8072299     -8929818.5      0.15648709     154340.34     -8775478.1      1563.6734      1563.6734      1563.6734      1718.1633      3281.8367      1718.1633      3281.8367      1718.1633      3281.8367      3.8232983e+09  0.5            2812200        0.48361592     14315.675      28631.411      2.8748403    
   5619600   51299.4       -4.3321117     -8931694.4      0.15648709     152149.2      -8779545.2      1563.6734      1563.6734      1563.6734      1718.1633      3281.8367      1718.1633      3281.8367      1718.1633      3281.8367      3.8232983e+09  0.5            2812300        0.49035157     14846.404      29692.432      2.8682334    
   5619800   55179.795     -3.644333      -8931767.8      0.15648709     163658.09     -8768109.7      1563.6734      1563.6734      1563.6734      1718.1633      3281.8367      1718.1633      3281.8367      1718.1633      3281.8367      3.8232983e+09  0.5            2812400        0.49721388     14572.293      29144.858      2.8623514    
   5620000   56125.576     -3.1445338     -8939311.6      0.15648709     166463.18     -8772848.4      1563.6734      1563.6734      1563.6734      1718.1633      3281.8367      1718.1633      3281.8367      1718.1633      3281.8367      3.8232983e+09  0.5            2812500        0.50396202     14818.944      29637.937      2.8557966    
   5620200   56208.432     -2.6368642     -8939554        0.15648709     166708.93     -8772845.1      1563.6734      1563.6734      1563.6734      1718.1633      3281.8367      1718.1633      3281.8367      1718.1633      3281.8367      3.8232983e+09  0.5            2812600        0.51069826     14844.984      29689.836      2.8491706    
   5620400   56994.25      -2.1374847     -8939873.5      0.15648709     169039.59     -8770833.9      1563.6734      1563.6734      1563.6734      1718.1633      3281.8367      1718.1633      3281.8367      1718.1633      3281.8367      3.8232983e+09  0.5            2812700        0.51740816     14903.323      29806.712      2.8423968    
   5620600   59613.708     -1.6283092     -8947639.3      0.15648709     176808.65     -8770830.6      1563.6734      1563.6734      1563.6734      1718.1633      3281.8367      1718.1633      3281.8367      1718.1633      3281.8367      3.8232983e+09  0.5            2812800        0.52423332     14651.66       29303.252      2.8362484    
   5620800   60480.465     -1.1921386     -8948091.7      0.15648709     179379.37     -8768712.4      1563.6734      1563.6734      1563.6734      1718.1633      3281.8367      1718.1633      3281.8367      1718.1633      3281.8367      3.8232983e+09  0.5            2812900        0.53094415     14901.415      29803.11       2.8294726    
   5621000   57195.362     -0.83454295    -8948589.9      0.15648709     169636.07     -8778953.8      1563.6734      1563.6734      1563.6734      1718.1633      3281.8367      1718.1633      3281.8367      1718.1633      3281.8367      3.8232983e+09  0.5            2813000        0.53759937     15025.824      29998.028      2.82247      
   5621200   57367.151     -0.47841587    -8949119.9      0.15648709     170145.58     -8778974.3      1563.6734      1563.6734      1563.6734      1718.1633      3281.8367      1718.1633      3281.8367      1718.1633      3281.8367      3.8232983e+09  0.5            2813100        0.54437781     14752.618      29556.841      2.8159899    
   5621400   60222.095     -0.00085894088 -8949702.3      0.15648709     178613.07     -8771089.2      1563.6734      1563.6734      1563.6734      1718.1633      3281.8367      1718.1633      3281.8367      1718.1633      3281.8367      3.8232983e+09  0.5            2813200        0.55123047     14592.82       29185.806      2.8099417    
   5621600   61697.055      0.34575743    -8957700.4      0.15648709     182987.67     -8774712.8      1563.6734      1563.6734      1563.6734      1718.1633      3281.8367      1718.1633      3281.8367      1718.1633      3281.8367      3.8232983e+09  0.5            2813300        0.55791389     14962.424      29924.759      2.8030239    
   5621800   62901.313      0.69041057    -8965710.9      0.15648709     186559.38     -8779151.5      1563.6734      1563.6734      1563.6734      1718.1633      3281.8367      1718.1633      3281.8367      1718.1633      3281.8367      3.8232983e+09  0.5            2813400        0.56460007     14956.252      29912.643      2.7961246    
   5622000   63642.515      0.95027105    -8973724.7      0.15648709     188757.72     -8784967        1563.6734      1563.6734      1563.6734      1718.1633      3281.8367      1718.1633      3281.8367      1718.1633      3281.8367      3.8232983e+09  0.5            2813500        0.57168306     14118.349      28236.447      2.7911691    
   5622200   63761.565      1.1683695     -8981725.4      0.15648709     189110.81     -8792614.6      1563.6734      1563.6734      1563.6734      1718.1633      3281.8367      1718.1633      3281.8367      1718.1633      3281.8367      3.8232983e+09  0.5            2813600        0.57890778     13841.35       27682.738      2.7868456    
   5622400   63898.831      1.3815739     -8984227.2      0.15648709     189517.93     -8794709.3      1563.6734      1563.6734      1563.6734      1718.1633      3281.8367      1718.1633      3281.8367      1718.1633      3281.8367      3.8232983e+09  0.5            2813700        0.58557947     14988.706      29977.583      2.7798298    
   5622600   65692.032      1.6976879     -8984815.9      0.15648709     194836.39     -8789979.5      1563.6734      1563.6734      1563.6734      1718.1633      3281.8367      1718.1633      3281.8367      1718.1633      3281.8367      3.8232983e+09  0.5            2813800        0.59231841     14839.105      29678.311      2.7731367    
   5622800   67916.038      1.9608738     -8992748.5      0.15648709     201432.58     -8791316        1563.6734      1563.6734      1563.6734      1718.1633      3281.8367      1718.1633      3281.8367      1718.1633      3281.8367      3.8232983e+09  0.5            2813900        0.599167       14601.456      29202.908      2.7669494    
   5623000   67176.385      2.1587302     -8995164.3      0.15648709     199238.84     -8795925.5      1563.6734      1563.6734      1563.6734      1718.1633      3281.8367      1718.1633      3281.8367      1718.1633      3281.8367      3.8232983e+09  0.5            2814000        0.60590178     14848.469      29696.837      2.7602286    
   5623200   64010.19       2.2417819     -8995631.6      0.15648709     189848.21     -8805783.4      1563.6734      1563.6734      1563.6734      1718.1633      3281.8367      1718.1633      3281.8367      1718.1633      3281.8367      3.8232983e+09  0.5            2814100        0.61261719     14891.132      29782.487      2.7534204    
   5623400   66539.916      2.5220759     -9003450.6      0.15648709     197351.14     -8806099.4      1563.6734      1563.6734      1563.6734      1718.1633      3281.8367      1718.1633      3281.8367      1718.1633      3281.8367      3.8232983e+09  0.5            2814200        0.61943361     14670.3        29340.213      2.747063     
   5623600   69810.599      2.8389134     -9003882.2      0.15648709     207051.67     -8796830.5      1563.6734      1563.6734      1563.6734      1718.1633      3281.8367      1718.1633      3281.8367      1718.1633      3281.8367      3.8232983e+09  0.5            2814300        0.62610686     14985.348      29970.723      2.7400682    
   5623800   69864.568      2.9553667     -9004275.4      0.15648709     207211.74     -8797063.7      1563.6734      1563.6734      1563.6734      1718.1633      3281.8367      1718.1633      3281.8367      1718.1633      3281.8367      3.8232983e+09  0.5            2814400        0.63272755     15104.116      30208.496      2.7328531    
   5624000   69722.208      3.0962599     -9012036.9      0.15648709     206789.51     -8805247.4      1563.6734      1563.6734      1563.6734      1718.1633      3281.8367      1718.1633      3281.8367      1718.1633      3281.8367      3.8232983e+09  0.5            2814500        0.6395082      14747.733      29495.158      2.726334     
   5624200   71515.558      3.2675175     -9014669.9      0.15648709     212108.42     -8802561.5      1563.6734      1563.6734      1563.6734      1718.1633      3281.8367      1718.1633      3281.8367      1718.1633      3281.8367      3.8232983e+09  0.5            2814600        0.64626585     14798.12       29596.267      2.7197112    
   5624400   74797.399      3.6658092     -9007626.5      0.15648709     221842.05     -8785784.4      1563.6734      1563.6734      1563.6734      1718.1633      3281.8367      1718.1633      3281.8367      1718.1633      3281.8367      3.8232983e+09  0.5            2814700        0.65293979     14983.662      29967.342      2.7127382    
   5624600   73466.14       3.7772591     -9007921.6      0.15648709     217893.67     -8790027.9      1563.6734      1563.6734      1563.6734      1718.1633      3281.8367      1718.1633      3281.8367      1718.1633      3281.8367      3.8232983e+09  0.5            2814800        0.65969912     14794.374      29588.858      2.7061215    
   5624800   69636.984      3.7879777     -9008175        0.15648709     206536.75     -8801638.2      1563.6734      1563.6734      1563.6734      1718.1633      3281.8367      1718.1633      3281.8367      1718.1633      3281.8367      3.8232983e+09  0.5            2814900        0.66642838     14860.442      29720.791      2.69938      
   5625000   71875.19       3.8987338     -9008427.7      0.15648709     213175.06     -8795252.6      1563.6734      1563.6734      1563.6734      1718.1633      3281.8367      1718.1633      3281.8367      1718.1633      3281.8367      3.8232983e+09  0.5            2815000        0.67324537     14669.278      29338.432      2.6929901    
   5625200   74386.761      4.0018945     -9017960.1      0.15648709     220624.14     -8797336        1563.6734      1563.6734      1563.6734      1718.1633      3281.8367      1718.1633      3281.8367      1718.1633      3281.8367      3.8232983e+09  0.5            2815100        0.68048452     13813.693      27627.515      2.6882593    
   5625400   76231.953      4.1267498     -9018208.8      0.15648709     226096.81     -8792112        1563.6734      1563.6734      1563.6734      1718.1633      3281.8367      1718.1633      3281.8367      1718.1633      3281.8367      3.8232983e+09  0.5            2815200        0.68716205     14975.734      29951.441      2.6812875    
   5625600   77258.131      4.2075635     -9018442        0.15648709     229140.35     -8789301.7      1563.6734      1563.6734      1563.6734      1718.1633      3281.8367      1718.1633      3281.8367      1718.1633      3281.8367      3.8232983e+09  0.5            2815300        0.69384881     14954.899      29909.709      2.6743575    
   5625800   77023.93       4.2985051     -9018649.9      0.15648709     228445.74     -8790204.2      1563.6734      1563.6734      1563.6734      1718.1633      3281.8367      1718.1633      3281.8367      1718.1633      3281.8367      3.8232983e+09  0.5            2815400        0.70063346     14739.084      29478.299      2.6678049    
   5626000   76111.58       4.3451462     -9020715.9      0.15648709     225739.79     -8794976.1      1563.6734      1563.6734      1563.6734      1718.1633      3281.8367      1718.1633      3281.8367      1718.1633      3281.8367      3.8232983e+09  0.5            2815500        0.70736844     14847.947      29695.638      2.6610609    
   5626200   78258.298      4.5301351     -9020830.8      0.15648709     232106.75     -8788724        1563.6734      1563.6734      1563.6734      1718.1633      3281.8367      1718.1633      3281.8367      1718.1633      3281.8367      3.8232983e+09  0.5            2815600        0.7140947      14866.944      29734.21       2.6542846    
   5626400   81670.923      4.7281694     -9020880.1      0.15648709     242228.28     -8778651.8      1563.6734      1563.6734      1563.6734      1718.1633      3281.8367      1718.1633      3281.8367      1718.1633      3281.8367      3.8232983e+09  0.5            2815700        0.72079148     14932.583      29865.108      2.647401     
   5626600   80830.035      4.842313      -9020824.1      0.15648709     239734.29     -8781089.8      1563.6734      1563.6734      1563.6734      1718.1633      3281.8367      1718.1633      3281.8367      1718.1633      3281.8367      3.8232983e+09  0.5            2815800        0.72743025     15063.147      30126.603      2.6403097    
   5626800   77026.029      4.7871906     -9028028.4      0.15648709     228451.96     -8799576.4      1563.6734      1563.6734      1563.6734      1718.1633      3281.8367      1718.1633      3281.8367      1718.1633      3281.8367      3.8232983e+09  0.5            2815900        0.73410781     14975.404      29950.499      2.6333671    
   5627000   78005.074      4.9163309     -9027754.5      0.15648709     231355.72     -8796398.8      1563.6734      1563.6734      1563.6734      1718.1633      3281.8367      1718.1633      3281.8367      1718.1633      3281.8367      3.8232983e+09  0.5            2816000        0.74093716     14642.748      29234.872      2.6270086    
   5627200   83849.441      5.2228503     -9027323.2      0.15648709     248689.56     -8778633.6      1563.6734      1563.6734      1563.6734      1718.1633      3281.8367      1718.1633      3281.8367      1718.1633      3281.8367      3.8232983e+09  0.5            2816100        0.74763813     14923.237      29899.308      2.6201085    
   5627400   83753.257      5.3548374     -9026716.5      0.15648709     248404.29     -8778312.2      1563.6734      1563.6734      1563.6734      1718.1633      3281.8367      1718.1633      3281.8367      1718.1633      3281.8367      3.8232983e+09  0.5            2816200        0.75440491     14778.056      29555.893      2.6134816    
   5627600   82208.44       5.5051456     -9033309        0.15648709     243822.5      -8789486.5      1563.6734      1563.6734      1563.6734      1718.1633      3281.8367      1718.1633      3281.8367      1718.1633      3281.8367      3.8232983e+09  0.5            2816300        0.76127041     14565.59       29131.201      2.6071902    
   5627800   83413.441      5.6619433     -9039741.4      0.15648709     247396.43     -8792345        1563.6734      1563.6734      1563.6734      1718.1633      3281.8367      1718.1633      3281.8367      1718.1633      3281.8367      3.8232983e+09  0.5            2816400        0.76838239     14060.847      28121.805      2.6017228    
   5628000   87688.953      5.8927653     -9053350.2      0.15648709     260077.19     -8793273        1563.6734      1563.6734      1563.6734      1718.1633      3281.8367      1718.1633      3281.8367      1718.1633      3281.8367      3.8232983e+09  0.5            2816500        0.77571762     13632.821      27265.586      2.5969749    
   5628200   87175.598      6.0902142     -9051989.1      0.15648709     258554.63     -8793434.5      1563.6734      1563.6734      1563.6734      1718.1633      3281.8367      1718.1633      3281.8367      1718.1633      3281.8367      3.8232983e+09  0.5            2816600        0.78346331     12910.261      25820.645      2.5935408    
   5628400   84669.193      6.1808543     -9050460        0.15648709     251120.87     -8799339.2      1563.6734      1563.6734      1563.6734      1718.1633      3281.8367      1718.1633      3281.8367      1718.1633      3281.8367      3.8232983e+09  0.5            2816700        0.7905834      14044.674      28089.252      2.5879854    
   5628600   86418.338      6.5225564     -9048779.7      0.15648709     256308.67     -8792471        1563.6734      1563.6734      1563.6734      1718.1633      3281.8367      1718.1633      3281.8367      1718.1633      3281.8367      3.8232983e+09  0.5            2816800        0.79725641     14985.986      29971.963      2.5809556    
   5628800   91486.457      6.9523545     -9046884.9      0.15648709     271340.23     -8775544.6      1563.6734      1563.6734      1563.6734      1718.1633      3281.8367      1718.1633      3281.8367      1718.1633      3281.8367      3.8232983e+09  0.5            2816900        0.80406307     14691.401      29382.736      2.5743603    
   5629000   89170.678      7.1470307     -9044818.7      0.15648709     264471.85     -8780346.9      1563.6734      1563.6734      1563.6734      1718.1633      3281.8367      1718.1633      3281.8367      1718.1633      3281.8367      3.8232983e+09  0.5            2817000        0.81079225     14860.698      29721.855      2.5675153    
   5629200   86304.986      7.2968551     -9042668.1      0.15648709     255972.48     -8786695.7      1563.6734      1563.6734      1563.6734      1718.1633      3281.8367      1718.1633      3281.8367      1718.1633      3281.8367      3.8232983e+09  0.5            2817100        0.81750181     14904.187      29808.227      2.5606112    
   5629400   89828.36       7.6461558     -9040460.1      0.15648709     266422.47     -8774037.7      1563.6734      1563.6734      1563.6734      1718.1633      3281.8367      1718.1633      3281.8367      1718.1633      3281.8367      3.8232983e+09  0.5            2817200        0.82418946     14952.974      29905.818      2.5536426    
   5629600   92547.078      8.0161258     -9038170.2      0.15648709     274485.93     -8763684.2      1563.6734      1563.6734      1563.6734      1718.1633      3281.8367      1718.1633      3281.8367      1718.1633      3281.8367      3.8232983e+09  0.5            2817300        0.83103495     14608.169      29216.487      2.547162     
   5629800   91455.209      8.1795577     -9050628.1      0.15648709     271247.55     -8779380.5      1563.6734      1563.6734      1563.6734      1718.1633      3281.8367      1718.1633      3281.8367      1718.1633      3281.8367      3.8232983e+09  0.5            2817400        0.83779831     14785.494      29570.86       2.540427     
   5630000   91434.596      8.4185262     -9048377.7      0.15648709     271186.42     -8777191.3      1563.6734      1563.6734      1563.6734      1718.1633      3281.8367      1718.1633      3281.8367      1718.1633      3281.8367      3.8232983e+09  0.5            2817500        0.8445061      14907.931      29815.848      2.5335247    
   5630200   96237.495      8.8155733     -9046191.7      0.15648709     285431.36     -8760760.3      1563.6734      1563.6734      1563.6734      1718.1633      3281.8367      1718.1633      3281.8367      1718.1633      3281.8367      3.8232983e+09  0.5            2817600        0.85136316     14583.612      29167.032      2.5270684    
   5630400   97068.929      9.0665318     -9044096.4      0.15648709     287897.32     -8756199        1563.6734      1563.6734      1563.6734      1718.1633      3281.8367      1718.1633      3281.8367      1718.1633      3281.8367      3.8232983e+09  0.5            2817700        0.85810058     14842.4        29684.465      2.5202547    
   5630600   93703.353      9.133529      -9044120.9      0.15648709     277915.34     -8766205.6      1563.6734      1563.6734      1563.6734      1718.1633      3281.8367      1718.1633      3281.8367      1718.1633      3281.8367      3.8232983e+09  0.5            2817800        0.86481422     14895.2        29790.729      2.5133724    
   5630800   93483.079      9.3148764     -9042526.5      0.15648709     277262.02     -8765264.5      1563.6734      1563.6734      1563.6734      1718.1633      3281.8367      1718.1633      3281.8367      1718.1633      3281.8367      3.8232983e+09  0.5            2817900        0.87167017     14585.826      29171.805      2.5069023    
   5631000   95325.402      9.5268681     -9040875.1      0.15648709     282726.18     -8758148.9      1563.6734      1563.6734      1563.6734      1718.1633      3281.8367      1718.1633      3281.8367      1718.1633      3281.8367      3.8232983e+09  0.5            2818000        0.87883659     13953.947      27907.836      2.5013101    
   5631200   97617.812      9.7894865     -9039913.9      0.15648709     289525.26     -8750388.7      1563.6734      1563.6734      1563.6734      1718.1633      3281.8367      1718.1633      3281.8367      1718.1633      3281.8367      3.8232983e+09  0.5            2818100        0.88570343     14562.775      29125.699      2.4948498    
   5631400   98894.166      9.9551511     -9039278.9      0.15648709     293310.8      -8745968.1      1563.6734      1563.6734      1563.6734      1718.1633      3281.8367      1718.1633      3281.8367      1718.1633      3281.8367      3.8232983e+09  0.5            2818200        0.89246077     14798.734      29597.358      2.4880782    
   5631600   98917.208      10.029114     -9038966.9      0.15648709     293379.14     -8745587.8      1563.6734      1563.6734      1563.6734      1718.1633      3281.8367      1718.1633      3281.8367      1718.1633      3281.8367      3.8232983e+09  0.5            2818300        0.89925683     14714.33       29428.617      2.4814139    
   5631800   97966.787      9.9794402     -9038981.8      0.15648709     290560.28     -8748421.5      1563.6734      1563.6734      1563.6734      1718.1633      3281.8367      1718.1633      3281.8367      1718.1633      3281.8367      3.8232983e+09  0.5            2818400        0.90605978     14699.464      29398.687      2.4747664    
   5632000   99245.008      10.035158     -9046673.9      0.15648709     294351.36     -8752322.5      1563.6734      1563.6734      1563.6734      1718.1633      3281.8367      1718.1633      3281.8367      1718.1633      3281.8367      3.8232983e+09  0.5            2818500        0.91292805     14559.703      29119.406      2.4682929    
   5632200   103008.21      10.237471     -9047259.3      0.15648709     305512.66     -8741746.6      1563.6734      1563.6734      1563.6734      1718.1633      3281.8367      1718.1633      3281.8367      1718.1633      3281.8367      3.8232983e+09  0.5            2818600        0.91981133     14528.086      29056.464      2.4618535    
   5632400   103735.53      10.256899     -9048048.8      0.15648709     307669.84     -8740379        1563.6734      1563.6734      1563.6734      1718.1633      3281.8367      1718.1633      3281.8367      1718.1633      3281.8367      3.8232983e+09  0.5            2818700        0.9265457      14849.15       29698.08       2.4550137    
   5632600   98905.6        10.192689     -9048969.4      0.15648709     293344.71     -8755624.7      1563.6734      1563.6734      1563.6734      1718.1633      3281.8367      1718.1633      3281.8367      1718.1633      3281.8367      3.8232983e+09  0.5            2818800        0.93327516     14860.029      29720.168      2.4481621    
   5632800   98450.779      10.220136     -9057375.1      0.15648709     291995.76     -8765379.3      1563.6734      1563.6734      1563.6734      1718.1633      3281.8367      1718.1633      3281.8367      1718.1633      3281.8367      3.8232983e+09  0.5            2818900        0.94009588     14661.086      29322.461      2.4415495    
   5633000   105524.48      10.450199     -9058506.2      0.15648709     312975.68     -8745530.5      1563.6734      1563.6734      1563.6734      1718.1633      3281.8367      1718.1633      3281.8367      1718.1633      3281.8367      3.8232983e+09  0.5            2819000        0.94689861     14700.117      29399.828      2.4348879    
   5633200   105916.27      10.440541     -9066997.5      0.15648709     314137.7      -8752859.8      1563.6734      1563.6734      1563.6734      1718.1633      3281.8367      1718.1633      3281.8367      1718.1633      3281.8367      3.8232983e+09  0.5            2819100        0.9536936      14716.641      29433.502      2.428204     
   5633400   104035.57      10.474779     -9068021.9      0.15648709     308559.71     -8759462.2      1563.6734      1563.6734      1563.6734      1718.1633      3281.8367      1718.1633      3281.8367      1718.1633      3281.8367      3.8232983e+09  0.5            2819200        0.96055555     14573.115      29146.115      2.4216876    
   5633600   103914.41      10.556332     -9068912.2      0.15648709     308200.39     -8760711.8      1563.6734      1563.6734      1563.6734      1718.1633      3281.8367      1718.1633      3281.8367      1718.1633      3281.8367      3.8232983e+09  0.5            2819300        0.96723668     14967.676      29935.441      2.4147149    
   5633800   109370.88      10.846054     -9069632        0.15648709     324383.76     -8745248.3      1563.6734      1563.6734      1563.6734      1718.1633      3281.8367      1718.1633      3281.8367      1718.1633      3281.8367      3.8232983e+09  0.5            2819400        0.97409756     14575.364      29150.55       2.4081909    
   5634000   111850.55      11.063203     -9072006.2      0.15648709     331738.21     -8740268        1563.6734      1563.6734      1563.6734      1718.1633      3281.8367      1718.1633      3281.8367      1718.1633      3281.8367      3.8232983e+09  0.5            2819500        0.98130908     13866.65       27733.243      2.4025208    
   5634200   106427         11.007593     -9072166.5      0.15648709     315652.48     -8756514        1563.6734      1563.6734      1563.6734      1718.1633      3281.8367      1718.1633      3281.8367      1718.1633      3281.8367      3.8232983e+09  0.5            2819600        0.98815212     14613.446      29227.169      2.3959355    
   5634400   105555.71      11.198683     -9072039.8      0.15648709     313068.32     -8758971.5      1563.6734      1563.6734      1563.6734      1718.1633      3281.8367      1718.1633      3281.8367      1718.1633      3281.8367      3.8232983e+09  0.5            2819700        0.99484132     14949.419      29898.781      2.3889777    
   5634600   108449.98      11.484146     -9079005.2      0.15648709     321652.45     -8757352.7      1563.6734      1563.6734      1563.6734      1718.1633      3281.8367      1718.1633      3281.8367      1718.1633      3281.8367      3.8232983e+09  0.5            2819800        1.001598       14799.897      29599.854      2.3821843    
   5634800   111589.71      11.896741     -9078292.9      0.15648709     330964.6      -8747328.3      1563.6734      1563.6734      1563.6734      1718.1633      3281.8367      1718.1633      3281.8367      1718.1633      3281.8367      3.8232983e+09  0.5            2819900        1.0084531      14587.922      29175.805      2.3756227    
   5635000   112439.63      12.167054     -9084642.4      0.15648709     333485.37     -8751157        1563.6734      1563.6734      1563.6734      1718.1633      3281.8367      1718.1633      3281.8367      1718.1633      3281.8367      3.8232983e+09  0.5            2820000        1.0152044      14812.002      29623.823      2.3688154    
   5635200   110336.93      12.447991     -9083362.1      0.15648709     327248.97     -8756113.1      1563.6734      1563.6734      1563.6734      1718.1633      3281.8367      1718.1633      3281.8367      1718.1633      3281.8367      3.8232983e+09  0.5            2820100        1.022093       14516.681      29033.463      2.3623258    
   5635400   107677.09      12.74261      -9089263.6      0.15648709     319360.12     -8769903.5      1563.6734      1563.6734      1563.6734      1718.1633      3281.8367      1718.1633      3281.8367      1718.1633      3281.8367      3.8232983e+09  0.5            2820200        1.0289641      14553.751      29107.59       2.355791     
   5635600   113133.32      13.251738     -9095017.4      0.15648709     335542.79     -8759474.6      1563.6734      1563.6734      1563.6734      1718.1633      3281.8367      1718.1633      3281.8367      1718.1633      3281.8367      3.8232983e+09  0.5            2820300        1.0356736      14904.247      29808.52       2.3488854    
   5635800   116349.53      13.655615     -9102499.2      0.15648709     345081.77     -8757417.5      1563.6734      1563.6734      1563.6734      1718.1633      3281.8367      1718.1633      3281.8367      1718.1633      3281.8367      3.8232983e+09  0.5            2820400        1.042402       14862.233      29724.435      2.342025     
   5636000   114671.33      13.927108     -9109863.7      0.15648709     340104.37     -8769759.3      1563.6734      1563.6734      1563.6734      1718.1633      3281.8367      1718.1633      3281.8367      1718.1633      3281.8367      3.8232983e+09  0.5            2820500        1.0492852      14528.346      29056.363      2.3355106    
   5636200   112419.57      14.293571     -9107910.1      0.15648709     333425.88     -8774484.2      1563.6734      1563.6734      1563.6734      1718.1633      3281.8367      1718.1633      3281.8367      1718.1633      3281.8367      3.8232983e+09  0.5            2820600        1.0560744      14729.384      29459.125      2.3287838    
   5636400   116689.18      14.851845     -9098562        0.15648709     346089.15     -8752472.8      1563.6734      1563.6734      1563.6734      1718.1633      3281.8367      1718.1633      3281.8367      1718.1633      3281.8367      3.8232983e+09  0.5            2820700        1.0628591      14738.863      29477.704      2.322047     
   5636600   120884.4       15.354066     -9103926.6      0.15648709     358531.77     -8745394.8      1563.6734      1563.6734      1563.6734      1718.1633      3281.8367      1718.1633      3281.8367      1718.1633      3281.8367      3.8232983e+09  0.5            2820800        1.0695768      14886.174      29772.361      2.3151643    
   5636800   117514.75      15.662827     -9101906.9      0.15648709     348537.69     -8753369.2      1563.6734      1563.6734      1563.6734      1718.1633      3281.8367      1718.1633      3281.8367      1718.1633      3281.8367      3.8232983e+09  0.5            2820900        1.0765275      14386.694      28773.223      2.3087839    
   5637000   114094.48      15.951287     -9099963.9      0.15648709     338393.51     -8761570.4      1563.6734      1563.6734      1563.6734      1718.1633      3281.8367      1718.1633      3281.8367      1718.1633      3281.8367      3.8232983e+09  0.5            2821000        1.0837082      13926.372      27852.833      2.3028845    
   5637200   120786.02      16.605451     -9098077.3      0.15648709     358239.99     -8739837.3      1563.6734      1563.6734      1563.6734      1718.1633      3281.8367      1718.1633      3281.8367      1718.1633      3281.8367      3.8232983e+09  0.5            2821100        1.0905308      14657.225      29314.544      2.2962152    
   5637400   123683.42      17.06485      -9096176.4      0.15648709     366833.41     -8729343        1563.6734      1563.6734      1563.6734      1718.1633      3281.8367      1718.1633      3281.8367      1718.1633      3281.8367      3.8232983e+09  0.5            2821200        1.0973213      14726.58       29452.921      2.2894772    
   5637600   119450.48      17.379665     -9094301.4      0.15648709     354278.91     -8740022.5      1563.6734      1563.6734      1563.6734      1718.1633      3281.8367      1718.1633      3281.8367      1718.1633      3281.8367      3.8232983e+09  0.5            2821300        1.1040028      14966.592      29933.223      2.2825133    
   5637800   117750.48      17.692583     -9092502.1      0.15648709     349236.85     -8743265.3      1563.6734      1563.6734      1563.6734      1718.1633      3281.8367      1718.1633      3281.8367      1718.1633      3281.8367      3.8232983e+09  0.5            2821400        1.1107328      14859.002      29718.287      2.2756518    
   5638000   124526.07      18.306336     -9098135.5      0.15648709     369332.6      -8728802.9      1563.6734      1563.6734      1563.6734      1718.1633      3281.8367      1718.1633      3281.8367      1718.1633      3281.8367      3.8232983e+09  0.5            2821500        1.1176563      14443.455      28886.769      2.2691853    
   5638200   126247.68      18.685528     -9096365.3      0.15648709     374438.76     -8721926.6      1563.6734      1563.6734      1563.6734      1718.1633      3281.8367      1718.1633      3281.8367      1718.1633      3281.8367      3.8232983e+09  0.5            2821600        1.1244327      14756.941      29513.979      2.2624171    
   5638400   123000.93      18.919717     -9101978.2      0.15648709     364809.2      -8737169        1563.6734      1563.6734      1563.6734      1718.1633      3281.8367      1718.1633      3281.8367      1718.1633      3281.8367      3.8232983e+09  0.5            2821700        1.1311891      14800.904      29601.87       2.2556088    
   5638600   122049.34      19.129886     -9100243.6      0.15648709     361986.88     -8738256.7      1563.6734      1563.6734      1563.6734      1718.1633      3281.8367      1718.1633      3281.8367      1718.1633      3281.8367      3.8232983e+09  0.5            2821800        1.1380632      14547.291      29094.51       2.2490338    
   5638800   127394.47      19.63799      -9098507.8      0.15648709     377840.02     -8720667.8      1563.6734      1563.6734      1563.6734      1718.1633      3281.8367      1718.1633      3281.8367      1718.1633      3281.8367      3.8232983e+09  0.5            2821900        1.1448513      14731.75       29463.234      2.2422869    
   5639000   132036.1       20.139617     -9089351.8      0.15648709     391606.67     -8697745.1      1563.6734      1563.6734      1563.6734      1718.1633      3281.8367      1718.1633      3281.8367      1718.1633      3281.8367      3.8232983e+09  0.5            2822000        1.1515698      14884.357      29768.891      2.2354042    
   5639200   127901.44      20.345464     -9072794.3      0.15648709     379343.66     -8693450.6      1563.6734      1563.6734      1563.6734      1718.1633      3281.8367      1718.1633      3281.8367      1718.1633      3281.8367      3.8232983e+09  0.5            2822100        1.1584966      14436.535      28873.074      2.2289245    
   5639400   125879.6       20.465368     -9072908        0.15648709     373347.07     -8699560.9      1563.6734      1563.6734      1563.6734      1718.1633      3281.8367      1718.1633      3281.8367      1718.1633      3281.8367      3.8232983e+09  0.5            2822200        1.1652692      14765.293      29530.743      2.2221453    
   5639600   127148.01      20.738309     -9071159.4      0.15648709     377109.04     -8694050.4      1563.6734      1563.6734      1563.6734      1718.1633      3281.8367      1718.1633      3281.8367      1718.1633      3281.8367      3.8232983e+09  0.5            2822300        1.1721447      14544.509      29088.768      2.2155608    
   5639800   131955.57      21.088095     -9076830.7      0.15648709     391367.81     -8685462.9      1563.6734      1563.6734      1563.6734      1718.1633      3281.8367      1718.1633      3281.8367      1718.1633      3281.8367      3.8232983e+09  0.5            2822400        1.1792928      13989.824      27979.639      2.2094836    
   5640000   133923.95      21.212904     -9082521.3      0.15648709     397205.85     -8685315.5      1563.6734      1563.6734      1563.6734      1718.1633      3281.8367      1718.1633      3281.8367      1718.1633      3281.8367      3.8232983e+09  0.5            2822500        1.1861917      14495.096      28990.373      2.2029313    
   5640200   125523.1       21.0471       -9095677.6      0.15648709     372289.72     -8723387.8      1563.6734      1563.6734      1563.6734      1718.1633      3281.8367      1718.1633      3281.8367      1718.1633      3281.8367      3.8232983e+09  0.5            2822600        1.1929556      14784.298      29568.622      2.1961266    
   5640400   124379.09      21.048064     -9094277.2      0.15648709     368896.7      -8725380.5      1563.6734      1563.6734      1563.6734      1718.1633      3281.8367      1718.1633      3281.8367      1718.1633      3281.8367      3.8232983e+09  0.5            2822700        1.1998262      14554.706      29109.361      2.1895172    
   5640600   131377.86      21.375136     -9093033.3      0.15648709     389654.39     -8703378.9      1563.6734      1563.6734      1563.6734      1718.1633      3281.8367      1718.1633      3281.8367      1718.1633      3281.8367      3.8232983e+09  0.5            2822800        1.2065653      14838.819      29677.364      2.182667     
   5640800   133723.31      21.468803     -9091935.1      0.15648709     396610.76     -8695324.3      1563.6734      1563.6734      1563.6734      1718.1633      3281.8367      1718.1633      3281.8367      1718.1633      3281.8367      3.8232983e+09  0.5            2822900        1.2133234      14797.192      29594.572      2.1758518    
   5641000   133628.06      21.371202     -9091009.4      0.15648709     396328.27     -8694681.2      1563.6734      1563.6734      1563.6734      1718.1633      3281.8367      1718.1633      3281.8367      1718.1633      3281.8367      3.8232983e+09  0.5            2823000        1.2201735      14598.259      29145.852      2.1692223    
   5641200   132837.11      21.175437     -9090257.1      0.15648709     393982.37     -8696274.7      1563.6734      1563.6734      1563.6734      1718.1633      3281.8367      1718.1633      3281.8367      1718.1633      3281.8367      3.8232983e+09  0.5            2823100        1.2269319      14796.417      29645.194      2.1623863    
   5641400   134684.5       21.102083     -9089693.5      0.15648709     399461.56     -8690232        1563.6734      1563.6734      1563.6734      1718.1633      3281.8367      1718.1633      3281.8367      1718.1633      3281.8367      3.8232983e+09  0.5            2823200        1.2336317      14925.674      29851.138      2.1554701    
   5641600   139299.21      21.187572     -9080021.7      0.15648709     413148.36     -8666873.4      1563.6734      1563.6734      1563.6734      1718.1633      3281.8367      1718.1633      3281.8367      1718.1633      3281.8367      3.8232983e+09  0.5            2823300        1.2405145      14529.07       29058.174      2.148873     
   5641800   138399.32      20.832954     -9077894.7      0.15648709     410479.39     -8667415.4      1563.6734      1563.6734      1563.6734      1718.1633      3281.8367      1718.1633      3281.8367      1718.1633      3281.8367      3.8232983e+09  0.5            2823400        1.2472519      14842.585      29685.288      2.1420231    
   5642000   131703.17      20.321918     -9077795.5      0.15648709     390619.21     -8687176.3      1563.6734      1563.6734      1563.6734      1718.1633      3281.8367      1718.1633      3281.8367      1718.1633      3281.8367      3.8232983e+09  0.5            2823500        1.2540887      14626.61       29202.29       2.1353643    
   5642200   133428.49      20.01654      -9077810.7      0.15648709     395736.37     -8682074.3      1563.6734      1563.6734      1563.6734      1718.1633      3281.8367      1718.1633      3281.8367      1718.1633      3281.8367      3.8232983e+09  0.5            2823600        1.260855       14779.108      29610.297      2.1285437    
   5642400   142063.49      19.897514     -9077904.2      0.15648709     421346.97     -8656557.3      1563.6734      1563.6734      1563.6734      1718.1633      3281.8367      1718.1633      3281.8367      1718.1633      3281.8367      3.8232983e+09  0.5            2823700        1.2676547      14706.693      29413.525      2.1217997    
   5642600   140681.26      19.347846     -9077989.5      0.15648709     417247.4      -8660742.1      1563.6734      1563.6734      1563.6734      1718.1633      3281.8367      1718.1633      3281.8367      1718.1633      3281.8367      3.8232983e+09  0.5            2823800        1.2745958      14406.828      28813.507      2.1152901    
   5642800   137467.18      18.755275     -9077684.2      0.15648709     407714.74     -8669969.5      1563.6734      1563.6734      1563.6734      1718.1633      3281.8367      1718.1633      3281.8367      1718.1633      3281.8367      3.8232983e+09  0.5            2823900        1.2817953      13889.936      27780.039      2.1092009    
   5643000   138562.87      18.33529      -9077697.2      0.15648709     410964.43     -8666732.8      1563.6734      1563.6734      1563.6734      1718.1633      3281.8367      1718.1633      3281.8367      1718.1633      3281.8367      3.8232983e+09  0.5            2824000        1.2885818      14735.062      29469.738      2.1024265    
   5643200   147034.45      18.124839     -9077634.3      0.15648709     436090.36     -8641544        1563.6734      1563.6734      1563.6734      1718.1633      3281.8367      1718.1633      3281.8367      1718.1633      3281.8367      3.8232983e+09  0.5            2824100        1.2954786      14499.459      28999.326      2.0958299    
   5643400   146389.97      17.648282     -9077439.3      0.15648709     434178.88     -8643260.4      1563.6734      1563.6734      1563.6734      1718.1633      3281.8367      1718.1633      3281.8367      1718.1633      3281.8367      3.8232983e+09  0.5            2824200        1.3021994      14879.146      29758.22       2.0889483    
   5643600   140835.23      16.93445      -9077106        0.15648709     417704.06     -8659401.9      1563.6734      1563.6734      1563.6734      1718.1633      3281.8367      1718.1633      3281.8367      1718.1633      3281.8367      3.8232983e+09  0.5            2824300        1.309054       14588.579      29177.07       2.0822812    
   5643800   141393.64      16.510415     -9074744.7      0.15648709     419360.25     -8655384.4      1563.6734      1563.6734      1563.6734      1718.1633      3281.8367      1718.1633      3281.8367      1718.1633      3281.8367      3.8232983e+09  0.5            2824400        1.3158438      14728.269      29456.348      2.0755095    
   5644000   144621.37      16.119928     -9074146.9      0.15648709     428933.39     -8645213.5      1563.6734      1563.6734      1563.6734      1718.1633      3281.8367      1718.1633      3281.8367      1718.1633      3281.8367      3.8232983e+09  0.5            2824500        1.3226359      14722.946      29445.788      2.0687416    
   5644200   147436.24      15.633251     -9080770.2      0.15648709     437282.02     -8643488.2      1563.6734      1563.6734      1563.6734      1718.1633      3281.8367      1718.1633      3281.8367      1718.1633      3281.8367      3.8232983e+09  0.5            2824600        1.3295385      14487.11       28974.581      2.0621446    
   5644400   147083.82      15.202362     -9079872.6      0.15648709     436236.77     -8643635.9      1563.6734      1563.6734      1563.6734      1718.1633      3281.8367      1718.1633      3281.8367      1718.1633      3281.8367      3.8232983e+09  0.5            2824700        1.33621        14989.203      29978.414      2.0551892    
   5644600   141639.31      14.504919     -9078851.5      0.15648709     420088.89     -8658762.7      1563.6734      1563.6734      1563.6734      1718.1633      3281.8367      1718.1633      3281.8367      1718.1633      3281.8367      3.8232983e+09  0.5            2824800        1.3429305      14879.912      29759.868      2.0483113    
   5644800   142831.89      14.087138     -9077767.2      0.15648709     423625.96     -8654141.3      1563.6734      1563.6734      1563.6734      1718.1633      3281.8367      1718.1633      3281.8367      1718.1633      3281.8367      3.8232983e+09  0.5            2824900        1.3497974      14562.701      29125.173      2.0416566    
   5645000   150893.95      13.92112      -9076587.3      0.15648709     447537.28     -8629050        1563.6734      1563.6734      1563.6734      1718.1633      3281.8367      1718.1633      3281.8367      1718.1633      3281.8367      3.8232983e+09  0.5            2825000        1.3565208      14873.237      29746.567      2.0347844    
   5645200   151031.76      13.516009     -9075325.8      0.15648709     447946        -8627379.8      1563.6734      1563.6734      1563.6734      1718.1633      3281.8367      1718.1633      3281.8367      1718.1633      3281.8367      3.8232983e+09  0.5            2825100        1.363458       14415.202      28830.541      2.0282316    
   5645400   147189.67      12.91503      -9074010.5      0.15648709     436550.73     -8637459.8      1563.6734      1563.6734      1563.6734      1718.1633      3281.8367      1718.1633      3281.8367      1718.1633      3281.8367      3.8232983e+09  0.5            2825200        1.3702177      14793.508      29586.836      2.0214134    
   5645600   145900.29      12.490883     -9065319.9      0.15648709     432726.56     -8632593.3      1563.6734      1563.6734      1563.6734      1718.1633      3281.8367      1718.1633      3281.8367      1718.1633      3281.8367      3.8232983e+09  0.5            2825300        1.3770732      14586.862      29173.694      2.0147357    
   5645800   155214.52      12.308975     -9078797.4      0.15648709     460351.67     -8618445.7      1563.6734      1563.6734      1563.6734      1718.1633      3281.8367      1718.1633      3281.8367      1718.1633      3281.8367      3.8232983e+09  0.5            2825400        1.3844169      13617.118      27234.202      2.0087648    
   5646000   156209.89      11.816444     -9077482.4      0.15648709     463303.86     -8614178.5      1563.6734      1563.6734      1563.6734      1718.1633      3281.8367      1718.1633      3281.8367      1718.1633      3281.8367      3.8232983e+09  0.5            2825500        1.3912291      14679.319      29358.63       2.0020159    
   5646200   149458.07      11.206551     -9068813.6      0.15648709     443278.59     -8625535        1563.6734      1563.6734      1563.6734      1718.1633      3281.8367      1718.1633      3281.8367      1718.1633      3281.8367      3.8232983e+09  0.5            2825600        1.3981058      14541.929      29083.954      1.9953578    
   5646400   148524.18      10.833817     -9060254.3      0.15648709     440508.76     -8619745.6      1563.6734      1563.6734      1563.6734      1718.1633      3281.8367      1718.1633      3281.8367      1718.1633      3281.8367      3.8232983e+09  0.5            2825700        1.4047684      15009.18       30018.527      1.9883949    
   5646600   157865.57      10.884041     -9059135.5      0.15648709     468214.45     -8590921        1563.6734      1563.6734      1563.6734      1718.1633      3281.8367      1718.1633      3281.8367      1718.1633      3281.8367      3.8232983e+09  0.5            2825800        1.4115264      14797.196      29594.069      1.981569     
   5646800   158618.87      10.514158     -9059958.8      0.15648709     470448.66     -8589510.2      1563.6734      1563.6734      1563.6734      1718.1633      3281.8367      1718.1633      3281.8367      1718.1633      3281.8367      3.8232983e+09  0.5            2825900        1.4183742      14603.345      29206.955      1.9748684    
   5647000   154522.86      10.091946     -9051227        0.15648709     458300.28     -8592926.8      1563.6734      1563.6734      1563.6734      1718.1633      3281.8367      1718.1633      3281.8367      1718.1633      3281.8367      3.8232983e+09  0.5            2826000        1.4251369      14786.91       29573.751      1.9680492    
   5647200   152928.73      9.6338964     -9051879.1      0.15648709     453572.25     -8598306.9      1563.6734      1563.6734      1563.6734      1718.1633      3281.8367      1718.1633      3281.8367      1718.1633      3281.8367      3.8232983e+09  0.5            2826100        1.432018       14532.452      29064.947      1.9613926    
   5647400   159152.48      9.4521372     -9058466.2      0.15648709     472031.3      -8586434.9      1563.6734      1563.6734      1563.6734      1718.1633      3281.8367      1718.1633      3281.8367      1718.1633      3281.8367      3.8232983e+09  0.5            2826200        1.4387611      14830.201      29660.622      1.9545461    
   5647600   164684.71      9.3008808     -9057704        0.15648709     488439.36     -8569264.7      1563.6734      1563.6734      1563.6734      1718.1633      3281.8367      1718.1633      3281.8367      1718.1633      3281.8367      3.8232983e+09  0.5            2826300        1.4455018      14835.195      29670.144      1.9476977    
   5647800   157869.31      8.7887177     -9055079.1      0.15648709     468225.53     -8586853.5      1563.6734      1563.6734      1563.6734      1718.1633      3281.8367      1718.1633      3281.8367      1718.1633      3281.8367      3.8232983e+09  0.5            2826400        1.452308       14692.484      29385.011      1.9409378    
   5648000   154591.44      8.3903126     -9047041.5      0.15648709     458503.69     -8588537.8      1563.6734      1563.6734      1563.6734      1718.1633      3281.8367      1718.1633      3281.8367      1718.1633      3281.8367      3.8232983e+09  0.5            2826500        1.4590165      14906.571      29813.386      1.9340478    
   5648200   158005.22      8.2568526     -9053814.6      0.15648709     468628.64     -8585186        1563.6734      1563.6734      1563.6734      1718.1633      3281.8367      1718.1633      3281.8367      1718.1633      3281.8367      3.8232983e+09  0.5            2826600        1.4658988      14529.914      29059.588      1.9273882    
   5648400   162951.79      8.0331433     -9060589        0.15648709     483299.69     -8577289.3      1563.6734      1563.6734      1563.6734      1718.1633      3281.8367      1718.1633      3281.8367      1718.1633      3281.8367      3.8232983e+09  0.5            2826700        1.4728368      14413.494      28827.138      1.920799     
   5648600   164074.86      7.8627713     -9052610.5      0.15648709     486630.62     -8565979.9      1563.6734      1563.6734      1563.6734      1718.1633      3281.8367      1718.1633      3281.8367      1718.1633      3281.8367      3.8232983e+09  0.5            2826800        1.4799565      14045.544      28090.929      1.9144418    
   5648800   158272.28      7.4852698     -9046519.2      0.15648709     469420.71     -8577098.5      1563.6734      1563.6734      1563.6734      1718.1633      3281.8367      1718.1633      3281.8367      1718.1633      3281.8367      3.8232983e+09  0.5            2826900        1.4868618      14481.582      28963.176      1.9078025    
   5649000   153573.66      7.0414848     -9038543.4      0.15648709     455485.03     -8583058.4      1563.6734      1563.6734      1563.6734      1718.1633      3281.8367      1718.1633      3281.8367      1718.1633      3281.8367      3.8232983e+09  0.5            2827000        1.4936017      14810.872      29621.691      1.9009655    
   5649200   164495.2       7.2491159     -9045328.9      0.15648709     487877.29     -8557451.6      1563.6734      1563.6734      1563.6734      1718.1633      3281.8367      1718.1633      3281.8367      1718.1633      3281.8367      3.8232983e+09  0.5            2827100        1.5005112      14497.84       28995.597      1.8943132    
   5649400   167129.13      7.1148535     -9057543        0.15648709     495689.3      -8561853.7      1563.6734      1563.6734      1563.6734      1718.1633      3281.8367      1718.1633      3281.8367      1718.1633      3281.8367      3.8232983e+09  0.5            2827200        1.5072351      14872.312      29744.89       1.8874411    
   5649600   164055.33      6.8082469     -9056821.6      0.15648709     486572.69     -8570248.9      1563.6734      1563.6734      1563.6734      1718.1633      3281.8367      1718.1633      3281.8367      1718.1633      3281.8367      3.8232983e+09  0.5            2827300        1.5140561      14660.628      29321.18       1.8806911    
   5649800   161874.45      6.7876024     -9048285.7      0.15648709     480104.42     -8568181.3      1563.6734      1563.6734      1563.6734      1718.1633      3281.8367      1718.1633      3281.8367      1718.1633      3281.8367      3.8232983e+09  0.5            2827400        1.5208181      14788.467      29576.681      1.8738678    
[...]
   6294400   310.5693       0.83969293    -11021842       0.1806622      921.11936     -11020921       1490.5611      1490.5611      1490.5611      1754.7194      3245.2806      1754.7194      3245.2806      1754.7194      3245.2806      3.3116878e+09  0.5            3149700        14.488654      10029.673      20059.356      0.53068333   
   6294600   310.54783      1.1549547     -11029339       0.18070387     921.05568     -11028418       1490.4466      1490.4466      1490.4466      1754.7767      3245.2233      1754.7767      3245.2233      1754.7767      3245.2233      3.3109243e+09  0.5            3149800        14.498689      9964.7447      19929.368      0.52067125   
   6294800   310.54259      0.87655429    -11029471       0.18069265     921.04012     -11028550       1490.4774      1490.4774      1490.4774      1754.7613      3245.2387      1754.7613      3245.2387      1754.7613      3245.2387      3.3111297e+09  0.5            3149900        14.508861      9830.3585      19660.69       0.51066396   
   6295000   310.5047       1.0916078     -11029593       0.18072204     920.92775     -11028672       1490.3966      1490.3966      1490.3966      1754.8017      3245.1983      1754.8017      3245.1983      1754.8017      3245.1983      3.3105913e+09  0.5            3150000        14.518759      10103.546      20207.329      0.50064695   
   6295200   310.43427      1.2001836     -11029716       0.18074271     920.71886     -11028795       1490.3398      1490.3398      1490.3398      1754.8301      3245.1699      1754.8301      3245.1699      1754.8301      3245.1699      3.3102127e+09  0.5            3150100        14.528673      10086.508      20173.099      0.49063068   
   6295400   310.37021      1.0302692     -11029845       0.18074077     920.52887     -11028925       1490.3451      1490.3451      1490.3451      1754.8274      3245.1726      1754.8274      3245.1726      1754.8274      3245.1726      3.3102483e+09  0.5            3150200        14.538622      10051.303      20102.491      0.4806157    
   6295600   310.40145      0.79841103    -11029975       0.18073429     920.62152     -11029054       1490.363       1490.363       1490.363       1754.8185      3245.1815      1754.8185      3245.1815      1754.8185      3245.1815      3.3103669e+09  0.5            3150300        14.548732      9890.9552      19781.468      0.47060603   
   6295800   310.54364      1.0370269     -11030095       0.18076729     921.04326     -11029174       1490.2722      1490.2722      1490.2722      1754.8639      3245.1361      1754.8639      3245.1361      1754.8639      3245.1361      3.3097626e+09  0.5            3150400        14.559051      9691.6561      19383.419      0.46060279   
   6296000   310.63779      1.1895408     -11030217       0.18079314     921.3225      -11029296       1490.2012      1490.2012      1490.2012      1754.8994      3245.1006      1754.8994      3245.1006      1754.8994      3245.1006      3.3092894e+09  0.5            3150500        14.569008      10042.991      20086.18       0.45058795   
   6296200   310.60208      0.86068952    -11030351       0.18077865     921.21658     -11029430       1490.241       1490.241       1490.241       1754.8795      3245.1205      1754.8795      3245.1205      1754.8795      3245.1205      3.3095547e+09  0.5            3150600        14.579002      10005.848      20011.681      0.44057431   
   6296400   310.52348      0.8403149     -11030477       0.18078942     920.98346     -11029556       1490.2114      1490.2114      1490.2114      1754.8943      3245.1057      1754.8943      3245.1057      1754.8943      3245.1057      3.3093574e+09  0.5            3150700        14.588972      10029.98       20059.575      0.43056      
   6296600   310.47572      1.2191388     -11032489       0.18083466     920.84181     -11031568       1490.0872      1490.0872      1490.0872      1754.9564      3245.0436      1754.9564      3245.0436      1754.9564      3245.0436      3.3085295e+09  0.5            3150800        14.598871      10101.798      20203.932      0.42054369   
   6296800   310.44659      0.90400956    -11032622       0.18082104     920.7554      -11031701       1490.1246      1490.1246      1490.1246      1754.9377      3245.0623      1754.9377      3245.0623      1754.9377      3245.0623      3.3087787e+09  0.5            3150900        14.608982      9890.4455      19780.809      0.4105335    
   6297000   310.53907      1.2966645     -11032738       0.18086637     921.0297      -11031817       1490.0001      1490.0001      1490.0001      1755           3245           1755           3245           1755           3245           3.3079495e+09  0.5            3151000        14.61893       10052.702      20105.629      0.40051869   
   6297200   310.51677      0.8182992     -11032875       0.18083913     920.96356     -11031954       1490.0749      1490.0749      1490.0749      1754.9626      3245.0374      1754.9626      3245.0374      1754.9626      3245.0374      3.3084477e+09  0.5            3151100        14.629039      9891.7917      19783.253      0.39050831   
   6297400   310.49184      0.76797648    -11033001       0.18084743     920.8896      -11032081       1490.0521      1490.0521      1490.0521      1754.974       3245.026       1754.974       3245.026       1754.974       3245.026       3.3082959e+09  0.5            3151200        14.639071      9968.2581      19936.629      0.38049576   
   6297600   310.52093      1.3959925     -11033112       0.18091244     920.97589     -11032191       1489.8736      1489.8736      1489.8736      1755.0632      3244.9368      1755.0632      3244.9368      1755.0632      3244.9368      3.3071072e+09  0.5            3151300        14.649298      9778.0729      19556.19       0.37048812   
   6297800   310.46705      0.82975535    -11033251       0.180878       920.81609     -11032331       1489.9681      1489.9681      1489.9681      1755.0159      3244.9841      1755.0159      3244.9841      1755.0159      3244.9841      3.3077367e+09  0.5            3151400        14.659736      9580.0857      19160.236      0.36048538   
   6298000   310.51844      0.83654392    -11033377       0.18089173     920.96849     -11032456       1489.9304      1489.9304      1489.9304      1755.0348      3244.9652      1755.0348      3244.9652      1755.0348      3244.9652      3.3074857e+09  0.5            3151500        14.669778      9957.8365      19915.473      0.35047259   
   6298200   310.62973      1.374768      -11033489       0.1809503      921.29859     -11032568       1489.7697      1489.7697      1489.7697      1755.1152      3244.8848      1755.1152      3244.8848      1755.1152      3244.8848      3.3064151e+09  0.5            3151600        14.679795      9983.6179      19967.244      0.34045916   
   6298400   310.6082       0.59565296    -11033633       0.18089843     921.23472     -11032712       1489.912       1489.912       1489.912       1755.044       3244.956       1755.044       3244.956       1755.044       3244.956       3.3073632e+09  0.5            3151700        14.689838      9956.8113      19913.639      0.33044632   
   6298600   310.70545      1.2648598     -11033745       0.18096804     921.52316     -11032824       1489.721       1489.721       1489.721       1755.1395      3244.8605      1755.1395      3244.8605      1755.1395      3244.8605      3.3060911e+09  0.5            3151800        14.699817      10020.974      20042.177      0.32043204   
   6298800   310.70651      0.9426727     -11033880       0.18095459     921.52631     -11032959       1489.7579      1489.7579      1489.7579      1755.121       3244.879       1755.121       3244.879       1755.121       3244.879       3.3063368e+09  0.5            3151900        14.709817      10000.258      20000.376      0.31041825   
   6299000   310.74999      0.873091      -11034009       0.18096229     921.65526     -11033087       1489.7368      1489.7368      1489.7368      1755.1316      3244.8684      1755.1316      3244.8684      1755.1316      3244.8684      3.306196e+09   0.5            3152000        14.719835      9982.0842      19964.025      0.30040485   
   6299200   310.79685      1.2038216     -11034129       0.18100303     921.79424     -11033207       1489.625       1489.625       1489.625       1755.1875      3244.8125      1755.1875      3244.8125      1755.1875      3244.8125      3.305452e+09   0.5            3152100        14.729817      10017.742      20035.435      0.29039074   
   6299400   310.73567      0.95941948    -11034263       0.18099529     921.6128      -11033342       1489.6462      1489.6462      1489.6462      1755.1769      3244.8231      1755.1769      3244.8231      1755.1769      3244.8231      3.3055933e+09  0.5            3152200        14.739828      9989.7645      19979.643      0.28037721   
   6299600   310.66289      0.84843122    -11034394       0.18099836     921.39694     -11033473       1489.6378      1489.6378      1489.6378      1755.1811      3244.8189      1755.1811      3244.8189      1755.1811      3244.8189      3.3055373e+09  0.5            3152300        14.749986      9843.9062      19687.841      0.2703664    
   6299800   310.62829      0.95048967    -11034520       0.18101886     921.29431     -11033599       1489.5816      1489.5816      1489.5816      1755.2092      3244.7908      1755.2092      3244.7908      1755.2092      3244.7908      3.3051629e+09  0.5            3152400        14.760347      9651.5408      19303.115      0.26035895   
   6300000   310.63611      1.0738781     -11034645       0.18104113     921.3175      -11033724       1489.5205      1489.5205      1489.5205      1755.2398      3244.7602      1755.2398      3244.7602      1755.2398      3244.7602      3.3047563e+09  0.5            3152500        14.77301       7897.1207      15794.417      0.25039005   
   6300200   310.68134      1.1253468     -11034772       0.1810576      921.45165     -11033850       1489.4753      1489.4753      1489.4753      1755.2623      3244.7377      1755.2623      3244.7377      1755.2623      3244.7377      3.3044557e+09  0.5            3152600        14.782975      10034.777      20069.239      0.24037363   
   6300400   310.71922      1.1050082     -11034900       0.18106815     921.56399     -11033979       1489.4464      1489.4464      1489.4464      1755.2768      3244.7232      1755.2768      3244.7232      1755.2768      3244.7232      3.3042632e+09  0.5            3152700        14.792947      10028.858      20057.754      0.23035737   
   6300600   310.70473      1.0497505     -11035030       0.18107567     921.52101     -11034108       1489.4258      1489.4258      1489.4258      1755.2871      3244.7129      1755.2871      3244.7129      1755.2871      3244.7129      3.3041259e+09  0.5            3152800        14.802937      10010.083      20020.377      0.22034145   
   6300800   310.63749      0.97968591    -11035159       0.18108192     921.32159     -11034238       1489.4086      1489.4086      1489.4086      1755.2957      3244.7043      1755.2957      3244.7043      1755.2957      3244.7043      3.3040119e+09  0.5            3152900        14.813113      9826.7591      19653.424      0.21032821   
   6301000   310.56237      0.90677525    -11035288       0.18108803     921.09881     -11034367       1489.3919      1489.3919      1489.3919      1755.3041      3244.6959      1755.3041      3244.6959      1755.3041      3244.6959      3.3039004e+09  0.5            3153000        14.823137      9975.7758      19951.611      0.2003127    
   6301200   310.53605      0.86464964    -11035416       0.18109693     921.02074     -11034495       1489.3675      1489.3675      1489.3675      1755.3163      3244.6837      1755.3163      3244.6837      1755.3163      3244.6837      3.3037381e+09  0.5            3153100        14.833012      10126.348      20252.531      0.19029526   
   6301400   310.57606      0.91467543    -11035542       0.18111373     921.13941     -11034621       1489.3214      1489.3214      1489.3214      1755.3393      3244.6607      1755.3393      3244.6607      1755.3393      3244.6607      3.3034316e+09  0.5            3153200        14.842912      10101.868      20203.918      0.18027831   
   6301600   310.65814      1.0635657     -11035666       0.18113893     921.38285     -11034745       1489.2524      1489.2524      1489.2524      1755.3738      3244.6262      1755.3738      3244.6262      1755.3738      3244.6262      3.3029721e+09  0.5            3153300        14.853185      9733.9554      19468.019      0.1702658    
   6301800   310.71527      1.1688709     -11035791       0.18116054     921.55227     -11034869       1489.1932      1489.1932      1489.1932      1755.4034      3244.5966      1755.4034      3244.5966      1755.4034      3244.5966      3.3025781e+09  0.5            3153400        14.863362      9826.0581      19651.933      0.16025191   
   6302000   310.6984       1.0563634     -11035921       0.18116404     921.50225     -11034999       1489.1835      1489.1835      1489.1835      1755.4082      3244.5918      1755.4082      3244.5918      1755.4082      3244.5918      3.3025142e+09  0.5            3153500        14.873307      10055.461      20088.417      0.15023556   
   6302200   310.64761      0.80422738    -11036054       0.181156       921.35161     -11035132       1489.2056      1489.2056      1489.2056      1755.3972      3244.6028      1755.3972      3244.6028      1755.3972      3244.6028      3.3026608e+09  0.5            3153600        14.883297      10009.738      20041.789      0.14021951   
   6302400   310.65933      0.9148129     -11036179       0.18117825     921.38638     -11035257       1489.1446      1489.1446      1489.1446      1755.4277      3244.5723      1755.4277      3244.5723      1755.4277      3244.5723      3.3022552e+09  0.5            3153700        14.893257      10040.049      20080.285      0.13020335   
   6302600   310.7626       1.3026951     -11036297       0.18122422     921.69266     -11035375       1489.0187      1489.0187      1489.0187      1755.4907      3244.5093      1755.4907      3244.5093      1755.4907      3244.5093      3.3014175e+09  0.5            3153800        14.903192      10065.629      20130.778      0.12018705   
   6302800   310.83888      0.79577506    -11036437       0.18119581     921.9189      -11035515       1489.0965      1489.0965      1489.0965      1755.4517      3244.5483      1755.4517      3244.5483      1755.4517      3244.5483      3.3019352e+09  0.5            3153900        14.91317       10022.172      20044.611      0.11017119   
   6303000   310.91826      0.7788929     -11036566       0.18120783     922.15432     -11035644       1489.0636      1489.0636      1489.0636      1755.4682      3244.5318      1755.4682      3244.5318      1755.4682      3244.5318      3.3017161e+09  0.5            3154000        14.923266      9904.6519      19787.326      0.10015624   
   6303200   310.85122      0.55820712    -11036699       0.1812021      921.9555      -11035777       1489.0793      1489.0793      1489.0793      1755.4604      3244.5396      1755.4604      3244.5396      1755.4604      3244.5396      3.3018205e+09  0.5            3154100        14.933437      9831.8846      19685.564      0.090141487  
   6303400   310.73694      0.83408248    -11044201       0.18124006     921.61655     -11043280       1488.9753      1488.9753      1488.9753      1755.5123      3244.4877      1755.5123      3244.4877      1755.5123      3244.4877      3.3011289e+09  0.5            3154200        14.94344       9996.9299      19993.876      0.080125699  
   6303600   310.63644      1.0471703     -11044326       0.18126917     921.31847     -11043405       1488.8956      1488.8956      1488.8956      1755.5522      3244.4478      1755.5522      3244.4478      1755.5522      3244.4478      3.3005989e+09  0.5            3154300        14.953912      9549.4311      19098.793      0.070112125  
   6303800   310.64304      1.4137809     -11044444       0.18131151     921.33807     -11043523       1488.7797      1488.7797      1488.7797      1755.6101      3244.3899      1755.6101      3244.3899      1755.6101      3244.3899      3.2998282e+09  0.5            3154400        14.96412       9796.1826      19592.425      0.060096878  
   6304000   310.73321      1.2152137     -11044579       0.18130792     921.60548     -11043657       1488.7895      1488.7895      1488.7895      1755.6052      3244.3948      1755.6052      3244.3948      1755.6052      3244.3948      3.2998935e+09  0.5            3154500        14.974071      10049.103      20098.406      0.050080514  
   6304200   310.83204      0.73569949    -11044718       0.1812812      921.8986      -11043796       1488.8627      1488.8627      1488.8627      1755.5687      3244.4313      1755.5687      3244.4313      1755.5687      3244.4313      3.3003799e+09  0.5            3154600        14.984037      10033.871      20067.6        0.040064278  
   6304400   310.85417      0.67720304    -11044848       0.18128896     921.96425     -11043926       1488.8414      1488.8414      1488.8414      1755.5793      3244.4207      1755.5793      3244.4207      1755.5793      3244.4207      3.3002385e+09  0.5            3154700        14.994065      9972.7276      19945.216      0.030048231  
   6304600   310.81928      1.0453967     -11044970       0.18133181     921.86078     -11044048       1488.7242      1488.7242      1488.7242      1755.6379      3244.3621      1755.6379      3244.3621      1755.6379      3244.3621      3.2994588e+09  0.5            3154800        15.004078      9986.9979      19973.88       0.02003215   
   6304800   310.76965      1.312399      -11045092       0.18136633     921.71357     -11044171       1488.6297      1488.6297      1488.6297      1755.6852      3244.3148      1755.6852      3244.3148      1755.6852      3244.3148      3.2988307e+09  0.5            3154900        15.014005      10073.685      20147.658      0.010016015  
   6305000   310.7393       1.0914403     -11045227       0.18136076     921.62354     -11044305       1488.6449      1488.6449      1488.6449      1755.6775      3244.3225      1755.6775      3244.3225      1755.6775      3244.3225      3.298932e+09   0.5            3155000        15.024017      9987.4478      19974.774      0            
Loop time of 15.0241 on 4 procs for 300000 steps with 996 atoms

Performance: 862.614 ns/day, 0.028 hours/ns, 19967.918 timesteps/s
99.5% CPU use with 4 MPI tasks x no OpenMP threads

MPI task timing breakdown:
Section |  min time  |  avg time  |  max time  |%varavg| %total
---------------------------------------------------------------
Pair    | 2.2517     | 3.0026     | 4.2117     |  44.0 | 19.99
Neigh   | 0.010347   | 0.013547   | 0.017544   |   2.3 |  0.09
Comm    | 4.2179     | 5.339      | 6.0951     |  31.9 | 35.54
Output  | 0.064324   | 0.083064   | 0.13661    |  10.7 |  0.55
Modify  | 5.199      | 5.4442     | 5.6712     |   7.8 | 36.24
Other   |            | 1.142      |            |       |  7.60

Nlocal:            249 ave         299 max         207 min
Histogram: 1 1 0 0 0 0 1 0 0 1
Nghost:         257.75 ave         271 max         242 min
Histogram: 1 0 0 0 0 1 1 0 0 1
Neighs:            352 ave         514 max         256 min
Histogram: 2 0 0 0 1 0 0 0 0 1

Total # of neighbors = 1408
Ave neighs/atom = 1.4136546
Neighbor list builds = 198
Dangerous builds = 39

# run_style
run_style verlet

# write restart
write_restart ${write_res}
write_restart ./pgnpmf/37/equpmf9.res
System init for write_restart ...
Generated 0 of 1 mixed pair_coeff terms from geometric mixing rule

Total wall time: 0:00:29
