LAMMPS (23 Jun 2022 - Update 1)
# Read restart
read_restart ${read_res}
read_restart ./pgnpmf/37/equpmf34.res
Reading restart file ...
  restart file = 23 Jun 2022, LAMMPS = 23 Jun 2022
  restoring atom style atomic from restart
  orthogonal box = (2021.6247 2021.6247 2021.6247) to (2978.3753 2978.3753 2978.3753)
  1 by 2 by 2 MPI processor grid
  restoring pair style table from restart
  996 atoms
  read_restart CPU = 0.006 seconds

# Settings

pair_style table spline 9941

pair_coeff 1 1 ./pgnpmf/N20.txt DE_GNP 75.6
pair_coeff 2 2 ./pgnpmf/N100.txt DE_GNP 115.92
WARNING: 3 of 9941 force values in table DE_GNP are inconsistent with -dE/dr.
WARNING:  Should only be flagged at inflection points (../pair_table.cpp:463)
pair_coeff 1 2 ./pgnpmf/mixed_potential.txt DE_GNP 95.66
WARNING: 1562 of 9941 force values in table DE_GNP are inconsistent with -dE/dr.
WARNING:  Should only be flagged at inflection points (../pair_table.cpp:463)

#Neigh_list Calc Frequency

neigh_modify delay 0 every 1 check yes

# Saving Frequency (50 frames)

variable ts_save equal ${steps_equ}
variable ts_save equal 5000

# Dump
#dump 1 all custom ${ts_save} ./pgnpmf/${folder}/equilibration/trajectory/trajectory_${usic}_${trial}.equ.custom type x y z ix iy iz
#dump_modify 1 first no sort id
dump 2 all cfg 50000 ./pgnpmf/${folder}/equilibration/trajectory/dumpgen.tens_*.cfg mass type xs ys zs fx fy fz
dump 2 all cfg 50000 ./pgnpmf/37/equilibration/trajectory/dumpgen.tens_*.cfg mass type xs ys zs fx fy fz
dump_modify 2 element N20 N100

# thermo_style
thermo_style custom step temp press pe density ke etotal lx ly lz xlo xhi ylo yhi zlo zhi vol dt time cpu tpcpu spcpu cpuremain

# run info
timestep ${ts}
timestep 0.5
thermo 200

# fix

fix 1 all momentum 1000 linear 1 1 1 angular
variable T equal ${temp}
variable T equal 300
fix 2 all nvt temp ${T} 370000 100.0
fix 2 all nvt temp 300 370000 100.0

run 100000
Generated 0 of 1 mixed pair_coeff terms from geometric mixing rule
Unused restart file global fix info:
  fix style: npt, fix ID: 5
Neighbor list info ...
  update every 1 steps, delay 0 steps, check yes
  max neighbors/atom: 2000, page size: 100000
  master list distance cutoff = 117.92
  ghost atom cutoff = 117.92
  binsize = 58.96, bins = 17 17 17
  1 neighbor lists, perpetual/occasional/extra = 1 0 0
  (1) pair table, perpetual
      attributes: half, newton on
      pair build: half/bin/atomonly/newton
      stencil: half/bin/3d
      bin: standard
Per MPI rank memory allocation (min/avg/max) = 3.076 | 3.078 | 3.079 Mbytes
   Step          Temp          Press          PotEng        Density         KinEng         TotEng           Lx             Ly             Lz            Xlo            Xhi            Ylo            Yhi            Zlo            Zhi           Volume           Dt            Time           CPU           T/CPU          S/CPU         CPULeft    
  23805000   306.30163      2.4765655     -36705635       0.6831571      908.46184     -36704726       956.75051      956.75051      956.75051      2021.6247      2978.3753      2021.6247      2978.3753      2021.6247      2978.3753      8.7578218e+08  0.5            11905000       0              0              0              0            
  23805200   390.93336      2.144614      -36707614       0.6831571      1159.4716     -36706455       956.75051      956.75051      956.75051      2021.6247      2978.3753      2021.6247      2978.3753      2021.6247      2978.3753      8.7578218e+08  0.5            11905100       0.01917371     5215.1891      10429.786      9.5692576    
  23805400   578.50028      1.8076757     -36707713       0.6831571      1715.7775     -36705997       956.75051      956.75051      956.75051      2021.6247      2978.3753      2021.6247      2978.3753      2021.6247      2978.3753      8.7578218e+08  0.5            11905200       0.037959963    5323.1229      10646.213      9.4527295    
  23805600   897.2911       1.3989382     -36707835       0.6831571      2661.281      -36705174       956.75051      956.75051      956.75051      2021.6247      2978.3753      2021.6247      2978.3753      2021.6247      2978.3753      8.7578218e+08  0.5            11905300       0.056475424    5400.8914      10801.813      9.3565473    
  23805800   1409.4135      0.89708921    -36707987       0.6831571      4180.188      -36703807       956.75051      956.75051      956.75051      2021.6247      2978.3753      2021.6247      2978.3753      2021.6247      2978.3753      8.7578218e+08  0.5            11905400       0.075129909    5360.5047      10721.056      9.3165076    
  23806000   2191.4783      0.29031481    -36708175       0.6831571      6499.7186     -36701675       956.75051      956.75051      956.75051      2021.6247      2978.3753      2021.6247      2978.3753      2021.6247      2978.3753      8.7578218e+08  0.5            11905500       0.093750022    5370.6048      10741.165      9.28155      
  23806200   3304.7452     -0.4219977     -36708403       0.6831571      9801.5636     -36698602       956.75051      956.75051      956.75051      2021.6247      2978.3753      2021.6247      2978.3753      2021.6247      2978.3753      8.7578218e+08  0.5            11905600       0.112098       5450.1749      10900.42       9.2296406    
  23806400   4715.1762     -1.0992196     -36708671       0.6831571      13984.77      -36694686       956.75051      956.75051      956.75051      2021.6247      2978.3753      2021.6247      2978.3753      2021.6247      2978.3753      8.7578218e+08  0.5            11905700       0.13054016     5422.4786      10844.94       9.1939396    
  23806600   6194.8969     -2.1848892     -36708978       0.6831571      18373.482     -36690604       956.75051      956.75051      956.75051      2021.6247      2978.3753      2021.6247      2978.3753      2021.6247      2978.3753      8.7578218e+08  0.5            11905800       0.14865304     5520.9502      11041.935      9.1423129    
  23806800   7304.0253     -3.3776816     -36709308       0.6831571      21663.053     -36687645       956.75051      956.75051      956.75051      2021.6247      2978.3753      2021.6247      2978.3753      2021.6247      2978.3753      8.7578218e+08  0.5            11905900       0.16707004     5429.7701      10859.554      9.1147307    
  23807000   7773.2996     -4.5062992     -36709644       0.6831571      23054.876     -36686589       956.75051      956.75051      956.75051      2021.6247      2978.3753      2021.6247      2978.3753      2021.6247      2978.3753      8.7578218e+08  0.5            11906000       0.18573394     5357.9353      10715.823      9.1010835    
  23807200   8112.6804     -5.6525514     -36709981       0.6831571      24061.448     -36685920       956.75051      956.75051      956.75051      2021.6247      2978.3753      2021.6247      2978.3753      2021.6247      2978.3753      8.7578218e+08  0.5            11906100       0.20463902     5289.5427      10579.092      9.0972514    
  23807400   8988.538      -7.0662721     -36719584       0.6831571      26659.159     -36692925       956.75051      956.75051      956.75051      2021.6247      2978.3753      2021.6247      2978.3753      2021.6247      2978.3753      8.7578218e+08  0.5            11906200       0.22316255     5398.5446      10797.071      9.0753831    
  23807600   10149.649     -7.9540636     -36721827       0.6831571      30102.905     -36691724       956.75051      956.75051      956.75051      2021.6247      2978.3753      2021.6247      2978.3753      2021.6247      2978.3753      8.7578218e+08  0.5            11906300       0.24167508     5401.7404      10803.449      9.0536197    
  23807800   10895.305     -9.3063717     -36722168       0.6831571      32314.451     -36689853       956.75051      956.75051      956.75051      2021.6247      2978.3753      2021.6247      2978.3753      2021.6247      2978.3753      8.7578218e+08  0.5            11906400       0.26007848     5433.7682      10867.562      9.0285334    
  23808000   11234.197     -10.554076     -36722503       0.6831571      33319.573     -36689183       956.75051      956.75051      956.75051      2021.6247      2978.3753      2021.6247      2978.3753      2021.6247      2978.3753      8.7578218e+08  0.5            11906500       0.27906797     5266.1055      10532.209      9.0232789    
  23808200   11841.896     -12.035749     -36722820       0.6831571      35121.952     -36687698       956.75051      956.75051      956.75051      2021.6247      2978.3753      2021.6247      2978.3753      2021.6247      2978.3753      8.7578218e+08  0.5            11906600       0.29868538     5097.4749      10194.984      9.0353151    
  23808400   12940.17      -12.977679     -36725018       0.6831571      38379.329     -36686639       956.75051      956.75051      956.75051      2021.6247      2978.3753      2021.6247      2978.3753      2021.6247      2978.3753      8.7578218e+08  0.5            11906700       0.31700345     5459.0916      10918.059      9.0067106    
  23808600   13921.427     -14.196534     -36725308       0.6831571      41289.643     -36684018       956.75051      956.75051      956.75051      2021.6247      2978.3753      2021.6247      2978.3753      2021.6247      2978.3753      8.7578218e+08  0.5            11906800       0.33541375     5431.7382      10863.524      8.9817127    
  23808800   14381.148     -15.38624      -36725579       0.6831571      42653.133     -36682926       956.75051      956.75051      956.75051      2021.6247      2978.3753      2021.6247      2978.3753      2021.6247      2978.3753      8.7578218e+08  0.5            11906900       0.35385076     5423.8938      10847.87       8.9580763    
  23809000   14786.819     -16.560688     -36725820       0.6831571      43856.314     -36681963       956.75051      956.75051      956.75051      2021.6247      2978.3753      2021.6247      2978.3753      2021.6247      2978.3753      8.7578218e+08  0.5            11907000       0.37269631     5306.3063      10612.393      8.9447823    
  23809200   15705.043     -17.577269     -36726028       0.6831571      46579.682     -36679448       956.75051      956.75051      956.75051      2021.6247      2978.3753      2021.6247      2978.3753      2021.6247      2978.3753      8.7578218e+08  0.5            11907100       0.39159116     5292.4272      10585.079      8.9320671    
  23809400   16837.045     -18.636302     -36726210       0.6831571      49937.093     -36676273       956.75051      956.75051      956.75051      2021.6247      2978.3753      2021.6247      2978.3753      2021.6247      2978.3753      8.7578218e+08  0.5            11907200       0.41004206     5419.7804      10839.476      8.9091565    
  23809600   17518.734     -19.624173     -36726363       0.6831571      51958.917     -36674404       956.75051      956.75051      956.75051      2021.6247      2978.3753      2021.6247      2978.3753      2021.6247      2978.3753      8.7578218e+08  0.5            11907300       0.42851742     5412.6247      10825.276      8.8871357    
  23809800   17839.852     -20.956819     -36733844       0.6831571      52911.323     -36680933       956.75051      956.75051      956.75051      2021.6247      2978.3753      2021.6247      2978.3753      2021.6247      2978.3753      8.7578218e+08  0.5            11907400       0.44691307     5436.0855      10872.168      8.8638278    
  23810000   18513.638     -22.202629     -36741304       0.6831571      54909.711     -36686395       956.75051      956.75051      956.75051      2021.6247      2978.3753      2021.6247      2978.3753      2021.6247      2978.3753      8.7578218e+08  0.5            11907500       0.4659054      5265.2393      10530.566      8.8522526    
  23810200   19651.09      -23.495909     -36748721       0.6831571      58283.286     -36690437       956.75051      956.75051      956.75051      2021.6247      2978.3753      2021.6247      2978.3753      2021.6247      2978.3753      8.7578218e+08  0.5            11907600       0.48441063     5403.8549      10807.647      8.8312317    
  23810400   20583.514     -24.646031     -36750625       0.6831571      61048.768     -36689577       956.75051      956.75051      956.75051      2021.6247      2978.3753      2021.6247      2978.3753      2021.6247      2978.3753      8.7578218e+08  0.5            11907700       0.50264175     5485.1801      10970.334      8.8055859    
  23810600   20980.678     -25.937225     -36750597       0.6831571      62226.719     -36688371       956.75051      956.75051      956.75051      2021.6247      2978.3753      2021.6247      2978.3753      2021.6247      2978.3753      8.7578218e+08  0.5            11907800       0.52103923     5435.5182      10871.025      8.7832788    
  23810800   21418.313     -27.18938      -36757911       0.6831571      63524.703     -36694386       956.75051      956.75051      956.75051      2021.6247      2978.3753      2021.6247      2978.3753      2021.6247      2978.3753      8.7578218e+08  0.5            11907900       0.53986836     5310.917       10621.885      8.7682516    
  23811000   22414.095     -28.638904     -36765203       0.6831571      66478.098     -36698725       956.75051      956.75051      956.75051      2021.6247      2978.3753      2021.6247      2978.3753      2021.6247      2978.3753      8.7578218e+08  0.5            11908000       0.55825376     5439.1182      10878.223      8.7460162    
  23811200   23536.842     -29.509167     -36765088       0.6831571      69808.06      -36695280       956.75051      956.75051      956.75051      2021.6247      2978.3753      2021.6247      2978.3753      2021.6247      2978.3753      8.7578218e+08  0.5            11908100       0.57697746     5340.8282      10681.635      8.729151     
  23811400   24139.674     -30.899622     -36779710       0.6831571      71596.003     -36708114       956.75051      956.75051      956.75051      2021.6247      2978.3753      2021.6247      2978.3753      2021.6247      2978.3753      8.7578218e+08  0.5            11908200       0.59537108     5436.647       10873.258      8.7073433    
  23811600   24452         -31.447129     -36772185       0.6831571      72522.334     -36699663       956.75051      956.75051      956.75051      2021.6247      2978.3753      2021.6247      2978.3753      2021.6247      2978.3753      8.7578218e+08  0.5            11908300       0.61412572     5332.0127      10664.102      8.6908469    
  23811800   25197.294     -32.654997     -36779405       0.6831571      74732.804     -36704672       956.75051      956.75051      956.75051      2021.6247      2978.3753      2021.6247      2978.3753      2021.6247      2978.3753      8.7578218e+08  0.5            11908400       0.63250115     5441.9713      10883.953      8.6690263    
  23812000   26374.003     -33.928391     -36786622       0.6831571      78222.814     -36708399       956.75051      956.75051      956.75051      2021.6247      2978.3753      2021.6247      2978.3753      2021.6247      2978.3753      8.7578218e+08  0.5            11908500       0.65092374     5428.2053      10849.482      8.648178     
  23812200   27241.614     -35.165788     -36788343       0.6831571      80796.067     -36707547       956.75051      956.75051      956.75051      2021.6247      2978.3753      2021.6247      2978.3753      2021.6247      2978.3753      8.7578218e+08  0.5            11908600       0.67005973     5225.7307      10457.888      8.6363609    
  23812400   27582.435     -36.07158      -36780795       0.6831571      81806.91      -36698988       956.75051      956.75051      956.75051      2021.6247      2978.3753      2021.6247      2978.3753      2021.6247      2978.3753      8.7578218e+08  0.5            11908700       0.68873899     5353.5595      10707.085      8.6185779    
  23812600   28065.935     -36.933647     -36780621       0.6831571      83240.926     -36697380       956.75051      956.75051      956.75051      2021.6247      2978.3753      2021.6247      2978.3753      2021.6247      2978.3753      8.7578218e+08  0.5            11908800       0.70693599     5495.4524      10990.965      8.5948827    
  23812800   29131.482     -37.87399      -36780437       0.6831571      86401.239     -36694036       956.75051      956.75051      956.75051      2021.6247      2978.3753      2021.6247      2978.3753      2021.6247      2978.3753      8.7578218e+08  0.5            11908900       0.72553764     5375.851       10751.652      8.576258     
  23813000   30234.725     -38.736032     -36780257       0.6831571      89673.353     -36690584       956.75051      956.75051      956.75051      2021.6247      2978.3753      2021.6247      2978.3753      2021.6247      2978.3753      8.7578218e+08  0.5            11909000       0.74578527     4938.8333      9877.6641      8.5765611    
  23813200   30755.57      -39.096729     -36765313       0.6831571      91218.13      -36674095       956.75051      956.75051      956.75051      2021.6247      2978.3753      2021.6247      2978.3753      2021.6247      2978.3753      8.7578218e+08  0.5            11909100       0.76415665     5443.2454      10886.49       8.5548574    
  23813400   31057.032     -40.058537     -36770607       0.6831571      92112.236     -36678494       956.75051      956.75051      956.75051      2021.6247      2978.3753      2021.6247      2978.3753      2021.6247      2978.3753      8.7578218e+08  0.5            11909200       0.78307596     5285.5103      10571.051      8.5392881    
  23813600   31880.412     -40.973967     -36772663       0.6831571      94554.304     -36678109       956.75051      956.75051      956.75051      2021.6247      2978.3753      2021.6247      2978.3753      2021.6247      2978.3753      8.7578218e+08  0.5            11909300       0.80198025     5289.8656      10579.698      8.5234012    
  23813800   33093.936     -42.191084     -36774338       0.6831571      98153.502     -36676184       956.75051      956.75051      956.75051      2021.6247      2978.3753      2021.6247      2978.3753      2021.6247      2978.3753      8.7578218e+08  0.5            11909400       0.82025388     5472.344       10944.688      8.500843     
  23814000   33893.376     -43.088827     -36774095       0.6831571      100524.57     -36673570       956.75051      956.75051      956.75051      2021.6247      2978.3753      2021.6247      2978.3753      2021.6247      2978.3753      8.7578218e+08  0.5            11909500       0.83877253     5400.0194      10800.073      8.480948     
  23814200   34166.366     -43.909668     -36781193       0.6831571      101334.23     -36679858       956.75051      956.75051      956.75051      2021.6247      2978.3753      2021.6247      2978.3753      2021.6247      2978.3753      8.7578218e+08  0.5            11909600       0.85745697     5352.0263      10704.046      8.4627535    
  23814400   34698.641     -44.79068      -36780872       0.6831571      102912.91     -36677959       956.75051      956.75051      956.75051      2021.6247      2978.3753      2021.6247      2978.3753      2021.6247      2978.3753      8.7578218e+08  0.5            11909700       0.87610785     5361.6529      10723.306      8.4442149    
  23814600   35856.709     -45.597257     -36780525       0.6831571      106347.63     -36674178       956.75051      956.75051      956.75051      2021.6247      2978.3753      2021.6247      2978.3753      2021.6247      2978.3753      8.7578218e+08  0.5            11909800       0.89443254     5457.1653      10914.281      8.4225982    
  23814800   36929.179     -46.089182     -36778241       0.6831571      109528.47     -36668712       956.75051      956.75051      956.75051      2021.6247      2978.3753      2021.6247      2978.3753      2021.6247      2978.3753      8.7578218e+08  0.5            11909900       0.91435293     5019.9354      10039.923      8.4158043    
  23815000   37354.825     -46.641908     -36777820       0.6831571      110790.9      -36667029       956.75051      956.75051      956.75051      2021.6247      2978.3753      2021.6247      2978.3753      2021.6247      2978.3753      8.7578218e+08  0.5            11910000       0.9327398      5438.652       10877.201      8.3946856    
  23815200   37652.898     -47.124224     -36769972       0.6831571      111674.96     -36658297       956.75051      956.75051      956.75051      2021.6247      2978.3753      2021.6247      2978.3753      2021.6247      2978.3753      8.7578218e+08  0.5            11910100       0.95112383     5439.5206      10879.106      8.373644     
  23815400   38589.75      -47.939894     -36760575       0.6831571      114453.57     -36646121       956.75051      956.75051      956.75051      2021.6247      2978.3753      2021.6247      2978.3753      2021.6247      2978.3753      8.7578218e+08  0.5            11910200       0.97016856     5250.8168      10501.667      8.3583983    
  23815600   39833.821     -48.596965     -36745302       0.6831571      118143.37     -36627159       956.75051      956.75051      956.75051      2021.6247      2978.3753      2021.6247      2978.3753      2021.6247      2978.3753      8.7578218e+08  0.5            11910300       0.98852173     5448.6741      10897.297      8.3371778    
  23815800   40529.919     -49.791115     -36761403       0.6831571      120207.93     -36641196       956.75051      956.75051      956.75051      2021.6247      2978.3753      2021.6247      2978.3753      2021.6247      2978.3753      8.7578218e+08  0.5            11910400       1.0067088      5498.3825      10996.787      8.3146918    
  23816000   40751.603     -50.642696     -36760829       0.6831571      120865.42     -36639963       956.75051      956.75051      956.75051      2021.6247      2978.3753      2021.6247      2978.3753      2021.6247      2978.3753      8.7578218e+08  0.5            11910500       1.0252852      5383.2416      10766.509      8.2956048    
  23816200   41390.249     -50.991771     -36752876       0.6831571      122759.59     -36630116       956.75051      956.75051      956.75051      2021.6247      2978.3753      2021.6247      2978.3753      2021.6247      2978.3753      8.7578218e+08  0.5            11910600       1.0436993      5430.6019      10861.212      8.275064     
  23816400   42639.596     -51.414537     -36735651       0.6831571      126465.03     -36609186       956.75051      956.75051      956.75051      2021.6247      2978.3753      2021.6247      2978.3753      2021.6247      2978.3753      8.7578218e+08  0.5            11910700       1.0619607      5476.0347      10952.006      8.2535044    
  23816600   43627.336     -52.052801     -36733187       0.6831571      129394.58     -36603793       956.75051      956.75051      956.75051      2021.6247      2978.3753      2021.6247      2978.3753      2021.6247      2978.3753      8.7578218e+08  0.5            11910800       1.0803882      5426.6733      10853.37       8.2333226    
  23816800   43942.977     -52.881644     -36739982       0.6831571      130330.74     -36609651       956.75051      956.75051      956.75051      2021.6247      2978.3753      2021.6247      2978.3753      2021.6247      2978.3753      8.7578218e+08  0.5            11910900       1.0989292      5393.4422      10786.915      8.2140491    
  23817000   44309.494     -53.587692     -36739399       0.6831571      131417.79     -36607981       956.75051      956.75051      956.75051      2021.6247      2978.3753      2021.6247      2978.3753      2021.6247      2978.3753      8.7578218e+08  0.5            11911000       1.1215785      4415.1052      8825.5797      8.2250172    
  23817200   45444.056     -53.967768     -36738816       0.6831571      134782.8      -36604033       956.75051      956.75051      956.75051      2021.6247      2978.3753      2021.6247      2978.3753      2021.6247      2978.3753      8.7578218e+08  0.5            11911100       1.1403928      5315.1959      10637.021      8.2071076    
  23817400   46679.591     -54.924639     -36743714       0.6831571      138447.28     -36605267       956.75051      956.75051      956.75051      2021.6247      2978.3753      2021.6247      2978.3753      2021.6247      2978.3753      8.7578218e+08  0.5            11911200       1.1626508      4492.7279      8985.4853      8.2135852    
  23817600   47192.226     -55.546434     -36733859       0.6831571      139967.71     -36593891       956.75051      956.75051      956.75051      2021.6247      2978.3753      2021.6247      2978.3753      2021.6247      2978.3753      8.7578218e+08  0.5            11911300       1.181892       5197.2048      10394.367      8.1982224    
  23817800   47447.941     -56.291632     -36735165       0.6831571      140726.13     -36594439       956.75051      956.75051      956.75051      2021.6247      2978.3753      2021.6247      2978.3753      2021.6247      2978.3753      8.7578218e+08  0.5            11911400       1.2001336      5481.9867      10964.008      8.1759282    
  23818000   48884.506     -57.158965     -36740055       0.6831571      144986.85     -36595068       956.75051      956.75051      956.75051      2021.6247      2978.3753      2021.6247      2978.3753      2021.6247      2978.3753      8.7578218e+08  0.5            11911500       1.2189155      5324.2381      10648.447      8.1573769    
  23818200   50529.95      -57.545832     -36739447       0.6831571      149867.08     -36589580       956.75051      956.75051      956.75051      2021.6247      2978.3753      2021.6247      2978.3753      2021.6247      2978.3753      8.7578218e+08  0.5            11911600       1.2372646      5449.7971      10899.604      8.1359721    
  23818400   49787.362     -58.434744     -36736918       0.6831571      147664.64     -36589254       956.75051      956.75051      956.75051      2021.6247      2978.3753      2021.6247      2978.3753      2021.6247      2978.3753      8.7578218e+08  0.5            11911700       1.2555943      5455.7154      10911.433      8.1145301    
  23818600   47399.929     -59.665137     -36751047       0.6831571      140583.73     -36610463       956.75051      956.75051      956.75051      2021.6247      2978.3753      2021.6247      2978.3753      2021.6247      2978.3753      8.7578218e+08  0.5            11911800       1.2784313      4378.8071      8757.669       8.1218173    
  23818800   49660.64      -60.067066     -36750784       0.6831571      147288.79     -36603496       956.75051      956.75051      956.75051      2021.6247      2978.3753      2021.6247      2978.3753      2021.6247      2978.3753      8.7578218e+08  0.5            11911900       1.2972392      5316.9941      10633.935      8.1030615    
  23819000   51972.775     -60.103775     -36735381       0.6831571      154146.36     -36581235       956.75051      956.75051      956.75051      2021.6247      2978.3753      2021.6247      2978.3753      2021.6247      2978.3753      8.7578218e+08  0.5            11912000       1.3155124      5472.5117      10944.989      8.0810212    
  23819200   52974.441     -60.851704     -36738664       0.6831571      157117.21     -36581547       956.75051      956.75051      956.75051      2021.6247      2978.3753      2021.6247      2978.3753      2021.6247      2978.3753      8.7578218e+08  0.5            11912100       1.334328       5314.697       10629.451      8.0623643    
  23819400   53861.415     -61.197615     -36737964       0.6831571      159747.89     -36578216       956.75051      956.75051      956.75051      2021.6247      2978.3753      2021.6247      2978.3753      2021.6247      2978.3753      8.7578218e+08  0.5            11912200       1.3529835      5360.3868      10720.759      8.0427504    
  23819600   54812.558     -61.252622     -36744618       0.6831571      162568.9      -36582049       956.75051      956.75051      956.75051      2021.6247      2978.3753      2021.6247      2978.3753      2021.6247      2978.3753      8.7578218e+08  0.5            11912300       1.3717532      5327.732       10655.411      8.0238322    
  23819800   56113.041     -61.604073     -36729128       0.6831571      166426        -36562702       956.75051      956.75051      956.75051      2021.6247      2978.3753      2021.6247      2978.3753      2021.6247      2978.3753      8.7578218e+08  0.5            11912400       1.3906509      5291.6299      10583.347      8.0056541    
  23820000   56950.504     -62.05455      -36719094       0.6831571      168909.84     -36550184       956.75051      956.75051      956.75051      2021.6247      2978.3753      2021.6247      2978.3753      2021.6247      2978.3753      8.7578218e+08  0.5            11912500       1.4092191      5385.5429      10771.039      7.9855902    
  23820200   55917.264     -62.950693     -36718319       0.6831571      165845.35     -36552473       956.75051      956.75051      956.75051      2021.6247      2978.3753      2021.6247      2978.3753      2021.6247      2978.3753      8.7578218e+08  0.5            11912600       1.4277075      5408.8346      10817.708      7.9651189    
  23820400   54990.766     -63.916182     -36717540       0.6831571      163097.44     -36554442       956.75051      956.75051      956.75051      2021.6247      2978.3753      2021.6247      2978.3753      2021.6247      2978.3753      8.7578218e+08  0.5            11912700       1.4466373      5282.6556      10565.348      7.9471252    
  23820600   58123.378     -63.749028     -36716730       0.6831571      172388.47     -36544342       956.75051      956.75051      956.75051      2021.6247      2978.3753      2021.6247      2978.3753      2021.6247      2978.3753      8.7578218e+08  0.5            11912800       1.4648813      5481.2821      10962.316      7.9253989    
  23820800   59500.628     -64.414407     -36713998       0.6831571      176473.27     -36537525       956.75051      956.75051      956.75051      2021.6247      2978.3753      2021.6247      2978.3753      2021.6247      2978.3753      8.7578218e+08  0.5            11912900       1.4837849      5289.9742      10580.101      7.9072729    
  23821000   58997.612     -65.206378     -36713141       0.6831571      174981.37     -36538160       956.75051      956.75051      956.75051      2021.6247      2978.3753      2021.6247      2978.3753      2021.6247      2978.3753      8.7578218e+08  0.5            11913000       1.5024102      5369.0284      10738.092      7.8876676    
  23821200   59460.447     -65.826938     -36719643       0.6831571      176354.1      -36543289       956.75051      956.75051      956.75051      2021.6247      2978.3753      2021.6247      2978.3753      2021.6247      2978.3753      8.7578218e+08  0.5            11913100       1.520662       5478.9402      10957.88       7.8661537    
  23821400   63138.877     -66.185112     -36733509       0.6831571      187263.98     -36546245       956.75051      956.75051      956.75051      2021.6247      2978.3753      2021.6247      2978.3753      2021.6247      2978.3753      8.7578218e+08  0.5            11913200       1.5395635      5290.544       10581.081      7.8480327    
  23821600   62768.973     -67.137216     -36725223       0.6831571      186166.87     -36539056       956.75051      956.75051      956.75051      2021.6247      2978.3753      2021.6247      2978.3753      2021.6247      2978.3753      8.7578218e+08  0.5            11913300       1.5577414      5501.2276      11002.466      7.8262557    
  23821800   60677.284     -68.176496     -36724314       0.6831571      179963.12     -36544351       956.75051      956.75051      956.75051      2021.6247      2978.3753      2021.6247      2978.3753      2021.6247      2978.3753      8.7578218e+08  0.5            11913400       1.5764461      5346.2279      10692.433      7.807175     
  23822000   62052.861     -68.583544     -36723420       0.6831571      184042.95     -36539377       956.75051      956.75051      956.75051      2021.6247      2978.3753      2021.6247      2978.3753      2021.6247      2978.3753      8.7578218e+08  0.5            11913500       1.5952849      5308.1884      10609.832      7.7888139    
  23822200   66173.75      -68.767422     -36722519       0.6831571      196265.12     -36526254       956.75051      956.75051      956.75051      2021.6247      2978.3753      2021.6247      2978.3753      2021.6247      2978.3753      8.7578218e+08  0.5            11913600       1.6138505      5386.2963      10779.394      7.7690139    
  23822400   64552.966     -70.02081      -36729005       0.6831571      191458.03     -36537547       956.75051      956.75051      956.75051      2021.6247      2978.3753      2021.6247      2978.3753      2021.6247      2978.3753      8.7578218e+08  0.5            11913700       1.6326994      5305.3533      10610.69       7.7506432    
  23822600   63258.898     -70.15628      -36698639       0.6831571      187619.94     -36511019       956.75051      956.75051      956.75051      2021.6247      2978.3753      2021.6247      2978.3753      2021.6247      2978.3753      8.7578218e+08  0.5            11913800       1.6510187      5458.7414      10917.467      7.7297817    
  23822800   65963.511     -70.907901     -36707074       0.6831571      195641.57     -36511433       956.75051      956.75051      956.75051      2021.6247      2978.3753      2021.6247      2978.3753      2021.6247      2978.3753      8.7578218e+08  0.5            11913900       1.6697584      5336.2878      10672.55       7.7109195    
  23823000   68105.536     -71.335984     -36706242       0.6831571      201994.62     -36504248       956.75051      956.75051      956.75051      2021.6247      2978.3753      2021.6247      2978.3753      2021.6247      2978.3753      8.7578218e+08  0.5            11914000       1.6888489      5238.2122      10476.444      7.6936562    
  23823200   67355.671     -71.929371     -36707306       0.6831571      199770.59     -36507536       956.75051      956.75051      956.75051      2021.6247      2978.3753      2021.6247      2978.3753      2021.6247      2978.3753      8.7578218e+08  0.5            11914100       1.7071096      5476.1933      10952.412      7.6726253    
  23823400   67154.977     -72.251507     -36699079       0.6831571      199175.35     -36499903       956.75051      956.75051      956.75051      2021.6247      2978.3753      2021.6247      2978.3753      2021.6247      2978.3753      8.7578218e+08  0.5            11914200       1.7256682      5388.3773      10776.78       7.6529741    
  23823600   71191.443     -72.604363     -36698218       0.6831571      211147.13     -36487071       956.75051      956.75051      956.75051      2021.6247      2978.3753      2021.6247      2978.3753      2021.6247      2978.3753      8.7578218e+08  0.5            11914300       1.7438554      5498.3988      10996.747      7.631722     
  23823800   72621.107     -72.294176     -36697281       0.6831571      215387.38     -36481894       956.75051      956.75051      956.75051      2021.6247      2978.3753      2021.6247      2978.3753      2021.6247      2978.3753      8.7578218e+08  0.5            11914400       1.7626297      5326.3988      10652.824      7.6130711    
  23824000   69937.672     -73.677666     -36696304       0.6831571      207428.56     -36488875       956.75051      956.75051      956.75051      2021.6247      2978.3753      2021.6247      2978.3753      2021.6247      2978.3753      8.7578218e+08  0.5            11914500       1.7814083      5325.2211      10650.405      7.5944357    
  23824200   69437.121     -74.538208     -36695268       0.6831571      205943.97     -36489324       956.75051      956.75051      956.75051      2021.6247      2978.3753      2021.6247      2978.3753      2021.6247      2978.3753      8.7578218e+08  0.5            11914600       1.8001514      5335.2785      10670.58       7.5756481    
  23824400   71957.676     -74.914857     -36686794       0.6831571      213419.7      -36473374       956.75051      956.75051      956.75051      2021.6247      2978.3753      2021.6247      2978.3753      2021.6247      2978.3753      8.7578218e+08  0.5            11914700       1.8185932      5422.4521      10844.878      7.5556097    
  23824600   73320.914     -75.567863     -36694878       0.6831571      217462.94     -36477415       956.75051      956.75051      956.75051      2021.6247      2978.3753      2021.6247      2978.3753      2021.6247      2978.3753      8.7578218e+08  0.5            11914800       1.8370333      5422.9629      10845.92       7.535597     
  23824800   72927.812     -76.289267     -36684704       0.6831571      216297.04     -36468407       956.75051      956.75051      956.75051      2021.6247      2978.3753      2021.6247      2978.3753      2021.6247      2978.3753      8.7578218e+08  0.5            11914900       1.8557746      5335.7403      10671.525      7.5168358    
  23825000   73460.236     -76.622513     -36683347       0.6831571      217876.15     -36465470       956.75051      956.75051      956.75051      2021.6247      2978.3753      2021.6247      2978.3753      2021.6247      2978.3753      8.7578218e+08  0.5            11915000       1.8745413      5328.7032      10657.358      7.4981754    
  23825200   76004.76      -76.754389     -36683782       0.6831571      225422.97     -36458359       956.75051      956.75051      956.75051      2021.6247      2978.3753      2021.6247      2978.3753      2021.6247      2978.3753      8.7578218e+08  0.5            11915100       1.893359       5314.0836      10628.201      7.4797157    
  23825400   78256.812     -75.89493      -36667450       0.6831571      232102.35     -36435347       956.75051      956.75051      956.75051      2021.6247      2978.3753      2021.6247      2978.3753      2021.6247      2978.3753      8.7578218e+08  0.5            11915200       1.9129066      5115.7173      10231.391      7.4640972    
  23825600   76578.585     -76.141208     -36658398       0.6831571      227124.89     -36431274       956.75051      956.75051      956.75051      2021.6247      2978.3753      2021.6247      2978.3753      2021.6247      2978.3753      8.7578218e+08  0.5            11915300       1.9315377      5367.3791      10734.763      7.4448695    
  23825800   72693.571     -77.101031     -36658597       0.6831571      215602.3      -36442994       956.75051      956.75051      956.75051      2021.6247      2978.3753      2021.6247      2978.3753      2021.6247      2978.3753      8.7578218e+08  0.5            11915400       1.9496278      5527.9407      11055.92       7.4235923    
  23826000   76029.657     -77.093163     -36666172       0.6831571      225496.82     -36440675       956.75051      956.75051      956.75051      2021.6247      2978.3753      2021.6247      2978.3753      2021.6247      2978.3753      8.7578218e+08  0.5            11915500       1.9681679      5393.7031      10787.44       7.4040696    
  23826200   78962.203     -77.027988     -36673708       0.6831571      234194.47     -36439514       956.75051      956.75051      956.75051      2021.6247      2978.3753      2021.6247      2978.3753      2021.6247      2978.3753      8.7578218e+08  0.5            11915600       1.9868588      5350.19        10700.279      7.3851267    
  23826400   79767.267     -77.214338     -36671605       0.6831571      236582.22     -36435023       956.75051      956.75051      956.75051      2021.6247      2978.3753      2021.6247      2978.3753      2021.6247      2978.3753      8.7578218e+08  0.5            11915700       2.0056773      5313.8879      10627.874      7.366656     
  23826600   80249.196     -76.49595      -36660635       0.6831571      238011.57     -36422623       956.75051      956.75051      956.75051      2021.6247      2978.3753      2021.6247      2978.3753      2021.6247      2978.3753      8.7578218e+08  0.5            11915800       2.0240489      5443.1876      10886.136      7.3465589    
  23826800   82148.8       -76.127866     -36644229       0.6831571      243645.62     -36400583       956.75051      956.75051      956.75051      2021.6247      2978.3753      2021.6247      2978.3753      2021.6247      2978.3753      8.7578218e+08  0.5            11915900       2.0427961      5334.1282      10668.468      7.3278379    
  23827000   84500.837     -76.322126     -36652276       0.6831571      250621.54     -36401655       956.75051      956.75051      956.75051      2021.6247      2978.3753      2021.6247      2978.3753      2021.6247      2978.3753      8.7578218e+08  0.5            11916000       2.0611429      5450.5667      10901.095      7.3076977    
  23827200   82223.593     -76.860326     -36650736       0.6831571      243867.45     -36406868       956.75051      956.75051      956.75051      2021.6247      2978.3753      2021.6247      2978.3753      2021.6247      2978.3753      8.7578218e+08  0.5            11916100       2.0803306      5211.6351      10423.326      7.2905373    
  23827400   78279.218     -77.796329     -36656703       0.6831571      232168.8      -36424534       956.75051      956.75051      956.75051      2021.6247      2978.3753      2021.6247      2978.3753      2021.6247      2978.3753      8.7578218e+08  0.5            11916200       2.0986011      5473.3249      10946.647      7.2701628    
  23827600   82306.596     -77.089356     -36662788       0.6831571      244113.63     -36418674       956.75051      956.75051      956.75051      2021.6247      2978.3753      2021.6247      2978.3753      2021.6247      2978.3753      8.7578218e+08  0.5            11916300       2.1171878      5380.2309      10760.459      7.2509081    
  23827800   84689.775     -76.885397     -36654173       0.6831571      251181.91     -36402991       956.75051      956.75051      956.75051      2021.6247      2978.3753      2021.6247      2978.3753      2021.6247      2978.3753      8.7578218e+08  0.5            11916400       2.1355486      5446.3066      10892.54       7.2309024    
  23828000   85265.212     -77.567471     -36647531       0.6831571      252888.6      -36394642       956.75051      956.75051      956.75051      2021.6247      2978.3753      2021.6247      2978.3753      2021.6247      2978.3753      8.7578218e+08  0.5            11916500       2.1543095      5330.2972      10660.648      7.2122618    
  23828200   86336.09      -78.584255     -36661161       0.6831571      256064.73     -36405096       956.75051      956.75051      956.75051      2021.6247      2978.3753      2021.6247      2978.3753      2021.6247      2978.3753      8.7578218e+08  0.5            11916600       2.1728479      5394.2146      10788.285      7.1928848    
  23828400   88351.577     -78.515146     -36654216       0.6831571      262042.47     -36392174       956.75051      956.75051      956.75051      2021.6247      2978.3753      2021.6247      2978.3753      2021.6247      2978.3753      8.7578218e+08  0.5            11916700       2.1909968      5509.9949      11020.137      7.1722452    
  23828600   89781.374     -78.304895     -36640074       0.6831571      266283.12     -36373791       956.75051      956.75051      956.75051      2021.6247      2978.3753      2021.6247      2978.3753      2021.6247      2978.3753      8.7578218e+08  0.5            11916800       2.2094518      5418.5467      10837.127      7.1526401    
  23828800   87495.935     -78.319536     -36637101       0.6831571      259504.72     -36377596       956.75051      956.75051      956.75051      2021.6247      2978.3753      2021.6247      2978.3753      2021.6247      2978.3753      8.7578218e+08  0.5            11916900       2.2278435      5437.2509      10874.421      7.1328521    
  23829000   84736.09      -80.1235       -36658536       0.6831571      251319.28     -36407217       956.75051      956.75051      956.75051      2021.6247      2978.3753      2021.6247      2978.3753      2021.6247      2978.3753      8.7578218e+08  0.5            11917000       2.2466581      5315.0083      10630.057      7.1144254    
  23829200   89339.227     -79.978393     -36672219       0.6831571      264971.75     -36407247       956.75051      956.75051      956.75051      2021.6247      2978.3753      2021.6247      2978.3753      2021.6247      2978.3753      8.7578218e+08  0.5            11917100       2.2649606      5463.721       10920.298      7.0944267    
  23829400   91750.9       -80.223404     -36662176       0.6831571      272124.55     -36390051       956.75051      956.75051      956.75051      2021.6247      2978.3753      2021.6247      2978.3753      2021.6247      2978.3753      8.7578218e+08  0.5            11917200       2.2842321      5189.0038      10384.488      7.0773828    
  23829600   90857.004     -80.812754     -36661001       0.6831571      269473.33     -36391528       956.75051      956.75051      956.75051      2021.6247      2978.3753      2021.6247      2978.3753      2021.6247      2978.3753      8.7578218e+08  0.5            11917300       2.3024947      5475.6698      10951.265      7.0572481    
  23829800   90538.59      -81.365493     -36667148       0.6831571      268528.95     -36398619       956.75051      956.75051      956.75051      2021.6247      2978.3753      2021.6247      2978.3753      2021.6247      2978.3753      8.7578218e+08  0.5            11917400       2.3206824      5498.2591      10996.563      7.0369154    
  23830000   95010.308     -81.104888     -36673233       0.6831571      281791.64     -36391441       956.75051      956.75051      956.75051      2021.6247      2978.3753      2021.6247      2978.3753      2021.6247      2978.3753      8.7578218e+08  0.5            11917500       2.33936        5353.9817      10701.224      7.018123     
  23830200   96650.291     -81.003158     -36658989       0.6831571      286655.68     -36372334       956.75051      956.75051      956.75051      2021.6247      2978.3753      2021.6247      2978.3753      2021.6247      2978.3753      8.7578218e+08  0.5            11917600       2.3575146      5508.2686      11023.643      6.9977096    
  23830400   92506.449     -81.279271     -36646394       0.6831571      274365.43     -36372029       956.75051      956.75051      956.75051      2021.6247      2978.3753      2021.6247      2978.3753      2021.6247      2978.3753      8.7578218e+08  0.5            11917700       2.3766147      5235.5462      10471.155      6.9801435    
  23830600   91383.535     -81.320795     -36637576       0.6831571      271034.98     -36366542       956.75051      956.75051      956.75051      2021.6247      2978.3753      2021.6247      2978.3753      2021.6247      2978.3753      8.7578218e+08  0.5            11917800       2.394961       5450.679       10901.27       6.9603634    
  23830800   97822.153     -80.361649     -36648955       0.6831571      290131.31     -36358823       956.75051      956.75051      956.75051      2021.6247      2978.3753      2021.6247      2978.3753      2021.6247      2978.3753      8.7578218e+08  0.5            11917900       2.4136141      5361.0498      10722.101      6.9414871    
  23831000   97844.029     -80.191399     -36632643       0.6831571      290196.19     -36342447       956.75051      956.75051      956.75051      2021.6247      2978.3753      2021.6247      2978.3753      2021.6247      2978.3753      8.7578218e+08  0.5            11918000       2.4317285      5520.5336      11041.131      6.9210801    
  23831200   95339.113     -80.948038     -36632948       0.6831571      282766.85     -36350181       956.75051      956.75051      956.75051      2021.6247      2978.3753      2021.6247      2978.3753      2021.6247      2978.3753      8.7578218e+08  0.5            11918100       2.4498759      5510.4106      11020.82       6.9008025    
  23831400   95897.98      -80.510121     -36629453       0.6831571      284424.39     -36345028       956.75051      956.75051      956.75051      2021.6247      2978.3753      2021.6247      2978.3753      2021.6247      2978.3753      8.7578218e+08  0.5            11918200       2.4686529      5325.6354      10651.28       6.8823123    
  23831600   100339.07     -80.226815     -36642549       0.6831571      297596.25     -36344953       956.75051      956.75051      956.75051      2021.6247      2978.3753      2021.6247      2978.3753      2021.6247      2978.3753      8.7578218e+08  0.5            11918300       2.4874143      5330.108       10660.13       6.8637748    
  23831800   100988.66     -80.237185     -36640835       0.6831571      299522.89     -36341312       956.75051      956.75051      956.75051      2021.6247      2978.3753      2021.6247      2978.3753      2021.6247      2978.3753      8.7578218e+08  0.5            11918400       2.5063789      5272.8903      10545.842      6.8457892    
  23832000   98252.477     -80.042879     -36631720       0.6831571      291407.61     -36340313       956.75051      956.75051      956.75051      2021.6247      2978.3753      2021.6247      2978.3753      2021.6247      2978.3753      8.7578218e+08  0.5            11918500       2.5247348      5447.9331      10895.791      6.8261422    
  23832200   95048.939     -80.437856     -36642884       0.6831571      281906.22     -36360978       956.75051      956.75051      956.75051      2021.6247      2978.3753      2021.6247      2978.3753      2021.6247      2978.3753      8.7578218e+08  0.5            11918600       2.5442277      5130.0267      10260.079      6.8095583    
  23832400   100005.68     -79.637448     -36641191       0.6831571      296607.45     -36344584       956.75051      956.75051      956.75051      2021.6247      2978.3753      2021.6247      2978.3753      2021.6247      2978.3753      8.7578218e+08  0.5            11918700       2.5626662      5423.5188      10847.06       6.7901372    
  23832600   103982.77     -79.126584     -36661561       0.6831571      308403.11     -36353157       956.75051      956.75051      956.75051      2021.6247      2978.3753      2021.6247      2978.3753      2021.6247      2978.3753      8.7578218e+08  0.5            11918800       2.5816693      5262.2852      10524.618      6.7722115    
  23832800   103635.85     -78.92886      -36659730       0.6831571      307374.19     -36352356       956.75051      956.75051      956.75051      2021.6247      2978.3753      2021.6247      2978.3753      2021.6247      2978.3753      8.7578218e+08  0.5            11918900       2.6001461      5412.1694      10824.319      6.7529042    
  23833000   101896.91     -78.396708     -36655958       0.6831571      302216.64     -36353741       956.75051      956.75051      956.75051      2021.6247      2978.3753      2021.6247      2978.3753      2021.6247      2978.3753      8.7578218e+08  0.5            11919000       2.6188285      5352.6457      10705.258      6.7341371    
  23833200   103740.96     -77.466419     -36654053       0.6831571      307685.94     -36346367       956.75051      956.75051      956.75051      2021.6247      2978.3753      2021.6247      2978.3753      2021.6247      2978.3753      8.7578218e+08  0.5            11919100       2.6372058      5441.483       10882.959      6.7145947    
  23833400   108669.77     -76.352329     -36653953       0.6831571      322304.33     -36331648       956.75051      956.75051      956.75051      2021.6247      2978.3753      2021.6247      2978.3753      2021.6247      2978.3753      8.7578218e+08  0.5            11919200       2.6557642      5388.4275      10776.924      6.6955244    
  23833600   107005.64     -76.131155     -36644495       0.6831571      317368.67     -36327126       956.75051      956.75051      956.75051      2021.6247      2978.3753      2021.6247      2978.3753      2021.6247      2978.3753      8.7578218e+08  0.5            11919300       2.674241       5412.1932      10824.359      6.6762582    
  23833800   102990.76     -76.434096     -36644303       0.6831571      305460.92     -36338842       956.75051      956.75051      956.75051      2021.6247      2978.3753      2021.6247      2978.3753      2021.6247      2978.3753      8.7578218e+08  0.5            11919400       2.6935746      5172.3235      10344.615      6.6591215    
  23834000   105247        -74.729676     -36649232       0.6831571      312152.71     -36337079       956.75051      956.75051      956.75051      2021.6247      2978.3753      2021.6247      2978.3753      2021.6247      2978.3753      8.7578218e+08  0.5            11919500       2.7120224      5420.7111      10841.416      6.6397854    
  23834200   111430.35     -73.850099     -36647057       0.6831571      330491.96     -36316565       956.75051      956.75051      956.75051      2021.6247      2978.3753      2021.6247      2978.3753      2021.6247      2978.3753      8.7578218e+08  0.5            11919600       2.7307581      5337.3801      10674.797      6.6211598    
  23834400   109495.02     -73.211961     -36631938       0.6831571      324751.93     -36307186       956.75051      956.75051      956.75051      2021.6247      2978.3753      2021.6247      2978.3753      2021.6247      2978.3753      8.7578218e+08  0.5            11919700       2.7492693      5402.1583      10804.283      6.6019929    
  23834600   106151.65     -72.687298     -36627798       0.6831571      314835.81     -36312962       956.75051      956.75051      956.75051      2021.6247      2978.3753      2021.6247      2978.3753      2021.6247      2978.3753      8.7578218e+08  0.5            11919800       2.7680236      5332.088       10664.2        6.5834141    
  23834800   109333.26     -71.766265     -36625537       0.6831571      324272.17     -36301265       956.75051      956.75051      956.75051      2021.6247      2978.3753      2021.6247      2978.3753      2021.6247      2978.3753      8.7578218e+08  0.5            11919900       2.7868033      5324.9072      10649.766      6.564892     
  23835000   113909.55     -70.513544     -36623212       0.6831571      337845.02     -36285367       956.75051      956.75051      956.75051      2021.6247      2978.3753      2021.6247      2978.3753      2021.6247      2978.3753      8.7578218e+08  0.5            11920000       2.8055801      5325.7174      10651.549      6.5463593    
  23835200   112034.54     -70.226997     -36620853       0.6831571      332283.92     -36288569       956.75051      956.75051      956.75051      2021.6247      2978.3753      2021.6247      2978.3753      2021.6247      2978.3753      8.7578218e+08  0.5            11920100       2.8238726      5466.7509      10933.394      6.5267048    
  23835400   110356.3      -69.496283     -36636892       0.6831571      327306.42     -36309585       956.75051      956.75051      956.75051      2021.6247      2978.3753      2021.6247      2978.3753      2021.6247      2978.3753      8.7578218e+08  0.5            11920200       2.8426424      5327.7192      10655.496      6.5081604    
  23835600   115142.64     -68.480566     -36643922       0.6831571      341502.25     -36302419       956.75051      956.75051      956.75051      2021.6247      2978.3753      2021.6247      2978.3753      2021.6247      2978.3753      8.7578218e+08  0.5            11920300       2.8609073      5474.9656      10949.914      6.4884687    
  23835800   119079.61     -67.198489     -36641664       0.6831571      353178.92     -36288485       956.75051      956.75051      956.75051      2021.6247      2978.3753      2021.6247      2978.3753      2021.6247      2978.3753      8.7578218e+08  0.5            11920400       2.8800136      5233.8366      10467.691      6.4706857    
  23836000   114636.44     -67.790965     -36654640       0.6831571      340000.9      -36314639       956.75051      956.75051      956.75051      2021.6247      2978.3753      2021.6247      2978.3753      2021.6247      2978.3753      8.7578218e+08  0.5            11920500       2.899621       5100.1366      10200.29       6.4540005    
  23836200   112774.43     -68.461        -36652627       0.6831571      334478.35     -36318149       956.75051      956.75051      956.75051      2021.6247      2978.3753      2021.6247      2978.3753      2021.6247      2978.3753      8.7578218e+08  0.5            11920600       2.9182719      5361.6698      10723.334      6.4351693    
  23836400   115656.35     -67.108179     -36647162       0.6831571      343025.87     -36304136       956.75051      956.75051      956.75051      2021.6247      2978.3753      2021.6247      2978.3753      2021.6247      2978.3753      8.7578218e+08  0.5            11920700       2.9368088      5394.6447      10789.261      6.4160912    
  23836600   118136.03     -66.899901     -36644245       0.6831571      350380.35     -36293864       956.75051      956.75051      956.75051      2021.6247      2978.3753      2021.6247      2978.3753      2021.6247      2978.3753      8.7578218e+08  0.5            11920800       2.9555773      5328.0885      10656.172      6.3975212    
  23836800   117578.72     -66.863275     -36657357       0.6831571      348727.44     -36308630       956.75051      956.75051      956.75051      2021.6247      2978.3753      2021.6247      2978.3753      2021.6247      2978.3753      8.7578218e+08  0.5            11920900       2.9742249      5362.6333      10725.312      6.3786886    
  23837000   117598.86     -66.79701      -36663220       0.6831571      348787.15     -36314432       956.75051      956.75051      956.75051      2021.6247      2978.3753      2021.6247      2978.3753      2021.6247      2978.3753      8.7578218e+08  0.5            11921000       2.9930864      5301.7713      10603.305      6.3603148    
  23837200   120151.33     -65.31489      -36654406       0.6831571      356357.54     -36298048       956.75051      956.75051      956.75051      2021.6247      2978.3753      2021.6247      2978.3753      2021.6247      2978.3753      8.7578218e+08  0.5            11921100       3.0115394      5419.2006      10838.569      6.341073     
  23837400   124974.15     -63.685558     -36662283       0.6831571      370661.58     -36291622       956.75051      956.75051      956.75051      2021.6247      2978.3753      2021.6247      2978.3753      2021.6247      2978.3753      8.7578218e+08  0.5            11921200       3.0302497      5344.5806      10689.184      6.3223785    
  23837600   123816.24     -64.303317     -36677570       0.6831571      367227.34     -36310342       956.75051      956.75051      956.75051      2021.6247      2978.3753      2021.6247      2978.3753      2021.6247      2978.3753      8.7578218e+08  0.5            11921300       3.0485403      5467.3708      10934.784      6.3028153    
  23837800   115686.46     -65.530389     -36698363       0.6831571      343115.17     -36355248       956.75051      956.75051      956.75051      2021.6247      2978.3753      2021.6247      2978.3753      2021.6247      2978.3753      8.7578218e+08  0.5            11921400       3.0671204      5382.1015      10764.128      6.2838616    
  23838000   118561.11     -64.569024     -36696677       0.6831571      351641.12     -36345036       956.75051      956.75051      956.75051      2021.6247      2978.3753      2021.6247      2978.3753      2021.6247      2978.3753      8.7578218e+08  0.5            11921500       3.0859264      5317.4513      10628.364      6.2653945    
  23838200   123402.37     -63.05806      -36680555       0.6831571      365999.84     -36314555       956.75051      956.75051      956.75051      2021.6247      2978.3753      2021.6247      2978.3753      2021.6247      2978.3753      8.7578218e+08  0.5            11921600       3.1047511      5312.1115      10630.805      6.2469143    
  23838400   124382.77     -62.425286     -36664366       0.6831571      368907.61     -36295458       956.75051      956.75051      956.75051      2021.6247      2978.3753      2021.6247      2978.3753      2021.6247      2978.3753      8.7578218e+08  0.5            11921700       3.1232091      5417.7485      10835.439      6.2277216    
  23838600   124121.63     -61.989472     -36670213       0.6831571      368133.09     -36302080       956.75051      956.75051      956.75051      2021.6247      2978.3753      2021.6247      2978.3753      2021.6247      2978.3753      8.7578218e+08  0.5            11921800       3.1421343      5283.9622      10567.954      6.209461     
  23838800   125624.07     -61.649974     -36668587       0.6831571      372589.2      -36295998       956.75051      956.75051      956.75051      2021.6247      2978.3753      2021.6247      2978.3753      2021.6247      2978.3753      8.7578218e+08  0.5            11921900       3.1606726      5394.2289      10788.46       6.1904349    
  23839000   130209.99     -60.267024     -36681205       0.6831571      386190.6      -36295014       956.75051      956.75051      956.75051      2021.6247      2978.3753      2021.6247      2978.3753      2021.6247      2978.3753      8.7578218e+08  0.5            11922000       3.1798683      5209.5239      10419.109      6.1726901    
  23839200   128497.66     -60.690803     -36686306       0.6831571      381111.99     -36305194       956.75051      956.75051      956.75051      2021.6247      2978.3753      2021.6247      2978.3753      2021.6247      2978.3753      8.7578218e+08  0.5            11922100       3.1983119      5421.922       10843.559      6.153483     
  23839400   122054.86     -60.811288     -36682451       0.6831571      362003.23     -36320448       956.75051      956.75051      956.75051      2021.6247      2978.3753      2021.6247      2978.3753      2021.6247      2978.3753      8.7578218e+08  0.5            11922200       3.2170964      5323.5165      10647.282      6.134933     
  23839600   124714.91     -60.274165     -36682390       0.6831571      369892.71     -36312497       956.75051      956.75051      956.75051      2021.6247      2978.3753      2021.6247      2978.3753      2021.6247      2978.3753      8.7578218e+08  0.5            11922300       3.2354795      5439.7274      10879.405      6.1156227    
  23839800   131050.83     -58.845082     -36665646       0.6831571      388684.44     -36276962       956.75051      956.75051      956.75051      2021.6247      2978.3753      2021.6247      2978.3753      2021.6247      2978.3753      8.7578218e+08  0.5            11922400       3.2542538      5326.4933      10653.028      6.097055     
  23840000   129728.66     -57.875945     -36656284       0.6831571      384763.03     -36271521       956.75051      956.75051      956.75051      2021.6247      2978.3753      2021.6247      2978.3753      2021.6247      2978.3753      8.7578218e+08  0.5            11922500       3.2731036      5305.0986      10610.235      6.0786255    
  23840200   128292.67     -57.84535      -36654344       0.6831571      380503.99     -36273840       956.75051      956.75051      956.75051      2021.6247      2978.3753      2021.6247      2978.3753      2021.6247      2978.3753      8.7578218e+08  0.5            11922600       3.2914522      5450.0056      10899.933      6.0592691    
  23840400   131614.04     -57.145147     -36645459       0.6831571      390354.86     -36255104       956.75051      956.75051      956.75051      2021.6247      2978.3753      2021.6247      2978.3753      2021.6247      2978.3753      8.7578218e+08  0.5            11922700       3.3102494      5319.9328      10639.887      6.0407423    
  23840600   136898.44     -55.415688     -36650986       0.6831571      406027.91     -36244958       956.75051      956.75051      956.75051      2021.6247      2978.3753      2021.6247      2978.3753      2021.6247      2978.3753      8.7578218e+08  0.5            11922800       3.3287371      5409.0075      10818.034      6.0216526    
  23840800   133114.94     -55.438365     -36639913       0.6831571      394806.41     -36245107       956.75051      956.75051      956.75051      2021.6247      2978.3753      2021.6247      2978.3753      2021.6247      2978.3753      8.7578218e+08  0.5            11922900       3.3475264      5322.1492      10644.314      6.0031107    
  23841000   125367.78     -56.335046     -36638221       0.6831571      371829.05     -36266392       956.75051      956.75051      956.75051      2021.6247      2978.3753      2021.6247      2978.3753      2021.6247      2978.3753      8.7578218e+08  0.5            11923000       3.3660565      5396.6759      10793.301      5.9841049    
  23841200   129334.22     -55.334877     -36636671       0.6831571      383593.14     -36253078       956.75051      956.75051      956.75051      2021.6247      2978.3753      2021.6247      2978.3753      2021.6247      2978.3753      8.7578218e+08  0.5            11923100       3.3851921      5225.817       10451.628      5.9661721    
  23841400   132961.33     -54.411513     -36635159       0.6831571      394350.8      -36240808       956.75051      956.75051      956.75051      2021.6247      2978.3753      2021.6247      2978.3753      2021.6247      2978.3753      8.7578218e+08  0.5            11923200       3.403437       5481.03        10962.031      5.9466691    
  23841600   137084.16     -53.311342     -36626298       0.6831571      406578.75     -36219719       956.75051      956.75051      956.75051      2021.6247      2978.3753      2021.6247      2978.3753      2021.6247      2978.3753      8.7578218e+08  0.5            11923300       3.422115       5353.8874      10707.84       5.9279303    
  23841800   138711.14     -53.422025     -36639567       0.6831571      411404.21     -36228163       956.75051      956.75051      956.75051      2021.6247      2978.3753      2021.6247      2978.3753      2021.6247      2978.3753      8.7578218e+08  0.5            11923400       3.4406187      5404.3056      10808.612      5.9088929    
  23842000   135790.7      -53.300398     -36638057       0.6831571      402742.46     -36235315       956.75051      956.75051      956.75051      2021.6247      2978.3753      2021.6247      2978.3753      2021.6247      2978.3753      8.7578218e+08  0.5            11923500       3.4593696      5333.1083      10666.259      5.890282     
  23842200   132265.12     -53.729854     -36631067       0.6831571      392285.91     -36238781       956.75051      956.75051      956.75051      2021.6247      2978.3753      2021.6247      2978.3753      2021.6247      2978.3753      8.7578218e+08  0.5            11923600       3.4781268      5331.2856      10662.533      5.8716806    
  23842400   138634.89     -52.29735      -36621781       0.6831571      411178.04     -36210603       956.75051      956.75051      956.75051      2021.6247      2978.3753      2021.6247      2978.3753      2021.6247      2978.3753      8.7578218e+08  0.5            11923700       3.4966442      5400.3288      10800.677      5.8526758    
  23842600   143063.34     -51.319938     -36629441       0.6831571      424312.43     -36205128       956.75051      956.75051      956.75051      2021.6247      2978.3753      2021.6247      2978.3753      2021.6247      2978.3753      8.7578218e+08  0.5            11923800       3.5149976      5448.5767      10897.08       5.8334045    
  23842800   139634.75     -51.732728     -36633239       0.6831571      414143.53     -36219095       956.75051      956.75051      956.75051      2021.6247      2978.3753      2021.6247      2978.3753      2021.6247      2978.3753      8.7578218e+08  0.5            11923900       3.5339676      5271.4721      10543.011      5.815157     
  23843000   136502.64     -52.124243     -36638875       0.6831571      404854.01     -36234021       956.75051      956.75051      956.75051      2021.6247      2978.3753      2021.6247      2978.3753      2021.6247      2978.3753      8.7578218e+08  0.5            11924000       3.5525298      5387.3081      10774.562      5.796237     
  23843200   143589.66     -50.436638     -36642526       0.6831571      425873.44     -36216653       956.75051      956.75051      956.75051      2021.6247      2978.3753      2021.6247      2978.3753      2021.6247      2978.3753      8.7578218e+08  0.5            11924100       3.5715694      5252.1877      10504.429      5.7780926    
  23843400   147677.61     -48.875618     -36638659       0.6831571      437997.91     -36200661       956.75051      956.75051      956.75051      2021.6247      2978.3753      2021.6247      2978.3753      2021.6247      2978.3753      8.7578218e+08  0.5            11924200       3.5905233      5275.964       10551.854      5.759802     
  23843600   141851.23     -48.708194     -36629247       0.6831571      420717.4      -36208530       956.75051      956.75051      956.75051      2021.6247      2978.3753      2021.6247      2978.3753      2021.6247      2978.3753      8.7578218e+08  0.5            11924300       3.6095027      5268.8596      10537.758      5.7415447    
  23843800   139424.04     -48.762131     -36624959       0.6831571      413518.59     -36211441       956.75051      956.75051      956.75051      2021.6247      2978.3753      2021.6247      2978.3753      2021.6247      2978.3753      8.7578218e+08  0.5            11924400       3.6279274      5427.5233      10854.986      5.7224051    
  23844000   145272.01     -47.396241     -36630284       0.6831571      430863.12     -36199420       956.75051      956.75051      956.75051      2021.6247      2978.3753      2021.6247      2978.3753      2021.6247      2978.3753      8.7578218e+08  0.5            11924500       3.6468222      5292.4177      10578.425      5.7040261    
  23844200   148943.55     -46.02078      -36641008       0.6831571      441752.58     -36199256       956.75051      956.75051      956.75051      2021.6247      2978.3753      2021.6247      2978.3753      2021.6247      2978.3753      8.7578218e+08  0.5            11924600       3.6651206      5464.996       10936.889      5.6846808    
  23844400   146233.59     -45.550424     -36633372       0.6831571      433715.07     -36199657       956.75051      956.75051      956.75051      2021.6247      2978.3753      2021.6247      2978.3753      2021.6247      2978.3753      8.7578218e+08  0.5            11924700       3.6843049      5212.5952      10425.196      5.6667267    
  23844600   144251.78     -44.915835     -36623485       0.6831571      427837.23     -36195647       956.75051      956.75051      956.75051      2021.6247      2978.3753      2021.6247      2978.3753      2021.6247      2978.3753      8.7578218e+08  0.5            11924800       3.7028138      5402.7589      10805.497      5.6477303    
  23844800   147346.38     -43.871387     -36610201       0.6831571      437015.5      -36173186       956.75051      956.75051      956.75051      2021.6247      2978.3753      2021.6247      2978.3753      2021.6247      2978.3753      8.7578218e+08  0.5            11924900       3.7217887      5270.1358      10540.302      5.6294432    
  23845000   153846.6      -40.985428     -36593284       0.6831571      456294.57     -36136990       956.75051      956.75051      956.75051      2021.6247      2978.3753      2021.6247      2978.3753      2021.6247      2978.3753      8.7578218e+08  0.5            11925000       3.7403029      5401.289       10802.531      5.6104582    
  23845200   150506.15     -40.88369      -36593007       0.6831571      446387.1      -36146620       956.75051      956.75051      956.75051      2021.6247      2978.3753      2021.6247      2978.3753      2021.6247      2978.3753      8.7578218e+08  0.5            11925100       3.7593093      5261.3153      10522.69       5.5922104    
  23845400   140341.95     -41.911264     -36583488       0.6831571      416241.04     -36167247       956.75051      956.75051      956.75051      2021.6247      2978.3753      2021.6247      2978.3753      2021.6247      2978.3753      8.7578218e+08  0.5            11925200       3.7781973      5294.4226      10588.781      5.5737801    
  23845600   143884.27     -40.36109      -36594262       0.6831571      426747.23     -36167515       956.75051      956.75051      956.75051      2021.6247      2978.3753      2021.6247      2978.3753      2021.6247      2978.3753      8.7578218e+08  0.5            11925300       3.7970537      5303.2434      10606.521      5.555299     
  23845800   149808.78     -38.453289     -36570022       0.6831571      444318.77     -36125703       956.75051      956.75051      956.75051      2021.6247      2978.3753      2021.6247      2978.3753      2021.6247      2978.3753      8.7578218e+08  0.5            11925400       3.8157416      5351.0663      10702.158      5.5365699    
  23846000   154037.5      -37.16329      -36573315       0.6831571      456860.76     -36116455       956.75051      956.75051      956.75051      2021.6247      2978.3753      2021.6247      2978.3753      2021.6247      2978.3753      8.7578218e+08  0.5            11925500       3.8342422      5405.2234      10810.4        5.5175718    
  23846200   154055.83     -36.051587     -36565202       0.6831571      456915.11     -36108286       956.75051      956.75051      956.75051      2021.6247      2978.3753      2021.6247      2978.3753      2021.6247      2978.3753      8.7578218e+08  0.5            11925600       3.8530522      5316.2855      10632.614      5.49902      
  23846400   150181.53     -35.171751     -36555551       0.6831571      445424.3      -36110127       956.75051      956.75051      956.75051      2021.6247      2978.3753      2021.6247      2978.3753      2021.6247      2978.3753      8.7578218e+08  0.5            11925700       3.8714316      5440.9116      10881.807      5.479856     
  23846600   148129.76     -35.376999     -36553274       0.6831571      439338.94     -36113935       956.75051      956.75051      956.75051      2021.6247      2978.3753      2021.6247      2978.3753      2021.6247      2978.3753      8.7578218e+08  0.5            11925800       3.8905146      5240.2744      10480.587      5.4616874    
  23846800   156875.06     -32.94363      -36536173       0.6831571      465276.69     -36070896       956.75051      956.75051      956.75051      2021.6247      2978.3753      2021.6247      2978.3753      2021.6247      2978.3753      8.7578218e+08  0.5            11925900       3.9100758      5112.1203      10224.179      5.4441763    
  23847000   158897.21     -32.189616     -36557758       0.6831571      471274.19     -36086483       956.75051      956.75051      956.75051      2021.6247      2978.3753      2021.6247      2978.3753      2021.6247      2978.3753      8.7578218e+08  0.5            11926000       3.9287961      5341.8287      10683.689      5.4254838    
  23847200   154451.56     -31.426979     -36538640       0.6831571      458088.8      -36080551       956.75051      956.75051      956.75051      2021.6247      2978.3753      2021.6247      2978.3753      2021.6247      2978.3753      8.7578218e+08  0.5            11926100       3.9473553      5388.1851      10776.413      5.4065705    
  23847400   151633.79     -30.934206     -36543601       0.6831571      449731.55     -36093870       956.75051      956.75051      956.75051      2021.6247      2978.3753      2021.6247      2978.3753      2021.6247      2978.3753      8.7578218e+08  0.5            11926200       3.9660619      5345.6803      10691.355      5.3878611    
  23847600   161267.24     -28.898694     -36539665       0.6831571      478303.49     -36061362       956.75051      956.75051      956.75051      2021.6247      2978.3753      2021.6247      2978.3753      2021.6247      2978.3753      8.7578218e+08  0.5            11926300       3.9848894      5311.3799      10622.724      5.3693145    
  23847800   163169.88     -28.344606     -36546509       0.6831571      483946.51     -36062563       956.75051      956.75051      956.75051      2021.6247      2978.3753      2021.6247      2978.3753      2021.6247      2978.3753      8.7578218e+08  0.5            11926400       4.0035961      5345.6689      10691.359      5.3506038    
  23848000   156708.2      -28.656431     -36555106       0.6831571      464781.79     -36090324       956.75051      956.75051      956.75051      2021.6247      2978.3753      2021.6247      2978.3753      2021.6247      2978.3753      8.7578218e+08  0.5            11926500       4.0225862      5265.8992      10531.791      5.3322689    
  23848200   154911.05     -28.344861     -36560256       0.6831571      459451.62     -36100804       956.75051      956.75051      956.75051      2021.6247      2978.3753      2021.6247      2978.3753      2021.6247      2978.3753      8.7578218e+08  0.5            11926600       4.0409662      5440.7287      10874.583      5.3131408    
  23848400   165174.31     -26.480505     -36556209       0.6831571      489891.48     -36066318       956.75051      956.75051      956.75051      2021.6247      2978.3753      2021.6247      2978.3753      2021.6247      2978.3753      8.7578218e+08  0.5            11926700       4.0596819      5343.1045      10692.846      5.2944271    
  23848600   165846.67     -25.838381     -36563354       0.6831571      491885.64     -36071469       956.75051      956.75051      956.75051      2021.6247      2978.3753      2021.6247      2978.3753      2021.6247      2978.3753      8.7578218e+08  0.5            11926800       4.0782678      5380.424       10760.814      5.2755607    
  23848800   160692.08     -25.812378     -36568723       0.6831571      476597.61     -36092125       956.75051      956.75051      956.75051      2021.6247      2978.3753      2021.6247      2978.3753      2021.6247      2978.3753      8.7578218e+08  0.5            11926900       4.0971654      5291.6815      10583.37       5.2570967    
  23849000   159222.11     -25.18528      -36566831       0.6831571      472237.82     -36094593       956.75051      956.75051      956.75051      2021.6247      2978.3753      2021.6247      2978.3753      2021.6247      2978.3753      8.7578218e+08  0.5            11927000       4.1154153      5479.483       10958.937      5.2378046    
  23849200   166873.5      -23.884002     -36566932       0.6831571      494931.11     -36072001       956.75051      956.75051      956.75051      2021.6247      2978.3753      2021.6247      2978.3753      2021.6247      2978.3753      8.7578218e+08  0.5            11927100       4.1341424      5339.8451      10679.739      5.2191241    
  23849400   170986.61     -22.765739     -36563240       0.6831571      507130.2      -36056110       956.75051      956.75051      956.75051      2021.6247      2978.3753      2021.6247      2978.3753      2021.6247      2978.3753      8.7578218e+08  0.5            11927200       4.1530327      5293.718       10587.368      5.2006479    
  23849600   165695.02     -22.957276     -36538999       0.6831571      491435.86     -36047563       956.75051      956.75051      956.75051      2021.6247      2978.3753      2021.6247      2978.3753      2021.6247      2978.3753      8.7578218e+08  0.5            11927300       4.1715651      5395.9712      10792.023      5.1817229    
  23849800   164007.55     -22.09422      -36529950       0.6831571      486430.99     -36043519       956.75051      956.75051      956.75051      2021.6247      2978.3753      2021.6247      2978.3753      2021.6247      2978.3753      8.7578218e+08  0.5            11927400       4.1908729      5179.2363      10358.455      5.1637573    
[...]
  24494400   307.93402      1.4231322     -37003490       0.7135237      913.30335     -37002576       942.98061      942.98061      942.98061      2028.5097      2971.4903      2028.5097      2971.4903      2028.5097      2971.4903      8.3851008e+08  0.5            12249700       32.015823      4543.2546      9086.5009      1.1726598    
  24494600   307.84079      0.87111215    -37003585       0.71351684     913.02684     -37002672       942.98363      942.98363      942.98363      2028.5082      2971.4918      2028.5082      2971.4918      2028.5082      2971.4918      8.3851815e+08  0.5            12249800       32.03779       4552.4517      9104.9232      1.1505285    
  24494800   307.70024      0.87003919    -37003680       0.71352654     912.61        -37002767       942.97936      942.97936      942.97936      2028.5103      2971.4897      2028.5103      2971.4897      2028.5103      2971.4897      8.3850674e+08  0.5            12249900       32.061049      4299.2773      8598.5443      1.1284428    
  24495000   307.36588      1.3764111     -37003774       0.71355179     911.61832     -37002862       942.96824      942.96824      942.96824      2028.5159      2971.4841      2028.5159      2971.4841      2028.5159      2971.4841      8.3847707e+08  0.5            12250000       32.083584      4437.6353      8875.2986      1.1063306    
  24495200   307.65776      0.40501302    -37003868       0.71353318     912.48401     -37002956       942.97643      942.97643      942.97643      2028.5118      2971.4882      2028.5118      2971.4882      2028.5118      2971.4882      8.3849894e+08  0.5            12250100       32.105448      4573.6517      9147.2897      1.0841951    
  24495400   307.92025      1.6684481     -37003962       0.71358188     913.26253     -37003049       942.95498      942.95498      942.95498      2028.5225      2971.4775      2028.5225      2971.4775      2028.5225      2971.4775      8.3844171e+08  0.5            12250200       32.127249      4587.0268      9174.0009      1.0620579    
  24495600   307.87636      0.50226301    -37004057       0.71355724     913.13234     -37003144       942.96584      942.96584      942.96584      2028.5171      2971.4829      2028.5171      2971.4829      2028.5171      2971.4829      8.3847067e+08  0.5            12250300       32.149213      4552.9555      9105.9766      1.0399265    
  24495800   307.73199      1.1127346     -37004151       0.71358538     912.70416     -37003238       942.95344      942.95344      942.95344      2028.5233      2971.4767      2028.5233      2971.4767      2028.5233      2971.4767      8.3843761e+08  0.5            12250400       32.171384      4510.3183      9020.6257      1.0178018    
  24496000   307.30015      1.3773776     -37004245       0.71360256     911.42336     -37003334       942.94587      942.94587      942.94587      2028.5271      2971.4729      2028.5271      2971.4729      2028.5271      2971.4729      8.3841741e+08  0.5            12250500       32.193486      4524.4494      9048.8873      0.99567492   
  24496200   307.44294      0.18648865    -37004338       0.71357564     911.84686     -37003426       942.95773      942.95773      942.95773      2028.5211      2971.4789      2028.5211      2971.4789      2028.5211      2971.4789      8.3844905e+08  0.5            12250600       32.215504      4541.7276      9083.4722      0.97354554   
  24496400   307.5841       1.8160028     -37004430       0.71363407     912.26552     -37003517       942.93199      942.93199      942.93199      2028.534       2971.466       2028.534       2971.466       2028.534       2971.466       8.3838039e+08  0.5            12250700       32.23744       4558.7549      9117.4994      0.9514139    
  24496600   307.56768      1.3225686     -37004522       0.71363017     912.21681     -37003610       942.93371      942.93371      942.93371      2028.5331      2971.4669      2028.5331      2971.4669      2028.5331      2971.4669      8.3838498e+08  0.5            12250800       32.259361      4561.9069      9123.8366      0.92928208   
  24496800   307.60137     -0.25221815    -37004614       0.71359517     912.31674     -37003702       942.94913      942.94913      942.94913      2028.5254      2971.4746      2028.5254      2971.4746      2028.5254      2971.4746      8.384261e+08   0.5            12250900       32.281717      4473.0727      8946.147       0.90716279   
  24497000   307.3891      -0.17314196    -37004707       0.71361117     911.68717     -37003795       942.94208      942.94208      942.94208      2028.529       2971.471       2028.529       2971.471       2028.529       2971.471       8.3840731e+08  0.5            12251000       32.303682      4552.7192      9105.4115      0.88503245   
  24497200   307.82022      1.6544101     -37004800       0.71367987     912.96583     -37003887       942.91182      942.91182      942.91182      2028.5441      2971.4559      2028.5441      2971.4559      2028.5441      2971.4559      8.383266e+08   0.5            12251100       32.325586      4565.2386      9130.4702      0.86290074   
  24497400   308.06594      3.3265539     -37004893       0.71374205     913.69462     -37003979       942.88444      942.88444      942.88444      2028.5578      2971.4422      2028.5578      2971.4422      2028.5578      2971.4422      8.3825356e+08  0.5            12251200       32.347819      4497.9312      8995.8932      0.84077785   
  24497600   307.89251      0.91558413    -37004990       0.71367889     913.18024     -37004077       942.91225      942.91225      942.91225      2028.5439      2971.4561      2028.5439      2971.4561      2028.5439      2971.4561      8.3832774e+08  0.5            12251300       32.370567      4395.8616      8791.6911      0.81866788   
  24497800   307.61211     -1.4918291     -37005084       0.71361483     912.34861     -37004172       942.94047      942.94047      942.94047      2028.5298      2971.4702      2028.5298      2971.4702      2028.5298      2971.4702      8.38403e+08    0.5            12251400       32.392575      4543.9635      9087.9464      0.79653879   
  24498000   307.1491       2.8058867     -37005177       0.7137531      910.97535     -37004266       942.87958      942.87958      942.87958      2028.5602      2971.4398      2028.5602      2971.4398      2028.5602      2971.4398      8.3824059e+08  0.5            12251500       32.414617      4536.7078      9073.4024      0.77441072   
  24498200   307.46906      2.5284291     -37005270       0.71375475     911.92433     -37004358       942.87885      942.87885      942.87885      2028.5606      2971.4394      2028.5606      2971.4394      2028.5606      2971.4394      8.3823865e+08  0.5            12251600       32.436562      4556.7856      9113.5617      0.7522805    
  24498400   307.76802     -1.1334375     -37005364       0.71365508     912.81103     -37004451       942.92274      942.92274      942.92274      2028.5386      2971.4614      2028.5386      2971.4614      2028.5386      2971.4614      8.3835572e+08  0.5            12251700       32.458525      4553.1941      9106.3937      0.73015093   
  24498600   307.75999     -0.62813132    -37005457       0.71368203     912.7872      -37004544       942.91087      942.91087      942.91087      2028.5446      2971.4554      2028.5446      2971.4554      2028.5446      2971.4554      8.3832406e+08  0.5            12251800       32.481262      4398.1824      8796.4027      0.70803846   
  24498800   307.67304      2.0172819     -37005549       0.71377447     912.52931     -37004636       942.87017      942.87017      942.87017      2028.5649      2971.4351      2028.5649      2971.4351      2028.5649      2971.4351      8.3821549e+08  0.5            12251900       32.503385      4520.1509      9040.2655      0.6859122    
  24499000   307.35191      2.4581224     -37013019       0.71380514     911.57686     -37012108       942.85666      942.85666      942.85666      2028.5717      2971.4283      2028.5717      2971.4283      2028.5717      2971.4283      8.3817948e+08  0.5            12252000       32.525221      4579.6124      9159.2412      0.66378007   
  24499200   307.67842      1.7427559     -37020491       0.71380032     912.54526     -37019579       942.85878      942.85878      942.85878      2028.5706      2971.4294      2028.5706      2971.4294      2028.5706      2971.4294      8.3818513e+08  0.5            12252100       32.547135      4563.1715      9126.3442      0.6416499    
  24499400   307.91762     -0.70849506    -37013208       0.71373252     913.2547      -37012295       942.88864      942.88864      942.88864      2028.5557      2971.4443      2028.5557      2971.4443      2028.5557      2971.4443      8.3826475e+08  0.5            12252200       32.568895      4595.622       9191.2394      0.61951708   
  24499600   307.87571      0.34279285    -37020681       0.71377885     913.13041     -37019768       942.86824      942.86824      942.86824      2028.5659      2971.4341      2028.5659      2971.4341      2028.5659      2971.4341      8.3821035e+08  0.5            12252300       32.595415      3770.7051      7541.4016      0.59747202   
  24499800   307.70783      2.884838      -37020773       0.71386358     912.63251     -37019861       942.83093      942.83093      942.83093      2028.5845      2971.4155      2028.5845      2971.4155      2028.5845      2971.4155      8.3811086e+08  0.5            12252400       32.617469      4534.3339      9068.6859      0.57534212   
  24500000   307.15579     -0.96156101    -37020869       0.71375586     910.99519     -37019958       942.87836      942.87836      942.87836      2028.5608      2971.4392      2028.5608      2971.4392      2028.5608      2971.4392      8.3823734e+08  0.5            12252500       32.641616      4141.3019      8282.588       0.55324779   
  24500200   307.39521      2.75934       -37020959       0.71387588     911.70531     -37020048       942.82552      942.82552      942.82552      2028.5872      2971.4128      2028.5872      2971.4128      2028.5872      2971.4128      8.3809642e+08  0.5            12252600       32.663714      4525.3961      9050.7943      0.53111734   
  24500400   307.71366     -0.34649266    -37021054       0.71379267     912.6498      -37020141       942.86215      942.86215      942.86215      2028.5689      2971.4311      2028.5689      2971.4311      2028.5689      2971.4311      8.3819411e+08  0.5            12252700       32.686049      4477.1854      8954.3744      0.50899066   
  24500600   307.94829     -0.40571888    -37013769       0.71379638     913.34569     -37012856       942.86052      942.86052      942.86052      2028.5697      2971.4303      2028.5697      2971.4303      2028.5697      2971.4303      8.3818976e+08  0.5            12252800       32.7079        4576.516       9152.9809      0.48685647   
  24500800   307.91625      2.3546327     -37013862       0.71388902     913.25065     -37012949       942.81973      942.81973      942.81973      2028.5901      2971.4099      2028.5901      2971.4099      2028.5901      2971.4099      8.3808099e+08  0.5            12252900       32.729929      4539.4829      9078.9867      0.4647252    
  24501000   307.27347     -0.1875118     -37013958       0.71382214     911.34422     -37013046       942.84917      942.84917      942.84917      2028.5754      2971.4246      2028.5754      2971.4246      2028.5754      2971.4246      8.3815951e+08  0.5            12253000       32.751908      4549.7847      9099.5934      0.44259339   
  24501200   307.41581      1.9178843     -37014050       0.71389472     911.76641     -37013138       942.81722      942.81722      942.81722      2028.5914      2971.4086      2028.5914      2971.4086      2028.5914      2971.4086      8.380743e+08   0.5            12253100       32.774042      4517.9934      9035.9471      0.42046377   
  24501400   307.71355      0.55112953    -37014144       0.71386409     912.64945     -37013231       942.83071      942.83071      942.83071      2028.5846      2971.4154      2028.5846      2971.4154      2028.5846      2971.4154      8.3811025e+08  0.5            12253200       32.795797      4596.6094      9193.2044      0.39832955   
  24501600   307.83734      0.79131302    -37014237       0.71388243     913.0166      -37013324       942.82263      942.82263      942.82263      2028.5887      2971.4113      2028.5887      2971.4113      2028.5887      2971.4113      8.3808873e+08  0.5            12253300       32.817507      4606.1778      9212.3645      0.37619533   
  24501800   307.81777      1.760469      -37014330       0.7139233      912.95856     -37013417       942.80464      942.80464      942.80464      2028.5977      2971.4023      2028.5977      2971.4023      2028.5977      2971.4023      8.3804074e+08  0.5            12253400       32.839431      4561.0748      9122.1312      0.35406398   
  24502000   307.3943       0.23256045    -37014425       0.71388916     911.70259     -37013514       942.81967      942.81967      942.81967      2028.5902      2971.4098      2028.5902      2971.4098      2028.5902      2971.4098      8.3808082e+08  0.5            12253500       32.861339      4564.543       9129.1365      0.33193275   
  24502200   307.7115       1.4338308     -37014519       0.71393689     912.64338     -37013606       942.79866      942.79866      942.79866      2028.6007      2971.3993      2028.6007      2971.3993      2028.6007      2971.3993      8.3802479e+08  0.5            12253600       32.883829      4446.562       8893.1283      0.3098073    
  24502400   307.95458      0.88283017    -37014614       0.71393167     913.36435     -37013701       942.80096      942.80096      942.80096      2028.5995      2971.4005      2028.5995      2971.4005      2028.5995      2971.4005      8.3803093e+08  0.5            12253700       32.905931      4524.4447      9048.8857      0.28767797   
  24502600   307.87386      0.95712379    -37014709       0.71394394     913.12494     -37013796       942.79556      942.79556      942.79556      2028.6022      2971.3978      2028.6022      2971.3978      2028.6022      2971.3978      8.3801652e+08  0.5            12253800       32.927859      4560.3347      9120.649       0.26554728   
  24502800   307.63559      1.0393437     -37014803       0.71395466     912.41825     -37013891       942.79084      942.79084      942.79084      2028.6046      2971.3954      2028.6046      2971.3954      2028.6046      2971.3954      8.3800394e+08  0.5            12253900       32.949853      4546.6406      9093.3126      0.24341734   
  24503000   307.08182      1.019007      -37014896       0.71396154     910.77581     -37013986       942.78781      942.78781      942.78781      2028.6061      2971.3939      2028.6061      2971.3939      2028.6061      2971.3939      8.3799586e+08  0.5            12254000       32.972114      4492.3172      8984.644       0.22128937   
  24503200   307.41047      0.95370002    -37014989       0.71396763     911.75054     -37014077       942.78513      942.78513      942.78513      2028.6074      2971.3926      2028.6074      2971.3926      2028.6074      2971.3926      8.3798872e+08  0.5            12254100       32.994295      4508.1959      9016.374       0.19916075   
  24503400   307.77097      1.0426602     -37015081       0.71397931     912.81978     -37014168       942.77999      942.77999      942.77999      2028.61        2971.39        2028.61        2971.39        2028.61        2971.39        8.3797501e+08  0.5            12254200       33.016012      4604.8074      9209.6114      0.17702957   
  24503600   307.77571      0.94956128    -37015174       0.71398597     912.83384     -37014261       942.77706      942.77706      942.77706      2028.6115      2971.3885      2028.6115      2971.3885      2028.6115      2971.3885      8.3796719e+08  0.5            12254300       33.03805       4537.475       9074.9137      0.15490045   
  24503800   307.61622      1.0849382     -37015267       0.71399941     912.3608      -37014354       942.77114      942.77114      942.77114      2028.6144      2971.3856      2028.6144      2971.3856      2028.6144      2971.3856      8.3795141e+08  0.5            12254400       33.061142      4330.5157      8661.1049      0.13277568   
  24504000   307.15337      0.8708889     -37015360       0.71400263     910.98801     -37014449       942.76972      942.76972      942.76972      2028.6151      2971.3849      2028.6151      2971.3849      2028.6151      2971.3849      8.3794764e+08  0.5            12254500       33.08371       4431.1736      8862.3134      0.11064787   
  24504200   307.49723      1.1710751     -37015452       0.71402128     912.00789     -37014540       942.76151      942.76151      942.76151      2028.6192      2971.3808      2028.6192      2971.3808      2028.6192      2971.3808      8.3792575e+08  0.5            12254600       33.105665      4554.6726      9109.3651      0.08851783   
  24504400   307.72495      0.81686412    -37015544       0.71402022     912.68328     -37014631       942.76198      942.76198      942.76198      2028.619       2971.381       2028.619       2971.381       2028.619       2971.381       8.37927e+08    0.5            12254700       33.12764       4550.6232      9101.2096      0.066388063  
  24504600   307.59893      1.1357088     -37015636       0.71403928     912.30951     -37014724       942.75359      942.75359      942.75359      2028.6232      2971.3768      2028.6232      2971.3768      2028.6232      2971.3768      8.3790462e+08  0.5            12254800       33.149804      4511.8824      9023.8133      0.044258754  
  24504800   307.43468      0.96320435    -37015728       0.71404408     911.82235     -37014816       942.75148      942.75148      942.75148      2028.6243      2971.3757      2028.6243      2971.3757      2028.6243      2971.3757      8.3789899e+08  0.5            12254900       33.171875      4530.8284      9061.6609      0.022129338  
  24505000   307.03599      0.93214822    -37015819       0.71405367     910.63988     -37014908       942.74726      942.74726      942.74726      2028.6264      2971.3736      2028.6264      2971.3736      2028.6264      2971.3736      8.3788774e+08  0.5            12255000       33.1937        4581.9351      9163.8382      0            
Loop time of 33.1937 on 4 procs for 300000 steps with 996 atoms

Performance: 390.435 ns/day, 0.061 hours/ns, 9037.847 timesteps/s
99.5% CPU use with 4 MPI tasks x no OpenMP threads

MPI task timing breakdown:
Section |  min time  |  avg time  |  max time  |%varavg| %total
---------------------------------------------------------------
Pair    | 3.1309     | 9.7785     | 18.366     | 197.9 | 29.46
Neigh   | 0.0060671  | 0.016974   | 0.031281   |   8.0 |  0.05
Comm    | 6.114      | 14.391     | 20.738     | 156.7 | 43.35
Output  | 0.073968   | 0.082076   | 0.10541    |   4.7 |  0.25
Modify  | 6.4773     | 6.9021     | 7.5591     |  17.3 | 20.79
Other   |            | 2.023      |            |       |  6.10

Nlocal:            249 ave         400 max         140 min
Histogram: 2 0 0 0 0 0 1 0 0 1
Nghost:         438.75 ave         490 max         383 min
Histogram: 1 0 0 1 0 0 0 1 0 1
Neighs:        1199.25 ave        2356 max         337 min
Histogram: 2 0 0 0 0 0 1 0 0 1

Total # of neighbors = 4797
Ave neighs/atom = 4.8162651
Neighbor list builds = 97
Dangerous builds = 18

# run_style
run_style verlet

# write restart
write_restart ${write_res}
write_restart ./pgnpmf/37/equpmf35.res
System init for write_restart ...
Generated 0 of 1 mixed pair_coeff terms from geometric mixing rule

Total wall time: 0:01:10
