LAMMPS (23 Jun 2022 - Update 1)
OMP_NUM_THREADS environment is not set. Defaulting to 1 thread. (src/comm.cpp:98)
  using 1 OpenMP thread(s) per MPI task
# Read restart
read_restart ${read_res}
read_restart ./pgnpmf/37/equpmf85.res
Reading restart file ...
  restart file = 23 Jun 2022, LAMMPS = 23 Jun 2022
  restoring atom style atomic from restart
  orthogonal box = (2148.4283 2148.4283 2148.4283) to (2851.5717 2851.5717 2851.5717)
  1 by 2 by 2 MPI processor grid
  restoring pair style table from restart
  996 atoms
  read_restart CPU = 0.007 seconds

# Settings

pair_style table spline 9941

pair_coeff 1 1 ./pgnpmf/N20.txt DE_GNP 75.6
pair_coeff 2 2 ./pgnpmf/N100.txt DE_GNP 115.92
WARNING: 3 of 9941 force values in table DE_GNP are inconsistent with -dE/dr.
WARNING:  Should only be flagged at inflection points (src/pair_table.cpp:463)
pair_coeff 1 2 ./pgnpmf/mixed_potential.txt DE_GNP 95.66
WARNING: 1562 of 9941 force values in table DE_GNP are inconsistent with -dE/dr.
WARNING:  Should only be flagged at inflection points (src/pair_table.cpp:463)

#Neigh_list Calc Frequency

neigh_modify delay 0 every 1 check yes

# Saving Frequency (50 frames)

variable ts_save equal ${steps_equ}
variable ts_save equal 5000

# Dump
#dump 1 all custom ${ts_save} ./pgnpmf/${folder}/equilibration/trajectory/trajectory_${usic}_${trial}.equ.custom type x y z ix iy iz
#dump_modify 1 first no sort id
dump 2 all cfg 50000 ./pgnpmf/${folder}/equilibration/trajectory/dumpgen.tens_*.cfg mass type xs ys zs fx fy fz
dump 2 all cfg 50000 ./pgnpmf/37/equilibration/trajectory/dumpgen.tens_*.cfg mass type xs ys zs fx fy fz
dump_modify 2 element N20 N100

# thermo_style
thermo_style custom step temp press pe density ke etotal lx ly lz xlo xhi ylo yhi zlo zhi vol dt time cpu tpcpu spcpu cpuremain

# run info
timestep ${ts}
timestep 0.1
thermo 200

# fix

fix 1 all momentum 1000 linear 1 1 1 angular
variable T equal ${temp}
variable T equal 300
fix 2 all nvt temp ${T} 370000 100.0
fix 2 all nvt temp 300 370000 100.0

run 100000
Generated 0 of 1 mixed pair_coeff terms from geometric mixing rule
Unused restart file global fix info:
  fix style: npt, fix ID: 5
Neighbor list info ...
  update every 1 steps, delay 0 steps, check yes
  max neighbors/atom: 2000, page size: 100000
  master list distance cutoff = 117.92
  ghost atom cutoff = 117.92
  binsize = 58.96, bins = 12 12 12
  1 neighbor lists, perpetual/occasional/extra = 1 0 0
  (1) pair table, perpetual
      attributes: half, newton on
      pair build: half/bin/atomonly/newton
      stencil: half/bin/3d
      bin: standard
Per MPI rank memory allocation (min/avg/max) = 3.081 | 3.081 | 3.082 Mbytes
   Step          Temp          Press          PotEng        Density         KinEng         TotEng           Lx             Ly             Lz            Xlo            Xhi            Ylo            Yhi            Zlo            Zhi           Volume           Dt            Time           CPU           T/CPU          S/CPU         CPULeft    
  59505000   305.21324      4.6445212     -43867689       1.7210168      905.23377     -43866784       703.14333      703.14333      703.14333      2148.4283      2851.5717      2148.4283      2851.5717      2148.4283      2851.5717      3.4764148e+08  0.1            17155000       0              0              0              0            
  59505200   331.83594      4.4597164     -43867754       1.7210168      984.19422     -43866769       703.14333      703.14333      703.14333      2148.4283      2851.5717      2148.4283      2851.5717      2148.4283      2851.5717      3.4764148e+08  0.1            17155020       0.015954328    1253.5072      12534.35       7.962551     
  59505400   371.87057      4.2682917     -43867822       1.7210168      1102.9332     -43866719       703.14333      703.14333      703.14333      2148.4283      2851.5717      2148.4283      2851.5717      2148.4283      2851.5717      3.4764148e+08  0.1            17155040       0.031028192    1326.8216      13268.299      7.7266184    
  59505600   415.19655      4.0645596     -43867894       1.7210168      1231.4339     -43866662       703.14333      703.14333      703.14333      2148.4283      2851.5717      2148.4283      2851.5717      2148.4283      2851.5717      3.4764148e+08  0.1            17155060       0.046137817    1323.6584      13236.62       7.6438948    
  59505800   467.86956      4.2364111     -43860592       1.7210168      1387.6571     -43859204       703.14333      703.14333      703.14333      2148.4283      2851.5717      2148.4283      2851.5717      2148.4283      2851.5717      3.4764148e+08  0.1            17155080       0.061282503    1320.584       13205.834      7.5993285    
  59506000   529.36344      4.0084948     -43860673       1.7210168      1570.0422     -43859103       703.14333      703.14333      703.14333      2148.4283      2851.5717      2148.4283      2851.5717      2148.4283      2851.5717      3.4764148e+08  0.1            17155100       0.076718792    1295.6344      12956.254      7.5954396    
  59506200   599.97737      3.7664379     -43860759       1.7210168      1779.4765     -43858980       703.14333      703.14333      703.14333      2148.4283      2851.5717      2148.4283      2851.5717      2148.4283      2851.5717      3.4764148e+08  0.1            17155120       0.092148724    1296.2033      12962.134      7.58711      
  59506400   680.67405      3.5091841     -43860851       1.7210168      2018.8153     -43858832       703.14333      703.14333      703.14333      2148.4283      2851.5717      2148.4283      2851.5717      2148.4283      2851.5717      3.4764148e+08  0.1            17155140       0.10724232     1325.0607      13250.619      7.5530904    
  59506600   772.55142      3.2358355     -43860949       1.7210168      2291.3149     -43858657       703.14333      703.14333      703.14333      2148.4283      2851.5717      2148.4283      2851.5717      2148.4283      2851.5717      3.4764148e+08  0.1            17155160       0.12230678     1327.6351      13276.312      7.5220123    
  59506800   876.89844      2.9457053     -43861053       1.7210168      2600.7983     -43858452       703.14333      703.14333      703.14333      2148.4283      2851.5717      2148.4283      2851.5717      2148.4283      2851.5717      3.4764148e+08  0.1            17155180       0.13732598     1331.6282      13316.312      7.4920201    
  59507000   995.0858       3.0249524     -43853786       1.7210168      2951.3309     -43850834       703.14333      703.14333      703.14333      2148.4283      2851.5717      2148.4283      2851.5717      2148.4283      2851.5717      3.4764148e+08  0.1            17155200       0.15239069     1327.5935      13275.864      7.4672707    
  59507200   1128.9577      2.6989697     -43853903       1.7210168      3348.3824     -43850555       703.14333      703.14333      703.14333      2148.4283      2851.5717      2148.4283      2851.5717      2148.4283      2851.5717      3.4764148e+08  0.1            17155220       0.16777378     1300.1311      13001.414      7.4584113    
  59507400   1280.2906      2.354876      -43854029       1.7210168      3797.2217     -43850231       703.14333      703.14333      703.14333      2148.4283      2851.5717      2148.4283      2851.5717      2148.4283      2851.5717      3.4764148e+08  0.1            17155240       0.18303962     1310.1275      13101.192      7.4437065    
  59507600   1451.1622      1.9928138     -43854162       1.7210168      4304.0108     -43849858       703.14333      703.14333      703.14333      2148.4283      2851.5717      2148.4283      2851.5717      2148.4283      2851.5717      3.4764148e+08  0.1            17155260       0.19805764     1331.7484      13317.501      7.4196253    
  59507800   1643.8835      1.6139671     -43854303       1.7210168      4875.604      -43849428       703.14333      703.14333      703.14333      2148.4283      2851.5717      2148.4283      2851.5717      2148.4283      2851.5717      3.4764148e+08  0.1            17155280       0.21301402     1337.2083      13372.132      7.3947085    
  59508000   1860.9152      1.2218238     -43854454       1.7210168      5519.2996     -43848935       703.14333      703.14333      703.14333      2148.4283      2851.5717      2148.4283      2851.5717      2148.4283      2851.5717      3.4764148e+08  0.1            17155300       0.22804945     1330.1843      13301.749      7.3736823    
  59508200   2105.2457      0.82094106    -43854613       1.7210168      6243.9609     -43848369       703.14333      703.14333      703.14333      2148.4283      2851.5717      2148.4283      2851.5717      2148.4283      2851.5717      3.4764148e+08  0.1            17155320       0.2438025      1269.6025      12696.099      7.3750936    
  59508400   2379.9363      0.41746643    -43854783       1.7210168      7058.6673     -43847724       703.14333      703.14333      703.14333      2148.4283      2851.5717      2148.4283      2851.5717      2148.4283      2851.5717      3.4764148e+08  0.1            17155340       0.25875679     1337.4048      13374          7.3518054    
  59508600   2688.4113      0.018109878   -43854962       1.7210168      7973.5752     -43846989       703.14333      703.14333      703.14333      2148.4283      2851.5717      2148.4283      2851.5717      2148.4283      2851.5717      3.4764148e+08  0.1            17155360       0.27388262     1322.2431      13222.429      7.3340298    
  59508800   3034.4121     -0.36843884    -43855153       1.7210168      8999.7809     -43846153       703.14333      703.14333      703.14333      2148.4283      2851.5717      2148.4283      2851.5717      2148.4283      2851.5717      3.4764148e+08  0.1            17155380       0.28917127     1308.1678      13081.742      7.3206521    
  59509000   3421.9038     -0.73119728    -43855355       1.7210168      10149.045     -43845206       703.14333      703.14333      703.14333      2148.4283      2851.5717      2148.4283      2851.5717      2148.4283      2851.5717      3.4764148e+08  0.1            17155400       0.30421969     1329.027       13290.177      7.301332     
  59509200   3855.4279     -1.058957      -43855569       1.7210168      11434.837     -43844134       703.14333      703.14333      703.14333      2148.4283      2851.5717      2148.4283      2851.5717      2148.4283      2851.5717      3.4764148e+08  0.1            17155420       0.31928092     1327.9249      13279.327      7.2826949    
  59509400   4339.6246     -1.3398894     -43855796       1.7210168      12870.919     -43842925       703.14333      703.14333      703.14333      2148.4283      2851.5717      2148.4283      2851.5717      2148.4283      2851.5717      3.4764148e+08  0.1            17155440       0.33426584     1334.6741      13346.745      7.2627319    
  59509600   4879.4805     -1.5692161     -43856036       1.7210168      14472.081     -43841563       703.14333      703.14333      703.14333      2148.4283      2851.5717      2148.4283      2851.5717      2148.4283      2851.5717      3.4764148e+08  0.1            17155460       0.34934004     1326.7797      13267.772      7.2450517    
  59509800   5480.3063     -1.357644      -43848912       1.7210168      16254.073     -43832658       703.14333      703.14333      703.14333      2148.4283      2851.5717      2148.4283      2851.5717      2148.4283      2851.5717      3.4764148e+08  0.1            17155480       0.36433707     1333.5887      13335.925      7.2260606    
  59510000   6147.4209     -1.4828413     -43849180       1.7210168      18232.673     -43830948       703.14333      703.14333      703.14333      2148.4283      2851.5717      2148.4283      2851.5717      2148.4283      2851.5717      3.4764148e+08  0.1            17155500       0.37978019     1295.0762      12950.674      7.2158675    
  59510200   6886.4929     -1.5762257     -43849464       1.7210168      20424.691     -43829039       703.14333      703.14333      703.14333      2148.4283      2851.5717      2148.4283      2851.5717      2148.4283      2851.5717      3.4764148e+08  0.1            17155520       0.39494825     1318.5653      13185.73       7.2002489    
  59510400   7703.0426     -1.6646956     -43849763       1.7210168      22846.5       -43826916       703.14333      703.14333      703.14333      2148.4283      2851.5717      2148.4283      2851.5717      2148.4283      2851.5717      3.4764148e+08  0.1            17155540       0.40993687     1334.3394      13343.408      7.1815241    
  59510600   8602.5434     -1.7819029     -43850078       1.7210168      25514.335     -43824563       703.14333      703.14333      703.14333      2148.4283      2851.5717      2148.4283      2851.5717      2148.4283      2851.5717      3.4764148e+08  0.1            17155560       0.42495793     1331.4506      13314.499      7.1636156    
  59510800   9590.2108     -1.9472938     -43850409       1.7210168      28443.664     -43821965       703.14333      703.14333      703.14333      2148.4283      2851.5717      2148.4283      2851.5717      2148.4283      2851.5717      3.4764148e+08  0.1            17155580       0.43995482     1333.6211      13336.243      7.1455097    
  59511000   10670.693     -2.1771227     -43850757       1.7210168      31648.271     -43819109       703.14333      703.14333      703.14333      2148.4283      2851.5717      2148.4283      2851.5717      2148.4283      2851.5717      3.4764148e+08  0.1            17155600       0.45499415     1329.8423      13298.334      7.1282844    
  59511200   11848.147     -2.5044159     -43851123       1.7210168      35140.49      -43815983       703.14333      703.14333      703.14333      2148.4283      2851.5717      2148.4283      2851.5717      2148.4283      2851.5717      3.4764148e+08  0.1            17155620       0.47026411     1309.7729      13097.776      7.1146737    
  59511400   13125.527     -2.9615159     -43851508       1.7210168      38929.079     -43812579       703.14333      703.14333      703.14333      2148.4283      2851.5717      2148.4283      2851.5717      2148.4283      2851.5717      3.4764148e+08  0.1            17155640       0.4855259      1310.4617      13104.612      7.1008463    
  59511600   14504.445     -3.5168083     -43851912       1.7210168      43018.819     -43808893       703.14333      703.14333      703.14333      2148.4283      2851.5717      2148.4283      2851.5717      2148.4283      2851.5717      3.4764148e+08  0.1            17155660       0.50056785     1329.6042      13296.009      7.0838265    
  59511800   15984.586     -4.0793953     -43852336       1.7210168      47408.78      -43804927       703.14333      703.14333      703.14333      2148.4283      2851.5717      2148.4283      2851.5717      2148.4283      2851.5717      3.4764148e+08  0.1            17155680       0.51561918     1328.7876      13287.921      7.0670464    
  59512000   17563.073     -4.5745887     -43852780       1.7210168      52090.423     -43800689       703.14333      703.14333      703.14333      2148.4283      2851.5717      2148.4283      2851.5717      2148.4283      2851.5717      3.4764148e+08  0.1            17155700       0.53067        1328.8191      13288.117      7.0503638    
  59512200   19234.312     -4.594499      -43845865       1.7210168      57047.162     -43788818       703.14333      703.14333      703.14333      2148.4283      2851.5717      2148.4283      2851.5717      2148.4283      2851.5717      3.4764148e+08  0.1            17155720       0.5456976      1330.8976      13309.049      7.0334639    
  59512400   20989.063     -4.9360177     -43846348       1.7210168      62251.587     -43784096       703.14333      703.14333      703.14333      2148.4283      2851.5717      2148.4283      2851.5717      2148.4283      2851.5717      3.4764148e+08  0.1            17155740       0.56072272     1331.1098      13311.086      7.0166371    
  59512600   22814.291     -5.2944245     -43846848       1.7210168      67665.043     -43779183       703.14333      703.14333      703.14333      2148.4283      2851.5717      2148.4283      2851.5717      2148.4283      2851.5717      3.4764148e+08  0.1            17155760       0.57615282     1296.1691      12961.696      7.0048308    
  59512800   24692.847     -5.7000894     -43847367       1.7210168      73236.663     -43774131       703.14333      703.14333      703.14333      2148.4283      2851.5717      2148.4283      2851.5717      2148.4283      2851.5717      3.4764148e+08  0.1            17155780       0.59164826     1290.6845      12906.856      6.993614     
  59513000   26602.735     -6.1270595     -43847904       1.7210168      78901.211     -43769003       703.14333      703.14333      703.14333      2148.4283      2851.5717      2148.4283      2851.5717      2148.4283      2851.5717      3.4764148e+08  0.1            17155800       0.60681391     1318.7843      13187.709      6.978389     
  59513200   28517.123     -6.5500845     -43848457       1.7210168      84579.106     -43763878       703.14333      703.14333      703.14333      2148.4283      2851.5717      2148.4283      2851.5717      2148.4283      2851.5717      3.4764148e+08  0.1            17155820       0.6220818      1309.9308      13099.486      6.9643069    
  59513400   30403.955     -6.9472893     -43849026       1.7210168      90175.271     -43758851       703.14333      703.14333      703.14333      2148.4283      2851.5717      2148.4283      2851.5717      2148.4283      2851.5717      3.4764148e+08  0.1            17155840       0.63732647     1311.9352      13119.216      6.9499193    
  59513600   32226.62      -7.4025834     -43849609       1.7210168      95581.125     -43754027       703.14333      703.14333      703.14333      2148.4283      2851.5717      2148.4283      2851.5717      2148.4283      2851.5717      3.4764148e+08  0.1            17155860       0.6524792      1319.9092      13199.149      6.9345128    
  59513800   33944.94      -7.9506397     -43850203       1.7210168      100677.5      -43749525       703.14333      703.14333      703.14333      2148.4283      2851.5717      2148.4283      2851.5717      2148.4283      2851.5717      3.4764148e+08  0.1            17155880       0.66778784     1306.4346      13064.362      6.9207346    
  59514000   35516.618     -8.5847797     -43850807       1.7210168      105338.95     -43745468       703.14333      703.14333      703.14333      2148.4283      2851.5717      2148.4283      2851.5717      2148.4283      2851.5717      3.4764148e+08  0.1            17155900       0.68317216     1300.0283      13000.229      6.9076534    
  59514200   36900.425     -9.1984737     -43849525       1.7210168      109443.19     -43740082       703.14333      703.14333      703.14333      2148.4283      2851.5717      2148.4283      2851.5717      2148.4283      2851.5717      3.4764148e+08  0.1            17155920       0.69827301     1324.4374      13244.439      6.8916723    
  59514400   38059.576     -9.7176198     -43842770       1.7210168      112881.13     -43729889       703.14333      703.14333      703.14333      2148.4283      2851.5717      2148.4283      2851.5717      2148.4283      2851.5717      3.4764148e+08  0.1            17155940       0.71336066     1325.5805      13255.812      6.8756041    
  59514600   38966.228     -10.315156     -43836023       1.7210168      115570.17     -43720453       703.14333      703.14333      703.14333      2148.4283      2851.5717      2148.4283      2851.5717      2148.4283      2851.5717      3.4764148e+08  0.1            17155960       0.73006216     1197.4987      11974.995      6.8747733    
  59514800   39605.714     -11.324808     -43836657       1.7210168      117466.83     -43719191       703.14333      703.14333      703.14333      2148.4283      2851.5717      2148.4283      2851.5717      2148.4283      2851.5717      3.4764148e+08  0.1            17155980       0.74678866     1195.6972      11956.968      6.8735259    
  59515000   39983.446     -12.437416     -43837289       1.7210168      118587.14     -43718702       703.14333      703.14333      703.14333      2148.4283      2851.5717      2148.4283      2851.5717      2148.4283      2851.5717      3.4764148e+08  0.1            17156000       0.76185018     1327.8823      13278.696      6.8566788    
  59515200   40129.31      -13.547972     -43837917       1.7210168      119019.76     -43718897       703.14333      703.14333      703.14333      2148.4283      2851.5717      2148.4283      2851.5717      2148.4283      2851.5717      3.4764148e+08  0.1            17156020       0.77724562     1299.089       12990.834      6.8428324    
  59515400   40095.573     -14.872509     -43845917       1.7210168      118919.7      -43726998       703.14333      703.14333      703.14333      2148.4283      2851.5717      2148.4283      2851.5717      2148.4283      2851.5717      3.4764148e+08  0.1            17156040       0.79268233     1295.6035      12956.126      6.8292857    
  59515600   39950.089     -15.596161     -43844640       1.7210168      118488.21     -43726152       703.14333      703.14333      703.14333      2148.4283      2851.5717      2148.4283      2851.5717      2148.4283      2851.5717      3.4764148e+08  0.1            17156060       0.80806642     1300.0646      13000.7        6.8152216    
  59515800   39767.633     -16.438186     -43843357       1.7210168      117947.06     -43725410       703.14333      703.14333      703.14333      2148.4283      2851.5717      2148.4283      2851.5717      2148.4283      2851.5717      3.4764148e+08  0.1            17156080       0.82307738     1332.3569      13323.558      6.7980285    
  59516000   39621.531     -17.377819     -43842068       1.7210168      117513.74     -43724554       703.14333      703.14333      703.14333      2148.4283      2851.5717      2148.4283      2851.5717      2148.4283      2851.5717      3.4764148e+08  0.1            17156100       0.83800684     1339.6388      13396.307      6.7802569    
  59516200   39577.979     -18.463476     -43842668       1.7210168      117384.57     -43725284       703.14333      703.14333      703.14333      2148.4283      2851.5717      2148.4283      2851.5717      2148.4283      2851.5717      3.4764148e+08  0.1            17156120       0.85295063     1338.3573      13383.704      6.7626966    
  59516400   39693.009     -19.481927     -43843263       1.7210168      117725.73     -43725538       703.14333      703.14333      703.14333      2148.4283      2851.5717      2148.4283      2851.5717      2148.4283      2851.5717      3.4764148e+08  0.1            17156140       0.86817201     1313.9278      13139.277      6.7473893    
  59516600   40011.379     -20.299787     -43843853       1.7210168      118669.99     -43725183       703.14333      703.14333      703.14333      2148.4283      2851.5717      2148.4283      2851.5717      2148.4283      2851.5717      3.4764148e+08  0.1            17156160       0.88349382     1305.3347      13053.338      6.7328491    
  59516800   40565.431     -20.966286     -43844438       1.7210168      120313.26     -43724125       703.14333      703.14333      703.14333      2148.4283      2851.5717      2148.4283      2851.5717      2148.4283      2851.5717      3.4764148e+08  0.1            17156180       0.89853038     1330.0911      13300.909      6.7161503    
  59517000   41372.416     -21.187505     -43837646       1.7210168      122706.7      -43714939       703.14333      703.14333      703.14333      2148.4283      2851.5717      2148.4283      2851.5717      2148.4283      2851.5717      3.4764148e+08  0.1            17156200       0.91359424     1327.6765      13276.679      6.6997091    
  59517200   42430.302     -21.769604     -43838236       1.7210168      125844.29     -43712392       703.14333      703.14333      703.14333      2148.4283      2851.5717      2148.4283      2851.5717      2148.4283      2851.5717      3.4764148e+08  0.1            17156220       0.92867405     1326.2796      13262.896      6.6834251    
  59517400   43714.322     -21.727743     -43831454       1.7210168      129652.57     -43701801       703.14333      703.14333      703.14333      2148.4283      2851.5717      2148.4283      2851.5717      2148.4283      2851.5717      3.4764148e+08  0.1            17156240       0.94369153     1331.7784      13317.773      6.6667404    
  59517600   45179.464     -21.936112     -43832053       1.7210168      133998.04     -43698055       703.14333      703.14333      703.14333      2148.4283      2851.5717      2148.4283      2851.5717      2148.4283      2851.5717      3.4764148e+08  0.1            17156260       0.9586933      1333.1814      13331.794      6.6499989    
  59517800   46765.998     -22.293119     -43832656       1.7210168      138703.56     -43693952       703.14333      703.14333      703.14333      2148.4283      2851.5717      2148.4283      2851.5717      2148.4283      2851.5717      3.4764148e+08  0.1            17156280       0.97390242     1314.9982      13150.002      6.6347249    
  59518000   48406.814     -23.225654     -43840642       1.7210168      143570.06     -43697072       703.14333      703.14333      703.14333      2148.4283      2851.5717      2148.4283      2851.5717      2148.4283      2851.5717      3.4764148e+08  0.1            17156300       0.9892676      1301.6442      13016.387      6.6204992    
  59518200   50032.459     -23.779747     -43841255       1.7210168      148391.57     -43692863       703.14333      703.14333      703.14333      2148.4283      2851.5717      2148.4283      2851.5717      2148.4283      2851.5717      3.4764148e+08  0.1            17156320       1.0043039      1330.1248      13301.299      6.6040725    
  59518400   51575.906     -24.670685     -43841872       1.7210168      152969.29     -43688903       703.14333      703.14333      703.14333      2148.4283      2851.5717      2148.4283      2851.5717      2148.4283      2851.5717      3.4764148e+08  0.1            17156340       1.0193328      1330.7696      13307.695      6.587642     
  59518600   52976.225     -25.916245     -43842492       1.7210168      157122.5      -43685369       703.14333      703.14333      703.14333      2148.4283      2851.5717      2148.4283      2851.5717      2148.4283      2851.5717      3.4764148e+08  0.1            17156360       1.0343041      1335.8925      13358.95       6.5708862    
  59518800   54181.706     -27.213027     -43843112       1.7210168      160697.85     -43682414       703.14333      703.14333      703.14333      2148.4283      2851.5717      2148.4283      2851.5717      2148.4283      2851.5717      3.4764148e+08  0.1            17156380       1.0492536      1337.8331      13378.317      6.5540462    
  59519000   55153.799     -28.192593     -43843730       1.7210168      163580.98     -43680149       703.14333      703.14333      703.14333      2148.4283      2851.5717      2148.4283      2851.5717      2148.4283      2851.5717      3.4764148e+08  0.1            17156400       1.0643152      1327.8759      13278.665      6.5379503    
  59519200   55870.853     -29.325379     -43851722       1.7210168      165707.7      -43686015       703.14333      703.14333      703.14333      2148.4283      2851.5717      2148.4283      2851.5717      2148.4283      2851.5717      3.4764148e+08  0.1            17156420       1.0797039      1299.6575      12996.641      6.5238576    
  59519400   56331.987     -30.251869     -43854226       1.7210168      167075.38     -43687150       703.14333      703.14333      703.14333      2148.4283      2851.5717      2148.4283      2851.5717      2148.4283      2851.5717      3.4764148e+08  0.1            17156440       1.0950462      1303.6014      13036          6.5094549    
  59519600   56558.586     -31.232162     -43854827       1.7210168      167747.45     -43687080       703.14333      703.14333      703.14333      2148.4283      2851.5717      2148.4283      2851.5717      2148.4283      2851.5717      3.4764148e+08  0.1            17156460       1.1100219      1335.4756      13354.803      6.4928809    
  59519800   56593.852     -32.588037     -43855422       1.7210168      167852.05     -43687570       703.14333      703.14333      703.14333      2148.4283      2851.5717      2148.4283      2851.5717      2148.4283      2851.5717      3.4764148e+08  0.1            17156480       1.1250309      1332.5541      13318.827      6.4765859    
  59520000   56497.917     -33.932699     -43856011       1.7210168      167567.51     -43688443       703.14333      703.14333      703.14333      2148.4283      2851.5717      2148.4283      2851.5717      2148.4283      2851.5717      3.4764148e+08  0.1            17156500       1.1401181      1325.6183      13262.752      6.4606817    
  59520200   56340.205     -35.050441     -43856593       1.7210168      167099.75     -43689493       703.14333      703.14333      703.14333      2148.4283      2851.5717      2148.4283      2851.5717      2148.4283      2851.5717      3.4764148e+08  0.1            17156520       1.155243       1322.3233      13223.326      6.4450511    
  59520400   56192.505     -36.170004     -43864544       1.7210168      166661.69     -43697882       703.14333      703.14333      703.14333      2148.4283      2851.5717      2148.4283      2851.5717      2148.4283      2851.5717      3.4764148e+08  0.1            17156540       1.1709993      1269.3283      12693.235      6.4329048    
  59520600   56122.844     -36.739717     -43865107       1.7210168      166455.08     -43698652       703.14333      703.14333      703.14333      2148.4283      2851.5717      2148.4283      2851.5717      2148.4283      2851.5717      3.4764148e+08  0.1            17156560       1.1865765      1283.9297      12839.303      6.4196949    
  59520800   56192.226     -37.38686      -43865661       1.7210168      166660.86     -43699000       703.14333      703.14333      703.14333      2148.4283      2851.5717      2148.4283      2851.5717      2148.4283      2851.5717      3.4764148e+08  0.1            17156580       1.2017334      1319.5304      13195.316      6.4041858    
  59521000   56450.754     -37.822861     -43866206       1.7210168      167427.63     -43698778       703.14333      703.14333      703.14333      2148.4283      2851.5717      2148.4283      2851.5717      2148.4283      2851.5717      3.4764148e+08  0.1            17156600       1.2168794      1320.4742      13204.686      6.3886293    
  59521200   56935.445     -37.874437     -43864849       1.7210168      168865.18     -43695984       703.14333      703.14333      703.14333      2148.4283      2851.5717      2148.4283      2851.5717      2148.4283      2851.5717      3.4764148e+08  0.1            17156620       1.2319684      1325.4688      13254.756      6.3727859    
  59521400   57668.719     -38.259968     -43867280       1.7210168      171040        -43696240       703.14333      703.14333      703.14333      2148.4283      2851.5717      2148.4283      2851.5717      2148.4283      2851.5717      3.4764148e+08  0.1            17156640       1.2469969      1330.8021      13307.994      6.3566538    
  59521600   58653.959     -38.809174     -43875191       1.7210168      173962.13     -43701229       703.14333      703.14333      703.14333      2148.4283      2851.5717      2148.4283      2851.5717      2148.4283      2851.5717      3.4764148e+08  0.1            17156660       1.2618896      1342.9635      13429.661      6.3398646    
  59521800   59873.548     -38.978979     -43875720       1.7210168      177579.32     -43698141       703.14333      703.14333      703.14333      2148.4283      2851.5717      2148.4283      2851.5717      2148.4283      2851.5717      3.4764148e+08  0.1            17156680       1.2771587      1309.8185      13098.163      6.3249876    
  59522000   61291.698     -39.307031     -43876247       1.7210168      181785.41     -43694461       703.14333      703.14333      703.14333      2148.4283      2851.5717      2148.4283      2851.5717      2148.4283      2851.5717      3.4764148e+08  0.1            17156700       1.2925321      1300.9441      13009.443      6.3106092    
  59522200   62855.239     -39.510111     -43876771       1.7210168      186422.73     -43690348       703.14333      703.14333      703.14333      2148.4283      2851.5717      2148.4283      2851.5717      2148.4283      2851.5717      3.4764148e+08  0.1            17156720       1.3075521      1331.5682      13315.716      6.2945052    
  59522400   64498.423     -38.944741     -43868019       1.7210168      191296.26     -43676722       703.14333      703.14333      703.14333      2148.4283      2851.5717      2148.4283      2851.5717      2148.4283      2851.5717      3.4764148e+08  0.1            17156740       1.3224336      1343.9438      13439.442      6.2777696    
  59522600   66149.781     -38.94131      -43868535       1.7210168      196194.03     -43672341       703.14333      703.14333      703.14333      2148.4283      2851.5717      2148.4283      2851.5717      2148.4283      2851.5717      3.4764148e+08  0.1            17156760       1.3372152      1353.0475      13530.492      6.2606076    
  59522800   67737.844     -38.85938      -43867153       1.7210168      200904.08     -43666249       703.14333      703.14333      703.14333      2148.4283      2851.5717      2148.4283      2851.5717      2148.4283      2851.5717      3.4764148e+08  0.1            17156780       1.3519556      1356.8079      13568.074      6.24331      
  59523000   69195.385     -39.033102     -43867662       1.7210168      205227.01     -43662435       703.14333      703.14333      703.14333      2148.4283      2851.5717      2148.4283      2851.5717      2148.4283      2851.5717      3.4764148e+08  0.1            17156800       1.3667363      1353.1209      13522.481      6.226296     
  59523200   70463.807     -39.345529     -43868163       1.7210168      208989.03     -43659174       703.14333      703.14333      703.14333      2148.4283      2851.5717      2148.4283      2851.5717      2148.4283      2851.5717      3.4764148e+08  0.1            17156820       1.3819639      1313.3986      13142.202      6.2112537    
  59523400   71499.269     -40.396135     -43877562       1.7210168      212060.11     -43665502       703.14333      703.14333      703.14333      2148.4283      2851.5717      2148.4283      2851.5717      2148.4283      2851.5717      3.4764148e+08  0.1            17156840       1.3968834      1340.5295      13405.269      6.1948833    
  59523600   72275.557     -41.333153     -43878049       1.7210168      214362.51     -43663687       703.14333      703.14333      703.14333      2148.4283      2851.5717      2148.4283      2851.5717      2148.4283      2851.5717      3.4764148e+08  0.1            17156860       1.4115883      1360.0951      13600.99       6.177605     
  59523800   72787.127     -41.823955     -43872845       1.7210168      215879.78     -43656966       703.14333      703.14333      703.14333      2148.4283      2851.5717      2148.4283      2851.5717      2148.4283      2851.5717      3.4764148e+08  0.1            17156880       1.4263427      1355.5219      13555.2        6.1605956    
  59524000   73051.622     -42.393178     -43871057       1.7210168      216664.24     -43654393       703.14333      703.14333      703.14333      2148.4283      2851.5717      2148.4283      2851.5717      2148.4283      2851.5717      3.4764148e+08  0.1            17156900       1.4411085      1354.488       13544.763      6.1436825    
  59524200   73107.132     -43.317082     -43878902       1.7210168      216828.88     -43662073       703.14333      703.14333      703.14333      2148.4283      2851.5717      2148.4283      2851.5717      2148.4283      2851.5717      3.4764148e+08  0.1            17156920       1.4559419      1348.3114      13483.227      6.127097     
  59524400   73010.255     -43.575452     -43871981       1.7210168      216541.55     -43655439       703.14333      703.14333      703.14333      2148.4283      2851.5717      2148.4283      2851.5717      2148.4283      2851.5717      3.4764148e+08  0.1            17156940       1.4712651      1305.2055      13052.038      6.1125844    
  59524600   72829.511     -44.451211     -43872425       1.7210168      216005.48     -43656419       703.14333      703.14333      703.14333      2148.4283      2851.5717      2148.4283      2851.5717      2148.4283      2851.5717      3.4764148e+08  0.1            17156960       1.4863984      1321.5887      13215.908      6.0972752    
  59524800   72639.318     -44.841981     -43872488       1.7210168      215441.39     -43657046       703.14333      703.14333      703.14333      2148.4283      2851.5717      2148.4283      2851.5717      2148.4283      2851.5717      3.4764148e+08  0.1            17156980       1.5012073      1350.5408      13505.364      6.080656     
  59525000   72513.061     -44.839758     -43871013       1.7210168      215066.92     -43655946       703.14333      703.14333      703.14333      2148.4283      2851.5717      2148.4283      2851.5717      2148.4283      2851.5717      3.4764148e+08  0.1            17157000       1.5160068      1351.3963      13513.949      6.0640358    
  59525200   72517.176     -45.190403     -43871423       1.7210168      215079.13     -43656343       703.14333      703.14333      703.14333      2148.4283      2851.5717      2148.4283      2851.5717      2148.4283      2851.5717      3.4764148e+08  0.1            17157020       1.5308134      1350.753       13507.536      6.0474788    
  59525400   72706.752     -45.62452      -43871821       1.7210168      215641.39     -43656179       703.14333      703.14333      703.14333      2148.4283      2851.5717      2148.4283      2851.5717      2148.4283      2851.5717      3.4764148e+08  0.1            17157040       1.5455205      1359.8838      13598.893      6.0305683    
  59525600   73123.126     -45.76212      -43872205       1.7210168      216876.32     -43655329       703.14333      703.14333      703.14333      2148.4283      2851.5717      2148.4283      2851.5717      2148.4283      2851.5717      3.4764148e+08  0.1            17157060       1.5602416      1358.5959      13585.942      6.0137543    
  59525800   73792.738     -45.395084     -43870682       1.7210168      218862.33     -43651820       703.14333      703.14333      703.14333      2148.4283      2851.5717      2148.4283      2851.5717      2148.4283      2851.5717      3.4764148e+08  0.1            17157080       1.5753735      1321.7155      13217.166      5.9985452    
  59526000   74723.837     -45.630392     -43876727       1.7210168      221623.88     -43655104       703.14333      703.14333      703.14333      2148.4283      2851.5717      2148.4283      2851.5717      2148.4283      2851.5717      3.4764148e+08  0.1            17157100       1.5905005      1322.1229      13221.147      5.9833201    
  59526200   75904.081     -45.631807     -43877446       1.7210168      225124.37     -43652322       703.14333      703.14333      703.14333      2148.4283      2851.5717      2148.4283      2851.5717      2148.4283      2851.5717      3.4764148e+08  0.1            17157120       1.6053683      1345.1976      13452.069      5.9671312    
  59526400   77301.283     -45.725103     -43877787       1.7210168      229268.34     -43648518       703.14333      703.14333      703.14333      2148.4283      2851.5717      2148.4283      2851.5717      2148.4283      2851.5717      3.4764148e+08  0.1            17157140       1.620116       1356.1423      13561.407      5.9505268    
  59526600   78865.54      -44.945739     -43861471       1.7210168      233907.78     -43627563       703.14333      703.14333      703.14333      2148.4283      2851.5717      2148.4283      2851.5717      2148.4283      2851.5717      3.4764148e+08  0.1            17157160       1.6348728      1355.3105      13553.134      5.9339899    
  59526800   80532.096     -45.040438     -43861799       1.7210168      238850.63     -43622948       703.14333      703.14333      703.14333      2148.4283      2851.5717      2148.4283      2851.5717      2148.4283      2851.5717      3.4764148e+08  0.1            17157180       1.6496638      1352.1754      13521.739      5.9176086    
  59527000   82227.472     -44.375651     -43854744       1.7210168      243878.95     -43610865       703.14333      703.14333      703.14333      2148.4283      2851.5717      2148.4283      2851.5717      2148.4283      2851.5717      3.4764148e+08  0.1            17157200       1.6645144      1346.7475      13467.432      5.9014676    
  59527200   83876.132     -43.994264     -43862070       1.7210168      248768.72     -43613301       703.14333      703.14333      703.14333      2148.4283      2851.5717      2148.4283      2851.5717      2148.4283      2851.5717      3.4764148e+08  0.1            17157220       1.6795852      1327.0686      13270.689      5.886121     
  59527400   85405.217     -43.396328     -43862379       1.7210168      253303.84     -43609075       703.14333      703.14333      703.14333      2148.4283      2851.5717      2148.4283      2851.5717      2148.4283      2851.5717      3.4764148e+08  0.1            17157240       1.6946255      1329.7604      13297.658      5.8706737    
  59527600   86749.928     -43.004543     -43860781       1.7210168      257292.13     -43603489       703.14333      703.14333      703.14333      2148.4283      2851.5717      2148.4283      2851.5717      2148.4283      2851.5717      3.4764148e+08  0.1            17157260       1.7093291      1360.2145      13602.147      5.8540805    
  59527800   87859.663     -43.000208     -43862961       1.7210168      260583.5      -43602377       703.14333      703.14333      703.14333      2148.4283      2851.5717      2148.4283      2851.5717      2148.4283      2851.5717      3.4764148e+08  0.1            17157280       1.7240996      1354.0508      13540.489      5.8377473    
  59528000   88701.591     -42.78376      -43863229       1.7210168      263080.58     -43600148       703.14333      703.14333      703.14333      2148.4283      2851.5717      2148.4283      2851.5717      2148.4283      2851.5717      3.4764148e+08  0.1            17157300       1.7389013      1351.1865      13511.773      5.8215468    
  59528200   89264.722     -42.45298      -43863480       1.7210168      264750.77     -43598729       703.14333      703.14333      703.14333      2148.4283      2851.5717      2148.4283      2851.5717      2148.4283      2851.5717      3.4764148e+08  0.1            17157320       1.7541184      1314.3048      13143.127      5.8067438    
  59528400   89562.72      -42.669775     -43865981       1.7210168      265634.61     -43600347       703.14333      703.14333      703.14333      2148.4283      2851.5717      2148.4283      2851.5717      2148.4283      2851.5717      3.4764148e+08  0.1            17157340       1.768932       1350.1136      13501.128      5.7906134    
  59528600   89632.285     -42.775242     -43864314       1.7210168      265840.93     -43598473       703.14333      703.14333      703.14333      2148.4283      2851.5717      2148.4283      2851.5717      2148.4283      2851.5717      3.4764148e+08  0.1            17157360       1.7843224      1299.5159      12995.192      5.7763723    
  59528800   89528.624     -43.499778     -43871908       1.7210168      265533.48     -43606374       703.14333      703.14333      703.14333      2148.4283      2851.5717      2148.4283      2851.5717      2148.4283      2851.5717      3.4764148e+08  0.1            17157380       1.7991087      1352.6047      13526.002      5.7601782    
  59529000   89320.577     -43.580552     -43870217       1.7210168      264916.43     -43605300       703.14333      703.14333      703.14333      2148.4283      2851.5717      2148.4283      2851.5717      2148.4283      2851.5717      3.4764148e+08  0.1            17157400       1.813904       1351.7768      13517.731      5.7440365    
  59529200   89084.149     -43.436392     -43870406       1.7210168      264215.21     -43606191       703.14333      703.14333      703.14333      2148.4283      2851.5717      2148.4283      2851.5717      2148.4283      2851.5717      3.4764148e+08  0.1            17157420       1.82883        1339.9481      13399.537      5.7283252    
  59529400   88896.795     -42.405208     -43861308       1.7210168      263659.54     -43597648       703.14333      703.14333      703.14333      2148.4283      2851.5717      2148.4283      2851.5717      2148.4283      2851.5717      3.4764148e+08  0.1            17157440       1.8435839      1355.5786      13555.779      5.7120939    
  59529600   88831.626     -42.113706     -43861473       1.7210168      263466.25     -43598006       703.14333      703.14333      703.14333      2148.4283      2851.5717      2148.4283      2851.5717      2148.4283      2851.5717      3.4764148e+08  0.1            17157460       1.8583601      1353.5267      13535.282      5.6959553    
  59529800   88949.548     -42.122977     -43861626       1.7210168      263816        -43597810       703.14333      703.14333      703.14333      2148.4283      2851.5717      2148.4283      2851.5717      2148.4283      2851.5717      3.4764148e+08  0.1            17157480       1.8734197      1328.062       13280.551      5.680698     
  59530000   89298.117     -42.177066     -43861768       1.7210168      264849.82     -43596918       703.14333      703.14333      703.14333      2148.4283      2851.5717      2148.4283      2851.5717      2148.4283      2851.5717      3.4764148e+08  0.1            17157500       1.8885329      1323.3314      13233.304      5.6656055    
  59530200   89908.396     -42.28689      -43861898       1.7210168      266659.85     -43595238       703.14333      703.14333      703.14333      2148.4283      2851.5717      2148.4283      2851.5717      2148.4283      2851.5717      3.4764148e+08  0.1            17157520       1.9033163      1352.8847      13528.923      5.6495319    
  59530400   90791.799     -42.376571     -43860120       1.7210168      269279.94     -43590840       703.14333      703.14333      703.14333      2148.4283      2851.5717      2148.4283      2851.5717      2148.4283      2851.5717      3.4764148e+08  0.1            17157540       1.9180436      1358.0187      13580.15       5.6333152    
  59530600   91938.653     -42.487107     -43862115       1.7210168      272681.4      -43589433       703.14333      703.14333      703.14333      2148.4283      2851.5717      2148.4283      2851.5717      2148.4283      2851.5717      3.4764148e+08  0.1            17157560       1.932813       1354.1501      13541.512      5.6172437    
  59530800   93318.66      -42.24851      -43869207       1.7210168      276774.37     -43592433       703.14333      703.14333      703.14333      2148.4283      2851.5717      2148.4283      2851.5717      2148.4283      2851.5717      3.4764148e+08  0.1            17157580       1.9475934      1353.1479      13531.497      5.6012237    
  59531000   94884.085     -42.035715     -43876656       1.7210168      281417.28     -43595239       703.14333      703.14333      703.14333      2148.4283      2851.5717      2148.4283      2851.5717      2148.4283      2851.5717      3.4764148e+08  0.1            17157600       1.9624073      1350.0764      13500.655      5.5853192    
  59531200   96570.599     -41.244076     -43876718       1.7210168      286419.32     -43590299       703.14333      703.14333      703.14333      2148.4283      2851.5717      2148.4283      2851.5717      2148.4283      2851.5717      3.4764148e+08  0.1            17157620       1.9775112      1324.1719      13241.836      5.5702468    
  59531400   98302.714     -39.614001     -43869391       1.7210168      291556.61     -43577834       703.14333      703.14333      703.14333      2148.4283      2851.5717      2148.4283      2851.5717      2148.4283      2851.5717      3.4764148e+08  0.1            17157640       1.9928644      1302.6498      13026.489      5.5558699    
  59531600   100001.29     -38.434266     -43869429       1.7210168      296594.42     -43572835       703.14333      703.14333      703.14333      2148.4283      2851.5717      2148.4283      2851.5717      2148.4283      2851.5717      3.4764148e+08  0.1            17157660       2.0076097      1356.3596      13563.604      5.5398009    
  59531800   101589.51     -37.446915     -43867559       1.7210168      301304.94     -43566254       703.14333      703.14333      703.14333      2148.4283      2851.5717      2148.4283      2851.5717      2148.4283      2851.5717      3.4764148e+08  0.1            17157680       2.0223274      1358.914       13589.011      5.5236763    
  59532000   102998.89     -36.700345     -43869462       1.7210168      305485.03     -43563976       703.14333      703.14333      703.14333      2148.4283      2851.5717      2148.4283      2851.5717      2148.4283      2851.5717      3.4764148e+08  0.1            17157700       2.0370953      1354.2814      13542.863      5.5077083    
  59532200   104174.43     -35.773573     -43869453       1.7210168      308971.57     -43560481       703.14333      703.14333      703.14333      2148.4283      2851.5717      2148.4283      2851.5717      2148.4283      2851.5717      3.4764148e+08  0.1            17157720       2.0518742      1353.2796      13532.88       5.4917867    
  59532400   105079.72     -35.045073     -43869429       1.7210168      311656.57     -43557772       703.14333      703.14333      703.14333      2148.4283      2851.5717      2148.4283      2851.5717      2148.4283      2851.5717      3.4764148e+08  0.1            17157740       2.0666118      1357.0698      13570.7        5.4757728    
  59532600   105700.01     -34.680345     -43869393       1.7210168      313496.31     -43555896       703.14333      703.14333      703.14333      2148.4283      2851.5717      2148.4283      2851.5717      2148.4283      2851.5717      3.4764148e+08  0.1            17157760       2.0816345      1331.3212      13313.204      5.4605252    
  59532800   106044.16     -34.474047     -43869346       1.7210168      314517        -43554829       703.14333      703.14333      703.14333      2148.4283      2851.5717      2148.4283      2851.5717      2148.4283      2851.5717      3.4764148e+08  0.1            17157780       2.0966064      1335.837       13358.318      5.445149     
  59533000   106142.59     -33.586756     -43861908       1.7210168      314808.94     -43547099       703.14333      703.14333      703.14333      2148.4283      2851.5717      2148.4283      2851.5717      2148.4283      2851.5717      3.4764148e+08  0.1            17157800       2.1113498      1356.5333      13565.331      5.4291912    
  59533200   106045.99     -32.813505     -43861828       1.7210168      314522.44     -43547306       703.14333      703.14333      703.14333      2148.4283      2851.5717      2148.4283      2851.5717      2148.4283      2851.5717      3.4764148e+08  0.1            17157820       2.1261348      1352.7319      13527.378      5.4133557    
  59533400   105823.97     -31.763407     -43857944       1.7210168      313863.94     -43544080       703.14333      703.14333      703.14333      2148.4283      2851.5717      2148.4283      2851.5717      2148.4283      2851.5717      3.4764148e+08  0.1            17157840       2.1408099      1362.8488      13628.474      5.3972586    
  59533600   105554.98     -31.469539     -43857835       1.7210168      313066.14     -43544769       703.14333      703.14333      703.14333      2148.4283      2851.5717      2148.4283      2851.5717      2148.4283      2851.5717      3.4764148e+08  0.1            17157860       2.155511       1360.442       13604.394      5.3812463    
  59533800   105319.22     -31.402352     -43857713       1.7210168      312366.91     -43545346       703.14333      703.14333      703.14333      2148.4283      2851.5717      2148.4283      2851.5717      2148.4283      2851.5717      3.4764148e+08  0.1            17157880       2.1701652      1364.8043      13648.06       5.3651356    
  59534000   105193.83     -30.499472     -43850202       1.7210168      311995        -43538207       703.14333      703.14333      703.14333      2148.4283      2851.5717      2148.4283      2851.5717      2148.4283      2851.5717      3.4764148e+08  0.1            17157900       2.1854567      1307.908       13078.981      5.3506065    
  59534200   105245.96     -29.734536     -43850061       1.7210168      312149.63     -43537911       703.14333      703.14333      703.14333      2148.4283      2851.5717      2148.4283      2851.5717      2148.4283      2851.5717      3.4764148e+08  0.1            17157920       2.2001981      1356.7242      13567.375      5.334732     
  59534400   105527.91     -29.019435     -43849908       1.7210168      312985.87     -43536922       703.14333      703.14333      703.14333      2148.4283      2851.5717      2148.4283      2851.5717      2148.4283      2851.5717      3.4764148e+08  0.1            17157940       2.2148765      1362.5524      13625.484      5.318722     
  59534600   106075.16     -28.288765     -43849742       1.7210168      314608.96     -43535133       703.14333      703.14333      703.14333      2148.4283      2851.5717      2148.4283      2851.5717      2148.4283      2851.5717      3.4764148e+08  0.1            17157960       2.2298482      1335.8483      13358.499      5.3034277    
  59534800   106903.44     -27.483305     -43849561       1.7210168      317065.55     -43532495       703.14333      703.14333      703.14333      2148.4283      2851.5717      2148.4283      2851.5717      2148.4283      2851.5717      3.4764148e+08  0.1            17157980       2.2445356      1361.7185      13617.18       5.2874679    
  59535000   108007.56     -26.360345     -43849363       1.7210168      320340.28     -43529023       703.14333      703.14333      703.14333      2148.4283      2851.5717      2148.4283      2851.5717      2148.4283      2851.5717      3.4764148e+08  0.1            17158000       2.2592387      1360.2527      13602.453      5.2715621    
  59535200   109362.3      -25.349706     -43856532       1.7210168      324358.31     -43532174       703.14333      703.14333      703.14333      2148.4283      2851.5717      2148.4283      2851.5717      2148.4283      2851.5717      3.4764148e+08  0.1            17158020       2.274277       1329.941       13299.474      5.2564464    
  59535400   110921.41     -24.20954      -43863694       1.7210168      328982.48     -43534712       703.14333      703.14333      703.14333      2148.4283      2851.5717      2148.4283      2851.5717      2148.4283      2851.5717      3.4764148e+08  0.1            17158040       2.2893041      1330.9292      13309.278      5.2413061    
  59535600   112619.27     -22.934543     -43863468       1.7210168      334018.17     -43529450       703.14333      703.14333      703.14333      2148.4283      2851.5717      2148.4283      2851.5717      2148.4283      2851.5717      3.4764148e+08  0.1            17158060       2.3040101      1359.9768      13599.814      5.2254398    
  59535800   114379.91     -21.358452     -43855853       1.7210168      339240.06     -43516613       703.14333      703.14333      703.14333      2148.4283      2851.5717      2148.4283      2851.5717      2148.4283      2851.5717      3.4764148e+08  0.1            17158080       2.3188676      1346.1199      13461.185      5.2099283    
  59536000   116121.99     -20.001195     -43853711       1.7210168      344406.92     -43509304       703.14333      703.14333      703.14333      2148.4283      2851.5717      2148.4283      2851.5717      2148.4283      2851.5717      3.4764148e+08  0.1            17158100       2.3338154      1337.9841      13379.772      5.1946269    
  59536200   117764.87     -19.205267     -43853080       1.7210168      349279.53     -43503800       703.14333      703.14333      703.14333      2148.4283      2851.5717      2148.4283      2851.5717      2148.4283      2851.5717      3.4764148e+08  0.1            17158120       2.3488868      1327.0057      13270.062      5.179602     
  59536400   119236.19     -18.503743     -43852802       1.7210168      353643.34     -43499159       703.14333      703.14333      703.14333      2148.4283      2851.5717      2148.4283      2851.5717      2148.4283      2851.5717      3.4764148e+08  0.1            17158140       2.3640559      1318.4792      13184.779      5.1647898    
  59536600   120478.97     -18.499693     -43867271       1.7210168      357329.29     -43509942       703.14333      703.14333      703.14333      2148.4283      2851.5717      2148.4283      2851.5717      2148.4283      2851.5717      3.4764148e+08  0.1            17158160       2.3795161      1293.6566      12936.587      5.1506031    
  59536800   121451.75     -18.146952     -43881734       1.7210168      360214.48     -43521519       703.14333      703.14333      703.14333      2148.4283      2851.5717      2148.4283      2851.5717      2148.4283      2851.5717      3.4764148e+08  0.1            17158180       2.395243       1271.6974      12716.909      5.136973     
  59537000   122132.06     -16.39658      -43874048       1.7210168      362232.21     -43511816       703.14333      703.14333      703.14333      2148.4283      2851.5717      2148.4283      2851.5717      2148.4283      2851.5717      3.4764148e+08  0.1            17158200       2.4106151      1301.0574      13010.558      5.1225626    
  59537200   122522.56     -15.01241      -43868242       1.7210168      363390.39     -43504852       703.14333      703.14333      703.14333      2148.4283      2851.5717      2148.4283      2851.5717      2148.4283      2851.5717      3.4764148e+08  0.1            17158220       2.426061       1294.8419      12948.523      5.1082948    
  59537400   122651.02     -14.19542      -43867904       1.7210168      363771.4      -43504132       703.14333      703.14333      703.14333      2148.4283      2851.5717      2148.4283      2851.5717      2148.4283      2851.5717      3.4764148e+08  0.1            17158240       2.4414104      1302.9832      13029.856      5.0938117    
  59537600   122567.45     -12.840376     -43865657       1.7210168      363523.55     -43502134       703.14333      703.14333      703.14333      2148.4283      2851.5717      2148.4283      2851.5717      2148.4283      2851.5717      3.4764148e+08  0.1            17158260       2.4569737      1285.0563      12850.501      5.0797607    
  59537800   122339.77     -11.683884     -43865296       1.7210168      362848.26     -43502447       703.14333      703.14333      703.14333      2148.4283      2851.5717      2148.4283      2851.5717      2148.4283      2851.5717      3.4764148e+08  0.1            17158280       2.472722       1269.9954      12699.94       5.0660696    
  59538000   122047.89     -10.76903      -43862297       1.7210168      361982.58     -43500315       703.14333      703.14333      703.14333      2148.4283      2851.5717      2148.4283      2851.5717      2148.4283      2851.5717      3.4764148e+08  0.1            17158300       2.4885538      1263.2918      12632.841      5.0525235    
  59538200   121773.81     -10.648874     -43863819       1.7210168      361169.67     -43502649       703.14333      703.14333      703.14333      2148.4283      2851.5717      2148.4283      2851.5717      2148.4283      2851.5717      3.4764148e+08  0.1            17158320       2.5040779      1288.3099      12883.218      5.0383308    
  59538400   121596.18     -9.9092949     -43863437       1.7210168      360642.84     -43502794       703.14333      703.14333      703.14333      2148.4283      2851.5717      2148.4283      2851.5717      2148.4283      2851.5717      3.4764148e+08  0.1            17158340       2.5194342      1302.3982      13023.999      5.0237865    
  59538600   121587.53     -8.5948448     -43863050       1.7210168      360617.2      -43502432       703.14333      703.14333      703.14333      2148.4283      2851.5717      2148.4283      2851.5717      2148.4283      2851.5717      3.4764148e+08  0.1            17158360       2.5348671      1295.9158      12959.17       5.0093852    
  59538800   121805.49     -7.0290819     -43866245       1.7210168      361263.64     -43504981       703.14333      703.14333      703.14333      2148.4283      2851.5717      2148.4283      2851.5717      2148.4283      2851.5717      3.4764148e+08  0.1            17158380       2.5504257      1285.4848      12854.832      4.9952168    
  59539000   122289.46     -5.2282235     -43865840       1.7210168      362699.04     -43503141       703.14333      703.14333      703.14333      2148.4283      2851.5717      2148.4283      2851.5717      2148.4283      2851.5717      3.4764148e+08  0.1            17158400       2.565881       1294.0423      12940.34       4.9808328    
  59539200   123060.95     -3.6048478     -43858046       1.7210168      364987.2      -43493059       703.14333      703.14333      703.14333      2148.4283      2851.5717      2148.4283      2851.5717      2148.4283      2851.5717      3.4764148e+08  0.1            17158420       2.5818082      1255.7263      12557.335      4.967343     
  59539400   124120.83     -2.5581498     -43855729       1.7210168      368130.72     -43487599       703.14333      703.14333      703.14333      2148.4283      2851.5717      2148.4283      2851.5717      2148.4283      2851.5717      3.4764148e+08  0.1            17158440       2.5975092      1273.7684      12737.693      4.9533947    
  59539600   125444.62     -1.6070241     -43855299       1.7210168      372056.96     -43483242       703.14333      703.14333      703.14333      2148.4283      2851.5717      2148.4283      2851.5717      2148.4283      2851.5717      3.4764148e+08  0.1            17158460       2.6129295      1297.0287      12970.201      4.9388942    
  59539800   126986.28     -0.73562811    -43862236       1.7210168      376629.36     -43485607       703.14333      703.14333      703.14333      2148.4283      2851.5717      2148.4283      2851.5717      2148.4283      2851.5717      3.4764148e+08  0.1            17158480       2.6282065      1309.1097      13091.171      4.9241162    
  59540000   128683.76      1.1184259     -43866901       1.7210168      381663.95     -43485238       703.14333      703.14333      703.14333      2148.4283      2851.5717      2148.4283      2851.5717      2148.4283      2851.5717      3.4764148e+08  0.1            17158500       2.6435391      1304.454       13044.447      4.9094344    
  59540200   130461.24      3.789295      -43851689       1.7210168      386935.79     -43464754       703.14333      703.14333      703.14333      2148.4283      2851.5717      2148.4283      2851.5717      2148.4283      2851.5717      3.4764148e+08  0.1            17158520       2.6591918      1277.7348      12777.325      4.8953348    
  59540400   132235.46      5.0029196     -43853118       1.7210168      392197.96     -43460920       703.14333      703.14333      703.14333      2148.4283      2851.5717      2148.4283      2851.5717      2148.4283      2851.5717      3.4764148e+08  0.1            17158540       2.6750028      1264.9415      12649.525      4.8815064    
  59540600   133924.52      5.9822691     -43852643       1.7210168      397207.54     -43455435       703.14333      703.14333      703.14333      2148.4283      2851.5717      2148.4283      2851.5717      2148.4283      2851.5717      3.4764148e+08  0.1            17158560       2.6910415      1246.9813      12469.742      4.8680682    
  59540800   135453.45      6.8486276     -43852160       1.7210168      401742.21     -43450418       703.14333      703.14333      703.14333      2148.4283      2851.5717      2148.4283      2851.5717      2148.4283      2851.5717      3.4764148e+08  0.1            17158580       2.7065588      1288.8873      12888.956      4.8536654    
  59541000   136758.52      8.209154      -43851671       1.7210168      405612.93     -43446058       703.14333      703.14333      703.14333      2148.4283      2851.5717      2148.4283      2851.5717      2148.4283      2851.5717      3.4764148e+08  0.1            17158600       2.7221071      1286.3051      12862.986      4.839306     
  59541200   137791.85      9.6577525     -43853062       1.7210168      408677.69     -43444384       703.14333      703.14333      703.14333      2148.4283      2851.5717      2148.4283      2851.5717      2148.4283      2851.5717      3.4764148e+08  0.1            17158620       2.7376708      1285.0241      12850.115      4.8249606    
  59541400   138528.18      10.962505     -43858028       1.7210168      410861.55     -43447167       703.14333      703.14333      703.14333      2148.4283      2851.5717      2148.4283      2851.5717      2148.4283      2851.5717      3.4764148e+08  0.1            17158640       2.7532025      1287.7169      12877.358      4.8105446    
  59541600   138968.16      12.366348     -43864882       1.7210168      412166.49     -43452716       703.14333      703.14333      703.14333      2148.4283      2851.5717      2148.4283      2851.5717      2148.4283      2851.5717      3.4764148e+08  0.1            17158660       2.7687671      1284.963       12849.578      4.7961744    
  59541800   139136.95      13.783092     -43864358       1.7210168      412667.12     -43451690       703.14333      703.14333      703.14333      2148.4283      2851.5717      2148.4283      2851.5717      2148.4283      2851.5717      3.4764148e+08  0.1            17158680       2.7848876      1240.6569      12406.612      4.7827457    
  59542000   139080.31      15.155312     -43860042       1.7210168      412499.13     -43447543       703.14333      703.14333      703.14333      2148.4283      2851.5717      2148.4283      2851.5717      2148.4283      2851.5717      3.4764148e+08  0.1            17158700       2.8008586      1252.2744      12522.693      4.7690336    
  59542200   138862.15      16.245994     -43861407       1.7210168      411852.09     -43449554       703.14333      703.14333      703.14333      2148.4283      2851.5717      2148.4283      2851.5717      2148.4283      2851.5717      3.4764148e+08  0.1            17158720       2.8168314      1252.1101      12521.165      4.7553002    
  59542400   138559.43      17.692669     -43860871       1.7210168      410954.24     -43449917       703.14333      703.14333      703.14333      2148.4283      2851.5717      2148.4283      2851.5717      2148.4283      2851.5717      3.4764148e+08  0.1            17158740       2.8327166      1259.0268      12590.242      4.7413962    
  59542600   138256.78      19.021963     -43867713       1.7210168      410056.62     -43457656       703.14333      703.14333      703.14333      2148.4283      2851.5717      2148.4283      2851.5717      2148.4283      2851.5717      3.4764148e+08  0.1            17158760       2.8488331      1240.9858      12409.812      4.7278545    
  59542800   138035.88      20.893345     -43865279       1.7210168      409401.44     -43455877       703.14333      703.14333      703.14333      2148.4283      2851.5717      2148.4283      2851.5717      2148.4283      2851.5717      3.4764148e+08  0.1            17158780       2.8646879      1261.4419      12614.495      4.7138554    
  59543000   137970.5       22.750795     -43864733       1.7210168      409207.52     -43455526       703.14333      703.14333      703.14333      2148.4283      2851.5717      2148.4283      2851.5717      2148.4283      2851.5717      3.4764148e+08  0.1            17158800       2.8807197      1247.5193      12475.121      4.7001257    
  59543200   138123.34      24.403859     -43862286       1.7210168      409660.85     -43452625       703.14333      703.14333      703.14333      2148.4283      2851.5717      2148.4283      2851.5717      2148.4283      2851.5717      3.4764148e+08  0.1            17158820       2.8968069      1243.2407      12432.468      4.6864607    
  59543400   138541.21      25.265996     -43861729       1.7210168      410900.21     -43450828       703.14333      703.14333      703.14333      2148.4283      2851.5717      2148.4283      2851.5717      2148.4283      2851.5717      3.4764148e+08  0.1            17158840       2.9127057      1257.9423      12579.144      4.6724697    
  59543600   139251.73      26.248394     -43863066       1.7210168      413007.55     -43450058       703.14333      703.14333      703.14333      2148.4283      2851.5717      2148.4283      2851.5717      2148.4283      2851.5717      3.4764148e+08  0.1            17158860       2.9284151      1273.0953      12731.185      4.6581569    
  59543800   140258.72      27.934572     -43855128       1.7210168      415994.17     -43439134       703.14333      703.14333      703.14333      2148.4283      2851.5717      2148.4283      2851.5717      2148.4283      2851.5717      3.4764148e+08  0.1            17158880       2.9439904      1284.0857      12840.912      4.6436179    
  59544000   141542.27      28.978061     -43856461       1.7210168      419801.07     -43436660       703.14333      703.14333      703.14333      2148.4283      2851.5717      2148.4283      2851.5717      2148.4283      2851.5717      3.4764148e+08  0.1            17158900       2.9593529      1301.8999      13018.943      4.6287352    
  59544200   143060.83      30.62138      -43852106       1.7210168      424304.97     -43427801       703.14333      703.14333      703.14333      2148.4283      2851.5717      2148.4283      2851.5717      2148.4283      2851.5717      3.4764148e+08  0.1            17158920       2.9751546      1265.6644      12656.671      4.6145296    
  59544400   144752.15      31.685905     -43858914       1.7210168      429321.27     -43429593       703.14333      703.14333      703.14333      2148.4283      2851.5717      2148.4283      2851.5717      2148.4283      2851.5717      3.4764148e+08  0.1            17158940       2.990903       1269.9883      12699.917      4.600225     
  59544600   146539.48      33.575368     -43857967       1.7210168      434622.32     -43423344       703.14333      703.14333      703.14333      2148.4283      2851.5717      2148.4283      2851.5717      2148.4283      2851.5717      3.4764148e+08  0.1            17158960       3.0064232      1288.6412      12886.338      4.5855584    
  59544800   148339.32      35.506561     -43857378       1.7210168      439960.47     -43417417       703.14333      703.14333      703.14333      2148.4283      2851.5717      2148.4283      2851.5717      2148.4283      2851.5717      3.4764148e+08  0.1            17158980       3.0220102      1283.1359      12831.396      4.5709836    
  59545000   150067.32      37.87707      -43849402       1.7210168      445085.56     -43404317       703.14333      703.14333      703.14333      2148.4283      2851.5717      2148.4283      2851.5717      2148.4283      2851.5717      3.4764148e+08  0.1            17159000       3.0373822      1301.0113      13010.056      4.5560778    
  59545200   151645.34      39.771494     -43856174       1.7210168      449765.81     -43406408       703.14333      703.14333      703.14333      2148.4283      2851.5717      2148.4283      2851.5717      2148.4283      2851.5717      3.4764148e+08  0.1            17159020       3.052813       1296.1414      12961.497      4.5412529    
  59545400   153007.27      42.568189     -43855563       1.7210168      453805.17     -43401758       703.14333      703.14333      703.14333      2148.4283      2851.5717      2148.4283      2851.5717      2148.4283      2851.5717      3.4764148e+08  0.1            17159040       3.0683228      1289.5261      12895.225      4.526539     
  59545600   154101.91      45.062628     -43856840       1.7210168      457051.76     -43399788       703.14333      703.14333      703.14333      2148.4283      2851.5717      2148.4283      2851.5717      2148.4283      2851.5717      3.4764148e+08  0.1            17159060       3.0839529      1279.5836      12795.836      4.5119936    
  59545800   154900.48      46.838402     -43856219       1.7210168      459420.27     -43396799       703.14333      703.14333      703.14333      2148.4283      2851.5717      2148.4283      2851.5717      2148.4283      2851.5717      3.4764148e+08  0.1            17159080       3.0997982      1262.1937      12621.97       4.4977499    
  59546000   155396.24      48.111351     -43855594       1.7210168      460890.64     -43394704       703.14333      703.14333      703.14333      2148.4283      2851.5717      2148.4283      2851.5717      2148.4283      2851.5717      3.4764148e+08  0.1            17159100       3.1153786      1283.6605      12836.612      4.4831092    
  59546200   155607.72      49.868366     -43832830       1.7210168      461517.88     -43371313       703.14333      703.14333      703.14333      2148.4283      2851.5717      2148.4283      2851.5717      2148.4283      2851.5717      3.4764148e+08  0.1            17159120       3.1311783      1265.8569      12658.58       4.4687725    
  59546400   155578.11      50.392629     -43839577       1.7210168      461430.05     -43378147       703.14333      703.14333      703.14333      2148.4283      2851.5717      2148.4283      2851.5717      2148.4283      2851.5717      3.4764148e+08  0.1            17159140       3.1466936      1289.0452      12890.343      4.4540191    
  59546600   155370.33      52.068647     -43838948       1.7210168      460813.78     -43378134       703.14333      703.14333      703.14333      2148.4283      2851.5717      2148.4283      2851.5717      2148.4283      2851.5717      3.4764148e+08  0.1            17159160       3.1622221      1287.9633      12879.581      4.4392767    
  59546800   155059.24      53.779531     -43836421       1.7210168      459891.13     -43376529       703.14333      703.14333      703.14333      2148.4283      2851.5717      2148.4283      2851.5717      2148.4283      2851.5717      3.4764148e+08  0.1            17159180       3.1780228      1265.7617      12657.47       4.4249064    
  59547000   154728.71      55.083846     -43835784       1.7210168      458910.8      -43376873       703.14333      703.14333      703.14333      2148.4283      2851.5717      2148.4283      2851.5717      2148.4283      2851.5717      3.4764148e+08  0.1            17159200       3.1938251      1265.6426      12656.66       4.4105238    
  59547200   154464.42      56.593832     -43835146       1.7210168      458126.95     -43377019       703.14333      703.14333      703.14333      2148.4283      2851.5717      2148.4283      2851.5717      2148.4283      2851.5717      3.4764148e+08  0.1            17159220       3.2094181      1282.6197      12826.244      4.3958414    
  59547400   154344.53      58.622047     -43819750       1.7210168      457771.38     -43361978       703.14333      703.14333      703.14333      2148.4283      2851.5717      2148.4283      2851.5717      2148.4283      2851.5717      3.4764148e+08  0.1            17159240       3.224779       1301.9839      13019.83       4.3808355    
  59547600   154436.17      59.769825     -43811728       1.7210168      458043.15     -43353684       703.14333      703.14333      703.14333      2148.4283      2851.5717      2148.4283      2851.5717      2148.4283      2851.5717      3.4764148e+08  0.1            17159260       3.240183       1298.3909      12983.93       4.3658835    
  59547800   154790.48      60.316975     -43811081       1.7210168      459094        -43351987       703.14333      703.14333      703.14333      2148.4283      2851.5717      2148.4283      2851.5717      2148.4283      2851.5717      3.4764148e+08  0.1            17159280       3.2556881      1289.8869      12898.864      4.3510631    
  59548000   155438.31      61.37263      -43803052       1.7210168      461015.43     -43342037       703.14333      703.14333      703.14333      2148.4283      2851.5717      2148.4283      2851.5717      2148.4283      2851.5717      3.4764148e+08  0.1            17159300       3.2710693      1300.3037      13003.015      4.3360717    
  59548200   156389.48      62.394967     -43802400       1.7210168      463836.49     -43338564       703.14333      703.14333      703.14333      2148.4283      2851.5717      2148.4283      2851.5717      2148.4283      2851.5717      3.4764148e+08  0.1            17159320       3.2871119      1246.6743      12466.759      4.3219465    
  59548400   157629.32      64.041919     -43802115       1.7210168      467513.76     -43334602       703.14333      703.14333      703.14333      2148.4283      2851.5717      2148.4283      2851.5717      2148.4283      2851.5717      3.4764148e+08  0.1            17159340       3.302827       1272.662       12726.586      4.3073766    
  59548600   159119.05      66.835733     -43794082       1.7210168      471932.14     -43322150       703.14333      703.14333      703.14333      2148.4283      2851.5717      2148.4283      2851.5717      2148.4283      2851.5717      3.4764148e+08  0.1            17159360       3.3184092      1283.5088      12834.996      4.2926244    
  59548800   160797.91      69.061262     -43800798       1.7210168      476911.49     -43323886       703.14333      703.14333      703.14333      2148.4283      2851.5717      2148.4283      2851.5717      2148.4283      2851.5717      3.4764148e+08  0.1            17159380       3.3339548      1286.5484      12865.626      4.2778171    
  59549000   162590.24      71.441843     -43800124       1.7210168      482227.37     -43317896       703.14333      703.14333      703.14333      2148.4283      2851.5717      2148.4283      2851.5717      2148.4283      2851.5717      3.4764148e+08  0.1            17159400       3.3496227      1276.4854      12764.798      4.2631594    
  59549200   164412.72      73.539125     -43799440       1.7210168      487632.66     -43311807       703.14333      703.14333      703.14333      2148.4283      2851.5717      2148.4283      2851.5717      2148.4283      2851.5717      3.4764148e+08  0.1            17159420       3.3656075      1251.1963      12511.985      4.2488922    
  59549400   166180.43      75.356936     -43806128       1.7210168      492875.55     -43313252       703.14333      703.14333      703.14333      2148.4283      2851.5717      2148.4283      2851.5717      2148.4283      2851.5717      3.4764148e+08  0.1            17159440       3.3815942      1251.0321      12510.215      4.2346123    
  59549600   167811.72      77.967495     -43799581       1.7210168      497713.78     -43301867       703.14333      703.14333      703.14333      2148.4283      2851.5717      2148.4283      2851.5717      2148.4283      2851.5717      3.4764148e+08  0.1            17159460       3.3977519      1237.7976      12377.942      4.2205297    
  59549800   169234.49      79.855295     -43800772       1.7210168      501933.6      -43298839       703.14333      703.14333      703.14333      2148.4283      2851.5717      2148.4283      2851.5717      2148.4283      2851.5717      3.4764148e+08  0.1            17159480       3.4136413      1258.6879      12587.061      4.2060969    
[...]
  60194400   305.59545     -3.0088195     -43676507       1.7214078      906.36738     -43675600       703.09009      703.09009      703.09009      2148.455       2851.545       2148.455       2851.545       2148.455       2851.545       3.4756251e+08  0.1            17223940       26.946558      1053.5713      10535.651      0.98698529   
  60194600   305.58249      4.6961877     -43678468       1.7216326      906.32895     -43677562       703.05949      703.05949      703.05949      2148.4703      2851.5297      2148.4703      2851.5297      2148.4703      2851.5297      3.4751713e+08  0.1            17223960       26.965294      1067.4415      10674.272      0.96836703   
  60194800   305.54604     -1.497294      -43676642       1.7214578      906.22083     -43675735       703.08327      703.08327      703.08327      2148.4584      2851.5416      2148.4584      2851.5416      2148.4584      2851.5416      3.4755241e+08  0.1            17223980       26.983866      1076.9355      10769.521      0.94974277   
  60195000   305.4841      -0.49886735    -43676709       1.7214898      906.03712     -43675803       703.07893      703.07893      703.07893      2148.4605      2851.5395      2148.4605      2851.5395      2148.4605      2851.5395      3.4754596e+08  0.1            17224000       27.002802      1056.1405      10561.353      0.93113122   
  60195200   305.54679      0.51715762    -43676776       1.7215223      906.22306     -43675870       703.0745       703.0745       703.0745       2148.4627      2851.5373      2148.4627      2851.5373      2148.4627      2851.5373      3.475394e+08   0.1            17224020       27.021902      1047.1419      10471.519      0.91252469   
  60195400   305.59436      1.2850951     -43676843       1.7215478      906.36416     -43675937       703.07102      703.07102      703.07102      2148.4645      2851.5355      2148.4645      2851.5355      2148.4645      2851.5355      3.4753424e+08  0.1            17224040       27.041516      1019.6612      10196.556      0.89393452   
  60195600   305.55694      1.8001863     -43676910       1.7215664      906.25315     -43676004       703.0685       703.0685       703.0685       2148.4657      2851.5343      2148.4657      2851.5343      2148.4657      2851.5343      3.475305e+08   0.1            17224060       27.06149       1001.3138      10013.204      0.87535455   
  60195800   305.54228      2.0863973     -43676978       1.7215785      906.20968     -43676071       703.06685      703.06685      703.06685      2148.4666      2851.5334      2148.4666      2851.5334      2148.4666      2851.5334      3.4752805e+08  0.1            17224080       27.080818      1034.7694      10347.655      0.85675224   
  60196000   305.47702      2.165303      -43677045       1.7215849      906.01613     -43676139       703.06598      703.06598      703.06598      2148.467       2851.533       2148.467       2851.533       2148.467       2851.533       3.4752676e+08  0.1            17224100       27.099844      1051.2163      10512.123      0.83813958   
  60196200   305.53675      2.039814      -43677112       1.7215855      906.19328     -43676205       703.06589      703.06589      703.06589      2148.4671      2851.5329      2148.4671      2851.5329      2148.4671      2851.5329      3.4752663e+08  0.1            17224120       27.118959      1046.2632      10462.648      0.81952907   
  60196400   305.5811       1.6865013     -43677179       1.7215798      906.32481     -43676272       703.06667      703.06667      703.06667      2148.4667      2851.5333      2148.4667      2851.5333      2148.4667      2851.5333      3.4752778e+08  0.1            17224140       27.138413      1028.0555      10280.574      0.80092786   
  60196600   305.53946      1.0526722     -43677246       1.7215662      906.20132     -43676339       703.06852      703.06852      703.06852      2148.4657      2851.5343      2148.4657      2851.5343      2148.4657      2851.5343      3.4753052e+08  0.1            17224160       27.157579      1043.5413      10435.21       0.78231718   
  60196800   305.52113      0.060254693   -43677313       1.7215426      906.14694     -43676406       703.07174      703.07174      703.07174      2148.4641      2851.5359      2148.4641      2851.5359      2148.4641      2851.5359      3.475353e+08   0.1            17224180       27.176066      1081.8309      10818.511      0.76368665   
  60197000   305.45161     -1.3787909     -43677379       1.7215063      905.94076     -43676473       703.07668      703.07668      703.07668      2148.4617      2851.5383      2148.4617      2851.5383      2148.4617      2851.5383      3.4754263e+08  0.1            17224200       27.194918      1060.8746      10608.721      0.74506634   
  60197200   305.50569     -3.2316781     -43677446       1.7214583      906.10116     -43676540       703.08321      703.08321      703.08321      2148.4584      2851.5416      2148.4584      2851.5416      2148.4584      2851.5416      3.4755231e+08  0.1            17224220       27.214232      1035.5659      10355.664      0.72645801   
  60197400   305.54612     -4.8656426     -43677512       1.7214165      906.22106     -43676606       703.0889       703.0889       703.0889       2148.4555      2851.5445      2148.4555      2851.5445      2148.4555      2851.5445      3.4756075e+08  0.1            17224240       27.233307      1048.4942      10484.943      0.70784252   
  60197600   305.5085      -4.4261653     -43677579       1.7214334      906.10948     -43676673       703.08661      703.08661      703.08661      2148.4567      2851.5433      2148.4567      2851.5433      2148.4567      2851.5433      3.4755735e+08  0.1            17224260       27.252812      1025.3367      10253.335      0.6892373    
  60197800   305.50961      0.17425824    -43677647       1.721568       906.11278     -43676741       703.06828      703.06828      703.06828      2148.4659      2851.5341      2148.4659      2851.5341      2148.4659      2851.5341      3.4753017e+08  0.1            17224280       27.271502      1070.0973      10701.018      0.67061078   
  60198000   305.46999      7.522672      -43677711       1.7217807      905.99528     -43676805       703.03933      703.03933      703.03933      2148.4803      2851.5197      2148.4803      2851.5197      2148.4803      2851.5197      3.4748724e+08  0.1            17224300       27.290456      1055.1933      10551.91       0.65199049   
  60198200   305.54173      10.908447     -43677775       1.7218814      906.20806     -43676869       703.02563      703.02563      703.02563      2148.4872      2851.5128      2148.4872      2851.5128      2148.4872      2851.5128      3.4746692e+08  0.1            17224320       27.309646      1042.2303      10422.247      0.63337521   
  60198400   305.56812      5.0220384     -43677846       1.7217191      906.28632     -43676940       703.0477       703.0477       703.0477       2148.4761      2851.5239      2148.4761      2851.5239      2148.4761      2851.5239      3.4749966e+08  0.1            17224340       27.328735      1047.6798      10476.861      0.6147569    
  60198600   305.49648     -4.6865748     -43677912       1.7214484      906.07386     -43677006       703.08456      703.08456      703.08456      2148.4577      2851.5423      2148.4577      2851.5423      2148.4577      2851.5423      3.4755431e+08  0.1            17224360       27.348228      1026.0534      10260.559      0.59614672   
  60198800   305.47645     -6.5217425     -43677978       1.7214009      906.01444     -43677072       703.09103      703.09103      703.09103      2148.4545      2851.5455      2148.4545      2851.5455      2148.4545      2851.5455      3.4756391e+08  0.1            17224380       27.367356      1045.5287      10455.294      0.57752767   
  60199000   305.4378       1.0065496     -43678047       1.7216191      905.8998      -43677141       703.06132      703.06132      703.06132      2148.4693      2851.5307      2148.4693      2851.5307      2148.4693      2851.5307      3.4751985e+08  0.1            17224400       27.386529      1043.1388      10431.205      0.55890884   
  60199200   305.51709      6.5780599     -43678112       1.721782       906.13498     -43677205       703.03915      703.03915      703.03915      2148.4804      2851.5196      2148.4804      2851.5196      2148.4804      2851.5196      3.4748697e+08  0.1            17224420       27.405732      1041.5479      10415.629      0.54028981   
  60199400   305.55112      2.8833215     -43678180       1.7216817      906.2359      -43677273       703.05281      703.05281      703.05281      2148.4736      2851.5264      2148.4736      2851.5264      2148.4736      2851.5264      3.4750722e+08  0.1            17224440       27.424823      1047.5948      10475.986      0.52166789   
  60199600   305.49266     -2.8823304     -43678246       1.7215223      906.06253     -43677340       703.0745       703.0745       703.0745       2148.4628      2851.5372      2148.4628      2851.5372      2148.4628      2851.5372      3.4753939e+08  0.1            17224460       27.444132      1035.787       10357.805      0.50304932   
  60199800   305.48547     -0.96237454    -43678313       1.7215814      906.04119     -43677407       703.06645      703.06645      703.06645      2148.4668      2851.5332      2148.4668      2851.5332      2148.4668      2851.5332      3.4752746e+08  0.1            17224480       27.463432      1036.2779      10362.834      0.48442965   
  60200000   305.43918      4.3004453     -43678379       1.7217356      905.90389     -43677473       703.04546      703.04546      703.04546      2148.4773      2851.5227      2148.4773      2851.5227      2148.4773      2851.5227      3.4749633e+08  0.1            17224500       27.484385      954.4917       9544.8783      0.4658371    
  60200200   305.4933       2.3525397     -43678446       1.7216847      906.0644      -43677540       703.05239      703.05239      703.05239      2148.4738      2851.5262      2148.4738      2851.5262      2148.4738      2851.5262      3.4750661e+08  0.1            17224520       27.503478      1047.5544      10475.567      0.44721107   
  60200400   305.52435     -2.3241873     -43678512       1.721556       906.15649     -43677606       703.06992      703.06992      703.06992      2148.465       2851.535       2148.465       2851.535       2148.465       2851.535       3.475326e+08   0.1            17224540       27.522509      1050.9105      10509.118      0.42858346   
  60200600   305.49588      0.85204779    -43678579       1.7216508      906.07208     -43677673       703.05701      703.05701      703.05701      2148.4715      2851.5285      2148.4715      2851.5285      2148.4715      2851.5285      3.4751346e+08  0.1            17224560       27.541964      1028.0151      10280.153      0.40996161   
  60200800   305.49375      4.2577158     -43678645       1.7217521      906.06575     -43677739       703.04322      703.04322      703.04322      2148.4784      2851.5216      2148.4784      2851.5216      2148.4784      2851.5216      3.47493e+08    0.1            17224580       27.561184      1040.5451      10405.453      0.39133532   
  60201000   305.41318     -0.61419128    -43678712       1.7216176      905.82679     -43677806       703.06153      703.06153      703.06153      2148.4692      2851.5308      2148.4692      2851.5308      2148.4692      2851.5308      3.4752016e+08  0.1            17224600       27.580207      1051.4122      10514.1        0.37270553   
  60201200   305.47208     -1.2388541     -43678778       1.721604       906.00148     -43677872       703.06338      703.06338      703.06338      2148.4683      2851.5317      2148.4683      2851.5317      2148.4683      2851.5317      3.4752291e+08  0.1            17224620       27.599459      1038.8513      10388.472      0.35407817   
  60201400   305.53768      4.2526784     -43678844       1.7217647      906.19602     -43677937       703.0415       703.0415       703.0415       2148.4792      2851.5208      2148.4792      2851.5208      2148.4792      2851.5208      3.4749046e+08  0.1            17224640       27.618744      1037.0302      10370.379      0.33545037   
  60201600   305.48629      0.74237319    -43678911       1.7216687      906.04362     -43678005       703.05457      703.05457      703.05457      2148.4727      2851.5273      2148.4727      2851.5273      2148.4727      2851.5273      3.4750984e+08  0.1            17224660       27.638567      1008.9542      10089.522      0.31682784   
  60201800   305.46278     -2.2520439     -43678977       1.7215874      905.9739      -43678071       703.06564      703.06564      703.06564      2148.4672      2851.5328      2148.4672      2851.5328      2148.4672      2851.5328      3.4752626e+08  0.1            17224680       27.658759      990.49158      9904.8932      0.29820767   
  60202000   305.42089      4.3708526     -43679043       1.7217803      905.84964     -43678137       703.03938      703.03938      703.03938      2148.4803      2851.5197      2148.4803      2851.5197      2148.4803      2851.5197      3.4748732e+08  0.1            17224700       27.678761      999.90551      9999.0666      0.27958347   
  60202200   305.4715       1.275147      -43679110       1.7216959      905.99976     -43678204       703.05086      703.05086      703.05086      2148.4746      2851.5254      2148.4746      2851.5254      2148.4746      2851.5254      3.4750434e+08  0.1            17224720       27.69842       1017.35        10173.428      0.26095419   
  60202400   305.50301     -3.4422113     -43679175       1.7215652      906.0932      -43678269       703.06866      703.06866      703.06866      2148.4657      2851.5343      2148.4657      2851.5343      2148.4657      2851.5343      3.4753073e+08  0.1            17224740       27.717971      1022.9235      10229.292      0.24232258   
  60202600   305.49815      6.2314474     -43679241       1.7218452      906.0788      -43678334       703.03055      703.03055      703.03055      2148.4847      2851.5153      2148.4847      2851.5153      2148.4847      2851.5153      3.4747423e+08  0.1            17224760       27.737884      1004.3509      10043.487      0.22369264   
  60202800   305.45932     -1.971536      -43678940       1.7216115      905.96363     -43678034       703.06235      703.06235      703.06235      2148.4688      2851.5312      2148.4688      2851.5312      2148.4688      2851.5312      3.4752138e+08  0.1            17224780       27.757527      1018.2335      10182.382      0.20505898   
  60203000   305.41637      4.7258402     -43679005       1.7218065      905.83625     -43678099       703.03582      703.03582      703.03582      2148.4821      2851.5179      2148.4821      2851.5179      2148.4821      2851.5179      3.4748204e+08  0.1            17224800       27.776873      1033.8082      10338.011      0.18642198   
  60203200   305.43008     -9.6123496     -43679068       1.7214009      905.87689     -43678162       703.09102      703.09102      703.09102      2148.4545      2851.5455      2148.4545      2851.5455      2148.4545      2851.5455      3.475639e+08   0.1            17224820       27.795952      1048.2478      10482.573      0.16778243   
  60203400   305.54595      10.424195     -43679134       1.7219767      906.22056     -43678228       703.01265      703.01265      703.01265      2148.4937      2851.5063      2148.4937      2851.5063      2148.4937      2851.5063      3.4744769e+08  0.1            17224840       27.815223      1037.8093      10378.065      0.14914331   
  60203600   305.46794     -0.63491374    -43679205       1.7216646      905.9892      -43678299       703.05513      703.05513      703.05513      2148.4724      2851.5276      2148.4724      2851.5276      2148.4724      2851.5276      3.4751067e+08  0.1            17224860       27.834416      1042.0653      10420.633      0.13050297   
  60203800   305.44633     -3.18132       -43679270       1.7215956      905.92509     -43678364       703.06452      703.06452      703.06452      2148.4677      2851.5323      2148.4677      2851.5323      2148.4677      2851.5323      3.475246e+08   0.1            17224880       27.853887      1027.1412      10271.408      0.11186301   
  60204000   305.42194      9.0231762     -43679334       1.7219477      905.85276     -43678428       703.01659      703.01659      703.01659      2148.4917      2851.5083      2148.4917      2851.5083      2148.4917      2851.5083      3.4745353e+08  0.1            17224900       27.872949      1049.2469      10492.463      0.093220575  
  60204200   305.43653     -5.0103197     -43679402       1.7215507      905.89603     -43678496       703.07063      703.07063      703.07063      2148.4647      2851.5353      2148.4647      2851.5353      2148.4647      2851.5353      3.4753366e+08  0.1            17224920       27.891864      1057.3496      10573.479      0.074577185  
  60204400   305.50596      1.1256241     -43679469       1.7217295      906.10195     -43678563       703.04629      703.04629      703.04629      2148.4769      2851.5231      2148.4769      2851.5231      2148.4769      2851.5231      3.4749756e+08  0.1            17224940       27.91097       1046.7987      10468.035      0.055933814  
  60204600   305.47368      3.5514299     -43679535       1.7218025      906.00622     -43678629       703.03636      703.03636      703.03636      2148.4818      2851.5182      2148.4818      2851.5182      2148.4818      2851.5182      3.4748284e+08  0.1            17224960       27.930053      1048.0804      10480.708      0.037289794  
  60204800   305.45337      1.4043773     -43679601       1.7217449      905.946       -43678695       703.04421      703.04421      703.04421      2148.4779      2851.5221      2148.4779      2851.5221      2148.4779      2851.5221      3.4749447e+08  0.1            17224980       27.94949       1028.9353      10289.484      0.018645426  
  60205000   305.37072     -3.5744149     -43677772       1.7216018      905.70086     -43676866       703.06368      703.06368      703.06368      2148.4682      2851.5318      2148.4682      2851.5318      2148.4682      2851.5318      3.4752335e+08  0.1            17225000       27.968584      1047.4633      10474.609      0            
Loop time of 27.9687 on 4 procs for 300000 steps with 996 atoms

Performance: 92.675 ns/day, 0.259 hours/ns, 10726.294 timesteps/s
99.5% CPU use with 4 MPI tasks x 1 OpenMP threads

MPI task timing breakdown:
Section |  min time  |  avg time  |  max time  |%varavg| %total
---------------------------------------------------------------
Pair    | 11.093     | 12.657     | 14.629     |  36.1 | 45.25
Neigh   | 0.0069432  | 0.0076163  | 0.0087579  |   0.8 |  0.03
Comm    | 6.5098     | 8.3711     | 9.9116     |  42.3 | 29.93
Output  | 0.080294   | 0.090145   | 0.11707    |   5.2 |  0.32
Modify  | 5.5762     | 5.6835     | 5.8763     |   4.9 | 20.32
Other   |            | 1.159      |            |       |  4.15

Nlocal:            249 ave         288 max         224 min
Histogram: 2 0 0 0 0 1 0 0 0 1
Nghost:          677.5 ave         684 max         670 min
Histogram: 1 0 0 1 0 0 0 1 0 1
Neighs:         1679.5 ave        1937 max        1517 min
Histogram: 2 0 0 0 0 1 0 0 0 1

Total # of neighbors = 6718
Ave neighs/atom = 6.7449799
Neighbor list builds = 39
Dangerous builds = 9

# run_style
run_style verlet

# write restart
write_restart ${write_res}
write_restart ./pgnpmf/37/equpmf86.res
System init for write_restart ...
Generated 0 of 1 mixed pair_coeff terms from geometric mixing rule

Total wall time: 0:00:59
