LAMMPS (23 Jun 2022 - Update 1)
OMP_NUM_THREADS environment is not set. Defaulting to 1 thread. (src/comm.cpp:98)
  using 1 OpenMP thread(s) per MPI task
# Read restart
read_restart ${read_res}
read_restart ./pgnpmf/37/equpmf54.res
Reading restart file ...
  restart file = 23 Jun 2022, LAMMPS = 23 Jun 2022
  restoring atom style atomic from restart
  orthogonal box = (2125.9038 2125.9038 2125.9038) to (2874.0962 2874.0962 2874.0962)
  1 by 2 by 2 MPI processor grid
  restoring pair style table from restart
  996 atoms
  read_restart CPU = 0.007 seconds

# Settings

pair_style table spline 9941

pair_coeff 1 1 ./pgnpmf/N20.txt DE_GNP 75.6
pair_coeff 2 2 ./pgnpmf/N100.txt DE_GNP 115.92
WARNING: 3 of 9941 force values in table DE_GNP are inconsistent with -dE/dr.
WARNING:  Should only be flagged at inflection points (src/pair_table.cpp:463)
pair_coeff 1 2 ./pgnpmf/mixed_potential.txt DE_GNP 95.66
WARNING: 1562 of 9941 force values in table DE_GNP are inconsistent with -dE/dr.
WARNING:  Should only be flagged at inflection points (src/pair_table.cpp:463)

#Neigh_list Calc Frequency

neigh_modify delay 0 every 1 check yes

# Saving Frequency (50 frames)

variable ts_save equal ${steps_equ}
variable ts_save equal 5000

# Dump
#dump 1 all custom ${ts_save} ./pgnpmf/${folder}/equilibration/trajectory/trajectory_${usic}_${trial}.equ.custom type x y z ix iy iz
#dump_modify 1 first no sort id
dump 2 all cfg 50000 ./pgnpmf/${folder}/equilibration/trajectory/dumpgen.tens_*.cfg mass type xs ys zs fx fy fz
dump 2 all cfg 50000 ./pgnpmf/37/equilibration/trajectory/dumpgen.tens_*.cfg mass type xs ys zs fx fy fz
dump_modify 2 element N20 N100

# thermo_style
thermo_style custom step temp press pe density ke etotal lx ly lz xlo xhi ylo yhi zlo zhi vol dt time cpu tpcpu spcpu cpuremain

# run info
timestep ${ts}
timestep 0.1
thermo 200

# fix

fix 1 all momentum 1000 linear 1 1 1 angular
variable T equal ${temp}
variable T equal 300
fix 2 all nvt temp ${T} 370000 100.0
fix 2 all nvt temp 300 370000 100.0

run 100000
Generated 0 of 1 mixed pair_coeff terms from geometric mixing rule
Unused restart file global fix info:
  fix style: npt, fix ID: 5
Neighbor list info ...
  update every 1 steps, delay 0 steps, check yes
  max neighbors/atom: 2000, page size: 100000
  master list distance cutoff = 117.92
  ghost atom cutoff = 117.92
  binsize = 58.96, bins = 13 13 13
  1 neighbor lists, perpetual/occasional/extra = 1 0 0
  (1) pair table, perpetual
      attributes: half, newton on
      pair build: half/bin/atomonly/newton
      stencil: half/bin/3d
      bin: standard
Per MPI rank memory allocation (min/avg/max) = 3.077 | 3.079 | 3.081 Mbytes
   Step          Temp          Press          PotEng        Density         KinEng         TotEng           Lx             Ly             Lz            Xlo            Xhi            Ylo            Yhi            Zlo            Zhi           Volume           Dt            Time           CPU           T/CPU          S/CPU         CPULeft    
  37805000   306.45502      19.600225     -41097881       1.4284889      908.91678     -41096972       748.19237      748.19237      748.19237      2125.9038      2874.0962      2125.9038      2874.0962      2125.9038      2874.0962      4.1883197e+08  0.1            14985000       0              0              0              0            
  37805200   338.81052      19.450483     -41097963       1.4284889      1004.8802     -41096958       748.19237      748.19237      748.19237      2125.9038      2874.0962      2125.9038      2874.0962      2125.9038      2874.0962      4.1883197e+08  0.1            14985020       0.014030292    1425.3974      14253.054      7.0024131    
  37805400   385.51102      19.293157     -41098050       1.4284889      1143.3895     -41096906       748.19237      748.19237      748.19237      2125.9038      2874.0962      2125.9038      2874.0962      2125.9038      2874.0962      4.1883197e+08  0.1            14985040       0.027361328    1500.2911      15003.011      6.8135108    
  37805600   436.40655      19.123273     -41098142       1.4284889      1294.3408     -41096848       748.19237      748.19237      748.19237      2125.9038      2874.0962      2125.9038      2874.0962      2125.9038      2874.0962      4.1883197e+08  0.1            14985060       0.040617588    1508.7215      15087.238      6.729345     
  37805800   497.86273      18.941791     -41098240       1.4284889      1476.6141     -41096764       748.19237      748.19237      748.19237      2125.9038      2874.0962      2125.9038      2874.0962      2125.9038      2874.0962      4.1883197e+08  0.1            14985080       0.053966444    1498.252       14982.528      6.6921279    
  37806000   569.47736      18.746684     -41098346       1.4284889      1689.0163     -41096656       748.19237      748.19237      748.19237      2125.9038      2874.0962      2125.9038      2874.0962      2125.9038      2874.0962      4.1883197e+08  0.1            14985100       0.067461871    1481.9835      14819.603      6.678978     
  37806200   651.94049      18.535505     -41098458       1.4284889      1933.5942     -41096524       748.19237      748.19237      748.19237      2125.9038      2874.0962      2125.9038      2874.0962      2125.9038      2874.0962      4.1883197e+08  0.1            14985120       0.081108062    1465.6089      14656.38       6.6780846    
  37806400   746.35143      18.30799      -41098578       1.4284889      2213.6082     -41096364       748.19237      748.19237      748.19237      2125.9038      2874.0962      2125.9038      2874.0962      2125.9038      2874.0962      4.1883197e+08  0.1            14985140       0.094440034    1500.1605      15001.567      6.6514306    
  37806600   854.0487       18.062596     -41098706       1.4284889      2533.0281     -41096173       748.19237      748.19237      748.19237      2125.9038      2874.0962      2125.9038      2874.0962      2125.9038      2874.0962      4.1883197e+08  0.1            14985160       0.10775602     1501.9507      15019.448      6.627134     
  37806800   976.58702      17.797712     -41098843       1.4284889      2896.4653     -41095947       748.19237      748.19237      748.19237      2125.9038      2874.0962      2125.9038      2874.0962      2125.9038      2874.0962      4.1883197e+08  0.1            14985180       0.12107107     1502.0604      15020.677      6.6052162    
  37807000   1115.4515      17.511721     -41098990       1.4284889      3308.3242     -41095682       748.19237      748.19237      748.19237      2125.9038      2874.0962      2125.9038      2874.0962      2125.9038      2874.0962      4.1883197e+08  0.1            14985200       0.13443792     1496.2359      14962.318      6.58757      
  37807200   1273.0454      17.202723     -41099147       1.4284889      3775.7329     -41095371       748.19237      748.19237      748.19237      2125.9038      2874.0962      2125.9038      2874.0962      2125.9038      2874.0962      4.1883197e+08  0.1            14985220       0.14789821     1485.8678      14858.675      6.5748408    
  37807400   1451.4157      16.870637     -41099313       1.4284889      4304.7627     -41095009       748.19237      748.19237      748.19237      2125.9038      2874.0962      2125.9038      2874.0962      2125.9038      2874.0962      4.1883197e+08  0.1            14985240       0.16122655     1500.5612      15005.644      6.5566275    
  37807600   1653.0157      16.514895     -41099492       1.4284889      4902.689      -41094589       748.19237      748.19237      748.19237      2125.9038      2874.0962      2125.9038      2874.0962      2125.9038      2874.0962      4.1883197e+08  0.1            14985260       0.17517389     1433.9624      14339.594      6.5623631    
  37807800   1880.5597      16.135443     -41099682       1.4284889      5577.5632     -41094104       748.19237      748.19237      748.19237      2125.9038      2874.0962      2125.9038      2874.0962      2125.9038      2874.0962      4.1883197e+08  0.1            14985280       0.18850447     1500.3086      15003.181      6.5438681    
  37808000   2136.7555      15.732688     -41099884       1.4284889      6337.4159     -41093547       748.19237      748.19237      748.19237      2125.9038      2874.0962      2125.9038      2874.0962      2125.9038      2874.0962      4.1883197e+08  0.1            14985300       0.20184843     1498.8114      14988.021      6.5264979    
  37808200   2425.3158      15.308003     -41100099       1.4284889      7193.2586     -41092906       748.19237      748.19237      748.19237      2125.9038      2874.0962      2125.9038      2874.0962      2125.9038      2874.0962      4.1883197e+08  0.1            14985320       0.21610048     1403.3028      14033.046      6.537101     
  37808400   2749.6566      14.864458     -41100328       1.4284889      8155.223      -41092173       748.19237      748.19237      748.19237      2125.9038      2874.0962      2125.9038      2874.0962      2125.9038      2874.0962      4.1883197e+08  0.1            14985340       0.22953019     1489.2363      14892.343      6.521417     
  37808600   3113.664       14.405933     -41100572       1.4284889      9234.8346     -41091337       748.19237      748.19237      748.19237      2125.9038      2874.0962      2125.9038      2874.0962      2125.9038      2874.0962      4.1883197e+08  0.1            14985360       0.24283875     1502.7975      15027.969      6.5027365    
  37808800   3521.5314      13.935585     -41100831       1.4284889      10444.531     -41090386       748.19237      748.19237      748.19237      2125.9038      2874.0962      2125.9038      2874.0962      2125.9038      2874.0962      4.1883197e+08  0.1            14985380       0.25617446     1499.7314      14997.34       6.4853096    
  37809000   3977.4679      13.456467     -41101106       1.4284889      11796.796     -41089309       748.19237      748.19237      748.19237      2125.9038      2874.0962      2125.9038      2874.0962      2125.9038      2874.0962      4.1883197e+08  0.1            14985400       0.2696657      1482.4414      14824.378      6.4720261    
  37809200   4486.6894      12.97458      -41101397       1.4284889      13307.099     -41088090       748.19237      748.19237      748.19237      2125.9038      2874.0962      2125.9038      2874.0962      2125.9038      2874.0962      4.1883197e+08  0.1            14985420       0.28339323     1456.9232      14569.25       6.4641136    
  37809400   5054.0617      12.49849      -41101706       1.4284889      14989.872     -41086716       748.19237      748.19237      748.19237      2125.9038      2874.0962      2125.9038      2874.0962      2125.9038      2874.0962      4.1883197e+08  0.1            14985440       0.29675346     1496.9823      14969.826      6.4476881    
  37809600   5684.819       12.040309     -41102033       1.4284889      16860.639     -41085173       748.19237      748.19237      748.19237      2125.9038      2874.0962      2125.9038      2874.0962      2125.9038      2874.0962      4.1883197e+08  0.1            14985460       0.31010261     1498.2214      14982.232      6.4313014    
  37809800   6384.331       11.61206      -41102379       1.4284889      18935.326     -41083444       748.19237      748.19237      748.19237      2125.9038      2874.0962      2125.9038      2874.0962      2125.9038      2874.0962      4.1883197e+08  0.1            14985480       0.32344761     1498.6926      14986.893      6.4150861    
  37810000   7157.7157      11.223795     -41102745       1.4284889      21229.112     -41081516       748.19237      748.19237      748.19237      2125.9038      2874.0962      2125.9038      2874.0962      2125.9038      2874.0962      4.1883197e+08  0.1            14985500       0.33689209     1487.5874      14875.787      6.4009939    
  37810200   8010.7239      10.880086     -41103132       1.4284889      23759.054     -41079372       748.19237      748.19237      748.19237      2125.9038      2874.0962      2125.9038      2874.0962      2125.9038      2874.0962      4.1883197e+08  0.1            14985520       0.35031127     1490.4133      14904.246      6.3864818    
  37810400   8948.2448      10.576195     -41103539       1.4284889      26539.653     -41076999       748.19237      748.19237      748.19237      2125.9038      2874.0962      2125.9038      2874.0962      2125.9038      2874.0962      4.1883197e+08  0.1            14985540       0.36365707     1498.5962      14985.949      6.3707696    
  37810600   9974.8853      10.29389      -41103968       1.4284889      29584.572     -41074383       748.19237      748.19237      748.19237      2125.9038      2874.0962      2125.9038      2874.0962      2125.9038      2874.0962      4.1883197e+08  0.1            14985560       0.37746672     1448.2579      14482.569      6.3630467    
  37810800   11094.601      9.6835254     -41111797       1.4284889      32905.543     -41078892       748.19237      748.19237      748.19237      2125.9038      2874.0962      2125.9038      2874.0962      2125.9038      2874.0962      4.1883197e+08  0.1            14985580       0.39081804     1497.9779      14979.803      6.3474589    
  37811000   12310.105      9.370942      -41112272       1.4284889      36510.615     -41075762       748.19237      748.19237      748.19237      2125.9038      2874.0962      2125.9038      2874.0962      2125.9038      2874.0962      4.1883197e+08  0.1            14985600       0.40421077     1493.3497      14933.402      6.3326727    
  37811200   13623.428      9.0296682     -41112770       1.4284889      40405.806     -41072365       748.19237      748.19237      748.19237      2125.9038      2874.0962      2125.9038      2874.0962      2125.9038      2874.0962      4.1883197e+08  0.1            14985620       0.4177515      1477.0309      14770.449      6.3202076    
  37811400   15034.314      8.9858088     -41105915       1.4284889      44590.362     -41061324       748.19237      748.19237      748.19237      2125.9038      2874.0962      2125.9038      2874.0962      2125.9038      2874.0962      4.1883197e+08  0.1            14985640       0.43111022     1497.1446      14971.415      6.3050187    
  37811600   16540.532      8.6000614     -41106461       1.4284889      49057.664     -41057404       748.19237      748.19237      748.19237      2125.9038      2874.0962      2125.9038      2874.0962      2125.9038      2874.0962      4.1883197e+08  0.1            14985660       0.44445059     1499.215       14992.053      6.2896783    
  37811800   18137.132      8.0675417     -41108927       1.4284889      53793.03      -41055134       748.19237      748.19237      748.19237      2125.9038      2874.0962      2125.9038      2874.0962      2125.9038      2874.0962      4.1883197e+08  0.1            14985680       0.45771734     1507.5277      15075.345      6.2734483    
  37812000   19815.781      7.6699459     -41109523       1.4284889      58771.745     -41050751       748.19237      748.19237      748.19237      2125.9038      2874.0962      2125.9038      2874.0962      2125.9038      2874.0962      4.1883197e+08  0.1            14985700       0.47136892     1465.0285      14650.262      6.262502     
  37812200   21565.075      7.2765504     -41110142       1.4284889      63959.984     -41046182       748.19237      748.19237      748.19237      2125.9038      2874.0962      2125.9038      2874.0962      2125.9038      2874.0962      4.1883197e+08  0.1            14985720       0.48506834     1459.9185      14599.193      6.2520187    
  37812400   23369.045      6.8602        -41110785       1.4284889      69310.389     -41041474       748.19237      748.19237      748.19237      2125.9038      2874.0962      2125.9038      2874.0962      2125.9038      2874.0962      4.1883197e+08  0.1            14985740       0.49842686     1497.1651      14971.692      6.2370974    
  37812600   25207.54       6.7097421     -41104072       1.4284889      74763.194     -41029309       748.19237      748.19237      748.19237      2125.9038      2874.0962      2125.9038      2874.0962      2125.9038      2874.0962      4.1883197e+08  0.1            14985760       0.51182887     1492.3198      14923.193      6.2227866    
  37812800   27055.86       6.2244118     -41104392       1.4284889      80245.138     -41024147       748.19237      748.19237      748.19237      2125.9038      2874.0962      2125.9038      2874.0962      2125.9038      2874.0962      4.1883197e+08  0.1            14985780       0.52515228     1501.1196      15011.205      6.2075926    
  37813000   28884.169      5.5040608     -41105103       1.4284889      85667.729     -41019435       748.19237      748.19237      748.19237      2125.9038      2874.0962      2125.9038      2874.0962      2125.9038      2874.0962      4.1883197e+08  0.1            14985800       0.53852929     1495.0974      14950.986      6.1931101    
  37813200   30658.9        4.6266705     -41105834       1.4284889      90931.415     -41014903       748.19237      748.19237      748.19237      2125.9038      2874.0962      2125.9038      2874.0962      2125.9038      2874.0962      4.1883197e+08  0.1            14985820       0.55191886     1493.707       14937.045      6.1788215    
  37813400   32342.044      3.6197687     -41106585       1.4284889      95923.462     -41010662       748.19237      748.19237      748.19237      2125.9038      2874.0962      2125.9038      2874.0962      2125.9038      2874.0962      4.1883197e+08  0.1            14985840       0.56544932     1478.1416      14781.404      6.1661125    
  37813600   33893.035      2.6565284     -41106985       1.4284889      100523.56     -41006461       748.19237      748.19237      748.19237      2125.9038      2874.0962      2125.9038      2874.0962      2125.9038      2874.0962      4.1883197e+08  0.1            14985860       0.57919016     1455.5148      14555.141      6.1556015    
  37813800   35270.885      1.6259065     -41107766       1.4284889      104610.13     -41003156       748.19237      748.19237      748.19237      2125.9038      2874.0962      2125.9038      2874.0962      2125.9038      2874.0962      4.1883197e+08  0.1            14985880       0.59253403     1498.8099      14988.07       6.1408297    
  37814000   36437.612      0.65549569    -41108556       1.4284889      108070.53     -41000486       748.19237      748.19237      748.19237      2125.9038      2874.0962      2125.9038      2874.0962      2125.9038      2874.0962      4.1883197e+08  0.1            14985900       0.60590467     1495.8191      14958.227      6.1263909    
  37814200   37364.086     -0.3114342     -41109352       1.4284889      110818.37     -40998533       748.19237      748.19237      748.19237      2125.9038      2874.0962      2125.9038      2874.0962      2125.9038      2874.0962      4.1883197e+08  0.1            14985920       0.6192876      1494.4446      14944.448      6.1121198    
  37814400   38034.511     -1.2566681     -41108256       1.4284889      112806.78     -40995450       748.19237      748.19237      748.19237      2125.9038      2874.0962      2125.9038      2874.0962      2125.9038      2874.0962      4.1883197e+08  0.1            14985940       0.6327372      1487.0278      14870.256      6.0985313    
  37814600   38452.27      -2.5679669     -41110952       1.4284889      114045.82     -40996906       748.19237      748.19237      748.19237      2125.9038      2874.0962      2125.9038      2874.0962      2125.9038      2874.0962      4.1883197e+08  0.1            14985960       0.64607843     1499.1156      14991.172      6.0839246    
  37814800   38642.831     -4.0521291     -41119128       1.4284889      114611        -41004517       748.19237      748.19237      748.19237      2125.9038      2874.0962      2125.9038      2874.0962      2125.9038      2874.0962      4.1883197e+08  0.1            14985980       0.65965096     1473.5678      14735.686      6.0715002    
  37815000   38653.356     -5.1755092     -41119921       1.4284889      114642.22     -41005278       748.19237      748.19237      748.19237      2125.9038      2874.0962      2125.9038      2874.0962      2125.9038      2874.0962      4.1883197e+08  0.1            14986000       0.673306       1464.6514      14646.492      6.0597737    
  37815200   38548.334     -6.6220035     -41124496       1.4284889      114330.74     -41010165       748.19237      748.19237      748.19237      2125.9038      2874.0962      2125.9038      2874.0962      2125.9038      2874.0962      4.1883197e+08  0.1            14986020       0.68704358     1455.8663      14558.683      6.0486962    
  37815400   38400.009     -8.0104829     -41125275       1.4284889      113890.82     -41011384       748.19237      748.19237      748.19237      2125.9038      2874.0962      2125.9038      2874.0962      2125.9038      2874.0962      4.1883197e+08  0.1            14986040       0.70039644     1497.8066      14978.088      6.0342024    
  37815600   38280.562     -8.9069498     -41111294       1.4284889      113536.55     -40997758       748.19237      748.19237      748.19237      2125.9038      2874.0962      2125.9038      2874.0962      2125.9038      2874.0962      4.1883197e+08  0.1            14986060       0.71552304     1322.1673      13213.352      6.0347935    
  37815800   38254.622     -10.729304     -41119445       1.4284889      113459.61     -41005986       748.19237      748.19237      748.19237      2125.9038      2874.0962      2125.9038      2874.0962      2125.9038      2874.0962      4.1883197e+08  0.1            14986080       0.72979726     1401.1348      14014.672      6.0276529    
  37816000   38376.576     -12.052613     -41120216       1.4284889      113821.32     -41006395       748.19237      748.19237      748.19237      2125.9038      2874.0962      2125.9038      2874.0962      2125.9038      2874.0962      4.1883197e+08  0.1            14986100       0.74392989     1415.1628      14157.651      6.0190878    
  37816200   38690.781     -13.175844     -41120985       1.4284889      114753.22     -41006232       748.19237      748.19237      748.19237      2125.9038      2874.0962      2125.9038      2874.0962      2125.9038      2874.0962      4.1883197e+08  0.1            14986120       0.75732481     1493.105       14931.197      6.0045203    
  37816400   39229.369     -14.172858     -41121752       1.4284889      116350.62     -41005401       748.19237      748.19237      748.19237      2125.9038      2874.0962      2125.9038      2874.0962      2125.9038      2874.0962      4.1883197e+08  0.1            14986140       0.77096756     1465.9835      14659.796      5.9919219    
  37816600   40010.425     -15.444147     -41129898       1.4284889      118667.16     -41011230       748.19237      748.19237      748.19237      2125.9038      2874.0962      2125.9038      2874.0962      2125.9038      2874.0962      4.1883197e+08  0.1            14986160       0.78494201     1431.1706      14311.63       5.9818178    
  37816800   41034.316     -16.394477     -41130669       1.4284889      121703.92     -41008965       748.19237      748.19237      748.19237      2125.9038      2874.0962      2125.9038      2874.0962      2125.9038      2874.0962      4.1883197e+08  0.1            14986180       0.79827178     1500.4143      15004.229      5.9667587    
  37817000   42280.586     -17.28319      -41131447       1.4284889      125400.25     -41006047       748.19237      748.19237      748.19237      2125.9038      2874.0962      2125.9038      2874.0962      2125.9038      2874.0962      4.1883197e+08  0.1            14986200       0.81157823     1503.0278      15030.3        5.951589     
  37817200   43708.853     -17.667235     -41124856       1.4284889      129636.35     -40995219       748.19237      748.19237      748.19237      2125.9038      2874.0962      2125.9038      2874.0962      2125.9038      2874.0962      4.1883197e+08  0.1            14986220       0.82497959     1492.3872      14923.832      5.9371632    
  37817400   45262.791     -17.593759     -41110894       1.4284889      134245.18     -40976649       748.19237      748.19237      748.19237      2125.9038      2874.0962      2125.9038      2874.0962      2125.9038      2874.0962      4.1883197e+08  0.1            14986240       0.83828057     1503.6463      15036.474      5.9220617    
  37817600   46876.526     -18.071273     -41110538       1.4284889      139031.37     -40971507       748.19237      748.19237      748.19237      2125.9038      2874.0962      2125.9038      2874.0962      2125.9038      2874.0962      4.1883197e+08  0.1            14986260       0.85158891     1502.8141      15028.168      5.9070678    
  37817800   48481.982     -18.314514     -41111345       1.4284889      143793        -40967552       748.19237      748.19237      748.19237      2125.9038      2874.0962      2125.9038      2874.0962      2125.9038      2874.0962      4.1883197e+08  0.1            14986280       0.86493089     1499.0233      14990.247      5.8923562    
  37818000   50012.805     -18.865964     -41119534       1.4284889      148333.28     -40971200       748.19237      748.19237      748.19237      2125.9038      2874.0962      2125.9038      2874.0962      2125.9038      2874.0962      4.1883197e+08  0.1            14986300       0.87861223     1461.8461      14618.324      5.8799591    
  37818200   51409.1       -19.546942     -41127725       1.4284889      152474.56     -40975251       748.19237      748.19237      748.19237      2125.9038      2874.0962      2125.9038      2874.0962      2125.9038      2874.0962      4.1883197e+08  0.1            14986320       0.89197848     1496.312       14963.23       5.8654482    
  37818400   52619.331     -20.170597     -41128540       1.4284889      156063.99     -40972476       748.19237      748.19237      748.19237      2125.9038      2874.0962      2125.9038      2874.0962      2125.9038      2874.0962      4.1883197e+08  0.1            14986340       0.90539879     1490.2834      14902.858      5.851322     
  37818600   53604.898     -21.134869     -41132945       1.4284889      158987.09     -40973958       748.19237      748.19237      748.19237      2125.9038      2874.0962      2125.9038      2874.0962      2125.9038      2874.0962      4.1883197e+08  0.1            14986360       0.91873929     1499.1958      14991.916      5.8367099    
  37818800   54343.21      -22.21569      -41133764       1.4284889      161176.85     -40972587       748.19237      748.19237      748.19237      2125.9038      2874.0962      2125.9038      2874.0962      2125.9038      2874.0962      4.1883197e+08  0.1            14986380       0.9320786      1499.3242      14993.259      5.8221273    
  37819000   54830.277     -23.338634     -41134580       1.4284889      162621.45     -40971958       748.19237      748.19237      748.19237      2125.9038      2874.0962      2125.9038      2874.0962      2125.9038      2874.0962      4.1883197e+08  0.1            14986400       0.94550769     1489.2992      14892.913      5.8081328    
  37819200   55084.849     -24.219519     -41128012       1.4284889      163376.49     -40964635       748.19237      748.19237      748.19237      2125.9038      2874.0962      2125.9038      2874.0962      2125.9038      2874.0962      4.1883197e+08  0.1            14986420       0.95894525     1488.3738      14883.818      5.7942028    
  37819400   55147.343     -25.891377     -41136193       1.4284889      163561.84     -40972631       748.19237      748.19237      748.19237      2125.9038      2874.0962      2125.9038      2874.0962      2125.9038      2874.0962      4.1883197e+08  0.1            14986440       0.97250854     1474.5569      14745.553      5.7810365    
  37819600   55075.529     -27.242467     -41136991       1.4284889      163348.84     -40973642       748.19237      748.19237      748.19237      2125.9038      2874.0962      2125.9038      2874.0962      2125.9038      2874.0962      4.1883197e+08  0.1            14986460       0.98593389     1489.7175      14897.214      5.7670504    
  37819800   54937.363     -28.480533     -41137781       1.4284889      162939.05     -40974842       748.19237      748.19237      748.19237      2125.9038      2874.0962      2125.9038      2874.0962      2125.9038      2874.0962      4.1883197e+08  0.1            14986480       0.99918663     1509.13        15091.201      5.7520869    
  37820000   54803.671     -29.487523     -41138564       1.4284889      162542.54     -40976021       748.19237      748.19237      748.19237      2125.9038      2874.0962      2125.9038      2874.0962      2125.9038      2874.0962      4.1883197e+08  0.1            14986500       1.0126341      1487.2766      14872.862      5.7382714    
  37820200   54742.161     -30.198748     -41139338       1.4284889      162360.1      -40976978       748.19237      748.19237      748.19237      2125.9038      2874.0962      2125.9038      2874.0962      2125.9038      2874.0962      4.1883197e+08  0.1            14986520       1.0261813      1476.3177      14763.147      5.7250228    
  37820400   54812.035     -30.740509     -41140102       1.4284889      162567.34     -40977534       748.19237      748.19237      748.19237      2125.9038      2874.0962      2125.9038      2874.0962      2125.9038      2874.0962      4.1883197e+08  0.1            14986540       1.0397072      1478.6424      14786.458      5.7116497    
  37820600   55062.663     -31.269014     -41138961       1.4284889      163310.68     -40975650       748.19237      748.19237      748.19237      2125.9038      2874.0962      2125.9038      2874.0962      2125.9038      2874.0962      4.1883197e+08  0.1            14986560       1.0529979      1504.8113      15048.125      5.6969996    
  37820800   55532.141     -32.511561     -41147086       1.4284889      164703.11     -40982383       748.19237      748.19237      748.19237      2125.9038      2874.0962      2125.9038      2874.0962      2125.9038      2874.0962      4.1883197e+08  0.1            14986580       1.0665067      1480.5147      14805.115      5.6835466    
  37821000   56243.874     -33.495836     -41147831       1.4284889      166814.04     -40981017       748.19237      748.19237      748.19237      2125.9038      2874.0962      2125.9038      2874.0962      2125.9038      2874.0962      4.1883197e+08  0.1            14986600       1.0801182      1469.3444      14693.329      5.6706325    
  37821200   57203.682     -34.369193     -41148574       1.4284889      169660.74     -40978914       748.19237      748.19237      748.19237      2125.9038      2874.0962      2125.9038      2874.0962      2125.9038      2874.0962      4.1883197e+08  0.1            14986620       1.0935219      1492.1321      14921.481      5.6566239    
  37821400   58397.636     -34.60007      -41134563       1.4284889      173201.9      -40961361       748.19237      748.19237      748.19237      2125.9038      2874.0962      2125.9038      2874.0962      2125.9038      2874.0962      4.1883197e+08  0.1            14986640       1.1069326      1491.3539      14913.479      5.6426663    
  37821600   59792.079     -35.593845     -41135307       1.4284889      177337.69     -40957969       748.19237      748.19237      748.19237      2125.9038      2874.0962      2125.9038      2874.0962      2125.9038      2874.0962      4.1883197e+08  0.1            14986660       1.1202546      1501.2745      15012.813      5.628277     
  37821800   61336.058     -36.569262     -41136052       1.4284889      181916.98     -40954135       748.19237      748.19237      748.19237      2125.9038      2874.0962      2125.9038      2874.0962      2125.9038      2874.0962      4.1883197e+08  0.1            14986680       1.1336184      1496.5717      14965.634      5.6141203    
  37822000   62965.63      -37.19929      -41136797       1.4284889      186750.14     -40950047       748.19237      748.19237      748.19237      2125.9038      2874.0962      2125.9038      2874.0962      2125.9038      2874.0962      4.1883197e+08  0.1            14986700       1.1472217      1470.2294      14702.206      5.6011523    
  37822200   64610.386     -37.778178     -41144919       1.4284889      191628.33     -40953291       748.19237      748.19237      748.19237      2125.9038      2874.0962      2125.9038      2874.0962      2125.9038      2874.0962      4.1883197e+08  0.1            14986720       1.160629       1491.7297      14917.408      5.587224     
  37822400   66198.515     -37.759235     -41145662       1.4284889      196338.57     -40949323       748.19237      748.19237      748.19237      2125.9038      2874.0962      2125.9038      2874.0962      2125.9038      2874.0962      4.1883197e+08  0.1            14986740       1.17423        1470.4784      14704.775      5.5742283    
  37822600   67662.356     -37.909474     -41146400       1.4284889      200680.19     -40945720       748.19237      748.19237      748.19237      2125.9038      2874.0962      2125.9038      2874.0962      2125.9038      2874.0962      4.1883197e+08  0.1            14986760       1.1876609      1489.1116      14891.118      5.5604218    
  37822800   68943.946     -38.575371     -41149032       1.4284889      204481.26     -40944550       748.19237      748.19237      748.19237      2125.9038      2874.0962      2125.9038      2874.0962      2125.9038      2874.0962      4.1883197e+08  0.1            14986780       1.2009524      1504.7105      15047.162      5.5459805    
  37823000   69997.148     -39.144568     -41149763       1.4284889      207604.96     -40942158       748.19237      748.19237      748.19237      2125.9038      2874.0962      2125.9038      2874.0962      2125.9038      2874.0962      4.1883197e+08  0.1            14986800       1.2142667      1502.1456      15021.313      5.5316695    
  37823200   70792.715     -39.843804     -41150486       1.4284889      209964.54     -40940522       748.19237      748.19237      748.19237      2125.9038      2874.0962      2125.9038      2874.0962      2125.9038      2874.0962      4.1883197e+08  0.1            14986820       1.2276173      1498.0643      14980.78       5.5175418    
  37823400   71322.93      -40.783527     -41149305       1.4284889      211537.11     -40937768       748.19237      748.19237      748.19237      2125.9038      2874.0962      2125.9038      2874.0962      2125.9038      2874.0962      4.1883197e+08  0.1            14986840       1.2409213      1503.311       15033.1        5.5032253    
  37823600   71603.681     -41.859614     -41150012       1.4284889      212369.79     -40937642       748.19237      748.19237      748.19237      2125.9038      2874.0962      2125.9038      2874.0962      2125.9038      2874.0962      4.1883197e+08  0.1            14986860       1.2541894      1507.3696      15073.676      5.4887732    
  37823800   71672.811     -42.92141      -41158090       1.4284889      212574.82     -40945515       748.19237      748.19237      748.19237      2125.9038      2874.0962      2125.9038      2874.0962      2125.9038      2874.0962      4.1883197e+08  0.1            14986880       1.2676744      1483.1347      14831.326      5.4752832    
  37824000   71585.112     -43.172998     -41158778       1.4284889      212314.71     -40946464       748.19237      748.19237      748.19237      2125.9038      2874.0962      2125.9038      2874.0962      2125.9038      2874.0962      4.1883197e+08  0.1            14986900       1.2814272      1454.2372      14542.305      5.4629362    
  37824200   71408.482     -43.317115     -41159452       1.4284889      211790.84     -40947661       748.19237      748.19237      748.19237      2125.9038      2874.0962      2125.9038      2874.0962      2125.9038      2874.0962      4.1883197e+08  0.1            14986920       1.294753       1500.8551      15008.689      5.4487606    
  37824400   71217.64      -43.814897     -41160111       1.4284889      211224.83     -40948886       748.19237      748.19237      748.19237      2125.9038      2874.0962      2125.9038      2874.0962      2125.9038      2874.0962      4.1883197e+08  0.1            14986940       1.3080515      1503.9326      15039.295      5.4344902    
  37824600   71086.302     -44.945384     -41168136       1.4284889      210835.29     -40957301       748.19237      748.19237      748.19237      2125.9038      2874.0962      2125.9038      2874.0962      2125.9038      2874.0962      4.1883197e+08  0.1            14986960       1.3213737      1501.2521      15012.532      5.4203368    
  37824800   71080.982     -45.751479     -41168772       1.4284889      210819.51     -40957952       748.19237      748.19237      748.19237      2125.9038      2874.0962      2125.9038      2874.0962      2125.9038      2874.0962      4.1883197e+08  0.1            14986980       1.3347458      1495.6547      14956.513      5.4064026    
  37825000   71257.303     -46.674964     -41176773       1.4284889      211342.46     -40965431       748.19237      748.19237      748.19237      2125.9038      2874.0962      2125.9038      2874.0962      2125.9038      2874.0962      4.1883197e+08  0.1            14987000       1.3482935      1476.2617      14762.605      5.3931822    
  37825200   71658.905     -47.161859     -41177387       1.4284889      212533.58     -40964854       748.19237      748.19237      748.19237      2125.9038      2874.0962      2125.9038      2874.0962      2125.9038      2874.0962      4.1883197e+08  0.1            14987020       1.3617917      1481.6776      14816.768      5.3797595    
  37825400   72313.345     -47.436246     -41177994       1.4284889      214474.58     -40963519       748.19237      748.19237      748.19237      2125.9038      2874.0962      2125.9038      2874.0962      2125.9038      2874.0962      4.1883197e+08  0.1            14987040       1.375354       1474.6774      14746.797      5.3665852    
  37825600   73229.757     -47.447022     -41178592       1.4284889      217192.58     -40961399       748.19237      748.19237      748.19237      2125.9038      2874.0962      2125.9038      2874.0962      2125.9038      2874.0962      4.1883197e+08  0.1            14987060       1.3890129      1464.2451      14642.454      5.3537761    
  37825800   74397.269     -46.866757     -41171804       1.4284889      220655.31     -40951149       748.19237      748.19237      748.19237      2125.9038      2874.0962      2125.9038      2874.0962      2125.9038      2874.0962      4.1883197e+08  0.1            14987080       1.4024185      1491.9054      14919.102      5.3399859    
  37826000   75784.402     -46.898951     -41179762       1.4284889      224769.41     -40954993       748.19237      748.19237      748.19237      2125.9038      2874.0962      2125.9038      2874.0962      2125.9038      2874.0962      4.1883197e+08  0.1            14987100       1.4157345      1501.956       15019.398      5.3258669    
  37826200   77342.084     -46.856124     -41180335       1.4284889      229389.35     -40950946       748.19237      748.19237      748.19237      2125.9038      2874.0962      2125.9038      2874.0962      2125.9038      2874.0962      4.1883197e+08  0.1            14987120       1.429228       1482.195       14822.046      5.3124212    
  37826400   79006.949     -46.924018     -41182798       1.4284889      234327.18     -40948471       748.19237      748.19237      748.19237      2125.9038      2874.0962      2125.9038      2874.0962      2125.9038      2874.0962      4.1883197e+08  0.1            14987140       1.4429436      1458.162       14581.544      5.2997929    
  37826600   80704.99      -46.773463     -41183359       1.4284889      239363.42     -40943996       748.19237      748.19237      748.19237      2125.9038      2874.0962      2125.9038      2874.0962      2125.9038      2874.0962      4.1883197e+08  0.1            14987160       1.4568227      1441.0493      14410.55       5.2877346    
  37826800   82359.388     -46.451533     -41182015       1.4284889      244270.2      -40937745       748.19237      748.19237      748.19237      2125.9038      2874.0962      2125.9038      2874.0962      2125.9038      2874.0962      4.1883197e+08  0.1            14987180       1.4709158      1419.0777      14190.742      5.2764144    
  37827000   83897.423     -46.007962     -41175179       1.4284889      248831.87     -40926347       748.19237      748.19237      748.19237      2125.9038      2874.0962      2125.9038      2874.0962      2125.9038      2874.0962      4.1883197e+08  0.1            14987200       1.485966       1328.915       13288.909      5.268435     
  37827200   85255.522     -45.786013     -41168336       1.4284889      252859.86     -40915476       748.19237      748.19237      748.19237      2125.9038      2874.0962      2125.9038      2874.0962      2125.9038      2874.0962      4.1883197e+08  0.1            14987220       1.5005894      1367.6693      13676.943      5.2588312    
  37827400   86381.783     -46.220681     -41168861       1.4284889      256200.25     -40912661       748.19237      748.19237      748.19237      2125.9038      2874.0962      2125.9038      2874.0962      2125.9038      2874.0962      4.1883197e+08  0.1            14987240       1.514895       1398.0559      13980.581      5.2480378    
  37827600   87241.589     -46.776717     -41167480       1.4284889      258750.35     -40908730       748.19237      748.19237      748.19237      2125.9038      2874.0962      2125.9038      2874.0962      2125.9038      2874.0962      4.1883197e+08  0.1            14987260       1.5294675      1372.4554      13724.526      5.2380959    
  37827800   87821.515     -47.538463     -41175358       1.4284889      260470.36     -40914888       748.19237      748.19237      748.19237      2125.9038      2874.0962      2125.9038      2874.0962      2125.9038      2874.0962      4.1883197e+08  0.1            14987280       1.5438059      1394.8539      13948.539      5.2272808    
  37828000   88131.669     -47.796905     -41175841       1.4284889      261390.25     -40914451       748.19237      748.19237      748.19237      2125.9038      2874.0962      2125.9038      2874.0962      2125.9038      2874.0962      4.1883197e+08  0.1            14987300       1.5578568      1423.3978      14233.856      5.2154423    
  37828200   88207.45      -47.717294     -41168931       1.4284889      261615        -40907316       748.19237      748.19237      748.19237      2125.9038      2874.0962      2125.9038      2874.0962      2125.9038      2874.0962      4.1883197e+08  0.1            14987320       1.5718271      1431.5942      14315.879      5.2032989    
  37828400   88104.468     -47.909807     -41167859       1.4284889      261309.57     -40906550       748.19237      748.19237      748.19237      2125.9038      2874.0962      2125.9038      2874.0962      2125.9038      2874.0962      4.1883197e+08  0.1            14987340       1.5861173      1399.5891      13996.128      5.1921687    
  37828600   87891.786     -47.943019     -41168299       1.4284889      260678.78     -40907620       748.19237      748.19237      748.19237      2125.9038      2874.0962      2125.9038      2874.0962      2125.9038      2874.0962      4.1883197e+08  0.1            14987360       1.6006259      1378.4619      13784.566      5.1816955    
  37828800   87646.414     -47.877777     -41168721       1.4284889      259951.03     -40908770       748.19237      748.19237      748.19237      2125.9038      2874.0962      2125.9038      2874.0962      2125.9038      2874.0962      4.1883197e+08  0.1            14987380       1.6145852      1432.7117      14327.095      5.1693952    
  37829000   87446.839     -47.946846     -41174612       1.4284889      259359.1      -40915253       748.19237      748.19237      748.19237      2125.9038      2874.0962      2125.9038      2874.0962      2125.9038      2874.0962      4.1883197e+08  0.1            14987400       1.6287274      1414.2415      14132.907      5.1576746    
  37829200   87366.461     -48.269309     -41182386       1.4284889      259120.71     -40923266       748.19237      748.19237      748.19237      2125.9038      2874.0962      2125.9038      2874.0962      2125.9038      2874.0962      4.1883197e+08  0.1            14987420       1.6428916      1412.0046      14129.524      5.1459247    
  37829400   87466.753     -48.240394     -41182768       1.4284889      259418.17     -40923350       748.19237      748.19237      748.19237      2125.9038      2874.0962      2125.9038      2874.0962      2125.9038      2874.0962      4.1883197e+08  0.1            14987440       1.6569835      1419.2693      14192.42       5.1339408    
  37829600   87796.014     -48.103011     -41183134       1.4284889      260394.73     -40922740       748.19237      748.19237      748.19237      2125.9038      2874.0962      2125.9038      2874.0962      2125.9038      2874.0962      4.1883197e+08  0.1            14987460       1.6711019      1416.5922      14166.185      5.1220024    
  37829800   88387.455     -47.579587     -41181224       1.4284889      262148.88     -40919075       748.19237      748.19237      748.19237      2125.9038      2874.0962      2125.9038      2874.0962      2125.9038      2874.0962      4.1883197e+08  0.1            14987480       1.6855681      1382.5322      13825.184      5.1110858    
  37830000   89254.61      -46.793248     -41174186       1.4284889      264720.78     -40909465       748.19237      748.19237      748.19237      2125.9038      2874.0962      2125.9038      2874.0962      2125.9038      2874.0962      4.1883197e+08  0.1            14987500       1.6996066      1424.6157      14246.28       5.0988285    
  37830200   90389.915     -46.570094     -41181887       1.4284889      268087.99     -40913799       748.19237      748.19237      748.19237      2125.9038      2874.0962      2125.9038      2874.0962      2125.9038      2874.0962      4.1883197e+08  0.1            14987520       1.7136246      1426.7664      14267.74       5.0864804    
  37830400   91764.533     -46.299726     -41184090       1.4284889      272164.98     -40911925       748.19237      748.19237      748.19237      2125.9038      2874.0962      2125.9038      2874.0962      2125.9038      2874.0962      4.1883197e+08  0.1            14987540       1.7277812      1412.7416      14127.393      5.074515     
  37830600   93330.864     -45.706207     -41178904       1.4284889      276810.57     -40902094       748.19237      748.19237      748.19237      2125.9038      2874.0962      2125.9038      2874.0962      2125.9038      2874.0962      4.1883197e+08  0.1            14987560       1.7418739      1419.2099      14192.153      5.0623278    
  37830800   95024.749     -44.852999     -41177297       1.4284889      281834.47     -40895463       748.19237      748.19237      748.19237      2125.9038      2874.0962      2125.9038      2874.0962      2125.9038      2874.0962      4.1883197e+08  0.1            14987580       1.7563406      1382.453       13824.407      5.0511892    
  37831000   96769.646     -43.754092     -41177573       1.4284889      287009.67     -40890564       748.19237      748.19237      748.19237      2125.9038      2874.0962      2125.9038      2874.0962      2125.9038      2874.0962      4.1883197e+08  0.1            14987600       1.7707657      1386.5029      13865.091      5.0398785    
  37831200   98484.234     -42.423673     -41172350       1.4284889      292094.98     -40880255       748.19237      748.19237      748.19237      2125.9038      2874.0962      2125.9038      2874.0962      2125.9038      2874.0962      4.1883197e+08  0.1            14987620       1.7854402      1362.8963      13629.001      5.0292247    
  37831400   100089.93     -41.248042     -41172591       1.4284889      296857.33     -40875733       748.19237      748.19237      748.19237      2125.9038      2874.0962      2125.9038      2874.0962      2125.9038      2874.0962      4.1883197e+08  0.1            14987640       1.7996534      1407.153       14071.099      5.0172233    
  37831600   101517.57     -40.253224     -41173180       1.4284889      301091.56     -40872088       748.19237      748.19237      748.19237      2125.9038      2874.0962      2125.9038      2874.0962      2125.9038      2874.0962      4.1883197e+08  0.1            14987660       1.8137503      1418.7495      14187.896      5.0048666    
  37831800   102712.33     -39.298698     -41169597       1.4284889      304635.12     -40864962       748.19237      748.19237      748.19237      2125.9038      2874.0962      2125.9038      2874.0962      2125.9038      2874.0962      4.1883197e+08  0.1            14987680       1.8278984      1413.6156      14136.144      4.992625     
  37832000   103636.26     -39.007628     -41170159       1.4284889      307375.42     -40862784       748.19237      748.19237      748.19237      2125.9038      2874.0962      2125.9038      2874.0962      2125.9038      2874.0962      4.1883197e+08  0.1            14987700       1.8421157      1406.7308      14067.231      4.9805422    
  37832200   104271.17     -39.269464     -41179609       1.4284889      309258.48     -40870350       748.19237      748.19237      748.19237      2125.9038      2874.0962      2125.9038      2874.0962      2125.9038      2874.0962      4.1883197e+08  0.1            14987720       1.856478       1392.5453      13925.552      4.9688162    
  37832400   104624.43     -39.114065     -41172394       1.4284889      310306.21     -40862088       748.19237      748.19237      748.19237      2125.9038      2874.0962      2125.9038      2874.0962      2125.9038      2874.0962      4.1883197e+08  0.1            14987740       1.8711284      1365.1492      13651.457      4.9578141    
  37832600   104726.06     -39.207049     -41172542       1.4284889      310607.66     -40861935       748.19237      748.19237      748.19237      2125.9038      2874.0962      2125.9038      2874.0962      2125.9038      2874.0962      4.1883197e+08  0.1            14987760       1.8858527      1358.3008      13582.848      4.9469543    
  37832800   104626.98     -38.716264     -41172671       1.4284889      310313.79     -40862357       748.19237      748.19237      748.19237      2125.9038      2874.0962      2125.9038      2874.0962      2125.9038      2874.0962      4.1883197e+08  0.1            14987780       1.9003964      1375.1656      13751.835      4.9355687    
  37833000   104396.03     -37.437997     -41165402       1.4284889      309628.82     -40855773       748.19237      748.19237      748.19237      2125.9038      2874.0962      2125.9038      2874.0962      2125.9038      2874.0962      4.1883197e+08  0.1            14987800       1.9149768      1371.67        13716.527      4.9242339    
  37833200   104112.96     -36.06686      -41165126       1.4284889      308789.25     -40856337       748.19237      748.19237      748.19237      2125.9038      2874.0962      2125.9038      2874.0962      2125.9038      2874.0962      4.1883197e+08  0.1            14987820       1.9297975      1349.4871      13488.954      4.9134796    
  37833400   103858.88     -35.073935     -41165202       1.4284889      308035.68     -40857166       748.19237      748.19237      748.19237      2125.9038      2874.0962      2125.9038      2874.0962      2125.9038      2874.0962      4.1883197e+08  0.1            14987840       1.9445053      1359.8099      13604.357      4.9023512    
  37833600   103711.34     -34.42037      -41165260       1.4284889      307598.09     -40857662       748.19237      748.19237      748.19237      2125.9038      2874.0962      2125.9038      2874.0962      2125.9038      2874.0962      4.1883197e+08  0.1            14987860       1.9590853      1371.7527      13717.412      4.89087      
  37833800   103738.23     -33.594414     -41165301       1.4284889      307677.84     -40857623       748.19237      748.19237      748.19237      2125.9038      2874.0962      2125.9038      2874.0962      2125.9038      2874.0962      4.1883197e+08  0.1            14987880       1.9735482      1382.8562      13828.612      4.879056     
  37834000   103994.36     -32.708696     -41165322       1.4284889      308437.51     -40856885       748.19237      748.19237      748.19237      2125.9038      2874.0962      2125.9038      2874.0962      2125.9038      2874.0962      4.1883197e+08  0.1            14987900       1.9881405      1370.6076      13705.906      4.8675223    
  37834200   104519.36     -31.90754      -41163805       1.4284889      309994.6      -40853810       748.19237      748.19237      748.19237      2125.9038      2874.0962      2125.9038      2874.0962      2125.9038      2874.0962      4.1883197e+08  0.1            14987920       2.0025369      1389.2292      13892.37       4.8554723    
  37834400   105331.95     -30.747937     -41156424       1.4284889      312404.67     -40844019       748.19237      748.19237      748.19237      2125.9038      2874.0962      2125.9038      2874.0962      2125.9038      2874.0962      4.1883197e+08  0.1            14987940       2.0168913      1393.2846      13932.982      4.8432891    
  37834600   106428.24     -29.532756     -41149029       1.4284889      315656.15     -40833373       748.19237      748.19237      748.19237      2125.9038      2874.0962      2125.9038      2874.0962      2125.9038      2874.0962      4.1883197e+08  0.1            14987960       2.0315235      1366.8493      13668.415      4.8317377    
  37834800   107781.19     -28.720444     -41147102       1.4284889      319668.88     -40827434       748.19237      748.19237      748.19237      2125.9038      2874.0962      2125.9038      2874.0962      2125.9038      2874.0962      4.1883197e+08  0.1            14987980       2.0455916      1421.6546      14216.612      4.8188156    
  37835000   109343.77     -27.835058     -41147056       1.4284889      324303.34     -40822752       748.19237      748.19237      748.19237      2125.9038      2874.0962      2125.9038      2874.0962      2125.9038      2874.0962      4.1883197e+08  0.1            14988000       2.0600221      1385.9403      13859.324      4.8067248    
  37835200   111049.57     -26.596717     -41146989       1.4284889      329362.58     -40817626       748.19237      748.19237      748.19237      2125.9038      2874.0962      2125.9038      2874.0962      2125.9038      2874.0962      4.1883197e+08  0.1            14988020       2.074869       1347.0925      13471.029      4.7955646    
  37835400   112821.58     -24.980081     -41146903       1.4284889      334618.2      -40812285       748.19237      748.19237      748.19237      2125.9038      2874.0962      2125.9038      2874.0962      2125.9038      2874.0962      4.1883197e+08  0.1            14988040       2.0892941      1386.49        13864.777      4.7833893    
  37835600   114577.5      -22.916405     -41146797       1.4284889      339826.09     -40806971       748.19237      748.19237      748.19237      2125.9038      2874.0962      2125.9038      2874.0962      2125.9038      2874.0962      4.1883197e+08  0.1            14988060       2.1035312      1404.762       14047.688      4.7707595    
  37835800   116236.12     -20.96528      -41146668       1.4284889      344745.42     -40801923       748.19237      748.19237      748.19237      2125.9038      2874.0962      2125.9038      2874.0962      2125.9038      2874.0962      4.1883197e+08  0.1            14988080       2.117831       1398.64        13986.359      4.758249     
  37836000   117725.86     -19.397702     -41146523       1.4284889      349163.82     -40797359       748.19237      748.19237      748.19237      2125.9038      2874.0962      2125.9038      2874.0962      2125.9038      2874.0962      4.1883197e+08  0.1            14988100       2.1321582      1395.9301      13959.394      4.7457773    
  37836200   118987.19     -18.281245     -41153740       1.4284889      352904.82     -40800836       748.19237      748.19237      748.19237      2125.9038      2874.0962      2125.9038      2874.0962      2125.9038      2874.0962      4.1883197e+08  0.1            14988120       2.1463441      1409.8556      14098.562      4.7329692    
  37836400   119976.35     -16.971261     -41155457       1.4284889      355838.57     -40799618       748.19237      748.19237      748.19237      2125.9038      2874.0962      2125.9038      2874.0962      2125.9038      2874.0962      4.1883197e+08  0.1            14988140       2.1602637      1436.8244      14368.155      4.7195624    
  37836600   120671.55     -15.782978     -41162639       1.4284889      357900.47     -40804739       748.19237      748.19237      748.19237      2125.9038      2874.0962      2125.9038      2874.0962      2125.9038      2874.0962      4.1883197e+08  0.1            14988160       2.1744494      1409.8712      14098.784      4.7067247    
  37836800   121073.92     -14.611342     -41164319       1.4284889      359093.87     -40805225       748.19237      748.19237      748.19237      2125.9038      2874.0962      2125.9038      2874.0962      2125.9038      2874.0962      4.1883197e+08  0.1            14988180       2.1888711      1386.7957      13867.594      4.6943773    
  37837000   121210.99     -13.427437     -41153122       1.4284889      359500.4      -40793622       748.19237      748.19237      748.19237      2125.9038      2874.0962      2125.9038      2874.0962      2125.9038      2874.0962      4.1883197e+08  0.1            14988200       2.2030291      1412.6064      14126.393      4.6814427    
  37837200   121131.85     -12.375833     -41143603       1.4284889      359265.69     -40784337       748.19237      748.19237      748.19237      2125.9038      2874.0962      2125.9038      2874.0962      2125.9038      2874.0962      4.1883197e+08  0.1            14988220       2.217021       1429.417       14294.16       4.6681426    
  37837400   120903.45     -12.226479     -41150719       1.4284889      358588.26     -40792131       748.19237      748.19237      748.19237      2125.9038      2874.0962      2125.9038      2874.0962      2125.9038      2874.0962      4.1883197e+08  0.1            14988240       2.2311065      1419.8996      14198.951      4.65503      
  37837600   120605.55     -11.499527     -41146860       1.4284889      357704.73     -40789155       748.19237      748.19237      748.19237      2125.9038      2874.0962      2125.9038      2874.0962      2125.9038      2874.0962      4.1883197e+08  0.1            14988260       2.245299       1409.1836      14091.951      4.6421265    
  37837800   120321.09     -10.340112     -41148473       1.4284889      356861.05     -40791612       748.19237      748.19237      748.19237      2125.9038      2874.0962      2125.9038      2874.0962      2125.9038      2874.0962      4.1883197e+08  0.1            14988280       2.2593844      1419.9259      14199.238      4.6289877    
  37838000   120129.75     -8.8832994     -41148178       1.4284889      356293.55     -40791884       748.19237      748.19237      748.19237      2125.9038      2874.0962      2125.9038      2874.0962      2125.9038      2874.0962      4.1883197e+08  0.1            14988300       2.2738924      1378.5666      13785.588      4.6166955    
  37838200   120103.15     -7.7960174     -41147869       1.4284889      356214.66     -40791654       748.19237      748.19237      748.19237      2125.9038      2874.0962      2125.9038      2874.0962      2125.9038      2874.0962      4.1883197e+08  0.1            14988320       2.2882369      1394.248       13942.552      4.6040478    
  37838400   120300.52     -6.9860424     -41154922       1.4284889      356800.03     -40798122       748.19237      748.19237      748.19237      2125.9038      2874.0962      2125.9038      2874.0962      2125.9038      2874.0962      4.1883197e+08  0.1            14988340       2.3024253      1409.5946      14095.866      4.5910687    
  37838600   120763.6      -4.9000718     -41147202       1.4284889      358173.48     -40789028       748.19237      748.19237      748.19237      2125.9038      2874.0962      2125.9038      2874.0962      2125.9038      2874.0962      4.1883197e+08  0.1            14988360       2.3165186      1419.1258      14191.3        4.5778869    
  37838800   121515.4      -3.4267115     -41154219       1.4284889      360403.25     -40793816       748.19237      748.19237      748.19237      2125.9038      2874.0962      2125.9038      2874.0962      2125.9038      2874.0962      4.1883197e+08  0.1            14988380       2.3306491      1415.3625      14153.578      4.5647675    
  37839000   122556.7      -1.6589081     -41155738       1.4284889      363491.65     -40792247       748.19237      748.19237      748.19237      2125.9038      2874.0962      2125.9038      2874.0962      2125.9038      2874.0962      4.1883197e+08  0.1            14988400       2.3448628      1407.0933      14070.934      4.5517978    
  37839200   123864.99      0.3117158     -41155345       1.4284889      367371.92     -40787973       748.19237      748.19237      748.19237      2125.9038      2874.0962      2125.9038      2874.0962      2125.9038      2874.0962      4.1883197e+08  0.1            14988420       2.3592885      1386.4253      13864.069      4.539221     
  37839400   125396.33      1.8581807     -41156830       1.4284889      371913.74     -40784916       748.19237      748.19237      748.19237      2125.9038      2874.0962      2125.9038      2874.0962      2125.9038      2874.0962      4.1883197e+08  0.1            14988440       2.3736854      1389.1907      13892.179      4.5265674    
  37839600   127088.71      3.776665      -41156407       1.4284889      376933.18     -40779473       748.19237      748.19237      748.19237      2125.9038      2874.0962      2125.9038      2874.0962      2125.9038      2874.0962      4.1883197e+08  0.1            14988460       2.3882289      1375.1937      13751.89       4.5141715    
  37839800   128865.97      6.453949      -41155970       1.4284889      382204.35     -40773765       748.19237      748.19237      748.19237      2125.9038      2874.0962      2125.9038      2874.0962      2125.9038      2874.0962      4.1883197e+08  0.1            14988480       2.4023508      1416.2016      14162.034      4.500961     
  37840000   130644.45      9.000801      -41155516       1.4284889      387479.16     -40768037       748.19237      748.19237      748.19237      2125.9038      2874.0962      2125.9038      2874.0962      2125.9038      2874.0962      4.1883197e+08  0.1            14988500       2.4165959      1404.0305      14040.289      4.4879682    
  37840200   132342.27      11.62143      -41153151       1.4284889      392514.75     -40760637       748.19237      748.19237      748.19237      2125.9038      2874.0962      2125.9038      2874.0962      2125.9038      2874.0962      4.1883197e+08  0.1            14988520       2.4308228      1405.7771      14057.804      4.4749281    
  37840400   133883.03      14.135722     -41152664       1.4284889      397084.48     -40755580       748.19237      748.19237      748.19237      2125.9038      2874.0962      2125.9038      2874.0962      2125.9038      2874.0962      4.1883197e+08  0.1            14988540       2.4449641      1414.291       14142.898      4.4617186    
  37840600   135203.29      16.088682     -41152160       1.4284889      401000.26     -40751160       748.19237      748.19237      748.19237      2125.9038      2874.0962      2125.9038      2874.0962      2125.9038      2874.0962      4.1883197e+08  0.1            14988560       2.4592167      1403.2642      14032.662      4.4486995    
  37840800   136256.41      18.057262     -41151640       1.4284889      404123.72     -40747516       748.19237      748.19237      748.19237      2125.9038      2874.0962      2125.9038      2874.0962      2125.9038      2874.0962      4.1883197e+08  0.1            14988580       2.4737315      1377.8958      13778.731      4.4361379    
  37841000   137016.69      19.743741     -41151106       1.4284889      406378.61     -40744728       748.19237      748.19237      748.19237      2125.9038      2874.0962      2125.9038      2874.0962      2125.9038      2874.0962      4.1883197e+08  0.1            14988600       2.4883874      1364.6443      13646.531      4.4238046    
  37841200   137483.04      21.303003     -41148301       1.4284889      407761.76     -40740539       748.19237      748.19237      748.19237      2125.9038      2874.0962      2125.9038      2874.0962      2125.9038      2874.0962      4.1883197e+08  0.1            14988620       2.503107       1358.7158      13587.293      4.4115579    
  37841400   137674.48      22.871571     -41142261       1.4284889      408329.56     -40733931       748.19237      748.19237      748.19237      2125.9038      2874.0962      2125.9038      2874.0962      2125.9038      2874.0962      4.1883197e+08  0.1            14988640       2.5179978      1343.1213      13431.024      4.3995834    
  37841600   137634.76      24.03392      -41143582       1.4284889      408211.76     -40735370       748.19237      748.19237      748.19237      2125.9038      2874.0962      2125.9038      2874.0962      2125.9038      2874.0962      4.1883197e+08  0.1            14988660       2.5328271      1348.6811      13486.831      4.3874703    
  37841800   137429.36      25.259307     -41143001       1.4284889      407602.55     -40735398       748.19237      748.19237      748.19237      2125.9038      2874.0962      2125.9038      2874.0962      2125.9038      2874.0962      4.1883197e+08  0.1            14988680       2.5472773      1384.0697      13840.768      4.3746761    
  37842000   137134.43      26.917608     -41142411       1.4284889      406727.84     -40735683       748.19237      748.19237      748.19237      2125.9038      2874.0962      2125.9038      2874.0962      2125.9038      2874.0962      4.1883197e+08  0.1            14988700       2.5618431      1373.0908      13730.985      4.3620611    
  37842200   136832.78      28.754587     -41139918       1.4284889      405833.15     -40734085       748.19237      748.19237      748.19237      2125.9038      2874.0962      2125.9038      2874.0962      2125.9038      2874.0962      4.1883197e+08  0.1            14988720       2.5765569      1359.251       13592.44       4.3496757    
  37842400   136606.17      30.217263     -41139678       1.4284889      405161.05     -40734517       748.19237      748.19237      748.19237      2125.9038      2874.0962      2125.9038      2874.0962      2125.9038      2874.0962      4.1883197e+08  0.1            14988740       2.5911381      1371.6294      13716.408      4.3370427    
  37842600   136531.55      31.191643     -41155714       1.4284889      404939.76     -40750774       748.19237      748.19237      748.19237      2125.9038      2874.0962      2125.9038      2874.0962      2125.9038      2874.0962      4.1883197e+08  0.1            14988760       2.6056672      1376.5446      13765.391      4.3243035    
  37842800   136672.64      32.621569     -41162472       1.4284889      405358.21     -40757114       748.19237      748.19237      748.19237      2125.9038      2874.0962      2125.9038      2874.0962      2125.9038      2874.0962      4.1883197e+08  0.1            14988780       2.6199982      1395.5739      13955.769      4.3112182    
  37843000   137076.26      34.632116     -41156364       1.4284889      406555.29     -40749809       748.19237      748.19237      748.19237      2125.9038      2874.0962      2125.9038      2874.0962      2125.9038      2874.0962      4.1883197e+08  0.1            14988800       2.6343665      1391.9439      13919.305      4.2981817    
  37843200   137768.93      36.777199     -41155730       1.4284889      408609.7      -40747120       748.19237      748.19237      748.19237      2125.9038      2874.0962      2125.9038      2874.0962      2125.9038      2874.0962      4.1883197e+08  0.1            14988820       2.6484861      1416.4886      14165.052      4.2847274    
  37843400   138754.49      39.075456     -41153188       1.4284889      411532.78     -40741656       748.19237      748.19237      748.19237      2125.9038      2874.0962      2125.9038      2874.0962      2125.9038      2874.0962      4.1883197e+08  0.1            14988840       2.6627219      1404.8707      14048.661      4.2714542    
  37843600   140014.71      41.648772     -41150634       1.4284889      415270.47     -40735364       748.19237      748.19237      748.19237      2125.9038      2874.0962      2125.9038      2874.0962      2125.9038      2874.0962      4.1883197e+08  0.1            14988860       2.6776546      1339.3797      13393.793      4.2592783    
  37843800   141510.72      44.228993     -41148074       1.4284889      419707.5      -40728366       748.19237      748.19237      748.19237      2125.9038      2874.0962      2125.9038      2874.0962      2125.9038      2874.0962      4.1883197e+08  0.1            14988880       2.6921842      1376.4949      13764.964      4.2464387    
  37844000   143182.44      46.817105     -41147403       1.4284889      424665.67     -40722737       748.19237      748.19237      748.19237      2125.9038      2874.0962      2125.9038      2874.0962      2125.9038      2874.0962      4.1883197e+08  0.1            14988900       2.7066912      1378.6417      13786.339      4.2335468    
  37844200   144954         49.405333     -41146722       1.4284889      429919.94     -40716802       748.19237      748.19237      748.19237      2125.9038      2874.0962      2125.9038      2874.0962      2125.9038      2874.0962      4.1883197e+08  0.1            14988920       2.7208271      1414.8073      14148.25       4.2200626    
  37844400   146742.18      52.500645     -41140545       1.4284889      435223.51     -40705321       748.19237      748.19237      748.19237      2125.9038      2874.0962      2125.9038      2874.0962      2125.9038      2874.0962      4.1883197e+08  0.1            14988940       2.7350779      1403.4484      14034.256      4.2067484    
  37844600   148463.32      55.710596     -41141363       1.4284889      440328.24     -40701035       748.19237      748.19237      748.19237      2125.9038      2874.0962      2125.9038      2874.0962      2125.9038      2874.0962      4.1883197e+08  0.1            14988960       2.7493167      1404.6201      14046.393      4.1934059    
  37844800   150039.68      58.676747     -41140640       1.4284889      445003.59     -40695636       748.19237      748.19237      748.19237      2125.9038      2874.0962      2125.9038      2874.0962      2125.9038      2874.0962      4.1883197e+08  0.1            14988980       2.7636803      1392.4109      13924.027      4.180244     
  37845000   151407.4       61.141454     -41138014       1.4284889      449060.12     -40688954       748.19237      748.19237      748.19237      2125.9038      2874.0962      2125.9038      2874.0962      2125.9038      2874.0962      4.1883197e+08  0.1            14989000       2.7781223      1384.8379      13848.21       4.1671879    
  37845200   152518.09      63.460675     -41137282       1.4284889      452354.31     -40684928       748.19237      748.19237      748.19237      2125.9038      2874.0962      2125.9038      2874.0962      2125.9038      2874.0962      4.1883197e+08  0.1            14989020       2.7926547      1376.266       13762.861      4.1542509    
  37845400   153339.32      65.899841     -41136542       1.4284889      454790        -40681752       748.19237      748.19237      748.19237      2125.9038      2874.0962      2125.9038      2874.0962      2125.9038      2874.0962      4.1883197e+08  0.1            14989040       2.8068524      1408.6681      14086.684      4.1408056    
  37845600   153862.38      68.491074     -41128411       1.4284889      456341.35     -40672070       748.19237      748.19237      748.19237      2125.9038      2874.0962      2125.9038      2874.0962      2125.9038      2874.0962      4.1883197e+08  0.1            14989060       2.8209542      1418.246       14182.441      4.127213     
  37845800   154105.19      70.66687      -41133135       1.4284889      457061.5      -40676073       748.19237      748.19237      748.19237      2125.9038      2874.0962      2125.9038      2874.0962      2125.9038      2874.0962      4.1883197e+08  0.1            14989080       2.8350566      1418.2137      14182.192      4.1136149    
  37846000   154106.92      73.148909     -41132366       1.4284889      457066.63     -40675300       748.19237      748.19237      748.19237      2125.9038      2874.0962      2125.9038      2874.0962      2125.9038      2874.0962      4.1883197e+08  0.1            14989100       2.8492656      1407.5566      14075.597      4.100166     
  37846200   153927.66      75.452289     -41131592       1.4284889      456534.96     -40675057       748.19237      748.19237      748.19237      2125.9038      2874.0962      2125.9038      2874.0962      2125.9038      2874.0962      4.1883197e+08  0.1            14989120       2.8634708      1407.9424      14079.377      4.0867048    
  37846400   153642.96      77.845253     -41121544       1.4284889      455690.58     -40665853       748.19237      748.19237      748.19237      2125.9038      2874.0962      2125.9038      2874.0962      2125.9038      2874.0962      4.1883197e+08  0.1            14989140       2.8778666      1389.2822      13892.759      4.0735055    
  37846600   153334.35      79.48118      -41118872       1.4284889      454775.27     -40664096       748.19237      748.19237      748.19237      2125.9038      2874.0962      2125.9038      2874.0962      2125.9038      2874.0962      4.1883197e+08  0.1            14989160       2.8921665      1398.6119      13986.165      4.0601602    
  37846800   153085.21      81.028276     -41118092       1.4284889      454036.36     -40664056       748.19237      748.19237      748.19237      2125.9038      2874.0962      2125.9038      2874.0962      2125.9038      2874.0962      4.1883197e+08  0.1            14989180       2.9062959      1415.4485      14154.451      4.0465691    
  37847000   152973.27      82.964858     -41117311       1.4284889      453704.34     -40663606       748.19237      748.19237      748.19237      2125.9038      2874.0962      2125.9038      2874.0962      2125.9038      2874.0962      4.1883197e+08  0.1            14989200       2.9206018      1398.0634      13980.597      4.0332156    
  37847200   153063.59      85.463106     -41116521       1.4284889      453972.21     -40662549       748.19237      748.19237      748.19237      2125.9038      2874.0962      2125.9038      2874.0962      2125.9038      2874.0962      4.1883197e+08  0.1            14989220       2.9348606      1402.6346      14026.336      4.0197891    
  37847400   153407.59      87.579111     -41123103       1.4284889      454992.49     -40668110       748.19237      748.19237      748.19237      2125.9038      2874.0962      2125.9038      2874.0962      2125.9038      2874.0962      4.1883197e+08  0.1            14989240       2.9491616      1398.5102      13985.236      4.0064114    
  37847600   154039.29      89.904068     -41122306       1.4284889      456866.05     -40665440       748.19237      748.19237      748.19237      2125.9038      2874.0962      2125.9038      2874.0962      2125.9038      2874.0962      4.1883197e+08  0.1            14989260       2.963399       1404.7512      14047.459      3.9929399    
  37847800   154967.76      91.836845     -41128885       1.4284889      459619.8      -40669266       748.19237      748.19237      748.19237      2125.9038      2874.0962      2125.9038      2874.0962      2125.9038      2874.0962      4.1883197e+08  0.1            14989280       2.9781445      1356.3554      13563.487      3.9801402    
  37848000   156179.34      94.326528     -41122602       1.4284889      463213.23     -40659389       748.19237      748.19237      748.19237      2125.9038      2874.0962      2125.9038      2874.0962      2125.9038      2874.0962      4.1883197e+08  0.1            14989300       2.9929337      1352.3264      13523.113      3.9673809    
  37848200   157635.41      97.10594      -41121793       1.4284889      467531.8      -40654261       748.19237      748.19237      748.19237      2125.9038      2874.0962      2125.9038      2874.0962      2125.9038      2874.0962      4.1883197e+08  0.1            14989320       3.0072743      1394.6347      13946.485      3.9540125    
  37848400   159278.01      99.902693     -41120974       1.4284889      472403.6      -40648570       748.19237      748.19237      748.19237      2125.9038      2874.0962      2125.9038      2874.0962      2125.9038      2874.0962      4.1883197e+08  0.1            14989340       3.0215146      1404.4757      14044.864      3.9405038    
  37848600   161036.67      102.57701     -41120150       1.4284889      477619.62     -40642531       748.19237      748.19237      748.19237      2125.9038      2874.0962      2125.9038      2874.0962      2125.9038      2874.0962      4.1883197e+08  0.1            14989360       3.0357388      1406.0587      14060.613      3.9269678    
  37848800   162830.79      105.8234      -41111947       1.4284889      482940.82     -40629006       748.19237      748.19237      748.19237      2125.9038      2874.0962      2125.9038      2874.0962      2125.9038      2874.0962      4.1883197e+08  0.1            14989380       3.0500177      1400.665       14006.543      3.9134963    
  37849000   164575.71      109.31135     -41103372       1.4284889      488116.09     -40615256       748.19237      748.19237      748.19237      2125.9038      2874.0962      2125.9038      2874.0962      2125.9038      2874.0962      4.1883197e+08  0.1            14989400       3.0643728      1393.2185      13932.207      3.9001142    
  37849200   166193.06      112.22823     -41102543       1.4284889      492912.99     -40609630       748.19237      748.19237      748.19237      2125.9038      2874.0962      2125.9038      2874.0962      2125.9038      2874.0962      4.1883197e+08  0.1            14989420       3.0792421      1345.0679      13450.784      3.8873719    
  37849400   167612.04      115.50481     -41094329       1.4284889      497121.55     -40597208       748.19237      748.19237      748.19237      2125.9038      2874.0962      2125.9038      2874.0962      2125.9038      2874.0962      4.1883197e+08  0.1            14989440       3.0937396      1379.5166      13795.116      3.8741457    
  37849600   168777.89      118.32665     -41100863       1.4284889      500579.34     -40600284       748.19237      748.19237      748.19237      2125.9038      2874.0962      2125.9038      2874.0962      2125.9038      2874.0962      4.1883197e+08  0.1            14989460       3.1081886      1384.2036      13841.963      3.8608473    
  37849800   169657.69      120.96186     -41100016       1.4284889      503188.77     -40596827       748.19237      748.19237      748.19237      2125.9038      2874.0962      2125.9038      2874.0962      2125.9038      2874.0962      4.1883197e+08  0.1            14989480       3.122672       1380.8958      13808.994      3.8475811    
[...]
  38494400   306.53731      8.6923999     -41420896       1.457403       909.16086     -41419987       743.21137      743.21137      743.21137      2128.3943      2871.6057      2128.3943      2871.6057      2128.3943      2871.6057      4.1052256e+08  0.1            15053940       23.410851      1253.7141      12537.121      0.85748117   
  38494600   306.51885      5.5825551     -41420609       1.457305       909.10611     -41419700       743.22802      743.22802      743.22802      2128.386       2871.614       2128.386       2871.614       2128.386       2871.614       4.1055017e+08  0.1            15053960       23.426788      1254.944       12549.438      0.84129359   
  38494800   306.48499     -1.0651724     -41420690       1.4570983      909.00568     -41419781       743.26317      743.26317      743.26317      2128.3684      2871.6316      2128.3684      2871.6316      2128.3684      2871.6316      4.1060841e+08  0.1            15053980       23.442739      1253.9037      12539.062      0.82510683   
  38495000   306.46088     -3.8701766     -41420767       1.4570132      908.93416     -41419859       743.27764      743.27764      743.27764      2128.3612      2871.6388      2128.3612      2871.6388      2128.3612      2871.6388      4.1063239e+08  0.1            15054000       23.458778      1246.9154      12469.074      0.80892347   
  38495200   306.47925     -1.2087193     -41420847       1.4571009      908.98864     -41419938       743.26273      743.26273      743.26273      2128.3686      2871.6314      2128.3686      2871.6314      2128.3686      2871.6314      4.1060768e+08  0.1            15054020       23.475453      1199.4045      11994.113      0.79276176   
  38495400   306.50123      2.7432607     -41420925       1.4572294      909.05384     -41420016       743.24088      743.24088      743.24088      2128.3796      2871.6204      2128.3796      2871.6204      2128.3796      2871.6204      4.1057147e+08  0.1            15054040       23.491553      1242.2577      12422.571      0.77658034   
  38495600   306.50189      3.9909737     -41421004       1.4572724      909.0558      -41420095       743.23357      743.23357      743.23357      2128.3832      2871.6168      2128.3832      2871.6168      2128.3832      2871.6168      4.1055935e+08  0.1            15054060       23.507448      1258.2147      12582.154      0.76039242   
  38495800   306.4882       1.9510675     -41421083       1.4572114      909.0152      -41420174       743.24394      743.24394      743.24394      2128.378       2871.622       2128.378       2871.622       2128.378       2871.622       4.1057655e+08  0.1            15054080       23.523305      1261.3044      12613.03       0.74420367   
  38496000   306.46476     -0.83602934    -41421162       1.4571268      908.94567     -41420253       743.25833      743.25833      743.25833      2128.3708      2871.6292      2128.3708      2871.6292      2128.3708      2871.6292      4.1060039e+08  0.1            15054100       23.539212      1257.3192      12573.183      0.72801694   
  38496200   306.4691      -1.3420822     -41421240       1.4571143      908.95854     -41420331       743.26046      743.26046      743.26046      2128.3698      2871.6302      2128.3698      2871.6302      2128.3698      2871.6302      4.1060392e+08  0.1            15054120       23.555235      1248.2029      12482.045      0.71183409   
  38496400   306.48304      0.89524872    -41421319       1.4571884      908.99989     -41420410       743.24784      743.24784      743.24784      2128.3761      2871.6239      2128.3761      2871.6239      2128.3761      2871.6239      4.1058301e+08  0.1            15054140       23.571488      1230.5083      12305.087      0.69565827   
  38496600   306.48827      3.2268514     -41421397       1.4572656      909.0154      -41420488       743.23472      743.23472      743.23472      2128.3826      2871.6174      2128.3826      2871.6174      2128.3826      2871.6174      4.1056126e+08  0.1            15054160       23.587579      1242.9552      12429.54       0.67947766   
  38496800   306.48158      2.7761741     -41421475       1.4572548      908.99557     -41420566       743.23655      743.23655      743.23655      2128.3817      2871.6183      2128.3817      2871.6183      2128.3817      2871.6183      4.105643e+08   0.1            15054180       23.603542      1252.9308      12529.322      0.66329356   
  38497000   306.45789     -0.042035397   -41421554       1.4571692      908.9253      -41420645       743.25111      743.25111      743.25111      2128.3744      2871.6256      2128.3744      2871.6256      2128.3744      2871.6256      4.1058842e+08  0.1            15054200       23.619708      1237.1612      12371.537      0.64711535   
  38497200   306.4572      -1.5705252     -41421633       1.4571245      908.92325     -41420724       743.25872      743.25872      743.25872      2128.3706      2871.6294      2128.3706      2871.6294      2128.3706      2871.6294      4.1060104e+08  0.1            15054220       23.635724      1248.6859      12486.904      0.63093316   
  38497400   306.47014      0.56196049    -41421711       1.4571953      908.96163     -41420802       743.24668      743.24668      743.24668      2128.3767      2871.6233      2128.3767      2871.6233      2128.3767      2871.6233      4.1058108e+08  0.1            15054240       23.651898      1236.56        12365.584      0.61475529   
  38497600   306.47799      3.5891146     -41421789       1.4572944      908.9849      -41420880       743.22983      743.22983      743.22983      2128.3851      2871.6149      2128.3851      2871.6149      2128.3851      2871.6149      4.1055316e+08  0.1            15054260       23.668408      1211.4055      12114.099      0.59858591   
  38497800   306.46906      2.7446022     -41421868       1.4572712      908.95843     -41420959       743.23377      743.23377      743.23377      2128.3831      2871.6169      2128.3831      2871.6169      2128.3831      2871.6169      4.1055969e+08  0.1            15054280       23.684699      1227.6966      12276.97       0.58241069   
  38498000   306.43961     -1.26419       -41421946       1.4571482      908.87108     -41421037       743.25469      743.25469      743.25469      2128.3727      2871.6273      2128.3727      2871.6273      2128.3727      2871.6273      4.1059435e+08  0.1            15054300       23.700719      1248.4264      12484.169      0.56622884   
  38498200   306.44236     -1.856007      -41422024       1.4571331      908.87924     -41421115       743.25726      743.25726      743.25726      2128.3714      2871.6286      2128.3714      2871.6286      2128.3714      2871.6286      4.1059861e+08  0.1            15054320       23.716801      1243.5891      12435.976      0.55004866   
  38498400   306.46679      3.0214727     -41422102       1.4572905      908.95169     -41421193       743.2305       743.2305       743.2305       2128.3848      2871.6152      2128.3848      2871.6152      2128.3848      2871.6152      4.1055427e+08  0.1            15054340       23.733052      1230.7072      12307.064      0.5338724    
  38498600   306.46966      5.0532189     -41422180       1.4573581      908.9602      -41421271       743.219        743.219        743.219        2128.3905      2871.6095      2128.3905      2871.6095      2128.3905      2871.6095      4.1053521e+08  0.1            15054360       23.749036      1251.2884      12512.843      0.51769021   
  38498800   306.43585     -1.2738666     -41422259       1.4571621      908.85994     -41421350       743.25233      743.25233      743.25233      2128.3738      2871.6262      2128.3738      2871.6262      2128.3738      2871.6262      4.1059044e+08  0.1            15054380       23.765124      1243.156       12431.61       0.50151049   
  38499000   306.40845     -4.6825946     -41422336       1.4570583      908.77866     -41421427       743.26998      743.26998      743.26998      2128.365       2871.635       2128.365       2871.635       2128.365       2871.635       4.1061969e+08  0.1            15054400       23.781518      1219.9124      12199.104      0.48533716   
  38499200   306.45367      4.4678277     -41422414       1.4573501      908.91278     -41421505       743.22036      743.22036      743.22036      2128.3898      2871.6102      2128.3898      2871.6102      2128.3898      2871.6102      4.1053746e+08  0.1            15054420       23.797623      1241.8608      12418.608      0.46915782   
  38499400   306.47235      8.1162993     -41422489       1.4574688      908.96818     -41421580       743.20019      743.20019      743.20019      2128.3999      2871.6001      2128.3999      2871.6001      2128.3999      2871.6001      4.1050404e+08  0.1            15054440       23.813579      1253.4621      12534.635      0.45297574   
  38499600   306.43524      1.1652242     -41422571       1.4572531      908.85812     -41421663       743.23686      743.23686      743.23686      2128.3816      2871.6184      2128.3816      2871.6184      2128.3816      2871.6184      4.1056481e+08  0.1            15054460       23.829912      1224.5251      12245.263      0.43680088   
  38499800   306.39451     -6.6539207     -41422647       1.4570105      908.73731     -41421738       743.2781       743.2781       743.2781       2128.3609      2871.6391      2128.3609      2871.6391      2128.3609      2871.6391      4.1063316e+08  0.1            15054480       23.846057      1238.7851      12387.833      0.42062248   
  38500000   306.38675     -5.5892194     -41422725       1.4570475      908.71431     -41421817       743.27181      743.27181      743.27181      2128.3641      2871.6359      2128.3641      2871.6359      2128.3641      2871.6359      4.1062273e+08  0.1            15054500       23.865458      1030.8533      10308.529      0.40449933   
  38500200   306.42522      2.0572416     -41422805       1.4572916      908.8284      -41421896       743.2303       743.2303       743.2303       2128.3849      2871.6151      2128.3849      2871.6151      2128.3849      2871.6151      4.1055393e+08  0.1            15054520       23.881822      1222.2426      12222.419      0.38832234   
  38500400   306.44049      4.9296922     -41422882       1.4573856      908.87369     -41421973       743.21432      743.21432      743.21432      2128.3928      2871.6072      2128.3928      2871.6072      2128.3928      2871.6072      4.1052746e+08  0.1            15054540       23.89786       1247.0387      12470.391      0.37214003   
  38500600   306.40931     -0.71079432    -41422961       1.4572114      908.7812      -41422052       743.24393      743.24393      743.24393      2128.378       2871.622       2128.378       2871.622       2128.378       2871.622       4.1057653e+08  0.1            15054560       23.913837      1251.7392      12517.405      0.35595702   
  38500800   306.40203     -1.0294863     -41423039       1.4572049      908.75963     -41422130       743.24505      743.24505      743.24505      2128.3775      2871.6225      2128.3775      2871.6225      2128.3775      2871.6225      4.1057838e+08  0.1            15054580       23.929916      1243.9233      12439.244      0.33977571   
  38501000   306.40857      3.1345453     -41423116       1.4573394      908.779       -41422207       743.22218      743.22218      743.22218      2128.3889      2871.6111      2128.3889      2871.6111      2128.3889      2871.6111      4.1054048e+08  0.1            15054600       23.94595       1247.3096      12473.119      0.32359395   
  38501200   306.40815      1.8769735     -41423194       1.4573033      908.77776     -41422285       743.22832      743.22832      743.22832      2128.3858      2871.6142      2128.3858      2871.6142      2128.3858      2871.6142      4.1055066e+08  0.1            15054620       23.962051      1242.1862      12421.852      0.30741324   
  38501400   306.39659     -1.3652795     -41423271       1.4572047      908.74348     -41422363       743.24509      743.24509      743.24509      2128.3775      2871.6225      2128.3775      2871.6225      2128.3775      2871.6225      4.1057844e+08  0.1            15054640       23.978453      1219.3261      12193.176      0.29123631   
  38501600   306.40218      1.2526897     -41423349       1.4572905      908.76006     -41422440       743.2305       743.2305       743.2305       2128.3848      2871.6152      2128.3848      2871.6152      2128.3848      2871.6152      4.1055427e+08  0.1            15054660       23.994463      1249.205       12492.152      0.27505456   
  38501800   306.40567      3.208921      -41423426       1.4573555      908.7704      -41422517       743.21945      743.21945      743.21945      2128.3903      2871.6097      2128.3903      2871.6097      2128.3903      2871.6097      4.1053595e+08  0.1            15054680       24.010463      1250.0748      12500.721      0.25887294   
  38502000   306.37895     -0.32556136    -41423504       1.4572476      908.69118     -41422596       743.23778      743.23778      743.23778      2128.3811      2871.6189      2128.3811      2871.6189      2128.3811      2871.6189      4.1056633e+08  0.1            15054700       24.026418      1253.517       12535.16       0.24269111   
  38502200   306.39433      1.8575607     -41423581       1.4573198      908.73678     -41422673       743.22552      743.22552      743.22552      2128.3872      2871.6128      2128.3872      2871.6128      2128.3872      2871.6128      4.1054601e+08  0.1            15054720       24.042479      1245.2473      12452.477      0.22651059   
  38502400   306.40733      3.9775626     -41425553       1.4573943      908.77533     -41424644       743.21285      743.21285      743.21285      2128.3936      2871.6064      2128.3936      2871.6064      2128.3936      2871.6064      4.1052502e+08  0.1            15054740       24.058489      1249.1762      12491.776      0.21032979   
  38502600   306.37924     -1.0153631     -41423736       1.4572362      908.69202     -41422828       743.23972      743.23972      743.23972      2128.3801      2871.6199      2128.3801      2871.6199      2128.3801      2871.6199      4.1056955e+08  0.1            15054760       24.074938      1215.8907      12158.91       0.19415275   
  38502800   306.37666     -0.57838377    -41423814       1.4572534      908.68436     -41422905       743.23681      743.23681      743.23681      2128.3816      2871.6184      2128.3816      2871.6184      2128.3816      2871.6184      4.1056472e+08  0.1            15054780       24.090993      1245.757       12457.539      0.17797243   
  38503000   306.38872      4.4069656     -41425785       1.457418       908.72014     -41424876       743.20882      743.20882      743.20882      2128.3956      2871.6044      2128.3956      2871.6044      2128.3956      2871.6044      4.1051834e+08  0.1            15054800       24.106982      1250.8564      12508.532      0.16179184   
  38503200   306.38062      1.271841      -41425863       1.4573227      908.69612     -41424955       743.22502      743.22502      743.22502      2128.3875      2871.6125      2128.3875      2871.6125      2128.3875      2871.6125      4.1054519e+08  0.1            15054820       24.123023      1246.7541      12467.594      0.14561182   
  38503400   306.36765     -2.3266135     -41424046       1.4572086      908.65766     -41423137       743.24442      743.24442      743.24442      2128.3778      2871.6222      2128.3778      2871.6222      2128.3778      2871.6222      4.1057734e+08  0.1            15054840       24.139006      1251.3672      12513.677      0.12943168   
  38503600   306.33513     -8.5651398     -41424118       1.457016       908.56121     -41423210       743.27716      743.27716      743.27716      2128.3614      2871.6386      2128.3614      2871.6386      2128.3614      2871.6386      4.1063159e+08  0.1            15054860       24.154975      1252.4184      12524.194      0.11325174   
  38503800   306.34349     -5.6542848     -41424198       1.4571108      908.58601     -41423290       743.26104      743.26104      743.26104      2128.3695      2871.6305      2128.3695      2871.6305      2128.3695      2871.6305      4.1060489e+08  0.1            15054880       24.171203      1232.4132      12324.084      0.097073115  
  38504000   306.34192     -3.7971838     -41424277       1.4571725      908.58133     -41423368       743.25055      743.25055      743.25055      2128.3747      2871.6253      2128.3747      2871.6253      2128.3747      2871.6253      4.105875e+08   0.1            15054900       24.187345      1239.0346      12390.302      0.080894138  
  38504200   306.36105     -0.99046086    -41426250       1.4572684      908.63809     -41425341       743.23425      743.23425      743.23425      2128.3829      2871.6171      2128.3829      2871.6171      2128.3829      2871.6171      4.1056049e+08  0.1            15054920       24.203366      1248.3651      12483.735      0.064714888  
  38504400   306.38601      3.8873422     -41426326       1.4574251      908.71209     -41425417       743.20762      743.20762      743.20762      2128.3962      2871.6038      2128.3962      2871.6038      2128.3962      2871.6038      4.1051635e+08  0.1            15054940       24.219333      1252.5627      12525.596      0.048535742  
  38504600   306.36515      0.31439165    -41426404       1.4573161      908.65023     -41425496       743.22614      743.22614      743.22614      2128.3869      2871.6131      2128.3869      2871.6131      2128.3869      2871.6131      4.1054705e+08  0.1            15054960       24.235386      1245.8965      12458.973      0.032356994  
  38504800   306.35699     -0.59230762    -41426481       1.457291       908.62603     -41425573       743.23041      743.23041      743.23041      2128.3848      2871.6152      2128.3848      2871.6152      2128.3848      2871.6152      4.1055412e+08  0.1            15054980       24.251396      1249.1923      12491.936      0.016178385  
  38505000   306.36273      2.8961638     -41426558       1.4574039      908.64305     -41425649       743.21121      743.21121      743.21121      2128.3944      2871.6056      2128.3944      2871.6056      2128.3944      2871.6056      4.1052231e+08  0.1            15055000       24.267524      1239.3253      12393.183      0            
Loop time of 24.2676 on 4 procs for 300000 steps with 996 atoms

Performance: 106.809 ns/day, 0.225 hours/ns, 12362.176 timesteps/s
99.6% CPU use with 4 MPI tasks x 1 OpenMP threads

MPI task timing breakdown:
Section |  min time  |  avg time  |  max time  |%varavg| %total
---------------------------------------------------------------
Pair    | 7.8759     | 10.893     | 12.339     |  54.0 | 44.89
Neigh   | 0.0057985  | 0.0070596  | 0.0075458  |   0.9 |  0.03
Comm    | 5.8034     | 7.247      | 10.189     |  64.7 | 29.86
Output  | 0.065097   | 0.072627   | 0.090966   |   4.0 |  0.30
Modify  | 4.9716     | 5.113      | 5.1732     |   3.6 | 21.07
Other   |            | 0.9349     |            |       |  3.85

Nlocal:            249 ave         262 max         213 min
Histogram: 1 0 0 0 0 0 0 0 0 3
Nghost:          651.5 ave         673 max         631 min
Histogram: 1 0 0 0 1 1 0 0 0 1
Neighs:         1515.5 ave        1746 max        1128 min
Histogram: 1 0 0 0 0 0 1 0 1 1

Total # of neighbors = 6062
Ave neighs/atom = 6.0863454
Neighbor list builds = 37
Dangerous builds = 15

# run_style
run_style verlet

# write restart
write_restart ${write_res}
write_restart ./pgnpmf/37/equpmf55.res
System init for write_restart ...
Generated 0 of 1 mixed pair_coeff terms from geometric mixing rule

Total wall time: 0:00:51
