LAMMPS (23 Jun 2022 - Update 1)
OMP_NUM_THREADS environment is not set. Defaulting to 1 thread. (src/comm.cpp:98)
  using 1 OpenMP thread(s) per MPI task
# Read restart
read_restart ${read_res}
read_restart ./pgnpmf/37/equpmf59.res
Reading restart file ...
  restart file = 23 Jun 2022, LAMMPS = 23 Jun 2022
  restoring atom style atomic from restart
  orthogonal box = (2136.4076 2136.4076 2136.4076) to (2863.5924 2863.5924 2863.5924)
  1 by 2 by 2 MPI processor grid
  restoring pair style table from restart
  996 atoms
  read_restart CPU = 0.007 seconds

# Settings

pair_style table spline 9941

pair_coeff 1 1 ./pgnpmf/N20.txt DE_GNP 75.6
pair_coeff 2 2 ./pgnpmf/N100.txt DE_GNP 115.92
WARNING: 3 of 9941 force values in table DE_GNP are inconsistent with -dE/dr.
WARNING:  Should only be flagged at inflection points (src/pair_table.cpp:463)
pair_coeff 1 2 ./pgnpmf/mixed_potential.txt DE_GNP 95.66
WARNING: 1562 of 9941 force values in table DE_GNP are inconsistent with -dE/dr.
WARNING:  Should only be flagged at inflection points (src/pair_table.cpp:463)

#Neigh_list Calc Frequency

neigh_modify delay 0 every 1 check yes

# Saving Frequency (50 frames)

variable ts_save equal ${steps_equ}
variable ts_save equal 5000

# Dump
#dump 1 all custom ${ts_save} ./pgnpmf/${folder}/equilibration/trajectory/trajectory_${usic}_${trial}.equ.custom type x y z ix iy iz
#dump_modify 1 first no sort id
dump 2 all cfg 50000 ./pgnpmf/${folder}/equilibration/trajectory/dumpgen.tens_*.cfg mass type xs ys zs fx fy fz
dump 2 all cfg 50000 ./pgnpmf/37/equilibration/trajectory/dumpgen.tens_*.cfg mass type xs ys zs fx fy fz
dump_modify 2 element N20 N100

# thermo_style
thermo_style custom step temp press pe density ke etotal lx ly lz xlo xhi ylo yhi zlo zhi vol dt time cpu tpcpu spcpu cpuremain

# run info
timestep ${ts}
timestep 0.1
thermo 200

# fix

fix 1 all momentum 1000 linear 1 1 1 angular
variable T equal ${temp}
variable T equal 300
fix 2 all nvt temp ${T} 370000 100.0
fix 2 all nvt temp 300 370000 100.0

run 100000
Generated 0 of 1 mixed pair_coeff terms from geometric mixing rule
Unused restart file global fix info:
  fix style: npt, fix ID: 5
Neighbor list info ...
  update every 1 steps, delay 0 steps, check yes
  max neighbors/atom: 2000, page size: 100000
  master list distance cutoff = 117.92
  ghost atom cutoff = 117.92
  binsize = 58.96, bins = 13 13 13
  1 neighbor lists, perpetual/occasional/extra = 1 0 0
  (1) pair table, perpetual
      attributes: half, newton on
      pair build: half/bin/atomonly/newton
      stencil: half/bin/3d
      bin: standard
Per MPI rank memory allocation (min/avg/max) = 3.081 | 3.082 | 3.082 Mbytes
   Step          Temp          Press          PotEng        Density         KinEng         TotEng           Lx             Ly             Lz            Xlo            Xhi            Ylo            Yhi            Zlo            Zhi           Volume           Dt            Time           CPU           T/CPU          S/CPU         CPULeft    
  41305000   305.71017     -1.6699126     -42242262       1.5559028      906.70762     -42241355       727.18471      727.18471      727.18471      2136.4076      2863.5924      2136.4076      2863.5924      2136.4076      2863.5924      3.8453353e+08  0.1            15335000       0              0              0              0            
  41305200   334.82049     -1.793296      -42242334       1.5559028      993.0461      -42241341       727.18471      727.18471      727.18471      2136.4076      2863.5924      2136.4076      2863.5924      2136.4076      2863.5924      3.8453353e+08  0.1            15335020       0.01464414     1365.6204      13655.356      7.3089353    
  41305400   377.73682     -1.9185752     -42242410       1.5559028      1120.3319     -42241290       727.18471      727.18471      727.18471      2136.4076      2863.5924      2136.4076      2863.5924      2136.4076      2863.5924      3.8453353e+08  0.1            15335040       0.029471229    1348.9005      13488.858      7.3390858    
  41305600   424.32651     -2.0504499     -42242491       1.5559028      1258.5125     -42241233       727.18471      727.18471      727.18471      2136.4076      2863.5924      2136.4076      2863.5924      2136.4076      2863.5924      3.8453353e+08  0.1            15335060       0.043946777    1381.6521      13816.567      7.2810465    
  41305800   480.76524     -2.1873544     -42242577       1.5559028      1425.9045     -42241151       727.18471      727.18471      727.18471      2136.4076      2863.5924      2136.4076      2863.5924      2136.4076      2863.5924      3.8453353e+08  0.1            15335080       0.058139082    1409.1815      14091.894      7.209623     
  41306000   546.56592     -2.3306732     -42242668       1.5559028      1621.0632     -42241047       727.18471      727.18471      727.18471      2136.4076      2863.5924      2136.4076      2863.5924      2136.4076      2863.5924      3.8453353e+08  0.1            15335100       0.072519955    1390.7627      13907.554      7.1797724    
  41306200   622.23106     -2.4802982     -42242766       1.5559028      1845.4788     -42240920       727.18471      727.18471      727.18471      2136.4076      2863.5924      2136.4076      2863.5924      2136.4076      2863.5924      3.8453353e+08  0.1            15335120       0.087103364    1371.4364      13714.483      7.1717268    
  41306400   708.76664     -2.6375074     -42242869       1.5559028      2102.1352     -42240767       727.18471      727.18471      727.18471      2136.4076      2863.5924      2136.4076      2863.5924      2136.4076      2863.5924      3.8453353e+08  0.1            15335140       0.10121451     1417.3177      14173.155      7.1285829    
  41306600   807.37166     -2.8028507     -42242980       1.5559028      2394.5885     -42240585       727.18471      727.18471      727.18471      2136.4076      2863.5924      2136.4076      2863.5924      2136.4076      2863.5924      3.8453353e+08  0.1            15335160       0.11565221     1385.272       13852.7        7.112775     
  41306800   919.4466      -2.9772571     -42243098       1.5559028      2726.9922     -42240371       727.18471      727.18471      727.18471      2136.4076      2863.5924      2136.4076      2863.5924      2136.4076      2863.5924      3.8453353e+08  0.1            15335180       0.13002742     1391.2861      13912.857      7.0938586    
  41307000   1046.3794     -3.1621608     -42243224       1.5559028      3103.463      -42240120       727.18471      727.18471      727.18471      2136.4076      2863.5924      2136.4076      2863.5924      2136.4076      2863.5924      3.8453353e+08  0.1            15335200       0.1445944      1372.952       13729.47       7.0852681    
  41307200   1190.2769     -3.3577607     -42243358       1.5559028      3530.2493     -42239827       727.18471      727.18471      727.18471      2136.4076      2863.5924      2136.4076      2863.5924      2136.4076      2863.5924      3.8453353e+08  0.1            15335220       0.15916857     1372.2818      13722.802      7.0758936    
  41307400   1353.0271     -3.5663841     -42243500       1.5559028      4012.9512     -42239487       727.18471      727.18471      727.18471      2136.4076      2863.5924      2136.4076      2863.5924      2136.4076      2863.5924      3.8453353e+08  0.1            15335240       0.17407324     1341.8659      13418.664      7.0790959    
  41307600   1536.8662     -3.7894227     -42243652       1.5559028      4558.2007     -42239094       727.18471      727.18471      727.18471      2136.4076      2863.5924      2136.4076      2863.5924      2136.4076      2863.5924      3.8453353e+08  0.1            15335260       0.18881232     1356.9622      13569.66       7.0732961    
  41307800   1744.2771     -4.0280413     -42243814       1.5559028      5173.3618     -42238640       727.18471      727.18471      727.18471      2136.4076      2863.5924      2136.4076      2863.5924      2136.4076      2863.5924      3.8453353e+08  0.1            15335280       0.20323621     1386.5881      13865.814      7.0552906    
  41308000   1977.7917     -4.2835061     -42243985       1.5559028      5865.9443     -42238120       727.18471      727.18471      727.18471      2136.4076      2863.5924      2136.4076      2863.5924      2136.4076      2863.5924      3.8453353e+08  0.1            15335300       0.2173463      1417.3916      14173.942      7.0276261    
  41308200   2240.7642     -4.5564169     -42244168       1.5559028      6645.8959     -42237522       727.18471      727.18471      727.18471      2136.4076      2863.5924      2136.4076      2863.5924      2136.4076      2863.5924      3.8453353e+08  0.1            15335320       0.2329431      1282.337       12823.425      7.0466069    
  41308400   2536.3949     -4.8500358     -42244362       1.5559028      7522.7087     -42236839       727.18471      727.18471      727.18471      2136.4076      2863.5924      2136.4076      2863.5924      2136.4076      2863.5924      3.8453353e+08  0.1            15335340       0.24737055     1386.2369      13862.329      7.0283084    
  41308600   2868.3181     -5.1629119     -42244568       1.5559028      8507.1618     -42236061       727.18471      727.18471      727.18471      2136.4076      2863.5924      2136.4076      2863.5924      2136.4076      2863.5924      3.8453353e+08  0.1            15335360       0.26201203     1365.9902      13659.916      7.0161696    
  41308800   3240.4864     -5.489109      -42244787       1.5559028      9610.9781     -42235176       727.18471      727.18471      727.18471      2136.4076      2863.5924      2136.4076      2863.5924      2136.4076      2863.5924      3.8453353e+08  0.1            15335380       0.27722151     1314.9756      13149.709      7.0181451    
  41309000   3656.9473     -5.8191504     -42245019       1.5559028      10846.162     -42234173       727.18471      727.18471      727.18471      2136.4076      2863.5924      2136.4076      2863.5924      2136.4076      2863.5924      3.8453353e+08  0.1            15335400       0.29233393     1323.4101      13234.156      7.0160776    
  41309200   4122.6238     -6.1439792     -42245265       1.5559028      12227.315     -42233038       727.18471      727.18471      727.18471      2136.4076      2863.5924      2136.4076      2863.5924      2136.4076      2863.5924      3.8453353e+08  0.1            15335420       0.3072061      1344.8022      13448.115      7.0072789    
  41309400   4642.2625     -6.4603979     -42245526       1.5559028      13768.514     -42231758       727.18471      727.18471      727.18471      2136.4076      2863.5924      2136.4076      2863.5924      2136.4076      2863.5924      3.8453353e+08  0.1            15335440       0.32208248     1344.3944      13443.749      6.9980345    
  41309600   5220.9985     -6.7650164     -42245803       1.5559028      15484.991     -42230318       727.18471      727.18471      727.18471      2136.4076      2863.5924      2136.4076      2863.5924      2136.4076      2863.5924      3.8453353e+08  0.1            15335460       0.33680971     1358.0438      13580.495      6.9851938    
  41309800   5864.1743     -7.0567327     -42246095       1.5559028      17392.59      -42228703       727.18471      727.18471      727.18471      2136.4076      2863.5924      2136.4076      2863.5924      2136.4076      2863.5924      3.8453353e+08  0.1            15335480       0.35141315     1369.5391      13695.389      6.9697492    
  41310000   6577.0377     -7.3435381     -42246405       1.5559028      19506.876     -42226898       727.18471      727.18471      727.18471      2136.4076      2863.5924      2136.4076      2863.5924      2136.4076      2863.5924      3.8453353e+08  0.1            15335500       0.36605704     1365.749       13657.496      6.9551372    
  41310200   7365.4517     -7.6346428     -42246732       1.5559028      21845.237     -42224887       727.18471      727.18471      727.18471      2136.4076      2863.5924      2136.4076      2863.5924      2136.4076      2863.5924      3.8453353e+08  0.1            15335520       0.38132306     1310.1065      13101.088      6.9518585    
  41310400   8234.6965     -7.9341268     -42247077       1.5559028      24423.336     -42222653       727.18471      727.18471      727.18471      2136.4076      2863.5924      2136.4076      2863.5924      2136.4076      2863.5924      3.8453353e+08  0.1            15335540       0.39578186     1383.2393      13832.18       6.9335604    
  41310600   9189.9188     -8.2538677     -42247440       1.5559028      27256.435     -42220184       727.18471      727.18471      727.18471      2136.4076      2863.5924      2136.4076      2863.5924      2136.4076      2863.5924      3.8453353e+08  0.1            15335560       0.41066526     1343.7787      13437.934      6.922688     
  41310800   10235.822     -8.6178176     -42247823       1.5559028      30358.487     -42217464       727.18471      727.18471      727.18471      2136.4076      2863.5924      2136.4076      2863.5924      2136.4076      2863.5924      3.8453353e+08  0.1            15335580       0.42552426     1345.9845      13459.908      6.9111418    
  41311000   11376.205     -9.0452723     -42248224       1.5559028      33740.756     -42214484       727.18471      727.18471      727.18471      2136.4076      2863.5924      2136.4076      2863.5924      2136.4076      2863.5924      3.8453353e+08  0.1            15335600       0.44045962     1339.0687      13390.522      6.9005838    
  41311200   12614.494     -9.5397348     -42248646       1.5559028      37413.404     -42211233       727.18471      727.18471      727.18471      2136.4076      2863.5924      2136.4076      2863.5924      2136.4076      2863.5924      3.8453353e+08  0.1            15335620       0.45545397     1333.8798      13338.969      6.8906149    
  41311400   13952.403     -10.409044     -42256467       1.5559028      41381.516     -42215085       727.18471      727.18471      727.18471      2136.4076      2863.5924      2136.4076      2863.5924      2136.4076      2863.5924      3.8453353e+08  0.1            15335640       0.47095216     1290.464       12904.62       6.8877148    
  41311600   15389.886     -10.879954     -42256931       1.5559028      45644.955     -42211286       727.18471      727.18471      727.18471      2136.4076      2863.5924      2136.4076      2863.5924      2136.4076      2863.5924      3.8453353e+08  0.1            15335660       0.48646144     1289.541       12895.479      6.8842031    
  41311800   16924.669     -11.239558     -42257417       1.5559028      50196.976     -42207220       727.18471      727.18471      727.18471      2136.4076      2863.5924      2136.4076      2863.5924      2136.4076      2863.5924      3.8453353e+08  0.1            15335680       0.50115686     1360.9821      13609.838      6.8688294    
  41312000   18551.799     -12.127813     -42272680       1.5559028      55022.891     -42217657       727.18471      727.18471      727.18471      2136.4076      2863.5924      2136.4076      2863.5924      2136.4076      2863.5924      3.8453353e+08  0.1            15335700       0.51580892     1364.9864      13649.764      6.8529258    
  41312200   20263.209     -12.084496     -42273209       1.5559028      60098.774     -42213110       727.18471      727.18471      727.18471      2136.4076      2863.5924      2136.4076      2863.5924      2136.4076      2863.5924      3.8453353e+08  0.1            15335720       0.53046684     1364.4624      13644.697      6.8371599    
  41312400   22046.541     -11.835713     -42273758       1.5559028      65387.967     -42208370       727.18471      727.18471      727.18471      2136.4076      2863.5924      2136.4076      2863.5924      2136.4076      2863.5924      3.8453353e+08  0.1            15335740       0.5452731      1350.7642      13507.512      6.823317     
  41312600   23885.383     -11.517404     -42274326       1.5559028      70841.801     -42203484       727.18471      727.18471      727.18471      2136.4076      2863.5924      2136.4076      2863.5924      2136.4076      2863.5924      3.8453353e+08  0.1            15335760       0.56026109     1334.4134      13344.185      6.8116265    
  41312800   25759.092     -11.273493     -42274912       1.5559028      76399.047     -42198513       727.18471      727.18471      727.18471      2136.4076      2863.5924      2136.4076      2863.5924      2136.4076      2863.5924      3.8453353e+08  0.1            15335780       0.57550396     1312.0828      13120.475      6.8027912    
  41313000   27642.299     -11.174075     -42275515       1.5559028      81984.461     -42193531       727.18471      727.18471      727.18471      2136.4076      2863.5924      2136.4076      2863.5924      2136.4076      2863.5924      3.8453353e+08  0.1            15335800       0.59042086     1340.7496      13407.959      6.7898707    
  41313200   29505.303     -11.283675     -42276136       1.5559028      87509.956     -42188626       727.18471      727.18471      727.18471      2136.4076      2863.5924      2136.4076      2863.5924      2136.4076      2863.5924      3.8453353e+08  0.1            15335820       0.60510048     1362.4381      13624.284      6.7742059    
  41313400   31313.271     -11.653414     -42276773       1.5559028      92872.218     -42183901       727.18471      727.18471      727.18471      2136.4076      2863.5924      2136.4076      2863.5924      2136.4076      2863.5924      3.8453353e+08  0.1            15335840       0.61986031     1354.9941      13549.871      6.7594644    
  41313600   33027.541     -12.220577     -42277425       1.5559028      97956.581     -42179469       727.18471      727.18471      727.18471      2136.4076      2863.5924      2136.4076      2863.5924      2136.4076      2863.5924      3.8453353e+08  0.1            15335860       0.63458446     1358.3547      13583.641      6.7443322    
  41313800   34606.93      -12.947731     -42278089       1.5559028      102640.9      -42175448       727.18471      727.18471      727.18471      2136.4076      2863.5924      2136.4076      2863.5924      2136.4076      2863.5924      3.8453353e+08  0.1            15335880       0.64934873     1354.6229      13546.213      6.7296417    
  41314000   36010.313     -13.865925     -42278764       1.5559028      106803.2      -42171960       727.18471      727.18471      727.18471      2136.4076      2863.5924      2136.4076      2863.5924      2136.4076      2863.5924      3.8453353e+08  0.1            15335900       0.66414102     1352.0367      13520.298      6.7152332    
  41314200   37200.673     -14.86458      -42279447       1.5559028      110333.7      -42169113       727.18471      727.18471      727.18471      2136.4076      2863.5924      2136.4076      2863.5924      2136.4076      2863.5924      3.8453353e+08  0.1            15335920       0.6791847      1329.4929      13295.088      6.703281     
  41314400   38148.192     -15.715417     -42279770       1.5559028      113143.95     -42166626       727.18471      727.18471      727.18471      2136.4076      2863.5924      2136.4076      2863.5924      2136.4076      2863.5924      3.8453353e+08  0.1            15335940       0.69393069     1356.2983      13562.842      6.6883354    
  41314600   38836.338     -16.485634     -42280097       1.5559028      115184.93     -42164912       727.18471      727.18471      727.18471      2136.4076      2863.5924      2136.4076      2863.5924      2136.4076      2863.5924      3.8453353e+08  0.1            15335960       0.7084764      1374.9625      13749.593      6.6715124    
  41314800   39266.788     -17.261004     -42280795       1.5559028      116461.6      -42164333       727.18471      727.18471      727.18471      2136.4076      2863.5924      2136.4076      2863.5924      2136.4076      2863.5924      3.8453353e+08  0.1            15335980       0.72306044     1371.3262      13713.333      6.6551353    
  41315000   39463.691     -18.030927     -42281489       1.5559028      117045.6      -42164444       727.18471      727.18471      727.18471      2136.4076      2863.5924      2136.4076      2863.5924      2136.4076      2863.5924      3.8453353e+08  0.1            15336000       0.74039214     1153.9792      11539.532      6.6635571    
  41315200   39474.403     -18.513414     -42274802       1.5559028      117077.37     -42157725       727.18471      727.18471      727.18471      2136.4076      2863.5924      2136.4076      2863.5924      2136.4076      2863.5924      3.8453353e+08  0.1            15336020       0.75610181     1272.5602      12725.926      6.6567446    
  41315400   39362.754     -19.28579      -42275487       1.5559028      116746.23     -42158741       727.18471      727.18471      727.18471      2136.4076      2863.5924      2136.4076      2863.5924      2136.4076      2863.5924      3.8453353e+08  0.1            15336040       0.7711731      1327.6139      13275.77       6.6439815    
  41315600   39201.178     -20.019136     -42276165       1.5559028      116267.01     -42159897       727.18471      727.18471      727.18471      2136.4076      2863.5924      2136.4076      2863.5924      2136.4076      2863.5924      3.8453353e+08  0.1            15336060       0.78611612     1338.4162      13384.507      6.6300971    
  41315800   39061.711     -20.809045     -42276834       1.5559028      115853.36     -42160981       727.18471      727.18471      727.18471      2136.4076      2863.5924      2136.4076      2863.5924      2136.4076      2863.5924      3.8453353e+08  0.1            15336080       0.80065945     1375.191       13751.849      6.6128783    
  41316000   39010.682     -21.792912     -42277496       1.5559028      115702.01     -42161794       727.18471      727.18471      727.18471      2136.4076      2863.5924      2136.4076      2863.5924      2136.4076      2863.5924      3.8453353e+08  0.1            15336100       0.81530554     1365.5438      13655.426      6.5965875    
  41316200   39105.898     -22.938005     -42278153       1.5559028      115984.42     -42162168       727.18471      727.18471      727.18471      2136.4076      2863.5924      2136.4076      2863.5924      2136.4076      2863.5924      3.8453353e+08  0.1            15336120       0.82956074     1403.0192      14030.325      6.5772518    
  41316400   39393.847     -24.048701     -42279174       1.5559028      116838.45     -42162336       727.18471      727.18471      727.18471      2136.4076      2863.5924      2136.4076      2863.5924      2136.4076      2863.5924      3.8453353e+08  0.1            15336140       0.84398204     1386.8495      13868.442      6.5593896    
  41316600   39908.649     -24.687003     -42279824       1.5559028      118365.3      -42161459       727.18471      727.18471      727.18471      2136.4076      2863.5924      2136.4076      2863.5924      2136.4076      2863.5924      3.8453353e+08  0.1            15336160       0.85859345     1368.7835      13687.919      6.5430933    
  41316800   40669.553     -25.351798     -42287852       1.5559028      120622.07     -42167230       727.18471      727.18471      727.18471      2136.4076      2863.5924      2136.4076      2863.5924      2136.4076      2863.5924      3.8453353e+08  0.1            15336180       0.87348871     1342.7187      13427.113      6.5289776    
  41317000   41677.618     -25.570871     -42288503       1.5559028      123611.9      -42164891       727.18471      727.18471      727.18471      2136.4076      2863.5924      2136.4076      2863.5924      2136.4076      2863.5924      3.8453353e+08  0.1            15336200       0.88829618     1350.6462      13506.427      6.5141931    
  41317200   42913.535     -25.769429     -42289157       1.5559028      127277.51     -42161880       727.18471      727.18471      727.18471      2136.4076      2863.5924      2136.4076      2863.5924      2136.4076      2863.5924      3.8453353e+08  0.1            15336220       0.90281304     1377.7222      13777.234      6.4973133    
  41317400   44336.922     -25.831497     -42289447       1.5559028      131499.14     -42157948       727.18471      727.18471      727.18471      2136.4076      2863.5924      2136.4076      2863.5924      2136.4076      2863.5924      3.8453353e+08  0.1            15336240       0.91763532     1349.3105      13493.171      6.482669     
  41317600   45891.573     -26.243759     -42290110       1.5559028      136110.09     -42154000       727.18471      727.18471      727.18471      2136.4076      2863.5924      2136.4076      2863.5924      2136.4076      2863.5924      3.8453353e+08  0.1            15336260       0.93226239     1367.3348      13673.406      6.4666629    
  41317800   47512.357     -26.892401     -42290779       1.5559028      140917.18     -42149862       727.18471      727.18471      727.18471      2136.4076      2863.5924      2136.4076      2863.5924      2136.4076      2863.5924      3.8453353e+08  0.1            15336280       0.94691651     1364.8145      13647.742      6.4508893    
  41318000   49130.625     -27.353524     -42289560       1.5559028      145716.82     -42143843       727.18471      727.18471      727.18471      2136.4076      2863.5924      2136.4076      2863.5924      2136.4076      2863.5924      3.8453353e+08  0.1            15336300       0.96163458     1358.8536      13588.803      6.4355736    
  41318200   50679.718     -28.404282     -42304994       1.5559028      150311.28     -42154683       727.18471      727.18471      727.18471      2136.4076      2863.5924      2136.4076      2863.5924      2136.4076      2863.5924      3.8453353e+08  0.1            15336320       0.97666307     1330.8173      13308.119      6.4223175    
  41318400   52098.091     -28.732257     -42305675       1.5559028      154518.04     -42151157       727.18471      727.18471      727.18471      2136.4076      2863.5924      2136.4076      2863.5924      2136.4076      2863.5924      3.8453353e+08  0.1            15336340       0.99154535     1343.8921      13439.042      6.4080628    
  41318600   53333.491     -29.200767     -42306359       1.5559028      158182.12     -42148177       727.18471      727.18471      727.18471      2136.4076      2863.5924      2136.4076      2863.5924      2136.4076      2863.5924      3.8453353e+08  0.1            15336360       1.0062174      1363.1301      13631.343      6.3924563    
  41318800   54345.667     -29.482569     -42306675       1.5559028      161184.14     -42145491       727.18471      727.18471      727.18471      2136.4076      2863.5924      2136.4076      2863.5924      2136.4076      2863.5924      3.8453353e+08  0.1            15336380       1.0211797      1336.6986      13366.938      6.3786896    
  41319000   55109.217     -29.506338     -42305461       1.5559028      163448.76     -42142013       727.18471      727.18471      727.18471      2136.4076      2863.5924      2136.4076      2863.5924      2136.4076      2863.5924      3.8453353e+08  0.1            15336400       1.0360268      1347.0554      13470.52       6.3641816    
  41319200   55618.954     -29.718422     -42306136       1.5559028      164960.59     -42141175       727.18471      727.18471      727.18471      2136.4076      2863.5924      2136.4076      2863.5924      2136.4076      2863.5924      3.8453353e+08  0.1            15336420       1.0511316      1324.0876      13240.823      6.3512198    
  41319400   55892.454     -29.91794      -42299058       1.5559028      165771.76     -42133287       727.18471      727.18471      727.18471      2136.4076      2863.5924      2136.4076      2863.5924      2136.4076      2863.5924      3.8453353e+08  0.1            15336440       1.0662632      1321.7266      13217.348      6.3383591    
  41319600   55968.906     -31.119076     -42301617       1.5559028      165998.51     -42135619       727.18471      727.18471      727.18471      2136.4076      2863.5924      2136.4076      2863.5924      2136.4076      2863.5924      3.8453353e+08  0.1            15336460       1.0819947      1271.3449      12713.334      6.3289436    
  41319800   55904.074     -32.192353     -42302274       1.5559028      165806.23     -42136468       727.18471      727.18471      727.18471      2136.4076      2863.5924      2136.4076      2863.5924      2136.4076      2863.5924      3.8453353e+08  0.1            15336480       1.0971584      1318.9393      13189.474      6.316089     
  41320000   55764.442     -33.066647     -42302922       1.5559028      165392.09     -42137530       727.18471      727.18471      727.18471      2136.4076      2863.5924      2136.4076      2863.5924      2136.4076      2863.5924      3.8453353e+08  0.1            15336500       1.112262       1324.1745      13241.807      6.3028332    
  41320200   55621.161     -33.465677     -42296181       1.5559028      164967.13     -42131214       727.18471      727.18471      727.18471      2136.4076      2863.5924      2136.4076      2863.5924      2136.4076      2863.5924      3.8453353e+08  0.1            15336520       1.1269055      1365.8042      13658.126      6.2869604    
  41320400   55543.063     -34.24055      -42296807       1.5559028      164735.5      -42132071       727.18471      727.18471      727.18471      2136.4076      2863.5924      2136.4076      2863.5924      2136.4076      2863.5924      3.8453353e+08  0.1            15336540       1.1415936      1361.6609      13616.165      6.2713674    
  41320600   55592.101     -34.902594     -42297423       1.5559028      164880.95     -42132542       727.18471      727.18471      727.18471      2136.4076      2863.5924      2136.4076      2863.5924      2136.4076      2863.5924      3.8453353e+08  0.1            15336560       1.1562813      1361.6715      13617.02       6.2557924    
  41320800   55819.964     -35.374436     -42298033       1.5559028      165556.77     -42132476       727.18471      727.18471      727.18471      2136.4076      2863.5924      2136.4076      2863.5924      2136.4076      2863.5924      3.8453353e+08  0.1            15336580       1.1710216      1356.8204      13568.236      6.2405214    
  41321000   56265.341     -35.495855     -42298636       1.5559028      166877.71     -42131759       727.18471      727.18471      727.18471      2136.4076      2863.5924      2136.4076      2863.5924      2136.4076      2863.5924      3.8453353e+08  0.1            15336600       1.1861632      1320.8537      13208.402      6.2273722    
  41321200   56952.968     -36.089992     -42308875       1.5559028      168917.15     -42139958       727.18471      727.18471      727.18471      2136.4076      2863.5924      2136.4076      2863.5924      2136.4076      2863.5924      3.8453353e+08  0.1            15336620       1.2008038      1366.0691      13660.771      6.21158      
  41321400   57890.168     -35.376206     -42300197       1.5559028      171696.8      -42128500       727.18471      727.18471      727.18471      2136.4076      2863.5924      2136.4076      2863.5924      2136.4076      2863.5924      3.8453353e+08  0.1            15336640       1.2153927      1370.8898      13708.913      6.1955549    
  41321600   59063.571     -34.960016     -42300787       1.5559028      175177        -42125610       727.18471      727.18471      727.18471      2136.4076      2863.5924      2136.4076      2863.5924      2136.4076      2863.5924      3.8453353e+08  0.1            15336660       1.2299684      1372.1573      13721.637      6.1794937    
  41321800   60440.328     -34.727978     -42301372       1.5559028      179260.33     -42122111       727.18471      727.18471      727.18471      2136.4076      2863.5924      2136.4076      2863.5924      2136.4076      2863.5924      3.8453353e+08  0.1            15336680       1.2446862      1358.917       13589.064      6.1641735    
  41322000   61970.764     -34.897873     -42301952       1.5559028      183799.46     -42118153       727.18471      727.18471      727.18471      2136.4076      2863.5924      2136.4076      2863.5924      2136.4076      2863.5924      3.8453353e+08  0.1            15336700       1.259288       1369.6616      13696.582      6.1483036    
  41322200   63593.116     -35.263801     -42302530       1.5559028      188611.21     -42113919       727.18471      727.18471      727.18471      2136.4076      2863.5924      2136.4076      2863.5924      2136.4076      2863.5924      3.8453353e+08  0.1            15336720       1.274315       1330.9665      13309.678      6.1345062    
  41322400   65237.543     -35.647204     -42303475       1.5559028      193488.42     -42109987       727.18471      727.18471      727.18471      2136.4076      2863.5924      2136.4076      2863.5924      2136.4076      2863.5924      3.8453353e+08  0.1            15336740       1.2893339      1331.6586      13316.624      6.1206435    
  41322600   66832.94      -35.725554     -42304050       1.5559028      198220.22     -42105830       727.18471      727.18471      727.18471      2136.4076      2863.5924      2136.4076      2863.5924      2136.4076      2863.5924      3.8453353e+08  0.1            15336760       1.3038257      1380.0949      13801.098      6.1042876    
  41322800   68311.817     -35.695573     -42304623       1.5559028      202606.43     -42102017       727.18471      727.18471      727.18471      2136.4076      2863.5924      2136.4076      2863.5924      2136.4076      2863.5924      3.8453353e+08  0.1            15336780       1.3182555      1386.0263      13860.082      6.0876857    
  41323000   69614.079     -35.663251     -42305192       1.5559028      206468.81     -42098723       727.18471      727.18471      727.18471      2136.4076      2863.5924      2136.4076      2863.5924      2136.4076      2863.5924      3.8453353e+08  0.1            15336800       1.3327864      1376.371       13763.757      6.0715943    
  41323200   70692.518     -35.607004     -42305751       1.5559028      209667.36     -42096084       727.18471      727.18471      727.18471      2136.4076      2863.5924      2136.4076      2863.5924      2136.4076      2863.5924      3.8453353e+08  0.1            15336820       1.3471031      1396.9652      13969.719      6.0545737    
  41323400   71517.064     -35.123785     -42298924       1.5559028      212112.89     -42086811       727.18471      727.18471      727.18471      2136.4076      2863.5924      2136.4076      2863.5924      2136.4076      2863.5924      3.8453353e+08  0.1            15336840       1.3616787      1372.1594      13721.484      6.0387607    
  41323600   72078.246     -34.907712     -42299466       1.5559028      213777.3      -42085689       727.18471      727.18471      727.18471      2136.4076      2863.5924      2136.4076      2863.5924      2136.4076      2863.5924      3.8453353e+08  0.1            15336860       1.3768968      1314.2047      13142.178      6.0257859    
  41323800   72387.715     -34.968728     -42301891       1.5559028      214695.16     -42087195       727.18471      727.18471      727.18471      2136.4076      2863.5924      2136.4076      2863.5924      2136.4076      2863.5924      3.8453353e+08  0.1            15336880       1.3922418      1303.3766      13033.646      6.013311     
  41324000   72480.116     -35.002987     -42302407       1.5559028      214969.21     -42087438       727.18471      727.18471      727.18471      2136.4076      2863.5924      2136.4076      2863.5924      2136.4076      2863.5924      3.8453353e+08  0.1            15336900       1.4072643      1331.3242      13313.325      5.9994013    
  41324200   72409.923     -35.047479     -42302910       1.5559028      214761.03     -42088149       727.18471      727.18471      727.18471      2136.4076      2863.5924      2136.4076      2863.5924      2136.4076      2863.5924      3.8453353e+08  0.1            15336920       1.4221509      1343.4951      13434.93       5.9848962    
  41324400   72244.487     -35.384171     -42303402       1.5559028      214270.36     -42089131       727.18471      727.18471      727.18471      2136.4076      2863.5924      2136.4076      2863.5924      2136.4076      2863.5924      3.8453353e+08  0.1            15336940       1.4374381      1308.2853      13082.833      5.9720475    
  41324600   72057.399     -36.400614     -42313153       1.5559028      213715.47     -42099438       727.18471      727.18471      727.18471      2136.4076      2863.5924      2136.4076      2863.5924      2136.4076      2863.5924      3.8453353e+08  0.1            15336960       1.4522657      1348.8323      13488.296      5.9572644    
  41324800   71921.95      -36.78759      -42313621       1.5559028      213313.74     -42100307       727.18471      727.18471      727.18471      2136.4076      2863.5924      2136.4076      2863.5924      2136.4076      2863.5924      3.8453353e+08  0.1            15336980       1.4672891      1331.2638      13312.668      5.9432724    
  41325000   71904.888     -37.137672     -42314076       1.5559028      213263.14     -42100813       727.18471      727.18471      727.18471      2136.4076      2863.5924      2136.4076      2863.5924      2136.4076      2863.5924      3.8453353e+08  0.1            15337000       1.4829578      1276.4184      12764.236      5.9318423    
  41325200   72064.1       -37.473833     -42314521       1.5559028      213735.35     -42100786       727.18471      727.18471      727.18471      2136.4076      2863.5924      2136.4076      2863.5924      2136.4076      2863.5924      3.8453353e+08  0.1            15337020       1.4979916      1330.3239      13303.179      5.9178198    
  41325400   72443.379     -37.708135     -42314955       1.5559028      214860.25     -42100094       727.18471      727.18471      727.18471      2136.4076      2863.5924      2136.4076      2863.5924      2136.4076      2863.5924      3.8453353e+08  0.1            15337040       1.5130125      1331.4938      13314.944      5.9037261    
  41325600   73071.115     -37.298738     -42307998       1.5559028      216722.06     -42091276       727.18471      727.18471      727.18471      2136.4076      2863.5924      2136.4076      2863.5924      2136.4076      2863.5924      3.8453353e+08  0.1            15337060       1.5278171      1350.9379      13509.412      5.8887807    
  41325800   73958.219     -36.73463      -42308408       1.5559028      219353.13     -42089055       727.18471      727.18471      727.18471      2136.4076      2863.5924      2136.4076      2863.5924      2136.4076      2863.5924      3.8453353e+08  0.1            15337080       1.5426753      1346.0451      13460.408      5.8740433    
  41326000   75095.316     -36.22466      -42316183       1.5559028      222725.65     -42093457       727.18471      727.18471      727.18471      2136.4076      2863.5924      2136.4076      2863.5924      2136.4076      2863.5924      3.8453353e+08  0.1            15337100       1.5576709      1333.7301      13337.292      5.8598197    
  41326200   76453.891     -35.468298     -42316567       1.5559028      226755.05     -42089812       727.18471      727.18471      727.18471      2136.4076      2863.5924      2136.4076      2863.5924      2136.4076      2863.5924      3.8453353e+08  0.1            15337120       1.5728297      1319.373       13193.703      5.8461883    
  41326400   77986.996     -34.875865     -42316943       1.5559028      231302.1      -42085641       727.18471      727.18471      727.18471      2136.4076      2863.5924      2136.4076      2863.5924      2136.4076      2863.5924      3.8453353e+08  0.1            15337140       1.5882666      1295.5886      12955.984      5.8335498    
  41326600   79633.229     -34.892591     -42330175       1.5559028      236184.67     -42093990       727.18471      727.18471      727.18471      2136.4076      2863.5924      2136.4076      2863.5924      2136.4076      2863.5924      3.8453353e+08  0.1            15337160       1.6034226      1319.6189      13195.85       5.8198408    
  41326800   81319.865     -34.537334     -42330537       1.5559028      241187.07     -42089350       727.18471      727.18471      727.18471      2136.4076      2863.5924      2136.4076      2863.5924      2136.4076      2863.5924      3.8453353e+08  0.1            15337180       1.6185614      1321.1049      13211.343      5.8060417    
  41327000   82970.747     -34.040219     -42323510       1.5559028      246083.44     -42077427       727.18471      727.18471      727.18471      2136.4076      2863.5924      2136.4076      2863.5924      2136.4076      2863.5924      3.8453353e+08  0.1            15337200       1.6338238      1310.4101      13104.081      5.7926573    
  41327200   84514.325     -33.806502     -42323850       1.5559028      250661.54     -42073189       727.18471      727.18471      727.18471      2136.4076      2863.5924      2136.4076      2863.5924      2136.4076      2863.5924      3.8453353e+08  0.1            15337220       1.6491698      1303.273       13032.737      5.7795322    
  41327400   85886.514     -33.63718      -42331928       1.5559028      254731.33     -42077197       727.18471      727.18471      727.18471      2136.4076      2863.5924      2136.4076      2863.5924      2136.4076      2863.5924      3.8453353e+08  0.1            15337240       1.6645117      1303.5843      13035.829      5.7663548    
  41327600   87034.542     -32.871835     -42332248       1.5559028      258136.27     -42074112       727.18471      727.18471      727.18471      2136.4076      2863.5924      2136.4076      2863.5924      2136.4076      2863.5924      3.8453353e+08  0.1            15337260       1.6803286      1264.4977      12645          5.754763     
  41327800   87921.895     -32.107003     -42332551       1.5559028      260768.08     -42071783       727.18471      727.18471      727.18471      2136.4076      2863.5924      2136.4076      2863.5924      2136.4076      2863.5924      3.8453353e+08  0.1            15337280       1.6959729      1278.4004      12784.054      5.7425143    
  41328000   88534.394     -31.345732     -42327356       1.5559028      262584.69     -42064772       727.18471      727.18471      727.18471      2136.4076      2863.5924      2136.4076      2863.5924      2136.4076      2863.5924      3.8453353e+08  0.1            15337300       1.7115187      1286.5451      12865.426      5.7298759    
  41328200   88882.405     -31.362924     -42335011       1.5559028      263616.86     -42071394       727.18471      727.18471      727.18471      2136.4076      2863.5924      2136.4076      2863.5924      2136.4076      2863.5924      3.8453353e+08  0.1            15337320       1.7271448      1279.9089      12799.161      5.7174534    
  41328400   88996.103     -31.428168     -42337169       1.5559028      263954.08     -42073215       727.18471      727.18471      727.18471      2136.4076      2863.5924      2136.4076      2863.5924      2136.4076      2863.5924      3.8453353e+08  0.1            15337340       1.7424104      1310.14        13101.333      5.703796     
  41328600   88926.205     -31.635112     -42342899       1.5559028      263746.76     -42079152       727.18471      727.18471      727.18471      2136.4076      2863.5924      2136.4076      2863.5924      2136.4076      2863.5924      3.8453353e+08  0.1            15337360       1.7575585      1320.2768      13202.701      5.6897327    
  41328800   88739.269     -30.763115     -42328373       1.5559028      263192.33     -42065180       727.18471      727.18471      727.18471      2136.4076      2863.5924      2136.4076      2863.5924      2136.4076      2863.5924      3.8453353e+08  0.1            15337380       1.7728107      1311.3077      13112.942      5.6759826    
  41329000   88511.032     -30.569731     -42328587       1.5559028      262515.4      -42066072       727.18471      727.18471      727.18471      2136.4076      2863.5924      2136.4076      2863.5924      2136.4076      2863.5924      3.8453353e+08  0.1            15337400       1.7883006      1291.1437      12911.562      5.6629611    
  41329200   88319.866     -30.245042     -42328791       1.5559028      261948.42     -42066843       727.18471      727.18471      727.18471      2136.4076      2863.5924      2136.4076      2863.5924      2136.4076      2863.5924      3.8453353e+08  0.1            15337420       1.8031342      1348.2828      13482.925      5.6478427    
  41329400   88237.145     -29.956948     -42336359       1.5559028      261703.08     -42074656       727.18471      727.18471      727.18471      2136.4076      2863.5924      2136.4076      2863.5924      2136.4076      2863.5924      3.8453353e+08  0.1            15337440       1.8177149      1371.7002      13716.935      5.6319446    
  41329600   88324.59      -29.367627     -42336532       1.5559028      261962.43     -42074570       727.18471      727.18471      727.18471      2136.4076      2863.5924      2136.4076      2863.5924      2136.4076      2863.5924      3.8453353e+08  0.1            15337460       1.831911       1408.8466      14088.518      5.6148899    
  41329800   88632.333     -28.568617     -42336689       1.5559028      262875.17     -42073814       727.18471      727.18471      727.18471      2136.4076      2863.5924      2136.4076      2863.5924      2136.4076      2863.5924      3.8453353e+08  0.1            15337480       1.8458681      1432.967       14329.73       5.5971556    
  41330000   89194.96      -27.445367     -42336832       1.5559028      264543.87     -42072288       727.18471      727.18471      727.18471      2136.4076      2863.5924      2136.4076      2863.5924      2136.4076      2863.5924      3.8453353e+08  0.1            15337500       1.8598029      1435.2488      14352.479      5.5794161    
  41330200   90028.341     -25.938564     -42336961       1.5559028      267015.6      -42069945       727.18471      727.18471      727.18471      2136.4076      2863.5924      2136.4076      2863.5924      2136.4076      2863.5924      3.8453353e+08  0.1            15337520       1.8740224      1406.5317      14065.355      5.5625812    
  41330400   91126.956     -24.558753     -42344453       1.5559028      270273.99     -42074179       727.18471      727.18471      727.18471      2136.4076      2863.5924      2136.4076      2863.5924      2136.4076      2863.5924      3.8453353e+08  0.1            15337540       1.8881323      1417.4434      14174.423      5.5454661    
  41330600   92464.559     -22.85324      -42342656       1.5559028      274241.19     -42068415       727.18471      727.18471      727.18471      2136.4076      2863.5924      2136.4076      2863.5924      2136.4076      2863.5924      3.8453353e+08  0.1            15337560       1.9019234      1450.2133      14502.188      5.5274713    
  41330800   93994.615     -21.661991     -42342739       1.5559028      278779.19     -42063959       727.18471      727.18471      727.18471      2136.4076      2863.5924      2136.4076      2863.5924      2136.4076      2863.5924      3.8453353e+08  0.1            15337580       1.9157244      1449.1757      14491.777      5.5095701    
  41331000   95654.879     -20.683922     -42342806       1.5559028      283703.38     -42059103       727.18471      727.18471      727.18471      2136.4076      2863.5924      2136.4076      2863.5924      2136.4076      2863.5924      3.8453353e+08  0.1            15337600       1.9295633      1445.1923      14451.894      5.4918406    
  41331200   97373.6       -19.392215     -42342860       1.5559028      288800.94     -42054059       727.18471      727.18471      727.18471      2136.4076      2863.5924      2136.4076      2863.5924      2136.4076      2863.5924      3.8453353e+08  0.1            15337620       1.9433792      1447.6136      14476.155      5.4741048    
  41331400   99071.671     -17.625357     -42342897       1.5559028      293837.26     -42049060       727.18471      727.18471      727.18471      2136.4076      2863.5924      2136.4076      2863.5924      2136.4076      2863.5924      3.8453353e+08  0.1            15337640       1.9571923      1447.8993      14479.003      5.4564209    
  41331600   100672.37     -15.973527     -42342179       1.5559028      298584.79     -42043594       727.18471      727.18471      727.18471      2136.4076      2863.5924      2136.4076      2863.5924      2136.4076      2863.5924      3.8453353e+08  0.1            15337660       1.9711108      1436.9423      14369.408      5.439086     
  41331800   102108.71     -15.056157     -42342184       1.5559028      302844.83     -42039339       727.18471      727.18471      727.18471      2136.4076      2863.5924      2136.4076      2863.5924      2136.4076      2863.5924      3.8453353e+08  0.1            15337680       1.9857104      1369.8978      13698.959      5.4236629    
  41332000   103324.63     -14.615471     -42349555       1.5559028      306451.13     -42043104       727.18471      727.18471      727.18471      2136.4076      2863.5924      2136.4076      2863.5924      2136.4076      2863.5924      3.8453353e+08  0.1            15337700       1.9995514      1444.9792      14449.791      5.4062006    
  41332200   104280.01     -14.468937     -42358807       1.5559028      309284.71     -42049523       727.18471      727.18471      727.18471      2136.4076      2863.5924      2136.4076      2863.5924      2136.4076      2863.5924      3.8453353e+08  0.1            15337720       2.0133919      1445.0397      14450.375      5.3887901    
  41332400   104955.09     -13.906362     -42358771       1.5559028      311286.92     -42047484       727.18471      727.18471      727.18471      2136.4076      2863.5924      2136.4076      2863.5924      2136.4076      2863.5924      3.8453353e+08  0.1            15337740       2.0272215      1446.1606      14461.634      5.3714032    
  41332600   105353.79     -13.836708     -42373477       1.5559028      312469.42     -42061008       727.18471      727.18471      727.18471      2136.4076      2863.5924      2136.4076      2863.5924      2136.4076      2863.5924      3.8453353e+08  0.1            15337760       2.0410309      1448.2956      14483          5.3540149    
  41332800   105502.56     -12.510362     -42366034       1.5559028      312910.67     -42053124       727.18471      727.18471      727.18471      2136.4076      2863.5924      2136.4076      2863.5924      2136.4076      2863.5924      3.8453353e+08  0.1            15337780       2.0550902      1422.5404      14225.258      5.3373268    
  41333000   105448.31     -11.193111     -42364057       1.5559028      312749.77     -42051307       727.18471      727.18471      727.18471      2136.4076      2863.5924      2136.4076      2863.5924      2136.4076      2863.5924      3.8453353e+08  0.1            15337800       2.0689769      1440.227       14402.295      5.3202324    
  41333200   105256.34     -10.14854      -42365851       1.5559028      312180.42     -42053670       727.18471      727.18471      727.18471      2136.4076      2863.5924      2136.4076      2863.5924      2136.4076      2863.5924      3.8453353e+08  0.1            15337820       2.0835945      1368.2072      13682.149      5.3050445    
  41333400   105003.65     -9.2166035     -42367631       1.5559028      311430.96     -42056200       727.18471      727.18471      727.18471      2136.4076      2863.5924      2136.4076      2863.5924      2136.4076      2863.5924      3.8453353e+08  0.1            15337840       2.0976295      1425.0073      14249.968      5.2883963    
  41333600   104770.33     -7.7591207     -42360130       1.5559028      310738.94     -42049391       727.18471      727.18471      727.18471      2136.4076      2863.5924      2136.4076      2863.5924      2136.4076      2863.5924      3.8453353e+08  0.1            15337860       2.1115635      1435.3389      14353.44       5.271532     
  41333800   104631.23     -6.6137216     -42367369       1.5559028      310326.39     -42057043       727.18471      727.18471      727.18471      2136.4076      2863.5924      2136.4076      2863.5924      2136.4076      2863.5924      3.8453353e+08  0.1            15337880       2.1256221      1422.624       14226.087      5.2550164    
  41334000   104652.34     -4.8820544     -42359833       1.5559028      310388.99     -42049444       727.18471      727.18471      727.18471      2136.4076      2863.5924      2136.4076      2863.5924      2136.4076      2863.5924      3.8453353e+08  0.1            15337900       2.1396199      1428.7879      14287.957      5.238386     
  41334200   104890.7      -3.7732438     -42359290       1.5559028      311095.96     -42048194       727.18471      727.18471      727.18471      2136.4076      2863.5924      2136.4076      2863.5924      2136.4076      2863.5924      3.8453353e+08  0.1            15337920       2.1535303      1437.779       14377.792      5.2215794    
  41334400   105386.59     -2.7436496     -42352093       1.5559028      312566.71     -42039526       727.18471      727.18471      727.18471      2136.4076      2863.5924      2136.4076      2863.5924      2136.4076      2863.5924      3.8453353e+08  0.1            15337940       2.167238       1459.0407      14590.492      5.2043254    
  41334600   106161.06     -1.3718596     -42344518       1.5559028      314863.72     -42029654       727.18471      727.18471      727.18471      2136.4076      2863.5924      2136.4076      2863.5924      2136.4076      2863.5924      3.8453353e+08  0.1            15337960       2.1814664      1405.6421      14056.418      5.1883579    
  41334800   107212.19      0.042486993   -42351685       1.5559028      317981.28     -42033704       727.18471      727.18471      727.18471      2136.4076      2863.5924      2136.4076      2863.5924      2136.4076      2863.5924      3.8453353e+08  0.1            15337980       2.1955628      1418.8044      14188.106      5.1721028    
  41335000   108516.06      2.1612297     -42351459       1.5559028      321848.42     -42029611       727.18471      727.18471      727.18471      2136.4076      2863.5924      2136.4076      2863.5924      2136.4076      2863.5924      3.8453353e+08  0.1            15338000       2.2095159      1433.3524      14333.51       5.1555429    
  41335200   110030.43      4.1870237     -42349326       1.5559028      326339.93     -42022986       727.18471      727.18471      727.18471      2136.4076      2863.5924      2136.4076      2863.5924      2136.4076      2863.5924      3.8453353e+08  0.1            15338020       2.2232257      1458.8352      14588.349      5.138454     
  41335400   111693.66      6.4364127     -42347179       1.5559028      331272.9      -42015906       727.18471      727.18471      727.18471      2136.4076      2863.5924      2136.4076      2863.5924      2136.4076      2863.5924      3.8453353e+08  0.1            15338040       2.2373265      1418.3504      14183.391      5.1223057    
  41335600   113430.84      8.8571017     -42346908       1.5559028      336425.2      -42010483       727.18471      727.18471      727.18471      2136.4076      2863.5924      2136.4076      2863.5924      2136.4076      2863.5924      3.8453353e+08  0.1            15338060       2.2511837      1443.2912      14432.97       5.1056314    
  41335800   115163.7       11.011963     -42346990       1.5559028      341564.7      -42005425       727.18471      727.18471      727.18471      2136.4076      2863.5924      2136.4076      2863.5924      2136.4076      2863.5924      3.8453353e+08  0.1            15338080       2.2648774      1460.5254      14605.289      5.0886259    
  41336000   116812.79      13.014063     -42346688       1.5559028      346455.76     -42000233       727.18471      727.18471      727.18471      2136.4076      2863.5924      2136.4076      2863.5924      2136.4076      2863.5924      3.8453353e+08  0.1            15338100       2.2790386      1412.2993      14122.911      5.0727046    
  41336200   118306.26      14.770083     -42346369       1.5559028      350885.24     -41995484       727.18471      727.18471      727.18471      2136.4076      2863.5924      2136.4076      2863.5924      2136.4076      2863.5924      3.8453353e+08  0.1            15338120       2.2932582      1406.5185      14065.275      5.0569336    
  41336400   119584.31      16.033016     -42353413       1.5559028      354675.83     -41998738       727.18471      727.18471      727.18471      2136.4076      2863.5924      2136.4076      2863.5924      2136.4076      2863.5924      3.8453353e+08  0.1            15338140       2.3071411      1440.6162      14406.173      5.0404472    
  41336600   120603.08      17.419257     -42354961       1.5559028      357697.4      -41997263       727.18471      727.18471      727.18471      2136.4076      2863.5924      2136.4076      2863.5924      2136.4076      2863.5924      3.8453353e+08  0.1            15338160       2.3209481      1448.5436      14485.468      5.0238294    
  41336800   121338.87      18.629319     -42356495       1.5559028      359879.68     -41996615       727.18471      727.18471      727.18471      2136.4076      2863.5924      2136.4076      2863.5924      2136.4076      2863.5924      3.8453353e+08  0.1            15338180       2.3348389      1439.801       14397.962      5.0074271    
  41337000   121789.72      20.249216     -42356120       1.5559028      361216.87     -41994903       727.18471      727.18471      727.18471      2136.4076      2863.5924      2136.4076      2863.5924      2136.4076      2863.5924      3.8453353e+08  0.1            15338200       2.3487157      1441.2495      14412.455      4.9910262    
  41337200   121978.03      22.523827     -42348351       1.5559028      361775.36     -41986575       727.18471      727.18471      727.18471      2136.4076      2863.5924      2136.4076      2863.5924      2136.4076      2863.5924      3.8453353e+08  0.1            15338220       2.3626601      1434.2729      14342.724      4.9747988    
  41337400   121947.95      24.320417     -42347943       1.5559028      361686.17     -41986256       727.18471      727.18471      727.18471      2136.4076      2863.5924      2136.4076      2863.5924      2136.4076      2863.5924      3.8453353e+08  0.1            15338240       2.37696        1398.6116      13986.125      4.9593414    
  41337600   121764.26      26.254191     -42345630       1.5559028      361141.35     -41984489       727.18471      727.18471      727.18471      2136.4076      2863.5924      2136.4076      2863.5924      2136.4076      2863.5924      3.8453353e+08  0.1            15338260       2.391174       1407.0669      14070.722      4.9437204    
  41337800   121502.31      28.036033     -42345204       1.5559028      360364.42     -41984840       727.18471      727.18471      727.18471      2136.4076      2863.5924      2136.4076      2863.5924      2136.4076      2863.5924      3.8453353e+08  0.1            15338280       2.4051319      1432.8748      14328.77       4.9275923    
  41338000   121240.96      29.710303     -42344768       1.5559028      359589.3      -41985179       727.18471      727.18471      727.18471      2136.4076      2863.5924      2136.4076      2863.5924      2136.4076      2863.5924      3.8453353e+08  0.1            15338300       2.4190265      1439.367       14393.545      4.9113628    
  41338200   121058.07      31.562778     -42345842       1.5559028      359046.86     -41986795       727.18471      727.18471      727.18471      2136.4076      2863.5924      2136.4076      2863.5924      2136.4076      2863.5924      3.8453353e+08  0.1            15338320       2.4329994      1431.3872      14313.826      4.895317     
  41338400   121026         33.71296      -42343481       1.5559028      358951.75     -41984529       727.18471      727.18471      727.18471      2136.4076      2863.5924      2136.4076      2863.5924      2136.4076      2863.5924      3.8453353e+08  0.1            15338340       2.4469199      1436.7348      14367.256      4.8791926    
  41338600   121207.58      35.799851     -42343011       1.5559028      359490.28     -41983521       727.18471      727.18471      727.18471      2136.4076      2863.5924      2136.4076      2863.5924      2136.4076      2863.5924      3.8453353e+08  0.1            15338360       2.4609925      1421.1909      14212.061      4.8633948    
  41338800   121646.51      37.636013     -42342537       1.5559028      360792.1      -41981745       727.18471      727.18471      727.18471      2136.4076      2863.5924      2136.4076      2863.5924      2136.4076      2863.5924      3.8453353e+08  0.1            15338380       2.4754547      1382.9179      13829.193      4.8483807    
  41339000   122365.51      39.328254     -42342053       1.5559028      362924.61     -41979129       727.18471      727.18471      727.18471      2136.4076      2863.5924      2136.4076      2863.5924      2136.4076      2863.5924      3.8453353e+08  0.1            15338400       2.4898026      1393.9232      13939.109      4.8331515    
  41339200   123368.62      41.461046     -42335710       1.5559028      365899.74     -41969810       727.18471      727.18471      727.18471      2136.4076      2863.5924      2136.4076      2863.5924      2136.4076      2863.5924      3.8453353e+08  0.1            15338420       2.5040464      1404.1295      14041.422      4.8177313    
  41339400   124635.75      43.432887     -42335207       1.5559028      369657.92     -41965549       727.18471      727.18471      727.18471      2136.4076      2863.5924      2136.4076      2863.5924      2136.4076      2863.5924      3.8453353e+08  0.1            15338440       2.5180616      1427.0145      14270.064      4.8018898    
  41339600   126124.72      45.99289      -42329208       1.5559028      374074.08     -41955134       727.18471      727.18471      727.18471      2136.4076      2863.5924      2136.4076      2863.5924      2136.4076      2863.5924      3.8453353e+08  0.1            15338460       2.5321868      1415.9254      14159.33       4.7862766    
  41339800   127775.62      48.897336     -42326781       1.5559028      378970.48     -41947811       727.18471      727.18471      727.18471      2136.4076      2863.5924      2136.4076      2863.5924      2136.4076      2863.5924      3.8453353e+08  0.1            15338480       2.5462242      1424.76        14247.537      4.7705167    
  41340000   129514.82      51.389845     -42333979       1.5559028      384128.78     -41949850       727.18471      727.18471      727.18471      2136.4076      2863.5924      2136.4076      2863.5924      2136.4076      2863.5924      3.8453353e+08  0.1            15338500       2.5602392      1427.0379      14270.392      4.7547347    
  41340200   131263.65      54.105748     -42333413       1.5559028      389315.65     -41944097       727.18471      727.18471      727.18471      2136.4076      2863.5924      2136.4076      2863.5924      2136.4076      2863.5924      3.8453353e+08  0.1            15338520       2.5742533      1427.1378      14271.437      4.7389707    
  41340400   132943.32      56.49904      -42332836       1.5559028      394297.4      -41938538       727.18471      727.18471      727.18471      2136.4076      2863.5924      2136.4076      2863.5924      2136.4076      2863.5924      3.8453353e+08  0.1            15338540       2.5888277      1372.2541      13722.572      4.7242496    
  41340600   134481.36      58.819221     -42332253       1.5559028      398859.06     -41933394       727.18471      727.18471      727.18471      2136.4076      2863.5924      2136.4076      2863.5924      2136.4076      2863.5924      3.8453353e+08  0.1            15338560       2.6026862      1443.1756      14431.8        4.7082343    
  41340800   135813.45      61.988468     -42316906       1.5559028      402809.93     -41914096       727.18471      727.18471      727.18471      2136.4076      2863.5924      2136.4076      2863.5924      2136.4076      2863.5924      3.8453353e+08  0.1            15338580       2.6168476      1412.292       14122.889      4.6927867    
  41341000   136890.85      64.104374     -42316305       1.5559028      406005.4      -41910300       727.18471      727.18471      727.18471      2136.4076      2863.5924      2136.4076      2863.5924      2136.4076      2863.5924      3.8453353e+08  0.1            15338600       2.6308244      1430.9397      14309.431      4.6770253    
  41341200   137685.65      65.793787     -42315693       1.5559028      408362.7      -41907330       727.18471      727.18471      727.18471      2136.4076      2863.5924      2136.4076      2863.5924      2136.4076      2863.5924      3.8453353e+08  0.1            15338620       2.644913       1419.5879      14195.866      4.6614806    
  41341400   138193.14      67.537375     -42320557       1.5559028      409867.85     -41910689       727.18471      727.18471      727.18471      2136.4076      2863.5924      2136.4076      2863.5924      2136.4076      2863.5924      3.8453353e+08  0.1            15338640       2.6588771      1432.2498      14322.537      4.6457343    
  41341600   138431.98      69.628098     -42321828       1.5559028      410576.23     -41911252       727.18471      727.18471      727.18471      2136.4076      2863.5924      2136.4076      2863.5924      2136.4076      2863.5924      3.8453353e+08  0.1            15338660       2.6730903      1407.1437      14071.38       4.6304389    
  41341800   138440.97      71.830822     -42313819       1.5559028      410602.9      -41903216       727.18471      727.18471      727.18471      2136.4076      2863.5924      2136.4076      2863.5924      2136.4076      2863.5924      3.8453353e+08  0.1            15338680       2.6878302      1356.8586      13568.594      4.6160602    
  41342000   138278         73.459958     -42313177       1.5559028      410119.56     -41903057       727.18471      727.18471      727.18471      2136.4076      2863.5924      2136.4076      2863.5924      2136.4076      2863.5924      3.8453353e+08  0.1            15338700       2.701785       1433.189       14331.869      4.6003406    
  41342200   138017.71      75.616315     -42310633       1.5559028      409347.57     -41901285       727.18471      727.18471      727.18471      2136.4076      2863.5924      2136.4076      2863.5924      2136.4076      2863.5924      3.8453353e+08  0.1            15338720       2.7158727      1419.6796      14196.81       4.5848643    
  41342400   137740.67      77.671876     -42315462       1.5559028      408525.88     -41906936       727.18471      727.18471      727.18471      2136.4076      2863.5924      2136.4076      2863.5924      2136.4076      2863.5924      3.8453353e+08  0.1            15338740       2.7298575      1430.1345      14301.357      4.5692305    
  41342600   137527.43      79.948881     -42312908       1.5559028      407893.42     -41905015       727.18471      727.18471      727.18471      2136.4076      2863.5924      2136.4076      2863.5924      2136.4076      2863.5924      3.8453353e+08  0.1            15338760       2.7439608      1418.0991      14180.96       4.5538112    
  41342800   137453.42      82.1518       -42312247       1.5559028      407673.93     -41904573       727.18471      727.18471      727.18471      2136.4076      2863.5924      2136.4076      2863.5924      2136.4076      2863.5924      3.8453353e+08  0.1            15338780       2.7582508      1399.5752      13995.78       4.5387131    
  41343000   137581         84.935419     -42311582       1.5559028      408052.32     -41903530       727.18471      727.18471      727.18471      2136.4076      2863.5924      2136.4076      2863.5924      2136.4076      2863.5924      3.8453353e+08  0.1            15338800       2.772869       1368.1483      13681.413      4.524159     
  41343200   137958.34      87.392949     -42318288       1.5559028      409171.45     -41909117       727.18471      727.18471      727.18471      2136.4076      2863.5924      2136.4076      2863.5924      2136.4076      2863.5924      3.8453353e+08  0.1            15338820       2.78795        1326.1662      13261.598      4.5103529    
  41343400   138613.89      90.794647     -42302852       1.5559028      411115.76     -41891736       727.18471      727.18471      727.18471      2136.4076      2863.5924      2136.4076      2863.5924      2136.4076      2863.5924      3.8453353e+08  0.1            15338840       2.8029076      1337.12        13371.036      4.4963354    
  41343600   139555.68      93.564878     -42302532       1.5559028      413909.02     -41888623       727.18471      727.18471      727.18471      2136.4076      2863.5924      2136.4076      2863.5924      2136.4076      2863.5924      3.8453353e+08  0.1            15338860       2.8176346      1358.0493      13580.581      4.4819412    
  41343800   140769         96.31184      -42301836       1.5559028      417507.62     -41884328       727.18471      727.18471      727.18471      2136.4076      2863.5924      2136.4076      2863.5924      2136.4076      2863.5924      3.8453353e+08  0.1            15338880       2.8323391      1360.1022      13601.132      4.4675084    
  41344000   142216.4       98.902876     -42301130       1.5559028      421800.47     -41879330       727.18471      727.18471      727.18471      2136.4076      2863.5924      2136.4076      2863.5924      2136.4076      2863.5924      3.8453353e+08  0.1            15338900       2.8470819      1356.6302      13566.24       4.4531322    
  41344200   143843.03      101.2709      -42293039       1.5559028      426624.91     -41866414       727.18471      727.18471      727.18471      2136.4076      2863.5924      2136.4076      2863.5924      2136.4076      2863.5924      3.8453353e+08  0.1            15338920       2.8617452      1363.9548      13639.636      4.438629     
  41344400   145578.84      103.28226     -42292320       1.5559028      431773.16     -41860547       727.18471      727.18471      727.18471      2136.4076      2863.5924      2136.4076      2863.5924      2136.4076      2863.5924      3.8453353e+08  0.1            15338940       2.8761795      1385.5856      13855.921      4.423772     
  41344600   147343.7       105.81225     -42291227       1.5559028      437007.57     -41854219       727.18471      727.18471      727.18471      2136.4076      2863.5924      2136.4076      2863.5924      2136.4076      2863.5924      3.8453353e+08  0.1            15338960       2.8911326      1337.5088      13375.061      4.4097113    
  41344800   149056.24      108.4165      -42288599       1.5559028      442086.81     -41846512       727.18471      727.18471      727.18471      2136.4076      2863.5924      2136.4076      2863.5924      2136.4076      2863.5924      3.8453353e+08  0.1            15338980       2.9062512      1322.8606      13228.429      4.3958918    
  41345000   150638.38      111.72987     -42280480       1.5559028      446779.29     -41833701       727.18471      727.18471      727.18471      2136.4076      2863.5924      2136.4076      2863.5924      2136.4076      2863.5924      3.8453353e+08  0.1            15339000       2.9210691      1349.7281      13497.359      4.3816078    
  41345200   152022.8       114.93915     -42279726       1.5559028      450885.34     -41828840       727.18471      727.18471      727.18471      2136.4076      2863.5924      2136.4076      2863.5924      2136.4076      2863.5924      3.8453353e+08  0.1            15339020       2.9356796      1368.8808      13688.854      4.3670101    
  41345400   153158.68      117.79853     -42277069       1.5559028      454254.26     -41822815       727.18471      727.18471      727.18471      2136.4076      2863.5924      2136.4076      2863.5924      2136.4076      2863.5924      3.8453353e+08  0.1            15339040       2.9503019      1367.7852      13677.817      4.3524293    
  41345600   154013.53      120.28128     -42276298       1.5559028      456789.64     -41819508       727.18471      727.18471      727.18471      2136.4076      2863.5924      2136.4076      2863.5924      2136.4076      2863.5924      3.8453353e+08  0.1            15339060       2.9648637      1373.4523      13734.514      4.33776      
  41345800   154576.12      123.18259     -42275516       1.5559028      458458.26     -41817058       727.18471      727.18471      727.18471      2136.4076      2863.5924      2136.4076      2863.5924      2136.4076      2863.5924      3.8453353e+08  0.1            15339080       2.9797838      1340.4731      13404.789      4.3236114    
  41346000   154859.01      126.12199     -42274723       1.5559028      459297.26     -41815425       727.18471      727.18471      727.18471      2136.4076      2863.5924      2136.4076      2863.5924      2136.4076      2863.5924      3.8453353e+08  0.1            15339100       2.994603       1349.5934      13495.928      4.3093105    
  41346200   154901.68      127.91108     -42281304       1.5559028      459423.82     -41821880       727.18471      727.18471      727.18471      2136.4076      2863.5924      2136.4076      2863.5924      2136.4076      2863.5924      3.8453353e+08  0.1            15339120       3.0090477      1384.5923      13845.877      4.2944699    
  41346400   154760.44      130.46756     -42280505       1.5559028      459004.92     -41821500       727.18471      727.18471      727.18471      2136.4076      2863.5924      2136.4076      2863.5924      2136.4076      2863.5924      3.8453353e+08  0.1            15339140       3.0234517      1388.5136      13885.151      4.2795753    
  41346600   154505.28      133.16569     -42279702       1.5559028      458248.14     -41821453       727.18471      727.18471      727.18471      2136.4076      2863.5924      2136.4076      2863.5924      2136.4076      2863.5924      3.8453353e+08  0.1            15339160       3.0380664      1368.4778      13684.824      4.2649815    
  41346800   154216.78      135.49074     -42278897       1.5559028      457392.49     -41821504       727.18471      727.18471      727.18471      2136.4076      2863.5924      2136.4076      2863.5924      2136.4076      2863.5924      3.8453353e+08  0.1            15339180       3.0528762      1350.4413      13504.276      4.2506594    
  41347000   153975.29      137.55845     -42278087       1.5559028      456676.23     -41821410       727.18471      727.18471      727.18471      2136.4076      2863.5924      2136.4076      2863.5924      2136.4076      2863.5924      3.8453353e+08  0.1            15339200       3.0677022      1348.9924      13489.97       4.2363546    
  41347200   153859.41      139.24576     -42279169       1.5559028      456332.54     -41822837       727.18471      727.18471      727.18471      2136.4076      2863.5924      2136.4076      2863.5924      2136.4076      2863.5924      3.8453353e+08  0.1            15339220       3.0829451      1312.0958      13121.026      4.2226154    
  41347400   153936.01      141.90337     -42272871       1.5559028      456559.74     -41816311       727.18471      727.18471      727.18471      2136.4076      2863.5924      2136.4076      2863.5924      2136.4076      2863.5924      3.8453353e+08  0.1            15339240       3.0977984      1346.5025      13465.061      4.2083332    
  41347600   154255.92      144.55163     -42272049       1.5559028      457508.56     -41814541       727.18471      727.18471      727.18471      2136.4076      2863.5924      2136.4076      2863.5924      2136.4076      2863.5924      3.8453353e+08  0.1            15339260       3.1127631      1336.4718      13364.688      4.194196     
  41347800   154854.18      146.97067     -42269330       1.5559028      459282.93     -41810047       727.18471      727.18471      727.18471      2136.4076      2863.5924      2136.4076      2863.5924      2136.4076      2863.5924      3.8453353e+08  0.1            15339280       3.1274342      1363.2188      13632.187      4.1796586    
  41348000   155742.84      149.95334     -42261125       1.5559028      461918.63     -41799207       727.18471      727.18471      727.18471      2136.4076      2863.5924      2136.4076      2863.5924      2136.4076      2863.5924      3.8453353e+08  0.1            15339300       3.1420079      1372.3338      13723.292      4.1649908    
  41348200   156908.59      152.90518     -42260653       1.5559028      465376.12     -41795277       727.18471      727.18471      727.18471      2136.4076      2863.5924      2136.4076      2863.5924      2136.4076      2863.5924      3.8453353e+08  0.1            15339320       3.1565568      1374.6808      13746.861      4.1502911    
  41348400   158319.85      156.11309     -42257909       1.5559028      469561.78     -41788348       727.18471      727.18471      727.18471      2136.4076      2863.5924      2136.4076      2863.5924      2136.4076      2863.5924      3.8453353e+08  0.1            15339340       3.1711877      1366.965       13669.556      4.1357       
  41348600   159925.2       159.10165     -42264435       1.5559028      474323.11     -41790112       727.18471      727.18471      727.18471      2136.4076      2863.5924      2136.4076      2863.5924      2136.4076      2863.5924      3.8453353e+08  0.1            15339360       3.1865888      1298.627       12986.349      4.1221042    
  41348800   161654.31      162.03575     -42267365       1.5559028      479451.48     -41787914       727.18471      727.18471      727.18471      2136.4076      2863.5924      2136.4076      2863.5924      2136.4076      2863.5924      3.8453353e+08  0.1            15339380       3.2013509      1354.7928      13547.468      4.1076734    
  41349000   163426.09      165.67122     -42259115       1.5559028      484706.41     -41774409       727.18471      727.18471      727.18471      2136.4076      2863.5924      2136.4076      2863.5924      2136.4076      2863.5924      3.8453353e+08  0.1            15339400       3.2160577      1359.9045      13599.53       4.093168     
  41349200   165160.73      169.37358     -42258236       1.5559028      489851.19     -41768385       727.18471      727.18471      727.18471      2136.4076      2863.5924      2136.4076      2863.5924      2136.4076      2863.5924      3.8453353e+08  0.1            15339420       3.2312126      1319.7325      13197.25       4.0792264    
  41349400   166779.22      172.80341     -42257351       1.5559028      494651.48     -41762700       727.18471      727.18471      727.18471      2136.4076      2863.5924      2136.4076      2863.5924      2136.4076      2863.5924      3.8453353e+08  0.1            15339440       3.2463365      1322.4025      13224.106      4.0652354    
  41349600   168211.82      175.8162      -42263837       1.5559028      498900.44     -41764937       727.18471      727.18471      727.18471      2136.4076      2863.5924      2136.4076      2863.5924      2136.4076      2863.5924      3.8453353e+08  0.1            15339460       3.261416       1326.3059      13262.975      4.0511792    
  41349800   169403.4       178.51262     -42266729       1.5559028      502434.57     -41764294       727.18471      727.18471      727.18471      2136.4076      2863.5924      2136.4076      2863.5924      2136.4076      2863.5924      3.8453353e+08  0.1            15339480       3.2767902      1300.8713      13008.764      4.0374769    
[...]
  41994400   305.64625     -1.2599618     -42234356       1.5737937      906.51806     -42233450       724.41866      724.41866      724.41866      2137.7907      2862.2093      2137.7907      2862.2093      2137.7907      2862.2093      3.8016216e+08  0.1            15403940       25.263089      1139.0968      11390.86       0.92532402   
  41994600   305.62415     -2.4005663     -42234424       1.573763       906.4525      -42233518       724.42337      724.42337      724.42337      2137.7883      2862.2117      2137.7883      2862.2117      2137.7883      2862.2117      3.8016957e+08  0.1            15403960       25.280858      1125.5716      11255.852      0.9078762    
  41994800   305.63851      3.2663513     -42234492       1.5739343      906.49508     -42233586       724.39709      724.39709      724.39709      2137.8015      2862.1985      2137.8015      2862.1985      2137.8015      2862.1985      3.801282e+08   0.1            15403980       25.298361      1142.6015      11425.99       0.89041862   
  41995000   305.60515      2.6868499     -42234561       1.5739203      906.39616     -42233654       724.39924      724.39924      724.39924      2137.8004      2862.1996      2137.8004      2862.1996      2137.8004      2862.1996      3.8013158e+08  0.1            15404000       25.315814      1145.9617      11459.52       0.87295921   
  41995200   305.60872     -2.3369094     -42234629       1.5737743      906.40675     -42233722       724.42164      724.42164      724.42164      2137.7892      2862.2108      2137.7892      2862.2108      2137.7892      2862.2108      3.8016685e+08  0.1            15404020       25.333664      1120.4725      11204.787      0.8555132    
  41995400   305.64402      2.1917444     -42234697       1.573912       906.51143     -42233790       724.40051      724.40051      724.40051      2137.7997      2862.2003      2137.7997      2862.2003      2137.7997      2862.2003      3.8013359e+08  0.1            15404040       25.351625      1113.476       11134.726      0.83807036   
  41995600   305.62931      3.0210345     -42234764       1.5739398      906.46781     -42233858       724.39624      724.39624      724.39624      2137.8019      2862.1981      2137.8019      2862.1981      2137.8019      2862.1981      3.8012687e+08  0.1            15404060       25.369418      1124.0389      11240.441      0.82062133   
  41995800   305.60024     -2.1609752     -42234833       1.573789       906.38159     -42233926       724.41938      724.41938      724.41938      2137.7903      2862.2097      2137.7903      2862.2097      2137.7903      2862.2097      3.801633e+08   0.1            15404080       25.386936      1141.6952      11416.86       0.80316314   
  41996000   305.58861      2.5664192     -42234900       1.5739327      906.34708     -42233994       724.39733      724.39733      724.39733      2137.8013      2862.1987      2137.8013      2862.1987      2137.8013      2862.1987      3.8012858e+08  0.1            15404100       25.404513      1137.8869      11378.891      0.78570667   
  41996200   305.61159      2.1583052     -42234968       1.5739238      906.41525     -42234062       724.3987       724.3987       724.3987       2137.8007      2862.1993      2137.8007      2862.1993      2137.8007      2862.1993      3.8013073e+08  0.1            15404120       25.422047      1140.6431      11406.544      0.76824874   
  41996400   305.61351     -1.9933703     -42235036       1.5738035      906.42094     -42234130       724.41716      724.41716      724.41716      2137.7914      2862.2086      2137.7914      2862.2086      2137.7914      2862.2086      3.8015979e+08  0.1            15404140       25.439772      1128.3244      11283.184      0.75080058   
  41996600   305.61848      3.9195848     -42235103       1.5739827      906.43567     -42234197       724.38967      724.38967      724.38967      2137.8052      2862.1948      2137.8052      2862.1948      2137.8052      2862.1948      3.8011651e+08  0.1            15404160       25.458027      1095.5692      10955.715      0.73335889   
  41996800   305.59461     -0.164491      -42235172       1.5738644      906.3649      -42234266       724.40781      724.40781      724.40781      2137.7961      2862.2039      2137.7961      2862.2039      2137.7961      2862.2039      3.8014508e+08  0.1            15404180       25.475553      1141.1964      11411.995      0.71589978   
  41997000   305.56427     -0.30746221    -42235240       1.5738634      906.27489     -42234333       724.40797      724.40797      724.40797      2137.796       2862.204       2137.796       2862.204       2137.796       2862.204       3.8014533e+08  0.1            15404200       25.493129      1137.866       11378.564      0.698442     
  41997200   305.60772      4.3975296     -42235306       1.5740068      906.40378     -42234400       724.38597      724.38597      724.38597      2137.807       2862.193       2137.807       2862.193       2137.807       2862.193       3.801107e+08   0.1            15404220       25.510905      1125.1253      11251.261      0.68098934   
  41997400   305.59713     -3.2622313     -42235374       1.5737819      906.37237     -42234468       724.42048      724.42048      724.42048      2137.7898      2862.2102      2137.7898      2862.2102      2137.7898      2862.2102      3.8016502e+08  0.1            15404240       25.528983      1106.3468      11063.505      0.66354409   
  41997600   305.60954      4.4994543     -42235442       1.5740164      906.40917     -42234535       724.3845       724.3845       724.3845       2137.8078      2862.1922      2137.8078      2862.1922      2137.8078      2862.1922      3.8010838e+08  0.1            15404260       25.547349      1088.973       10889.738      0.64610527   
  41997800   305.58341     -0.23013541    -42235510       1.5738788      906.33166     -42234604       724.40561      724.40561      724.40561      2137.7972      2862.2028      2137.7972      2862.2028      2137.7972      2862.2028      3.8014162e+08  0.1            15404280       25.565851      1080.9596      10809.618      0.62866853   
  41998000   305.55062     -0.89902807    -42235578       1.5738621      906.23443     -42234672       724.40817      724.40817      724.40817      2137.7959      2862.2041      2137.7959      2862.2041      2137.7959      2862.2041      3.8014565e+08  0.1            15404300       25.584484      1073.3466      10733.4        0.61123348   
  41998200   305.6032       5.8864357     -42235644       1.5740676      906.39035     -42234737       724.37664      724.37664      724.37664      2137.8117      2862.1883      2137.8117      2862.1883      2137.8117      2862.1883      3.8009601e+08  0.1            15404320       25.602138      1132.8949      11328.942      0.59377407   
  41998400   305.57821     -5.7584315     -42235711       1.5737236      906.31625     -42234805       724.42942      724.42942      724.42942      2137.7853      2862.2147      2137.7853      2862.2147      2137.7853      2862.2147      3.801791e+08   0.1            15404340       25.619916      1124.997       11250.04       0.57631719   
  41998600   305.61349      7.9871355     -42235777       1.5741368      906.42089     -42234871       724.36602      724.36602      724.36602      2137.817       2862.183       2137.817       2862.183       2137.817       2862.183       3.800793e+08   0.1            15404360       25.63788       1113.3324      11133.317      0.55886393   
  41998800   305.55693     -4.6650874     -42235847       1.5737627      906.25312     -42234940       724.42342      724.42342      724.42342      2137.7883      2862.2117      2137.7883      2862.2117      2137.7883      2862.2117      3.8016966e+08  0.1            15404380       25.656215      1090.8325      10908.356      0.54141779   
  41999000   305.56126      4.419355      -42235915       1.574037       906.26596     -42235008       724.38134      724.38134      724.38134      2137.8093      2862.1907      2137.8093      2862.1907      2137.8093      2862.1907      3.801034e+08   0.1            15404400       25.673803      1136.5267      11365.206      0.52395541   
  41999200   305.57151     -0.033983272   -42235983       1.5739074      906.29638     -42235077       724.40122      724.40122      724.40122      2137.7994      2862.2006      2137.7994      2862.2006      2137.7994      2862.2006      3.8013471e+08  0.1            15404420       25.691113      1156.0003      11560.029      0.50648699   
  41999400   305.5932       0.12261083    -42236050       1.5739153      906.36069     -42235144       724.40001      724.40001      724.40001      2137.8         2862.2         2137.8         2862.2         2137.8         2862.2         3.801328e+08   0.1            15404440       25.708601      1143.6525      11436.481      0.48902236   
  41999600   305.58624      3.0471534     -42236117       1.5740058      906.34006     -42235211       724.38612      724.38612      724.38612      2137.8069      2862.1931      2137.8069      2862.1931      2137.8069      2862.1931      3.8011093e+08  0.1            15404460       25.726142      1140.149       11401.495      0.47155867   
  41999800   305.56107     -1.553135      -42236185       1.5738717      906.2654      -42235279       724.4067       724.4067       724.4067       2137.7967      2862.2033      2137.7967      2862.2033      2137.7967      2862.2033      3.8014332e+08  0.1            15404480       25.744082      1114.8401      11148.334      0.45410191   
  42000000   305.54952      3.6377217     -42236252       1.57403        906.23117     -42235346       724.38241      724.38241      724.38241      2137.8088      2862.1912      2137.8088      2862.1912      2137.8088      2862.1912      3.8010509e+08  0.1            15404500       25.765224      945.97584      9459.8425      0.43669877   
  42000200   305.55831     -1.5339504     -42236320       1.5738787      906.25724     -42235414       724.40562      724.40562      724.40562      2137.7972      2862.2028      2137.7972      2862.2028      2137.7972      2862.2028      3.8014163e+08  0.1            15404520       25.782738      1141.9735      11419.561      0.41923157   
  42000400   305.59919      3.384398      -42236387       1.574029       906.37848     -42235480       724.38257      724.38257      724.38257      2137.8087      2862.1913      2137.8087      2862.1913      2137.8087      2862.1913      3.8010534e+08  0.1            15404540       25.799769      1174.3174      11743.368      0.40175677   
  42000600   305.56269     -1.2506297     -42236455       1.5738936      906.27021     -42235548       724.40333      724.40333      724.40333      2137.7983      2862.2017      2137.7983      2862.2017      2137.7983      2862.2017      3.8013802e+08  0.1            15404560       25.816768      1176.5556      11765.512      0.38428211   
  42000800   305.57223      3.1510694     -42236522       1.5740285      906.29851     -42235615       724.38264      724.38264      724.38264      2137.8087      2862.1913      2137.8087      2862.1913      2137.8087      2862.1913      3.8010545e+08  0.1            15404580       25.834302      1140.5989      11405.977      0.3668157    
  42001000   305.51301     -4.4177773     -42234693       1.5738008      906.12286     -42233787       724.41757      724.41757      724.41757      2137.7912      2862.2088      2137.7912      2862.2088      2137.7912      2862.2088      3.8016044e+08  0.1            15404600       25.852133      1121.0771      11210.812      0.34935332   
  42001200   305.54131     -5.184761      -42234760       1.573781       906.20682     -42233854       724.4206       724.4206       724.4206       2137.7897      2862.2103      2137.7897      2862.2103      2137.7897      2862.2103      3.8016522e+08  0.1            15404620       25.870117      1112.6635      11126.631      0.33189216   
  42001400   305.57842     -1.0760684     -42234829       1.5739072      906.31687     -42233923       724.40125      724.40125      724.40125      2137.7994      2862.2006      2137.7994      2862.2006      2137.7994      2862.2006      3.8013474e+08  0.1            15404640       25.888195      1106.333       11063.322      0.31443155   
  42001600   305.55708     -1.9370833     -42234896       1.5738846      906.25357     -42233990       724.40471      724.40471      724.40471      2137.7976      2862.2024      2137.7976      2862.2024      2137.7976      2862.2024      3.801402e+08   0.1            15404660       25.906214      1109.9627      11099.62       0.29696944   
  42001800   305.56852      1.5897442     -42242341       1.574004       906.2875      -42241435       724.3864       724.3864       724.3864       2137.8068      2862.1932      2137.8068      2862.1932      2137.8068      2862.1932      3.8011137e+08  0.1            15404680       25.924353      1102.5831      11025.808      0.27950788   
  42002000   305.53188      0.99394394    -42242409       1.5739893      906.17883     -42241503       724.38865      724.38865      724.38865      2137.8057      2862.1943      2137.8057      2862.1943      2137.8057      2862.1943      3.8011491e+08  0.1            15404700       25.942693      1090.5199      10905.187      0.26204743   
  42002200   305.55741      0.34522447    -42242476       1.573973       906.25456     -42241570       724.39115      724.39115      724.39115      2137.8044      2862.1956      2137.8044      2862.1956      2137.8044      2862.1956      3.8011884e+08  0.1            15404720       25.961154      1083.3736      10833.765      0.24458694   
  42002400   305.58958      2.3673851     -42242543       1.5740368      906.34998     -42241637       724.38137      724.38137      724.38137      2137.8093      2862.1907      2137.8093      2862.1907      2137.8093      2862.1907      3.8010345e+08  0.1            15404740       25.979526      1088.605       10886.055      0.22712433   
  42002600   305.55606     -1.4753228     -42242611       1.5739247      906.25056     -42241704       724.39856      724.39856      724.39856      2137.8007      2862.1993      2137.8007      2862.1993      2137.8007      2862.1993      3.8013051e+08  0.1            15404760       25.997981      1083.6838      10836.812      0.20966116   
  42002800   305.55082     -0.62255482    -42242678       1.5739534      906.235       -42241772       724.39416      724.39416      724.39416      2137.8029      2862.1971      2137.8029      2862.1971      2137.8029      2862.1971      3.8012359e+08  0.1            15404780       26.01637       1087.6058      10876.034      0.19219618   
  42003000   305.53104      2.8107707     -42242745       1.5740594      906.17635     -42241839       724.3779       724.3779       724.3779       2137.8111      2862.1889      2137.8111      2862.1889      2137.8111      2862.1889      3.8009798e+08  0.1            15404800       26.035088      1068.5079      10685.063      0.17473216   
  42003200   305.56818      4.5134085     -42242812       1.5741135      906.2865      -42241905       724.36959      724.36959      724.36959      2137.8152      2862.1848      2137.8152      2862.1848      2137.8152      2862.1848      3.8008492e+08  0.1            15404820       26.053898      1063.2585      10632.665      0.15726701   
  42003400   305.57962      1.6502869     -42242880       1.5740308      906.32044     -42241973       724.38229      724.38229      724.38229      2137.8089      2862.1911      2137.8089      2862.1911      2137.8089      2862.1911      3.8010491e+08  0.1            15404840       26.072086      1099.6278      10996.178      0.13979673   
  42003600   305.54713     -1.3623515     -42241052       1.573939       906.22408     -42240146       724.39638      724.39638      724.39638      2137.8018      2862.1982      2137.8018      2862.1982      2137.8018      2862.1982      3.8012708e+08  0.1            15404860       26.090374      1093.6037      10936.141      0.12232595   
  42003800   305.53381     -2.7098122     -42241119       1.5739015      906.18456     -42240213       724.40212      724.40212      724.40212      2137.7989      2862.2011      2137.7989      2862.2011      2137.7989      2862.2011      3.8013612e+08  0.1            15404880       26.109546      1043.2008      10431.985      0.10485763   
  42004000   305.50099     -2.6015749     -42241186       1.5739077      906.08722     -42240280       724.40117      724.40117      724.40117      2137.7994      2862.2006      2137.7994      2862.2006      2137.7994      2862.2006      3.8013462e+08  0.1            15404900       26.128008      1083.3053      10832.976      0.087384653  
  42004200   305.53206     -2.2632516     -42241253       1.5739208      906.17936     -42240347       724.39916      724.39916      724.39916      2137.8004      2862.1996      2137.8004      2862.1996      2137.8004      2862.1996      3.8013146e+08  0.1            15404920       26.147174      1043.5434      10435.498      0.069912237  
  42004400   305.58387      5.2966253     -42241319       1.5741505      906.33303     -42240413       724.36393      724.36393      724.36393      2137.818       2862.182       2137.818       2862.182       2137.818       2862.182       3.80076e+08    0.1            15404940       26.166573      1030.9792      10309.802      0.052438027  
  42004600   305.53075     -3.0629126     -42241387       1.5739026      906.1755      -42240481       724.40195      724.40195      724.40195      2137.799       2862.201       2137.799       2862.201       2137.799       2862.201       3.8013585e+08  0.1            15404960       26.185961      1031.5373      10315.335      0.034961234  
  42004800   305.54993      4.1435685     -42241454       1.5741217      906.23238     -42240548       724.36835      724.36835      724.36835      2137.8158      2862.1842      2137.8158      2862.1842      2137.8158      2862.1842      3.8008296e+08  0.1            15404980       26.205173      1041.0037      10410.071      0.017481772  
  42005000   305.49921     -0.29856302    -42241522       1.5739913      906.08194     -42240616       724.38835      724.38835      724.38835      2137.8058      2862.1942      2137.8058      2862.1942      2137.8058      2862.1942      3.8011444e+08  0.1            15405000       26.223895      1068.2828      10682.849      0            
Loop time of 26.224 on 4 procs for 300000 steps with 996 atoms

Performance: 98.841 ns/day, 0.243 hours/ns, 11439.916 timesteps/s
99.5% CPU use with 4 MPI tasks x 1 OpenMP threads

MPI task timing breakdown:
Section |  min time  |  avg time  |  max time  |%varavg| %total
---------------------------------------------------------------
Pair    | 10.741     | 12.097     | 13.021     |  24.6 | 46.13
Neigh   | 0.0060614  | 0.0064487  | 0.0069138  |   0.4 |  0.02
Comm    | 6.4799     | 7.3989     | 8.7153     |  30.9 | 28.21
Output  | 0.080902   | 0.093927   | 0.13195    |   7.2 |  0.36
Modify  | 5.5834     | 5.6116     | 5.6406     |   0.9 | 21.40
Other   |            | 1.016      |            |       |  3.87

Nlocal:            249 ave         272 max         233 min
Histogram: 1 0 1 1 0 0 0 0 0 1
Nghost:            660 ave         673 max         652 min
Histogram: 1 1 0 1 0 0 0 0 0 1
Neighs:        1587.25 ave        1702 max        1304 min
Histogram: 1 0 0 0 0 0 0 0 0 3

Total # of neighbors = 6349
Ave neighs/atom = 6.374498
Neighbor list builds = 33
Dangerous builds = 7

# run_style
run_style verlet

# write restart
write_restart ${write_res}
write_restart ./pgnpmf/37/equpmf60.res
System init for write_restart ...
Generated 0 of 1 mixed pair_coeff terms from geometric mixing rule

Total wall time: 0:00:55
