LAMMPS (23 Jun 2022 - Update 1)
# Read restart
read_restart ${read_res}
read_restart ./pgnpmf/37/equpmf15.res
Reading restart file ...
  restart file = 23 Jun 2022, LAMMPS = 23 Jun 2022
  restoring atom style atomic from restart
  orthogonal box = (1896.0263 1896.0263 1896.0263) to (3103.9737 3103.9737 3103.9737)
  1 by 2 by 2 MPI processor grid
  restoring pair style table from restart
  996 atoms
  read_restart CPU = 0.005 seconds

# Settings

pair_style table spline 9941

pair_coeff 1 1 ./pgnpmf/N20.txt DE_GNP 75.6
pair_coeff 2 2 ./pgnpmf/N100.txt DE_GNP 115.92
WARNING: 3 of 9941 force values in table DE_GNP are inconsistent with -dE/dr.
WARNING:  Should only be flagged at inflection points (../pair_table.cpp:463)
pair_coeff 1 2 ./pgnpmf/mixed_potential.txt DE_GNP 95.66
WARNING: 1562 of 9941 force values in table DE_GNP are inconsistent with -dE/dr.
WARNING:  Should only be flagged at inflection points (../pair_table.cpp:463)

#Neigh_list Calc Frequency

neigh_modify delay 0 every 1 check yes

# Saving Frequency (50 frames)

variable ts_save equal ${steps_equ}
variable ts_save equal 5000

# Dump
#dump 1 all custom ${ts_save} ./pgnpmf/${folder}/equilibration/trajectory/trajectory_${usic}_${trial}.equ.custom type x y z ix iy iz
#dump_modify 1 first no sort id
dump 2 all cfg 50000 ./pgnpmf/${folder}/equilibration/trajectory/dumpgen.tens_*.cfg mass type xs ys zs fx fy fz
dump 2 all cfg 50000 ./pgnpmf/37/equilibration/trajectory/dumpgen.tens_*.cfg mass type xs ys zs fx fy fz
dump_modify 2 element N20 N100

# thermo_style
thermo_style custom step temp press pe density ke etotal lx ly lz xlo xhi ylo yhi zlo zhi vol dt time cpu tpcpu spcpu cpuremain

# run info
timestep ${ts}
timestep 0.5
thermo 200

# fix

fix 1 all momentum 1000 linear 1 1 1 angular
variable T equal ${temp}
variable T equal 300
fix 2 all nvt temp ${T} 370000 100.0
fix 2 all nvt temp 300 370000 100.0

run 100000
Generated 0 of 1 mixed pair_coeff terms from geometric mixing rule
Unused restart file global fix info:
  fix style: npt, fix ID: 5
Neighbor list info ...
  update every 1 steps, delay 0 steps, check yes
  max neighbors/atom: 2000, page size: 100000
  master list distance cutoff = 117.92
  ghost atom cutoff = 117.92
  binsize = 58.96, bins = 21 21 21
  1 neighbor lists, perpetual/occasional/extra = 1 0 0
  (1) pair table, perpetual
      attributes: half, newton on
      pair build: half/bin/atomonly/newton
      stencil: half/bin/3d
      bin: standard
Per MPI rank memory allocation (min/avg/max) = 3.085 | 3.086 | 3.087 Mbytes
   Step          Temp          Press          PotEng        Density         KinEng         TotEng           Lx             Ly             Lz            Xlo            Xhi            Ylo            Yhi            Zlo            Zhi           Volume           Dt            Time           CPU           T/CPU          S/CPU         CPULeft    
  10505000   310.00765      0.46353471    -25016862       0.33944751     919.45355     -25015943       1207.9474      1207.9474      1207.9474      1896.0263      3103.9737      1896.0263      3103.9737      1896.0263      3103.9737      1.7625606e+09  0.5            5255000        0              0              0              0            
  10505200   410.6706       0.27926316    -25016993       0.33944751     1218.0104     -25015775       1207.9474      1207.9474      1207.9474      1896.0263      3103.9737      1896.0263      3103.9737      1896.0263      3103.9737      1.7625606e+09  0.5            5255100        0.011853091    8435.9866      16870.564      5.9161171    
  10505400   624.32799      0.075479699   -25017149       0.33944751     1851.6981     -25015298       1207.9474      1207.9474      1207.9474      1896.0263      3103.9737      1896.0263      3103.9737      1896.0263      3103.9737      1.7625606e+09  0.5            5255200        0.023250808    8773.8909      17547.913      5.7900844    
  10505600   984.79112     -0.18209807    -25017343       0.33944751     2920.7979     -25014423       1207.9474      1207.9474      1207.9474      1896.0263      3103.9737      1896.0263      3103.9737      1896.0263      3103.9737      1.7625606e+09  0.5            5255300        0.03460051     8810.7365      17621.586      5.7325575    
  10505800   1557.9577     -0.52452947    -25017586       0.33944751     4620.7561     -25012966       1207.9474      1207.9474      1207.9474      1896.0263      3103.9737      1896.0263      3103.9737      1896.0263      3103.9737      1.7625606e+09  0.5            5255400        0.04585709     8883.7174      17767.41       5.686596     
  10506000   2417.89       -0.96482759    -25017889       0.33944751     7171.2344     -25010718       1207.9474      1207.9474      1207.9474      1896.0263      3103.9737      1896.0263      3103.9737      1896.0263      3103.9737      1.7625606e+09  0.5            5255500        0.057154016    8852.0243      17704          5.6584746    
  10506200   3603.9953     -1.5052027     -25018264       0.33944751     10689.111     -25007575       1207.9474      1207.9474      1207.9474      1896.0263      3103.9737      1896.0263      3103.9737      1896.0263      3103.9737      1.7625606e+09  0.5            5255600        0.06850596     8809.0499      17618.19       5.640521     
  10506400   5032.3154     -2.0324815     -25018714       0.33944751     14925.374     -25003789       1207.9474      1207.9474      1207.9474      1896.0263      3103.9737      1896.0263      3103.9737      1896.0263      3103.9737      1.7625606e+09  0.5            5255700        0.080046658    8664.9076      17329.719      5.6377511    
  10506600   6400.1736     -2.7647115     -25026603       0.33944751     18982.313     -25007620       1207.9474      1207.9474      1207.9474      1896.0263      3103.9737      1896.0263      3103.9737      1896.0263      3103.9737      1.7625606e+09  0.5            5255800        0.09138593     8818.9309      17637.809      5.6203849    
  10506800   7267.9478     -3.5160512     -25027153       0.33944751     21556.05      -25005597       1207.9474      1207.9474      1207.9474      1896.0263      3103.9737      1896.0263      3103.9737      1896.0263      3103.9737      1.7625606e+09  0.5            5255900        0.10275134     8798.6523      17597.343      5.6057872    
  10507000   7599.4082     -4.3929051     -25027720       0.33944751     22539.13      -25005180       1207.9474      1207.9474      1207.9474      1896.0263      3103.9737      1896.0263      3103.9737      1896.0263      3103.9737      1.7625606e+09  0.5            5256000        0.11426903     8682.292       17364.522      5.5993049    
  10507200   8095.2803     -5.0450269     -25020915       0.33944751     24009.84      -24996905       1207.9474      1207.9474      1207.9474      1896.0263      3103.9737      1896.0263      3103.9737      1896.0263      3103.9737      1.7625606e+09  0.5            5256100        0.12556844     8850.1394      17700.276      5.5821894    
  10507400   9159.8826     -5.8633887     -25021505       0.33944751     27167.351     -24994338       1207.9474      1207.9474      1207.9474      1896.0263      3103.9737      1896.0263      3103.9737      1896.0263      3103.9737      1.7625606e+09  0.5            5256200        0.13680097     8902.7233      17805.551      5.5633301    
  10507600   10235.222     -6.5521862     -25022126       0.33944751     30356.707     -24991769       1207.9474      1207.9474      1207.9474      1896.0263      3103.9737      1896.0263      3103.9737      1896.0263      3103.9737      1.7625606e+09  0.5            5256300        0.14812393     8831.6278      17663.134      5.5490367    
  10507800   10769.53      -7.2972902     -25022757       0.33944751     31941.413     -24990815       1207.9474      1207.9474      1207.9474      1896.0263      3103.9737      1896.0263      3103.9737      1896.0263      3103.9737      1.7625606e+09  0.5            5256400        0.1595643      8740.9432      17481.918      5.5392419    
  10508000   11108.738     -8.1603406     -25023384       0.33944751     32947.473     -24990437       1207.9474      1207.9474      1207.9474      1896.0263      3103.9737      1896.0263      3103.9737      1896.0263      3103.9737      1.7625606e+09  0.5            5256500        0.17112067     8653.2572      17306.549      5.5329744    
  10508200   11932.484     -9.0135112     -25024013       0.33944751     35390.626     -24988622       1207.9474      1207.9474      1207.9474      1896.0263      3103.9737      1896.0263      3103.9737      1896.0263      3103.9737      1.7625606e+09  0.5            5256600        0.18410943     7698.9483      15397.99       5.569377     
  10508400   13105.738     -9.7323471     -25017274       0.33944751     38870.387     -24978404       1207.9474      1207.9474      1207.9474      1896.0263      3103.9737      1896.0263      3103.9737      1896.0263      3103.9737      1.7625606e+09  0.5            5256700        0.19547655     8797.3294      17594.504      5.5538984    
  10508600   13897.083     -10.546515     -25017927       0.33944751     41217.441     -24976709       1207.9474      1207.9474      1207.9474      1896.0263      3103.9737      1896.0263      3103.9737      1896.0263      3103.9737      1.7625606e+09  0.5            5256800        0.20703617     8650.7413      17301.521      5.5440299    
  10508800   14208.245     -11.431509     -25018578       0.33944751     42140.318     -24976438       1207.9474      1207.9474      1207.9474      1896.0263      3103.9737      1896.0263      3103.9737      1896.0263      3103.9737      1.7625606e+09  0.5            5256900        0.21827923     8894.4208      17788.751      5.5259719    
  10509000   14759.461     -12.238429     -25026601       0.33944751     43775.173     -24982825       1207.9474      1207.9474      1207.9474      1896.0263      3103.9737      1896.0263      3103.9737      1896.0263      3103.9737      1.7625606e+09  0.5            5257000        0.22964761     8796.3544      17592.769      5.5115959    
  10509200   15880.085     -12.95785      -25027241       0.33944751     47098.84      -24980142       1207.9474      1207.9474      1207.9474      1896.0263      3103.9737      1896.0263      3103.9737      1896.0263      3103.9737      1.7625606e+09  0.5            5257100        0.24095694     8842.2286      17684.553      5.4961641    
  10509400   16934.678     -13.665443     -25027886       0.33944751     50226.662     -24977659       1207.9474      1207.9474      1207.9474      1896.0263      3103.9737      1896.0263      3103.9737      1896.0263      3103.9737      1.7625606e+09  0.5            5257200        0.2524309      8715.3595      17430.655      5.4846851    
  10509600   17376.593     -14.502374     -25028515       0.33944751     51537.341     -24976978       1207.9474      1207.9474      1207.9474      1896.0263      3103.9737      1896.0263      3103.9737      1896.0263      3103.9737      1.7625606e+09  0.5            5257300        0.26370859     8867.0334      17734.081      5.4691348    
  10509800   17699.915     -15.283149     -25029135       0.33944751     52496.283     -24976638       1207.9474      1207.9474      1207.9474      1896.0263      3103.9737      1896.0263      3103.9737      1896.0263      3103.9737      1.7625606e+09  0.5            5257400        0.27522623     8682.3553      17364.637      5.4587002    
  10510000   18613.242     -16.071698     -25029739       0.33944751     55205.126     -24974534       1207.9474      1207.9474      1207.9474      1896.0263      3103.9737      1896.0263      3103.9737      1896.0263      3103.9737      1.7625606e+09  0.5            5257500        0.28695035     8529.395       17058.62       5.4521043    
  10510200   19839.051     -16.63304      -25030336       0.33944751     58840.761     -24971496       1207.9474      1207.9474      1207.9474      1896.0263      3103.9737      1896.0263      3103.9737      1896.0263      3103.9737      1.7625606e+09  0.5            5257600        0.29821524     8877.2222      17754.675      5.4367349    
  10510400   20552.208     -17.394582     -25040200       0.33944751     60955.918     -24979244       1207.9474      1207.9474      1207.9474      1896.0263      3103.9737      1896.0263      3103.9737      1896.0263      3103.9737      1.7625606e+09  0.5            5257700        0.30950998     8853.6365      17707.267      5.4221961    
  10510600   20778.392     -18.032436     -25038876       0.33944751     61626.756     -24977249       1207.9474      1207.9474      1207.9474      1896.0263      3103.9737      1896.0263      3103.9737      1896.0263      3103.9737      1.7625606e+09  0.5            5257800        0.32078277     8870.9129      17741.893      5.4075194    
  10510800   21382.692     -18.641727     -25039425       0.33944751     63419.055     -24976006       1207.9474      1207.9474      1207.9474      1896.0263      3103.9737      1896.0263      3103.9737      1896.0263      3103.9737      1.7625606e+09  0.5            5257900        0.33243882     8579.2107      17158.323      5.3993037    
  10511000   22609.447     -19.169237     -25039953       0.33944751     67057.495     -24972895       1207.9474      1207.9474      1207.9474      1896.0263      3103.9737      1896.0263      3103.9737      1896.0263      3103.9737      1.7625606e+09  0.5            5258000        0.34396253     8677.7827      17355.603      5.3887828    
  10511200   23643.143     -19.736016     -25047842       0.33944751     70123.34      -24977719       1207.9474      1207.9474      1207.9474      1896.0263      3103.9737      1896.0263      3103.9737      1896.0263      3103.9737      1.7625606e+09  0.5            5258100        0.35540065     8742.6901      17485.307      5.3769045    
  10511400   23971.689     -20.309337     -25048333       0.33944751     71097.777     -24977235       1207.9474      1207.9474      1207.9474      1896.0263      3103.9737      1896.0263      3103.9737      1896.0263      3103.9737      1.7625606e+09  0.5            5258200        0.36676734     8797.5964      17595.143      5.3640083    
  10511600   24279.613     -20.796691     -25048807       0.33944751     72011.051     -24976796       1207.9474      1207.9474      1207.9474      1896.0263      3103.9737      1896.0263      3103.9737      1896.0263      3103.9737      1.7625606e+09  0.5            5258300        0.37870862     8374.3523      16748.775      5.3593361    
  10511800   25305.556     -21.2125       -25049258       0.33944751     75053.9       -24974204       1207.9474      1207.9474      1207.9474      1896.0263      3103.9737      1896.0263      3103.9737      1896.0263      3103.9737      1.7625606e+09  0.5            5258400        0.3902454      8667.9261      17335.705      5.3486918    
  10512000   26583.007     -21.67112      -25049697       0.33944751     78842.699     -24970854       1207.9474      1207.9474      1207.9474      1896.0263      3103.9737      1896.0263      3103.9737      1896.0263      3103.9737      1.7625606e+09  0.5            5258500        0.40159071     8814.2048      17628.601      5.3354503    
  10512200   27196.89      -21.943981     -25048228       0.33944751     80663.42      -24967565       1207.9474      1207.9474      1207.9474      1896.0263      3103.9737      1896.0263      3103.9737      1896.0263      3103.9737      1.7625606e+09  0.5            5258600        0.41320268     8611.8143      17223.581      5.3257543    
  10512400   27344.002     -22.272681     -25048651       0.33944751     81099.739     -24967551       1207.9474      1207.9474      1207.9474      1896.0263      3103.9737      1896.0263      3103.9737      1896.0263      3103.9737      1.7625606e+09  0.5            5258700        0.42457243     8795.2944      17590.595      5.3129212    
  10512600   28024.669     -22.635096     -25049060       0.33944751     83118.533     -24965942       1207.9474      1207.9474      1207.9474      1896.0263      3103.9737      1896.0263      3103.9737      1896.0263      3103.9737      1.7625606e+09  0.5            5258800        0.43590512     8824.0264      17648.036      5.2997167    
  10512800   29362.27      -22.779077     -25042091       0.33944751     87085.732     -24955005       1207.9474      1207.9474      1207.9474      1896.0263      3103.9737      1896.0263      3103.9737      1896.0263      3103.9737      1.7625606e+09  0.5            5258900        0.4474368      8671.7205      17343.438      5.2889613    
  10513000   30345.253     -23.136845     -25042483       0.33944751     90001.169     -24952482       1207.9474      1207.9474      1207.9474      1896.0263      3103.9737      1896.0263      3103.9737      1896.0263      3103.9737      1.7625606e+09  0.5            5259000        0.45881907     8785.5845      17571.15       5.2764477    
  10513200   30548.843     -23.665916     -25042875       0.33944751     90604.998     -24952270       1207.9474      1207.9474      1207.9474      1896.0263      3103.9737      1896.0263      3103.9737      1896.0263      3103.9737      1.7625606e+09  0.5            5259100        0.4701469      8827.8769      17655.858      5.2633772    
  10513400   30863.061     -23.833206     -25043255       0.33944751     91536.938     -24951718       1207.9474      1207.9474      1207.9474      1896.0263      3103.9737      1896.0263      3103.9737      1896.0263      3103.9737      1.7625606e+09  0.5            5259200        0.48187678     8525.2415      17050.511      5.2547755    
  10513600   32028.196     -24.136209     -25045522       0.33944751     94992.619     -24950530       1207.9474      1207.9474      1207.9474      1896.0263      3103.9737      1896.0263      3103.9737      1896.0263      3103.9737      1.7625606e+09  0.5            5259300        0.49336771     8702.487       17404.951      5.2434904    
  10513800   33336.307     -24.126624     -25038499       0.33944751     98872.354     -24939626       1207.9474      1207.9474      1207.9474      1896.0263      3103.9737      1896.0263      3103.9737      1896.0263      3103.9737      1.7625606e+09  0.5            5259400        0.50475342     8782.9601      17565.919      5.2311044    
  10514000   33818.686     -24.419996     -25038842       0.33944751     100303.04     -24938539       1207.9474      1207.9474      1207.9474      1896.0263      3103.9737      1896.0263      3103.9737      1896.0263      3103.9737      1.7625606e+09  0.5            5259500        0.51609098     8820.2159      17640.413      5.2182768    
  10514200   33882.946     -24.711617     -25041060       0.33944751     100493.63     -24940566       1207.9474      1207.9474      1207.9474      1896.0263      3103.9737      1896.0263      3103.9737      1896.0263      3103.9737      1.7625606e+09  0.5            5259600        0.52768538     8624.8281      17249.664      5.2080491    
  10514400   34678.653     -24.891727     -25041360       0.33944751     102853.62     -24938507       1207.9474      1207.9474      1207.9474      1896.0263      3103.9737      1896.0263      3103.9737      1896.0263      3103.9737      1.7625606e+09  0.5            5259700        0.5390287      8815.7417      17631.443      5.1953422    
  10514600   36140.707     -24.902562     -25043538       0.33944751     107189.94     -24936348       1207.9474      1207.9474      1207.9474      1896.0263      3103.9737      1896.0263      3103.9737      1896.0263      3103.9737      1.7625606e+09  0.5            5259800        0.55041193     8784.8343      17569.71       5.1830692    
  10514800   37041.515     -24.958738     -25051169       0.33944751     109861.65     -24941307       1207.9474      1207.9474      1207.9474      1896.0263      3103.9737      1896.0263      3103.9737      1896.0263      3103.9737      1.7625606e+09  0.5            5259900        0.5618547      8739.1496      17477.78       5.1713826    
  10515000   37089.697     -24.92082      -25053297       0.33944751     110004.56     -24943293       1207.9474      1207.9474      1207.9474      1896.0263      3103.9737      1896.0263      3103.9737      1896.0263      3103.9737      1.7625606e+09  0.5            5260000        0.57384642     8339.145       16678.732      5.1646389    
  10515200   37437.297     -24.936541     -25055406       0.33944751     111035.5      -24944371       1207.9474      1207.9474      1207.9474      1896.0263      3103.9737      1896.0263      3103.9737      1896.0263      3103.9737      1.7625606e+09  0.5            5260100        0.58547719     8597.7781      17195.558      5.1545174    
  10515400   38794.53      -24.888066     -25062971       0.33944751     115060.93     -24947910       1207.9474      1207.9474      1207.9474      1896.0263      3103.9737      1896.0263      3103.9737      1896.0263      3103.9737      1.7625606e+09  0.5            5260200        0.59687469     8774.0179      17548.117      5.1423246    
  10515600   40115.483     -24.827415     -25063143       0.33944751     118978.75     -24944164       1207.9474      1207.9474      1207.9474      1896.0263      3103.9737      1896.0263      3103.9737      1896.0263      3103.9737      1.7625606e+09  0.5            5260300        0.6082128      8819.7756      17639.434      5.1296637    
  10515800   40412.14      -24.76519      -25063292       0.33944751     119858.61     -24943433       1207.9474      1207.9474      1207.9474      1896.0263      3103.9737      1896.0263      3103.9737      1896.0263      3103.9737      1.7625606e+09  0.5            5260400        0.61977577     8648.3046      17296.735      5.1189074    
  10516000   40383.652     -24.598941     -25054146       0.33944751     119774.12     -24934372       1207.9474      1207.9474      1207.9474      1896.0263      3103.9737      1896.0263      3103.9737      1896.0263      3103.9737      1.7625606e+09  0.5            5260500        0.63123997     8722.8219      17445.54       5.1073242    
  10516200   41396.525     -24.206422     -25046873       0.33944751     122778.2      -24924095       1207.9474      1207.9474      1207.9474      1896.0263      3103.9737      1896.0263      3103.9737      1896.0263      3103.9737      1.7625606e+09  0.5            5260600        0.64269524     8729.6462      17459.407      5.0956721    
  10516400   43029.511     -23.803826     -25046954       0.33944751     127621.48     -24919333       1207.9474      1207.9474      1207.9474      1896.0263      3103.9737      1896.0263      3103.9737      1896.0263      3103.9737      1.7625606e+09  0.5            5260700        0.65438694     8553.0095      17105.993      5.0858674    
  10516600   43721.682     -23.655311     -25054397       0.33944751     129674.4      -24924723       1207.9474      1207.9474      1207.9474      1896.0263      3103.9737      1896.0263      3103.9737      1896.0263      3103.9737      1.7625606e+09  0.5            5260800        0.66587491     8704.8051      17409.713      5.0744422    
  10516800   43489.432     -23.490235     -25061824       0.33944751     128985.57     -24932838       1207.9474      1207.9474      1207.9474      1896.0263      3103.9737      1896.0263      3103.9737      1896.0263      3103.9737      1.7625606e+09  0.5            5260900        0.67746261     8629.8321      17259.535      5.0637628    
  10517000   43983.561     -23.230645     -25071132       0.33944751     130451.11     -24940681       1207.9474      1207.9474      1207.9474      1896.0263      3103.9737      1896.0263      3103.9737      1896.0263      3103.9737      1.7625606e+09  0.5            5261000        0.68896502     8693.831       17387.701      5.0524262    
  10517200   46436.946     -22.807607     -25071153       0.33944751     137727.62     -24933426       1207.9474      1207.9474      1207.9474      1896.0263      3103.9737      1896.0263      3103.9737      1896.0263      3103.9737      1.7625606e+09  0.5            5261100        0.70060443     8591.4255      17182.813      5.0420722    
  10517400   47018.765     -22.30639      -25065676       0.33944751     139453.24     -24926222       1207.9474      1207.9474      1207.9474      1896.0263      3103.9737      1896.0263      3103.9737      1896.0263      3103.9737      1.7625606e+09  0.5            5261200        0.71194487     8818.0956      17636.264      5.0295614    
  10517600   45747.344     -22.181427     -25065665       0.33944751     135682.32     -24929983       1207.9474      1207.9474      1207.9474      1896.0263      3103.9737      1896.0263      3103.9737      1896.0263      3103.9737      1.7625606e+09  0.5            5261300        0.72333273     8781.2657      17562.391      5.0174191    
  10517800   44592.375     -21.882717     -25065642       0.33944751     132256.79     -24933385       1207.9474      1207.9474      1207.9474      1896.0263      3103.9737      1896.0263      3103.9737      1896.0263      3103.9737      1.7625606e+09  0.5            5261400        0.73507435     8516.6318      17033.304      5.0077104    
  10518000   47794.224     -21.465163     -25065610       0.33944751     141753.18     -24923857       1207.9474      1207.9474      1207.9474      1896.0263      3103.9737      1896.0263      3103.9737      1896.0263      3103.9737      1.7625606e+09  0.5            5261500        0.74651213     8743.0295      17486.09       4.9959045    
  10518200   49770.933     -20.807946     -25065563       0.33944751     147615.91     -24917947       1207.9474      1207.9474      1207.9474      1896.0263      3103.9737      1896.0263      3103.9737      1896.0263      3103.9737      1.7625606e+09  0.5            5261600        0.75829095     8489.7441      16979.017      4.9863556    
  10518400   50090.397     -20.357106     -25065495       0.33944751     148563.41     -24916931       1207.9474      1207.9474      1207.9474      1896.0263      3103.9737      1896.0263      3103.9737      1896.0263      3103.9737      1.7625606e+09  0.5            5261700        0.77101829     7857.1402      15714.597      4.9828651    
  10518600   49936.261     -19.735678     -25070886       0.33944751     148106.26     -24922780       1207.9474      1207.9474      1207.9474      1896.0263      3103.9737      1896.0263      3103.9737      1896.0263      3103.9737      1.7625606e+09  0.5            5261800        0.78323566     8185.0455      16369.995      4.9758658    
  10518800   51291.933     -19.125115     -25070776       0.33944751     152127.05     -24918649       1207.9474      1207.9474      1207.9474      1896.0263      3103.9737      1896.0263      3103.9737      1896.0263      3103.9737      1.7625606e+09  0.5            5261900        0.79469576     8726.0111      17452.331      4.9639828    
  10519000   53684.319     -18.537387     -25070637       0.33944751     159222.64     -24911414       1207.9474      1207.9474      1207.9474      1896.0263      3103.9737      1896.0263      3103.9737      1896.0263      3103.9737      1.7625606e+09  0.5            5262000        0.8061718      8713.7115      17427.042      4.9522136    
  10519200   53190.744     -18.068382     -25064977       0.33944751     157758.75     -24907218       1207.9474      1207.9474      1207.9474      1896.0263      3103.9737      1896.0263      3103.9737      1896.0263      3103.9737      1.7625606e+09  0.5            5262100        0.81802005     8440.0158      16880.321      4.9426992    
  10519400   50443.391     -17.741579     -25064778       0.33944751     149610.36     -24915168       1207.9474      1207.9474      1207.9474      1896.0263      3103.9737      1896.0263      3103.9737      1896.0263      3103.9737      1.7625606e+09  0.5            5262200        0.82960826     8629.4768      17258.866      4.9315752    
  10519600   51405.755     -17.406924     -25071947       0.33944751     152464.64     -24919482       1207.9474      1207.9474      1207.9474      1896.0263      3103.9737      1896.0263      3103.9737      1896.0263      3103.9737      1.7625606e+09  0.5            5262300        0.8411573      8658.7846      17317.649      4.9202079    
  10519800   55145.795     -16.372603     -25064340       0.33944751     163557.24     -24900783       1207.9474      1207.9474      1207.9474      1896.0263      3103.9737      1896.0263      3103.9737      1896.0263      3103.9737      1.7625606e+09  0.5            5262400        0.85267333     8683.4968      17366.9        4.9086482    
  10520000   56160.933     -15.84844      -25064443       0.33944751     166568.05     -24897875       1207.9474      1207.9474      1207.9474      1896.0263      3103.9737      1896.0263      3103.9737      1896.0263      3103.9737      1.7625606e+09  0.5            5262500        0.86443184     8504.5179      17009.094      4.898461     
  10520200   56575.876     -15.237824     -25054888       0.33944751     167798.73     -24887089       1207.9474      1207.9474      1207.9474      1896.0263      3103.9737      1896.0263      3103.9737      1896.0263      3103.9737      1.7625606e+09  0.5            5262600        0.87613216     8546.8062      17093.474      4.8879088    
  10520400   57107.309     -14.738677     -25054583       0.33944751     169374.91     -24885208       1207.9474      1207.9474      1207.9474      1896.0263      3103.9737      1896.0263      3103.9737      1896.0263      3103.9737      1.7625606e+09  0.5            5262700        0.88770385     8641.789       17283.701      4.8766193    
  10520600   58694.971     -13.976219     -25054262       0.33944751     174083.77     -24880178       1207.9474      1207.9474      1207.9474      1896.0263      3103.9737      1896.0263      3103.9737      1896.0263      3103.9737      1.7625606e+09  0.5            5262800        0.89939776     8551.4173      17102.871      4.8659849    
  10520800   60344.17      -13.522879     -25055802       0.33944751     178975.14     -24876827       1207.9474      1207.9474      1207.9474      1896.0263      3103.9737      1896.0263      3103.9737      1896.0263      3103.9737      1.7625606e+09  0.5            5262900        0.9107325      8822.4126      17644.73       4.8534107    
  10521000   59552.229     -13.106857     -25057684       0.33944751     176626.31     -24881057       1207.9474      1207.9474      1207.9474      1896.0263      3103.9737      1896.0263      3103.9737      1896.0263      3103.9737      1.7625606e+09  0.5            5263000        0.92218249     8733.6107      17467.278      4.8414708    
  10521200   56974.168     -12.867827     -25064667       0.33944751     168980.03     -24895686       1207.9474      1207.9474      1207.9474      1896.0263      3103.9737      1896.0263      3103.9737      1896.0263      3103.9737      1.7625606e+09  0.5            5263100        0.93382411     8589.9082      17179.846      4.830535     
  10521400   59470.325     -12.29128      -25077495       0.33944751     176383.39     -24901112       1207.9474      1207.9474      1207.9474      1896.0263      3103.9737      1896.0263      3103.9737      1896.0263      3103.9737      1.7625606e+09  0.5            5263200        0.94520594     8785.9303      17571.857      4.8182571    
  10521600   62083.123     -11.582448     -25086354       0.33944751     184132.71     -24902222       1207.9474      1207.9474      1207.9474      1896.0263      3103.9737      1896.0263      3103.9737      1896.0263      3103.9737      1.7625606e+09  0.5            5263300        0.95661637     8763.8525      17527.749      4.8061451    
  10521800   62418.299     -11.103007     -25085919       0.33944751     185126.81     -24900792       1207.9474      1207.9474      1207.9474      1896.0263      3103.9737      1896.0263      3103.9737      1896.0263      3103.9737      1.7625606e+09  0.5            5263400        0.96818011     8647.802       17295.652      4.7948079    
  10522000   62858.374     -10.667891     -25092858       0.33944751     186432.03     -24906426       1207.9474      1207.9474      1207.9474      1896.0263      3103.9737      1896.0263      3103.9737      1896.0263      3103.9737      1.7625606e+09  0.5            5263500        0.97986711     8556.5531      17112.879      4.7840685    
  10522200   65002.059     -9.9374514     -25092407       0.33944751     192790        -24899617       1207.9474      1207.9474      1207.9474      1896.0263      3103.9737      1896.0263      3103.9737      1896.0263      3103.9737      1.7625606e+09  0.5            5263600        0.99135232     8706.8136      17413.782      4.7723352    
  10522400   66990.43      -9.432265      -25091941       0.33944751     198687.32     -24893254       1207.9474      1207.9474      1207.9474      1896.0263      3103.9737      1896.0263      3103.9737      1896.0263      3103.9737      1.7625606e+09  0.5            5263700        1.0030422      8554.4246      17108.843      4.7615788    
  10522600   64490.791     -9.3830565     -25101106       0.33944751     191273.62     -24909833       1207.9474      1207.9474      1207.9474      1896.0263      3103.9737      1896.0263      3103.9737      1896.0263      3103.9737      1.7625606e+09  0.5            5263800        1.0143291      8859.8624      17719.761      4.748915     
  10522800   62013.318     -9.2192415     -25093283       0.33944751     183925.67     -24909357       1207.9474      1207.9474      1207.9474      1896.0263      3103.9737      1896.0263      3103.9737      1896.0263      3103.9737      1.7625606e+09  0.5            5263900        1.0255683      8897.4122      17794.761      4.7360618    
  10523000   65391.661     -8.5087752     -25092850       0.33944751     193945.52     -24898905       1207.9474      1207.9474      1207.9474      1896.0263      3103.9737      1896.0263      3103.9737      1896.0263      3103.9737      1.7625606e+09  0.5            5264000        1.0371013      8670.7851      17341.588      4.724583     
  10523200   67178.989     -7.9500853     -25092414       0.33944751     199246.57     -24893167       1207.9474      1207.9474      1207.9474      1896.0263      3103.9737      1896.0263      3103.9737      1896.0263      3103.9737      1.7625606e+09  0.5            5264100        1.048403       8848.2021      17696.504      4.7120627    
  10523400   68717.366     -7.492787      -25091970       0.33944751     203809.25     -24888161       1207.9474      1207.9474      1207.9474      1896.0263      3103.9737      1896.0263      3103.9737      1896.0263      3103.9737      1.7625606e+09  0.5            5264200        1.0597536      8810.1233      17620.161      4.6997866    
  10523600   69892.657     -6.9423663     -25078682       0.33944751     207295.05     -24871387       1207.9474      1207.9474      1207.9474      1896.0263      3103.9737      1896.0263      3103.9737      1896.0263      3103.9737      1.7625606e+09  0.5            5264300        1.0714472      8551.7178      17103.414      4.6890312    
  10523800   70223.521     -6.4719306     -25085629       0.33944751     208276.36     -24877353       1207.9474      1207.9474      1207.9474      1896.0263      3103.9737      1896.0263      3103.9737      1896.0263      3103.9737      1.7625606e+09  0.5            5264400        1.083296       8439.5429      16878.956      4.6789282    
  10524000   69977.89      -6.2541491     -25085198       0.33944751     207547.84     -24877650       1207.9474      1207.9474      1207.9474      1896.0263      3103.9737      1896.0263      3103.9737      1896.0263      3103.9737      1.7625606e+09  0.5            5264500        1.0948962      8620.5626      17241.185      4.6677275    
  10524200   70882.135     -5.9932925     -25092141       0.33944751     210229.75     -24881912       1207.9474      1207.9474      1207.9474      1896.0263      3103.9737      1896.0263      3103.9737      1896.0263      3103.9737      1.7625606e+09  0.5            5264600        1.1067113      8463.7806      16927.431      4.6574207    
  10524400   73464.466     -5.5264945     -25099093       0.33944751     217888.7      -24881204       1207.9474      1207.9474      1207.9474      1896.0263      3103.9737      1896.0263      3103.9737      1896.0263      3103.9737      1.7625606e+09  0.5            5264700        1.1182336      8678.807       17357.593      4.6458688    
  10524600   74195.215     -4.9185442     -25083914       0.33944751     220056.03     -24863858       1207.9474      1207.9474      1207.9474      1896.0263      3103.9737      1896.0263      3103.9737      1896.0263      3103.9737      1.7625606e+09  0.5            5264800        1.1296425      8765.2037      17530.67       4.6338489    
  10524800   71301.982     -4.7732911     -25083487       0.33944751     211474.98     -24872012       1207.9474      1207.9474      1207.9474      1896.0263      3103.9737      1896.0263      3103.9737      1896.0263      3103.9737      1.7625606e+09  0.5            5264900        1.1413259      8559.1061      17118.16       4.6229561    
  10525000   69888.712     -4.5164995     -25083090       0.33944751     207283.35     -24875807       1207.9474      1207.9474      1207.9474      1896.0263      3103.9737      1896.0263      3103.9737      1896.0263      3103.9737      1.7625606e+09  0.5            5265000        1.1527967      8717.7977      17435.551      4.611196     
  10525200   75162.54      -3.9696358     -25083076       0.33944751     222925.03     -24860151       1207.9474      1207.9474      1207.9474      1896.0263      3103.9737      1896.0263      3103.9737      1896.0263      3103.9737      1.7625606e+09  0.5            5265100        1.1645578      8502.6068      17005.338      4.6005887    
  10525400   76295.544     -3.7260351     -25099362       0.33944751     226285.41     -24873077       1207.9474      1207.9474      1207.9474      1896.0263      3103.9737      1896.0263      3103.9737      1896.0263      3103.9737      1.7625606e+09  0.5            5265200        1.1762716      8536.8898      17073.663      4.5897752    
  10525600   76095.508     -3.3916297     -25108271       0.33944751     225692.12     -24882579       1207.9474      1207.9474      1207.9474      1896.0263      3103.9737      1896.0263      3103.9737      1896.0263      3103.9737      1.7625606e+09  0.5            5265300        1.187946       8565.7661      17131.474      4.5787912    
  10525800   76657.009     -3.1513969     -25109824       0.33944751     227357.48     -24882466       1207.9474      1207.9474      1207.9474      1896.0263      3103.9737      1896.0263      3103.9737      1896.0263      3103.9737      1.7625606e+09  0.5            5265400        1.1995936      8585.4884      17170.969      4.5676927    
  10526000   79796.949     -2.7077457     -25107586       0.33944751     236670.25     -24870916       1207.9474      1207.9474      1207.9474      1896.0263      3103.9737      1896.0263      3103.9737      1896.0263      3103.9737      1.7625606e+09  0.5            5265500        1.2111994      8616.3993      17232.709      4.5564255    
  10526200   81187.642     -2.2032838     -25099844       0.33944751     240794.91     -24859049       1207.9474      1207.9474      1207.9474      1896.0263      3103.9737      1896.0263      3103.9737      1896.0263      3103.9737      1.7625606e+09  0.5            5265600        1.2228907      8553.1017      17106.326      4.5454717    
  10526400   76913.024     -2.4213325     -25092105       0.33944751     228116.8      -24863989       1207.9474      1207.9474      1207.9474      1896.0263      3103.9737      1896.0263      3103.9737      1896.0263      3103.9737      1.7625606e+09  0.5            5265700        1.2344499      8651.3842      17302.786      4.5340161    
  10526600   75791.327     -2.2554001     -25091746       0.33944751     224789.95     -24866956       1207.9474      1207.9474      1207.9474      1896.0263      3103.9737      1896.0263      3103.9737      1896.0263      3103.9737      1.7625606e+09  0.5            5265800        1.2461382      8555.4382      17110.707      4.5230295    
  10526800   79672.083     -1.6701024     -25091378       0.33944751     236299.91     -24855079       1207.9474      1207.9474      1207.9474      1896.0263      3103.9737      1896.0263      3103.9737      1896.0263      3103.9737      1.7625606e+09  0.5            5265900        1.2577366      8621.9547      17244.113      4.5117056    
  10527000   81401.605     -1.2386706     -25090981       0.33944751     241429.51     -24849552       1207.9474      1207.9474      1207.9474      1896.0263      3103.9737      1896.0263      3103.9737      1896.0263      3103.9737      1.7625606e+09  0.5            5266000        1.2692366      8695.6696      17391.162      4.5000298    
  10527200   83043.878     -0.86160004    -25090553       0.33944751     246300.34     -24844253       1207.9474      1207.9474      1207.9474      1896.0263      3103.9737      1896.0263      3103.9737      1896.0263      3103.9737      1.7625606e+09  0.5            5266100        1.2810802      8443.3502      16886.803      4.4895597    
  10527400   84031.6       -0.43676921    -25090061       0.33944751     249229.83     -24840831       1207.9474      1207.9474      1207.9474      1896.0263      3103.9737      1896.0263      3103.9737      1896.0263      3103.9737      1.7625606e+09  0.5            5266200        1.2926949      8609.8442      17219.872      4.4782721    
  10527600   83891.866     -0.22127142    -25096889       0.33944751     248815.39     -24848074       1207.9474      1207.9474      1207.9474      1896.0263      3103.9737      1896.0263      3103.9737      1896.0263      3103.9737      1.7625606e+09  0.5            5266300        1.3042947      8620.8368      17241.693      4.4669283    
  10527800   83330.395      0.17528299    -25096284       0.33944751     247150.12     -24849134       1207.9474      1207.9474      1207.9474      1896.0263      3103.9737      1896.0263      3103.9737      1896.0263      3103.9737      1.7625606e+09  0.5            5266400        1.3157523      8727.8504      17455.631      4.4550985    
  10528000   85279.426      0.58880887    -25095602       0.33944751     252930.76     -24842671       1207.9474      1207.9474      1207.9474      1896.0263      3103.9737      1896.0263      3103.9737      1896.0263      3103.9737      1.7625606e+09  0.5            5266500        1.3273891      8593.4241      17186.838      4.4438754    
  10528200   88372.584      1.1797969     -25102205       0.33944751     262104.78     -24840100       1207.9474      1207.9474      1207.9474      1896.0263      3103.9737      1896.0263      3103.9737      1896.0263      3103.9737      1.7625606e+09  0.5            5266600        1.3388663      8712.9409      17425.905      4.4321163    
  10528400   87564.22       1.5077265     -25101326       0.33944751     259707.25     -24841618       1207.9474      1207.9474      1207.9474      1896.0263      3103.9737      1896.0263      3103.9737      1896.0263      3103.9737      1.7625606e+09  0.5            5266700        1.3502127      8813.3868      17626.741      4.4199341    
  10528600   82897.186      1.5302541     -25100378       0.33944751     245865.26     -24854513       1207.9474      1207.9474      1207.9474      1896.0263      3103.9737      1896.0263      3103.9737      1896.0263      3103.9737      1.7625606e+09  0.5            5266800        1.361771       8651.7053      17303.418      4.4084524    
  10528800   84415.847      1.7751483     -25106753       0.33944751     250369.47     -24856384       1207.9474      1207.9474      1207.9474      1896.0263      3103.9737      1896.0263      3103.9737      1896.0263      3103.9737      1.7625606e+09  0.5            5266900        1.3733073      8668.3521      17336.601      4.3968989    
  10529000   89537.432      2.4034457     -25105657       0.33944751     265559.61     -24840097       1207.9474      1207.9474      1207.9474      1896.0263      3103.9737      1896.0263      3103.9737      1896.0263      3103.9737      1.7625606e+09  0.5            5267000        1.3852991      8338.9872      16678.059      4.3867877    
  10529200   90046.246      2.6962852     -25119235       0.33944751     267068.7      -24852166       1207.9474      1207.9474      1207.9474      1896.0263      3103.9737      1896.0263      3103.9737      1896.0263      3103.9737      1.7625606e+09  0.5            5267100        1.3969333      8595.3578      17190.744      4.3755254    
  10529400   90113.906      3.0948693     -25110605       0.33944751     267269.37     -24843336       1207.9474      1207.9474      1207.9474      1896.0263      3103.9737      1896.0263      3103.9737      1896.0263      3103.9737      1.7625606e+09  0.5            5267200        1.4086423      8540.4193      17080.849      4.3644889    
  10529600   91555.217      3.64732       -25107386       0.33944751     271544.17     -24835842       1207.9474      1207.9474      1207.9474      1896.0263      3103.9737      1896.0263      3103.9737      1896.0263      3103.9737      1.7625606e+09  0.5            5267300        1.4201451      8693.5385      17386.992      4.3528097    
  10529800   94468.366      4.0059576     -25106010       0.33944751     280184.29     -24825825       1207.9474      1207.9474      1207.9474      1896.0263      3103.9737      1896.0263      3103.9737      1896.0263      3103.9737      1.7625606e+09  0.5            5267400        1.4316881      8663.2974      17326.605      4.3412546    
  10530000   94528.012      4.186361      -25099111       0.33944751     280361.2      -24818750       1207.9474      1207.9474      1207.9474      1896.0263      3103.9737      1896.0263      3103.9737      1896.0263      3103.9737      1.7625606e+09  0.5            5267500        1.4434208      8523.1743      17046.379      4.330269     
  10530200   89461.144      4.092579      -25099615       0.33944751     265333.34     -24834282       1207.9474      1207.9474      1207.9474      1896.0263      3103.9737      1896.0263      3103.9737      1896.0263      3103.9737      1.7625606e+09  0.5            5267600        1.4549312      8687.806       17375.49       4.3186124    
  10530400   89820.506      4.4859706     -25083523       0.33944751     266399.18     -24817124       1207.9474      1207.9474      1207.9474      1896.0263      3103.9737      1896.0263      3103.9737      1896.0263      3103.9737      1.7625606e+09  0.5            5267700        1.4664942      8648.2679      17296.7        4.3071116    
  10530600   95129.914      5.2238819     -25076749       0.33944751     282146.38     -24794603       1207.9474      1207.9474      1207.9474      1896.0263      3103.9737      1896.0263      3103.9737      1896.0263      3103.9737      1.7625606e+09  0.5            5267800        1.478226       8523.7969      17047.562      4.2961011    
  10530800   95921.317      5.3192916     -25070037       0.33944751     284493.61     -24785543       1207.9474      1207.9474      1207.9474      1896.0263      3103.9737      1896.0263      3103.9737      1896.0263      3103.9737      1.7625606e+09  0.5            5267900        1.4900755      8439.1661      16878.381      4.2854176    
  10531000   96218.555      5.3760248     -25076269       0.33944751     285375.19     -24790894       1207.9474      1207.9474      1207.9474      1896.0263      3103.9737      1896.0263      3103.9737      1896.0263      3103.9737      1.7625606e+09  0.5            5268000        1.5017109      8594.5445      17188.881      4.274107     
  10531200   97781.352      5.148889      -25084507       0.33944751     290010.3      -24794496       1207.9474      1207.9474      1207.9474      1896.0263      3103.9737      1896.0263      3103.9737      1896.0263      3103.9737      1.7625606e+09  0.5            5268100        1.5131803      8718.8306      17437.787      4.2623234    
  10531400   100923.98      5.3775923     -25081714       0.33944751     299331.05     -24782383       1207.9474      1207.9474      1207.9474      1896.0263      3103.9737      1896.0263      3103.9737      1896.0263      3103.9737      1.7625606e+09  0.5            5268200        1.5249061      8528.1751      17056.397      4.2512597    
  10531600   100463.92      5.2698377     -25073575       0.33944751     297966.55     -24775609       1207.9474      1207.9474      1207.9474      1896.0263      3103.9737      1896.0263      3103.9737      1896.0263      3103.9737      1.7625606e+09  0.5            5268300        1.5364791      8640.8549      17281.629      4.2397643    
  10531800   95047.865      4.9792191     -25072992       0.33944751     281903.03     -24791089       1207.9474      1207.9474      1207.9474      1896.0263      3103.9737      1896.0263      3103.9737      1896.0263      3103.9737      1.7625606e+09  0.5            5268400        1.5478806      8770.7827      17541.653      4.2277992    
  10532000   96639.948      4.7993716     -25074498       0.33944751     286625        -24787873       1207.9474      1207.9474      1207.9474      1896.0263      3103.9737      1896.0263      3103.9737      1896.0263      3103.9737      1.7625606e+09  0.5            5268500        1.5597057      8456.5938      16913.153      4.2169881    
  10532200   101668.16      4.9065686     -25074275       0.33944751     301538.2      -24772736       1207.9474      1207.9474      1207.9474      1896.0263      3103.9737      1896.0263      3103.9737      1896.0263      3103.9737      1.7625606e+09  0.5            5268600        1.5712438      8666.8609      17333.678      4.2053941    
  10532400   101959.43      4.6987404     -25074187       0.33944751     302402.1      -24771785       1207.9474      1207.9474      1207.9474      1896.0263      3103.9737      1896.0263      3103.9737      1896.0263      3103.9737      1.7625606e+09  0.5            5268700        1.5830501      8470.0527      16940.265      4.1945109    
  10532600   101537.26      4.5159737     -25066834       0.33944751     301149.97     -24765684       1207.9474      1207.9474      1207.9474      1896.0263      3103.9737      1896.0263      3103.9737      1896.0263      3103.9737      1.7625606e+09  0.5            5268800        1.5950232      8352.104       16704.028      4.1840524    
  10532800   102847.56      4.4659696     -25066955       0.33944751     305036.19     -24761918       1207.9474      1207.9474      1207.9474      1896.0263      3103.9737      1896.0263      3103.9737      1896.0263      3103.9737      1.7625606e+09  0.5            5268900        1.6065193      8698.5862      17397.259      4.172333     
  10533000   107433.7       4.3032934     -25067152       0.33944751     318638.26     -24748513       1207.9474      1207.9474      1207.9474      1896.0263      3103.9737      1896.0263      3103.9737      1896.0263      3103.9737      1.7625606e+09  0.5            5269000        1.6180859      8645.5329      17290.969      4.1607985    
  10533200   107251         3.9161383     -25065469       0.33944751     318096.39     -24747373       1207.9474      1207.9474      1207.9474      1896.0263      3103.9737      1896.0263      3103.9737      1896.0263      3103.9737      1.7625606e+09  0.5            5269100        1.6299571      8423.827       16847.655      4.1500384    
  10533400   101153.15      3.3763353     -25065668       0.33944751     300010.73     -24765657       1207.9474      1207.9474      1207.9474      1896.0263      3103.9737      1896.0263      3103.9737      1896.0263      3103.9737      1.7625606e+09  0.5            5269200        1.6414651      8689.6208      17379.296      4.1383471    
  10533600   102561.63      3.1055788     -25065850       0.33944751     304188.15     -24761662       1207.9474      1207.9474      1207.9474      1896.0263      3103.9737      1896.0263      3103.9737      1896.0263      3103.9737      1.7625606e+09  0.5            5269300        1.6530748      8613.4262      17226.843      4.126913     
  10533800   106285.78      2.7329148     -25069799       0.33944751     315233.63     -24754565       1207.9474      1207.9474      1207.9474      1896.0263      3103.9737      1896.0263      3103.9737      1896.0263      3103.9737      1.7625606e+09  0.5            5269400        1.6646421      8645.1173      17290.269      4.1153707    
  10534000   107866.94      2.6550424     -25084634       0.33944751     319923.2      -24764711       1207.9474      1207.9474      1207.9474      1896.0263      3103.9737      1896.0263      3103.9737      1896.0263      3103.9737      1.7625606e+09  0.5            5269500        1.6766854      8303.3017      16606.704      4.1049937    
  10534200   108531.67      2.5743211     -25091993       0.33944751     321894.72     -24770098       1207.9474      1207.9474      1207.9474      1896.0263      3103.9737      1896.0263      3103.9737      1896.0263      3103.9737      1.7625606e+09  0.5            5269600        1.6883426      8578.4202      17156.651      4.0936583    
  10534400   109192.47      2.2477444     -25091851       0.33944751     323854.6      -24767996       1207.9474      1207.9474      1207.9474      1896.0263      3103.9737      1896.0263      3103.9737      1896.0263      3103.9737      1.7625606e+09  0.5            5269700        1.6999354      8626.0966      17252.338      4.082163     
  10534600   111119         2.0163724     -25098930       0.33944751     329568.5      -24769361       1207.9474      1207.9474      1207.9474      1896.0263      3103.9737      1896.0263      3103.9737      1896.0263      3103.9737      1.7625606e+09  0.5            5269800        1.7116566      8531.5198      17062.941      4.0709726    
  10534800   111981.71      1.6711851     -25111358       0.33944751     332127.23     -24779231       1207.9474      1207.9474      1207.9474      1896.0263      3103.9737      1896.0263      3103.9737      1896.0263      3103.9737      1.7625606e+09  0.5            5269900        1.7231713      8684.5277      17369.141      4.059288     
  10535000   109859.45      1.2106349     -25112691       0.33944751     325832.8      -24786858       1207.9474      1207.9474      1207.9474      1896.0263      3103.9737      1896.0263      3103.9737      1896.0263      3103.9737      1.7625606e+09  0.5            5270000        1.7347363      8646.8127      17293.621      4.0477231    
  10535200   108578.93      0.96143415    -25112007       0.33944751     322034.91     -24789972       1207.9474      1207.9474      1207.9474      1896.0263      3103.9737      1896.0263      3103.9737      1896.0263      3103.9737      1.7625606e+09  0.5            5270100        1.7465153      8489.6216      16979.158      4.0366535    
  10535400   114259.53      1.270247      -25111220       0.33944751     338883.03     -24772337       1207.9474      1207.9474      1207.9474      1896.0263      3103.9737      1896.0263      3103.9737      1896.0263      3103.9737      1.7625606e+09  0.5            5270200        1.7581543      8591.8662      17183.843      4.025253     
  10535600   116670.85      1.3981208     -25112150       0.33944751     346034.79     -24766115       1207.9474      1207.9474      1207.9474      1896.0263      3103.9737      1896.0263      3103.9737      1896.0263      3103.9737      1.7625606e+09  0.5            5270300        1.7698102      8579.3372      17158.62       4.0138884    
  10535800   113225.79      0.72119358    -25122256       0.33944751     335817.06     -24786439       1207.9474      1207.9474      1207.9474      1896.0263      3103.9737      1896.0263      3103.9737      1896.0263      3103.9737      1.7625606e+09  0.5            5270400        1.7818806      8284.7117      16569.397      4.0034512    
  10536000   111553.32      0.60698381    -25113760       0.33944751     330856.65     -24782904       1207.9474      1207.9474      1207.9474      1896.0263      3103.9737      1896.0263      3103.9737      1896.0263      3103.9737      1.7625606e+09  0.5            5270500        1.7935927      8538.1821      17076.386      3.9921951    
  10536200   120275.82      1.0210614     -25127309       0.33944751     356726.78     -24770582       1207.9474      1207.9474      1207.9474      1896.0263      3103.9737      1896.0263      3103.9737      1896.0263      3103.9737      1.7625606e+09  0.5            5270600        1.805302       8540.2318      17080.528      3.9809271    
  10536400   120434.72      1.0075482     -25126021       0.33944751     357198.05     -24768823       1207.9474      1207.9474      1207.9474      1896.0263      3103.9737      1896.0263      3103.9737      1896.0263      3103.9737      1.7625606e+09  0.5            5270700        1.8171234      8459.245       16918.397      3.9698987    
  10536600   114803.24      0.75487673    -25132075       0.33944751     340495.62     -24791580       1207.9474      1207.9474      1207.9474      1896.0263      3103.9737      1896.0263      3103.9737      1896.0263      3103.9737      1.7625606e+09  0.5            5270800        1.8287236      8620.4801      17240.944      3.9583815    
  10536800   114495.29      0.6966562     -25130759       0.33944751     339582.26     -24791176       1207.9474      1207.9474      1207.9474      1896.0263      3103.9737      1896.0263      3103.9737      1896.0263      3103.9737      1.7625606e+09  0.5            5270900        1.8402885      8646.9196      17293.869      3.9467871    
  10537000   120169.99      1.1995919     -25144203       0.33944751     356412.91     -24787790       1207.9474      1207.9474      1207.9474      1896.0263      3103.9737      1896.0263      3103.9737      1896.0263      3103.9737      1.7625606e+09  0.5            5271000        1.8521028      8464.2635      16928.554      3.9357234    
  10537200   121190.25      1.2016778     -25142872       0.33944751     359438.89     -24783434       1207.9474      1207.9474      1207.9474      1896.0263      3103.9737      1896.0263      3103.9737      1896.0263      3103.9737      1.7625606e+09  0.5            5271100        1.8636992      8623.3815      17246.787      3.9241915    
  10537400   119460.19      1.2347379     -25134203       0.33944751     354307.69     -24779896       1207.9474      1207.9474      1207.9474      1896.0263      3103.9737      1896.0263      3103.9737      1896.0263      3103.9737      1.7625606e+09  0.5            5271200        1.8757296      8312.3053      16624.626      3.9135639    
  10537600   119362.88      1.3938804     -25132968       0.33944751     354019.09     -24778949       1207.9474      1207.9474      1207.9474      1896.0263      3103.9737      1896.0263      3103.9737      1896.0263      3103.9737      1.7625606e+09  0.5            5271300        1.8874645      8521.6083      17043.073      3.9023086    
  10537800   123264.62      1.8869289     -25131819       0.33944751     365591.28     -24766227       1207.9474      1207.9474      1207.9474      1896.0263      3103.9737      1896.0263      3103.9737      1896.0263      3103.9737      1.7625606e+09  0.5            5271400        1.8990348      8642.7816      17285.66       3.8907101    
  10538000   130200.91      2.5990747     -25130704       0.33944751     386163.66     -24744540       1207.9474      1207.9474      1207.9474      1896.0263      3103.9737      1896.0263      3103.9737      1896.0263      3103.9737      1.7625606e+09  0.5            5271500        1.9108987      8428.9656      16858.004      3.8797078    
  10538200   123680.95      1.9458102     -25129622       0.33944751     366826.08     -24762796       1207.9474      1207.9474      1207.9474      1896.0263      3103.9737      1896.0263      3103.9737      1896.0263      3103.9737      1.7625606e+09  0.5            5271600        1.9224881      8628.5655      17257.045      3.8681432    
  10538400   120027.43      1.6919976     -25143369       0.33944751     355990.08     -24787379       1207.9474      1207.9474      1207.9474      1896.0263      3103.9737      1896.0263      3103.9737      1896.0263      3103.9737      1.7625606e+09  0.5            5271700        1.9340628      8639.5208      17279.052      3.8565488    
  10538600   123697.48      1.9076029     -25151685       0.33944751     366875.11     -24784810       1207.9474      1207.9474      1207.9474      1896.0263      3103.9737      1896.0263      3103.9737      1896.0263      3103.9737      1.7625606e+09  0.5            5271800        1.9458945      8451.8908      16903.843      3.8454625    
  10538800   127785.58      2.4549343     -25150727       0.33944751     379000.01     -24771727       1207.9474      1207.9474      1207.9474      1896.0263      3103.9737      1896.0263      3103.9737      1896.0263      3103.9737      1.7625606e+09  0.5            5271900        1.9574441      8658.28        17316.34       3.8338154    
  10539000   127141.78      2.7956328     -25142371       0.33944751     377090.58     -24765281       1207.9474      1207.9474      1207.9474      1896.0263      3103.9737      1896.0263      3103.9737      1896.0263      3103.9737      1.7625606e+09  0.5            5272000        1.9690074      8648.066       17296.362      3.8221951    
  10539200   121837.56      2.481132      -25150653       0.33944751     361358.75     -24789294       1207.9474      1207.9474      1207.9474      1896.0263      3103.9737      1896.0263      3103.9737      1896.0263      3103.9737      1.7625606e+09  0.5            5272100        1.981108       8263.9062      16527.752      3.8116102    
  10539400   120790.86      2.4260711     -25164445       0.33944751     358254.34     -24806190       1207.9474      1207.9474      1207.9474      1896.0263      3103.9737      1896.0263      3103.9737      1896.0263      3103.9737      1.7625606e+09  0.5            5272200        1.9928957      8483.5228      16967.024      3.8004102    
  10539600   129917.01      3.5586465     -25148681       0.33944751     385321.65     -24763359       1207.9474      1207.9474      1207.9474      1896.0263      3103.9737      1896.0263      3103.9737      1896.0263      3103.9737      1.7625606e+09  0.5            5272300        2.0045868      8553.4982      17106.982      3.789021     
  10539800   130557.69      4.0110991     -25147579       0.33944751     387221.85     -24760357       1207.9474      1207.9474      1207.9474      1896.0263      3103.9737      1896.0263      3103.9737      1896.0263      3103.9737      1.7625606e+09  0.5            5272400        2.0161372      8657.7006      17315.301      3.777365     
  10540000   127916         3.9630528     -25153736       0.33944751     379386.84     -24774349       1207.9474      1207.9474      1207.9474      1896.0263      3103.9737      1896.0263      3103.9737      1896.0263      3103.9737      1.7625606e+09  0.5            5272500        2.0277084      8642.1759      17284.361      3.7657486    
  10540200   127523.23      4.3390564     -25146939       0.33944751     378221.9      -24768717       1207.9474      1207.9474      1207.9474      1896.0263      3103.9737      1896.0263      3103.9737      1896.0263      3103.9737      1.7625606e+09  0.5            5272600        2.0395781      8424.8191      16849.662      3.7546823    
  10540400   134722.32      5.3923458     -25152877       0.33944751     399573.74     -24753303       1207.9474      1207.9474      1207.9474      1896.0263      3103.9737      1896.0263      3103.9737      1896.0263      3103.9737      1.7625606e+09  0.5            5272700        2.0511925      8610.0088      17220.038      3.743141     
  10540600   135595.08      5.737374      -25153181       0.33944751     402162.26     -24751018       1207.9474      1207.9474      1207.9474      1896.0263      3103.9737      1896.0263      3103.9737      1896.0263      3103.9737      1.7625606e+09  0.5            5272800        2.0630318      8446.389       16892.662      3.7320059    
  10540800   130406.12      5.738417      -25151477       0.33944751     386772.29     -24764704       1207.9474      1207.9474      1207.9474      1896.0263      3103.9737      1896.0263      3103.9737      1896.0263      3103.9737      1.7625606e+09  0.5            5272900        2.0746418      8613.2533      17226.441      3.7204516    
  10541000   129747.58      6.213778      -25149711       0.33944751     384819.13     -24764892       1207.9474      1207.9474      1207.9474      1896.0263      3103.9737      1896.0263      3103.9737      1896.0263      3103.9737      1.7625606e+09  0.5            5273000        2.0867367      8267.923       16535.939      3.7097589    
  10541200   133192.06      6.6587057     -25162644       0.33944751     395035.14     -24767609       1207.9474      1207.9474      1207.9474      1896.0263      3103.9737      1896.0263      3103.9737      1896.0263      3103.9737      1.7625606e+09  0.5            5273100        2.0985305      8478.8926      16957.831      3.6985199    
  10541400   134001.31      7.1579514     -25160745       0.33944751     397435.3      -24763310       1207.9474      1207.9474      1207.9474      1896.0263      3103.9737      1896.0263      3103.9737      1896.0263      3103.9737      1.7625606e+09  0.5            5273200        2.1101614      8598.008       17196.017      3.6869895    
  10541600   135745.84      8.1700039     -25151410       0.33944751     402609.39     -24748800       1207.9474      1207.9474      1207.9474      1896.0263      3103.9737      1896.0263      3103.9737      1896.0263      3103.9737      1.7625606e+09  0.5            5273300        2.1217848      8603.3206      17206.785      3.6754454    
  10541800   138186.26      8.9562155     -25149415       0.33944751     409847.45     -24739568       1207.9474      1207.9474      1207.9474      1896.0263      3103.9737      1896.0263      3103.9737      1896.0263      3103.9737      1.7625606e+09  0.5            5273400        2.1335693      8485.7199      16971.379      3.6641775    
  10542000   138910.49      9.5867875     -25147374       0.33944751     411995.47     -24735379       1207.9474      1207.9474      1207.9474      1896.0263      3103.9737      1896.0263      3103.9737      1896.0263      3103.9737      1.7625606e+09  0.5            5273500        2.1452076      8592.3194      17184.561      3.6526549    
  10542200   136033.19      9.6909893     -25154602       0.33944751     403461.67     -24751140       1207.9474      1207.9474      1207.9474      1896.0263      3103.9737      1896.0263      3103.9737      1896.0263      3103.9737      1.7625606e+09  0.5            5273600        2.157021       8464.851       16929.609      3.6414271    
  10542400   133841.33      10.2818       -25152619       0.33944751     396960.81     -24755659       1207.9474      1207.9474      1207.9474      1896.0263      3103.9737      1896.0263      3103.9737      1896.0263      3103.9737      1.7625606e+09  0.5            5273700        2.1686004      8636.0812      17272.259      3.6298007    
  10542600   140440.23      11.113928     -25172808       0.33944751     416532.52     -24756275       1207.9474      1207.9474      1207.9474      1896.0263      3103.9737      1896.0263      3103.9737      1896.0263      3103.9737      1.7625606e+09  0.5            5273800        2.1804238      8457.862       16915.705      3.6185797    
  10542800   143440.28      11.81836      -25170851       0.33944751     425430.4      -24745420       1207.9474      1207.9474      1207.9474      1896.0263      3103.9737      1896.0263      3103.9737      1896.0263      3103.9737      1.7625606e+09  0.5            5273900        2.1923956      8352.8714      16705.372      3.6075976    
  10543000   139897.04      12.183661     -25168902       0.33944751     414921.46     -24753980       1207.9474      1207.9474      1207.9474      1896.0263      3103.9737      1896.0263      3103.9737      1896.0263      3103.9737      1.7625606e+09  0.5            5274000        2.2040501      8580.5048      17161.453      3.5960858    
  10543200   136839.88      12.280129     -25181760       0.33944751     405854.23     -24775906       1207.9474      1207.9474      1207.9474      1896.0263      3103.9737      1896.0263      3103.9737      1896.0263      3103.9737      1.7625606e+09  0.5            5274100        2.2156148      8646.9338      17293.785      3.5844284    
  10543400   144187.35      13.291455     -25181805       0.33944751     427646.13     -24754159       1207.9474      1207.9474      1207.9474      1896.0263      3103.9737      1896.0263      3103.9737      1896.0263      3103.9737      1.7625606e+09  0.5            5274200        2.2273992      8485.8927      16971.772      3.5731233    
  10543600   147959.69      14.341689     -25159301       0.33944751     438834.54     -24720466       1207.9474      1207.9474      1207.9474      1896.0263      3103.9737      1896.0263      3103.9737      1896.0263      3103.9737      1.7625606e+09  0.5            5274300        2.2390591      8576.3941      17152.723      3.561616     
  10543800   142182.76      14.549951     -25150020       0.33944751     421700.7      -24728319       1207.9474      1207.9474      1207.9474      1896.0263      3103.9737      1896.0263      3103.9737      1896.0263      3103.9737      1.7625606e+09  0.5            5274400        2.2506167      8652.3333      17304.707      3.5499456    
  10544000   139242.7       14.57175      -25148174       0.33944751     412980.76     -24735193       1207.9474      1207.9474      1207.9474      1896.0263      3103.9737      1896.0263      3103.9737      1896.0263      3103.9737      1.7625606e+09  0.5            5274500        2.2624095      8479.7151      16959.314      3.5386445    
  10544200   146872.69      15.786701     -25146318       0.33944751     435610.59     -24710707       1207.9474      1207.9474      1207.9474      1896.0263      3103.9737      1896.0263      3103.9737      1896.0263      3103.9737      1.7625606e+09  0.5            5274600        2.2741029      8551.8546      17103.956      3.5271836    
  10544400   149445.58      16.239194     -25144418       0.33944751     443241.53     -24701177       1207.9474      1207.9474      1207.9474      1896.0263      3103.9737      1896.0263      3103.9737      1896.0263      3103.9737      1.7625606e+09  0.5            5274700        2.2864353      8108.7244      16217.492      3.5167035    
  10544600   146000.86      16.195424     -25149923       0.33944751     433024.82     -24716898       1207.9474      1207.9474      1207.9474      1896.0263      3103.9737      1896.0263      3103.9737      1896.0263      3103.9737      1.7625606e+09  0.5            5274800        2.2980581      8603.7655      17207.458      3.5051225    
  10544800   144420.86      16.741874     -25140729       0.33944751     428338.7      -24712390       1207.9474      1207.9474      1207.9474      1896.0263      3103.9737      1896.0263      3103.9737      1896.0263      3103.9737      1.7625606e+09  0.5            5274900        2.3096383      8635.4257      17270.895      3.4934765    
  10545000   150397.68      17.663559     -25131589       0.33944751     446065.39     -24685524       1207.9474      1207.9474      1207.9474      1896.0263      3103.9737      1896.0263      3103.9737      1896.0263      3103.9737      1.7625606e+09  0.5            5275000        2.3214891      8438.2432      16876.363      3.4822374    
  10545200   155503.69      18.452171     -25127970       0.33944751     461209.33     -24666760       1207.9474      1207.9474      1207.9474      1896.0263      3103.9737      1896.0263      3103.9737      1896.0263      3103.9737      1.7625606e+09  0.5            5275100        2.3331085      8606.3053      17212.729      3.4706474    
  10545400   149893.05      18.380298     -25126337       0.33944751     444568.7      -24681768       1207.9474      1207.9474      1207.9474      1896.0263      3103.9737      1896.0263      3103.9737      1896.0263      3103.9737      1.7625606e+09  0.5            5275200        2.3449755      8426.7275      16853.37       3.459423     
  10545600   147906.78      18.320213     -25132194       0.33944751     438677.62     -24693517       1207.9474      1207.9474      1207.9474      1896.0263      3103.9737      1896.0263      3103.9737      1896.0263      3103.9737      1.7625606e+09  0.5            5275300        2.356618       8589.2161      17178.485      3.4478633    
  10545800   150071.47      18.555255     -25140091       0.33944751     445097.88     -24694993       1207.9474      1207.9474      1207.9474      1896.0263      3103.9737      1896.0263      3103.9737      1896.0263      3103.9737      1.7625606e+09  0.5            5275400        2.3682278      8613.4143      17226.759      3.4362559    
  10546000   153712.71      19.157524     -25146242       0.33944751     455897.46     -24690345       1207.9474      1207.9474      1207.9474      1896.0263      3103.9737      1896.0263      3103.9737      1896.0263      3103.9737      1.7625606e+09  0.5            5275500        2.3802861      8293.0196      16586.078      3.4252935    
  10546200   155500.31      19.466705     -25137758       0.33944751     461199.3      -24676558       1207.9474      1207.9474      1207.9474      1896.0263      3103.9737      1896.0263      3103.9737      1896.0263      3103.9737      1.7625606e+09  0.5            5275600        2.3919886      8545.2184      17090.457      3.4138125    
  10546400   151874.74      19.199227     -25136774       0.33944751     450446.2      -24686328       1207.9474      1207.9474      1207.9474      1896.0263      3103.9737      1896.0263      3103.9737      1896.0263      3103.9737      1.7625606e+09  0.5            5275700        2.4038437      8435.1754      16870.337      3.4025458    
  10546600   147742.59      18.822948     -25137832       0.33944751     438190.63     -24699641       1207.9474      1207.9474      1207.9474      1896.0263      3103.9737      1896.0263      3103.9737      1896.0263      3103.9737      1.7625606e+09  0.5            5275800        2.4155035      8576.4816      17152.965      3.3909986    
  10546800   154477.45      19.280863     -25146372       0.33944751     458165.61     -24688206       1207.9474      1207.9474      1207.9474      1896.0263      3103.9737      1896.0263      3103.9737      1896.0263      3103.9737      1.7625606e+09  0.5            5275900        2.4270911      8629.9155      17259.935      3.3793502    
  10547000   159396.28      19.651268     -25143818       0.33944751     472754.37     -24671064       1207.9474      1207.9474      1207.9474      1896.0263      3103.9737      1896.0263      3103.9737      1896.0263      3103.9737      1.7625606e+09  0.5            5276000        2.4390783      8342.1879      16684.067      3.3682547    
  10547200   156527.52      19.255499     -25150553       0.33944751     464245.91     -24686308       1207.9474      1207.9474      1207.9474      1896.0263      3103.9737      1896.0263      3103.9737      1896.0263      3103.9737      1.7625606e+09  0.5            5276100        2.4507771      8547.9035      17096.063      3.3567549    
  10547400   152799.36      18.955735     -25149927       0.33944751     453188.53     -24696739       1207.9474      1207.9474      1207.9474      1896.0263      3103.9737      1896.0263      3103.9737      1896.0263      3103.9737      1.7625606e+09  0.5            5276200        2.4626198      8443.9769      16887.871      3.3454492    
  10547600   157121.48      19.206843     -25151183       0.33944751     466007.55     -24685175       1207.9474      1207.9474      1207.9474      1896.0263      3103.9737      1896.0263      3103.9737      1896.0263      3103.9737      1.7625606e+09  0.5            5276300        2.4741953      8638.9155      17277.846      3.3337783    
  10547800   165392.25      19.765073     -25150486       0.33944751     490537.88     -24659949       1207.9474      1207.9474      1207.9474      1896.0263      3103.9737      1896.0263      3103.9737      1896.0263      3103.9737      1.7625606e+09  0.5            5276400        2.4863037      8258.7656      16517.677      3.3228204    
  10548000   160049.12      19.029372     -25149687       0.33944751     474690.64     -24674997       1207.9474      1207.9474      1207.9474      1896.0263      3103.9737      1896.0263      3103.9737      1896.0263      3103.9737      1.7625606e+09  0.5            5276500        2.4981929      8411.0154      16822.035      3.3115611    
  10548200   154732.54      18.356976     -25148838       0.33944751     458922.16     -24689916       1207.9474      1207.9474      1207.9474      1896.0263      3103.9737      1896.0263      3103.9737      1896.0263      3103.9737      1.7625606e+09  0.5            5276600        2.5097513      8651.6514      17303.235      3.2998614    
  10548400   159042.89      18.402186     -25155303       0.33944751     471706.27     -24683597       1207.9474      1207.9474      1207.9474      1896.0263      3103.9737      1896.0263      3103.9737      1896.0263      3103.9737      1.7625606e+09  0.5            5276700        2.5214576      8542.4788      17084.861      3.2883559    
  10548600   164715.4       18.656258     -25154318       0.33944751     488530.39     -24665788       1207.9474      1207.9474      1207.9474      1896.0263      3103.9737      1896.0263      3103.9737      1896.0263      3103.9737      1.7625606e+09  0.5            5276800        2.533388       8381.8685      16763.716      3.2771383    
  10548800   163279.72      18.231648     -25166128       0.33944751     484272.3      -24681856       1207.9474      1207.9474      1207.9474      1896.0263      3103.9737      1896.0263      3103.9737      1896.0263      3103.9737      1.7625606e+09  0.5            5276900        2.5451143      8527.9097      17055.847      3.2656525    
  10549000   161334.84      18.06729      -25168852       0.33944751     478503.96     -24690348       1207.9474      1207.9474      1207.9474      1896.0263      3103.9737      1896.0263      3103.9737      1896.0263      3103.9737      1.7625606e+09  0.5            5277000        2.5568791      8499.9595      16999.698      3.254213     
  10549200   162592.99      18.072171     -25162290       0.33944751     482235.52     -24680054       1207.9474      1207.9474      1207.9474      1896.0263      3103.9737      1896.0263      3103.9737      1896.0263      3103.9737      1.7625606e+09  0.5            5277100        2.5687967      8390.7435      16781.759      3.2429639    
  10549400   170555.5       18.577975     -25151988       0.33944751     505851.59     -24646137       1207.9474      1207.9474      1207.9474      1896.0263      3103.9737      1896.0263      3103.9737      1896.0263      3103.9737      1.7625606e+09  0.5            5277200        2.580677       8417.4999      16835.001      3.2316615    
  10549600   171611.13      18.391762     -25150899       0.33944751     508982.49     -24641916       1207.9474      1207.9474      1207.9474      1896.0263      3103.9737      1896.0263      3103.9737      1896.0263      3103.9737      1.7625606e+09  0.5            5277300        2.592826       8231.0529      16462.182      3.2206883    
  10549800   160021.37      17.254589     -25157227       0.33944751     474608.35     -24682619       1207.9474      1207.9474      1207.9474      1896.0263      3103.9737      1896.0263      3103.9737      1896.0263      3103.9737      1.7625606e+09  0.5            5277400        2.6044836      8578.0538      17156.083      3.2090992    
[...]
  11194400   307.75364      1.1946587     -26473875       0.36036307     912.76838     -26472962       1184.1102      1184.1102      1184.1102      1907.9449      3092.0551      1907.9449      3092.0551      1907.9449      3092.0551      1.6602612e+09  0.5            5599700        22.695024      6286.1153      12572.246      0.83126221   
  11194600   307.85156      0.64093741    -26473970       0.36035271     913.05878     -26473057       1184.1216      1184.1216      1184.1216      1907.9392      3092.0608      1907.9392      3092.0608      1907.9392      3092.0608      1.6603089e+09  0.5            5599800        22.710904      6297.2649      12594.541      0.81558505   
  11194800   307.82433      1.3145094     -26474062       0.36039075     912.97803     -26473149       1184.0799      1184.0799      1184.0799      1907.96        3092.04        1907.96        3092.04        1907.96        3092.04        1.6601337e+09  0.5            5599900        22.726638      6355.8503      12711.639      0.79990245   
  11195000   307.73272      0.90330878    -26474157       0.36038571     912.70631     -26473244       1184.0854      1184.0854      1184.0854      1907.9573      3092.0427      1907.9573      3092.0427      1907.9573      3092.0427      1.6601569e+09  0.5            5600000        22.742536      6289.9645      12579.958      0.78422547   
  11195200   307.72844      0.83382141    -26474251       0.36039394     912.69362     -26473338       1184.0764      1184.0764      1184.0764      1907.9618      3092.0382      1907.9618      3092.0382      1907.9618      3092.0382      1.660119e+09   0.5            5600100        22.758437      6288.9981      12578.015      0.76854826   
  11195400   307.78198      0.48458539    -26481723       0.36039401     912.85241     -26480810       1184.0764      1184.0764      1184.0764      1907.9618      3092.0382      1907.9618      3092.0382      1907.9618      3092.0382      1.6601186e+09  0.5            5600200        22.774602      6186.0127      12372.016      0.7528795    
  11195600   307.7905       1.8566917     -26481813       0.36045882     912.87769     -26480900       1184.0054      1184.0054      1184.0054      1907.9973      3092.0027      1907.9973      3092.0027      1907.9973      3092.0027      1.6598201e+09  0.5            5600300        22.790673      6222.4389      12444.844      0.73720699   
  11195800   307.73086     -0.10848394    -26481911       0.36039191     912.70081     -26480998       1184.0787      1184.0787      1184.0787      1907.9607      3092.0393      1907.9607      3092.0393      1907.9607      3092.0393      1.6601283e+09  0.5            5600400        22.806663      6253.8481      12507.683      0.72153138   
  11196000   307.73484      2.0975555     -26481999       0.36048914     912.71261     -26481086       1183.9722      1183.9722      1183.9722      1908.0139      3091.9861      1908.0139      3091.9861      1908.0139      3091.9861      1.6596805e+09  0.5            5600500        22.822673      6246.2682      12492.549      0.70585594   
  11196200   307.64456      0.33887347    -26482098       0.36042947     912.44485     -26481185       1184.0375      1184.0375      1184.0375      1907.9812      3092.0188      1907.9812      3092.0188      1907.9812      3092.0188      1.6599553e+09  0.5            5600600        22.838673      6249.8633      12499.752      0.69017976   
  11196400   307.63749      0.71883156    -26482190       0.36045451     912.42388     -26481278       1184.0101      1184.0101      1184.0101      1907.9949      3092.0051      1907.9949      3092.0051      1907.9949      3092.0051      1.65984e+09    0.5            5600700        22.854526      6308.1151      12616.265      0.67449878   
  11196600   307.7365       2.0939677     -26482278       0.36051956     912.71754     -26481365       1183.9389      1183.9389      1183.9389      1908.0306      3091.9694      1908.0306      3091.9694      1908.0306      3091.9694      1.6595405e+09  0.5            5600800        22.87068       6190.4161      12380.786      0.65882624   
  11196800   307.72139      0.49889251    -26482376       0.36046666     912.67272     -26481464       1183.9968      1183.9968      1183.9968      1908.0016      3091.9984      1908.0016      3091.9984      1908.0016      3091.9984      1.659784e+09   0.5            5600900        22.886865      6178.689       12357.383      0.64315391   
  11197000   307.63414      0.16414434    -26482470       0.36046399     912.41394     -26481557       1183.9997      1183.9997      1183.9997      1908.0001      3091.9999      1908.0001      3091.9999      1908.0001      3091.9999      1.6597963e+09  0.5            5601000        22.902669      6327.1865      12654.393      0.62747046   
  11197200   307.71273      1.6016377     -26482559       0.3605322      912.64703     -26481646       1183.9251      1183.9251      1183.9251      1908.0375      3091.9625      1908.0375      3091.9625      1908.0375      3091.9625      1.6594823e+09  0.5            5601100        22.91853       6304.816       12609.592      0.61178835   
  11197400   307.81317      1.6961468     -26482652       0.360547       912.94494     -26481739       1183.9089      1183.9089      1183.9089      1908.0456      3091.9544      1908.0456      3091.9544      1908.0456      3091.9544      1.6594142e+09  0.5            5601200        22.934442      6284.6255      12569.247      0.59610732   
  11197600   307.78414      0.35078426    -26482749       0.36050442     912.85882     -26481837       1183.9555      1183.9555      1183.9555      1908.0223      3091.9777      1908.0223      3091.9777      1908.0223      3091.9777      1.6596102e+09  0.5            5601300        22.95039       6270.2722      12540.545      0.58042689   
  11197800   307.71914      0.5181488     -26482843       0.36052218     912.66606     -26481930       1183.936       1183.936       1183.936       1908.032       3091.968       1908.032       3091.968       1908.032       3091.968       1.6595285e+09  0.5            5601400        22.966309      6281.9591      12563.983      0.56474536   
  11198000   307.72396      1.691454      -26482933       0.36058038     912.68033     -26482020       1183.8723      1183.8723      1183.8723      1908.0638      3091.9362      1908.0638      3091.9362      1908.0638      3091.9362      1.6592606e+09  0.5            5601500        22.982695      6102.8045      12205.595      0.54907468   
  11198200   307.75434      1.192941      -26483028       0.36057204     912.77044     -26482116       1183.8814      1183.8814      1183.8814      1908.0593      3091.9407      1908.0593      3091.9407      1908.0593      3091.9407      1.659299e+09   0.5            5601600        22.998534      6313.5586      12627.089      0.53339034   
  11198400   307.66818      0.29873477    -26483123       0.36054802     912.51489     -26482211       1183.9077      1183.9077      1183.9077      1908.0461      3091.9539      1908.0461      3091.9539      1908.0461      3091.9539      1.6594095e+09  0.5            5601700        23.014292      6345.7603      12691.521      0.51770397   
  11198600   307.64716      1.2488293     -26483214       0.36059769     912.45255     -26482302       1183.8534      1183.8534      1183.8534      1908.0733      3091.9267      1908.0733      3091.9267      1908.0733      3091.9267      1.659181e+09   0.5            5601800        23.030091      6329.5947      12659.204      0.50201839   
  11198800   307.76044      1.4552127     -26483307       0.36061828     912.78854     -26482394       1183.8308      1183.8308      1183.8308      1908.0846      3091.9154      1908.0846      3091.9154      1908.0846      3091.9154      1.6590862e+09  0.5            5601900        23.045841      6349.1604      12698.314      0.48633163   
  11199000   307.86916      0.41922683    -26483403       0.36058965     913.11097     -26482490       1183.8622      1183.8622      1183.8622      1908.0689      3091.9311      1908.0689      3091.9311      1908.0689      3091.9311      1.659218e+09   0.5            5602000        23.061656      6323.0262      12646.045      0.4706461    
  11199200   307.9114       1.3361117     -26483496       0.36063741     913.23627     -26482582       1183.8099      1183.8099      1183.8099      1908.095       3091.905       1908.095       3091.905       1908.095       3091.905       1.6589982e+09  0.5            5602100        23.078029      6107.7706      12215.55       0.45497139   
  11199400   307.72435      0.89067449    -26483591       0.36063054     912.68148     -26482678       1183.8174      1183.8174      1183.8174      1908.0913      3091.9087      1908.0913      3091.9087      1908.0913      3091.9087      1.6590298e+09  0.5            5602200        23.094013      6256.2793      12512.554      0.43928834   
  11199600   307.59784      0.89073911    -26483684       0.36064148     912.30627     -26482772       1183.8055      1183.8055      1183.8055      1908.0973      3091.9027      1908.0973      3091.9027      1908.0973      3091.9027      1.6589795e+09  0.5            5602300        23.109953      6273.51        12546.982      0.42360408   
  11199800   307.67908      1.2975943     -26483776       0.36066897     912.54723     -26482864       1183.7754      1183.7754      1183.7754      1908.1123      3091.8877      1908.1123      3091.8877      1908.1123      3091.8877      1.658853e+09   0.5            5602400        23.12591       6266.9124      12533.86       0.40791976   
  11200000   307.75332      0.6184587     -26483871       0.36065386     912.76742     -26482959       1183.7919      1183.7919      1183.7919      1908.104       3091.896       1908.104       3091.896       1908.104       3091.896       1.6589225e+09  0.5            5602500        23.143781      5595.5582      11191.109      0.39226752   
  11200200   307.81695      1.3714557     -26483963       0.36069514     912.95614     -26483050       1183.7468      1183.7468      1183.7468      1908.1266      3091.8734      1908.1266      3091.8734      1908.1266      3091.8734      1.6587327e+09  0.5            5602600        23.159635      6307.7064      12615.416      0.37657947   
  11200400   307.76186      0.67433792    -26484059       0.36067899     912.79274     -26483146       1183.7644      1183.7644      1183.7644      1908.1178      3091.8822      1908.1178      3091.8822      1908.1178      3091.8822      1.6588069e+09  0.5            5602700        23.175663      6238.9321      12477.879      0.36089391   
  11200600   307.7077       1.2612556     -26484151       0.36071297     912.6321      -26483238       1183.7272      1183.7272      1183.7272      1908.1364      3091.8636      1908.1364      3091.8636      1908.1364      3091.8636      1.6586507e+09  0.5            5602800        23.191617      6268.0119      12536.028      0.34520679   
  11200800   307.67414      0.84893551    -26484245       0.36070762     912.53258     -26483333       1183.7331      1183.7331      1183.7331      1908.1335      3091.8665      1908.1335      3091.8665      1908.1335      3091.8665      1.6586753e+09  0.5            5602900        23.207388      6340.6881      12681.379      0.32951671   
  11201000   307.65316      0.98917276    -26484338       0.36072383     912.47034     -26483426       1183.7154      1183.7154      1183.7154      1908.1423      3091.8577      1908.1423      3091.8577      1908.1423      3091.8577      1.6586008e+09  0.5            5603000        23.223319      6277.2862      12554.572      0.31382867   
  11201200   307.68048      1.1396661     -26484431       0.36074058     912.5514      -26483518       1183.697       1183.697       1183.697       1908.1515      3091.8485      1908.1515      3091.8485      1908.1515      3091.8485      1.6585237e+09  0.5            5603100        23.239255      6274.8441      12549.711      0.29814038   
  11201400   307.69072      0.82842601    -26484524       0.36073938     912.58176     -26483612       1183.6984      1183.6984      1183.6984      1908.1508      3091.8492      1908.1508      3091.8492      1908.1508      3091.8492      1.6585293e+09  0.5            5603200        23.255443      6177.6783      12355.328      0.2824548    
  11201600   307.6689       1.0975038     -26484616       0.36076069     912.51704     -26483704       1183.6751      1183.6751      1183.6751      1908.1625      3091.8375      1908.1625      3091.8375      1908.1625      3091.8375      1.6584313e+09  0.5            5603300        23.271777      6122.2681      12244.499      0.26677023   
  11201800   307.59928      1.0379379     -26484709       0.36076879     912.31054     -26483797       1183.6662      1183.6662      1183.6662      1908.1669      3091.8331      1908.1669      3091.8331      1908.1669      3091.8331      1.6583941e+09  0.5            5603400        23.287731      6267.9274      12535.882      0.25108068   
  11202000   307.53065      0.87323498    -26484801       0.36077279     912.10699     -26483889       1183.6618      1183.6618      1183.6618      1908.1691      3091.8309      1908.1691      3091.8309      1908.1691      3091.8309      1.6583757e+09  0.5            5603500        23.303536      6327.2146      12654.441      0.23538927   
  11202200   307.64668      1.1373099     -26484893       0.36079401     912.45114     -26483980       1183.6386      1183.6386      1183.6386      1908.1807      3091.8193      1908.1807      3091.8193      1908.1807      3091.8193      1.6582781e+09  0.5            5603600        23.319325      6333.2494      12666.519      0.21969757   
  11202400   307.77933      0.89132188    -26484986       0.36079508     912.84455     -26484073       1183.6374      1183.6374      1183.6374      1908.1813      3091.8187      1908.1813      3091.8187      1908.1813      3091.8187      1.6582732e+09  0.5            5603700        23.335164      6313.5271      12627.044      0.20400617   
  11202600   307.74037      1.0514622     -26485078       0.36081139     912.729       -26484166       1183.6196      1183.6196      1183.6196      1908.1902      3091.8098      1908.1902      3091.8098      1908.1902      3091.8098      1.6581982e+09  0.5            5603800        23.351124      6265.8742      12531.758      0.18831553   
  11202800   307.58969      1.014725      -26485171       0.36081965     912.2821      -26484259       1183.6106      1183.6106      1183.6106      1908.1947      3091.8053      1908.1947      3091.8053      1908.1947      3091.8053      1.6581603e+09  0.5            5603900        23.366986      6304.2894      12608.591      0.17262382   
  11203000   307.53351      0.95386417    -26492641       0.36083049     912.11548     -26491729       1183.5987      1183.5987      1183.5987      1908.2006      3091.7994      1908.2006      3091.7994      1908.2006      3091.7994      1.6581105e+09  0.5            5604000        23.383397      6093.4316      12186.857      0.15693557   
  11203200   307.68302      1.0397457     -26492733       0.36084477     912.55891     -26491821       1183.5831      1183.5831      1183.5831      1908.2084      3091.7916      1908.2084      3091.7916      1908.2084      3091.7916      1.6580449e+09  0.5            5604100        23.39929       6292.2493      12584.457      0.14124321   
  11203400   307.83587      0.94853031    -26492827       0.36085234     913.01224     -26491914       1183.5748      1183.5748      1183.5748      1908.2126      3091.7874      1908.2126      3091.7874      1908.2126      3091.7874      1.6580101e+09  0.5            5604200        23.41516       6300.907       12601.847      0.12555047   
  11203600   307.8207       1.0510158     -26492920       0.36086728     912.96727     -26492007       1183.5585      1183.5585      1183.5585      1908.2207      3091.7793      1908.2207      3091.7793      1908.2207      3091.7793      1.6579414e+09  0.5            5604300        23.430883      6360.3752      12720.737      0.1098568    
  11203800   307.70324      0.99529363    -26493014       0.36087573     912.61888     -26492101       1183.5493      1183.5493      1183.5493      1908.2254      3091.7746      1908.2254      3091.7746      1908.2254      3091.7746      1.6579026e+09  0.5            5604400        23.446694      6324.763       12649.515      0.094163438  
  11204000   307.63265      0.89685231    -26493107       0.36088256     912.40953     -26492195       1183.5418      1183.5418      1183.5418      1908.2291      3091.7709      1908.2291      3091.7709      1908.2291      3091.7709      1.6578712e+09  0.5            5604500        23.462572      6297.7119      12595.434      0.07847015   
  11204200   307.7132       1.2628027     -26493199       0.3609078      912.64842     -26492287       1183.5142      1183.5142      1183.5142      1908.2429      3091.7571      1908.2429      3091.7571      1908.2429      3091.7571      1.6577553e+09  0.5            5604600        23.478743      6184.0643      12368.099      0.062777394  
  11204400   307.74777      0.52064538    -26493294       0.36088941     912.75097     -26492382       1183.5343      1183.5343      1183.5343      1908.2328      3091.7672      1908.2328      3091.7672      1908.2328      3091.7672      1.6578398e+09  0.5            5604700        23.494716      6260.5529      12521.143      0.047083604  
  11204600   307.7052       1.6782573     -26493384       0.36094533     912.6247      -26492471       1183.4732      1183.4732      1183.4732      1908.2634      3091.7366      1908.2634      3091.7366      1908.2634      3091.7366      1.6575829e+09  0.5            5604800        23.510672      6267.0393      12534.062      0.031389419  
  11204800   307.67151      1.3791011     -26500856       0.36094749     912.52476     -26499943       1183.4708      1183.4708      1183.4708      1908.2646      3091.7354      1908.2646      3091.7354      1908.2646      3091.7354      1.657573e+09   0.5            5604900        23.526601      6277.99        12555.949      0.015694866  
  11205000   307.75927      1.2701048     -26500950       0.36095399     912.78507     -26500037       1183.4637      1183.4637      1183.4637      1908.2681      3091.7319      1908.2681      3091.7319      1908.2681      3091.7319      1.6575431e+09  0.5            5605000        23.542845      6156.2965      12312.616      0            
Loop time of 23.5429 on 4 procs for 300000 steps with 996 atoms

Performance: 550.485 ns/day, 0.044 hours/ns, 12742.698 timesteps/s
99.6% CPU use with 4 MPI tasks x no OpenMP threads

MPI task timing breakdown:
Section |  min time  |  avg time  |  max time  |%varavg| %total
---------------------------------------------------------------
Pair    | 3.3874     | 5.9085     | 11.049     | 123.8 | 25.10
Neigh   | 0.0073127  | 0.012172   | 0.022358   |   5.4 |  0.05
Comm    | 5.0184     | 9.965      | 12.39      |  91.7 | 42.33
Output  | 0.066909   | 0.075416   | 0.094004   |   3.9 |  0.32
Modify  | 5.6368     | 5.9284     | 6.5021     |  14.0 | 25.18
Other   |            | 1.653      |            |       |  7.02

Nlocal:            249 ave         383 max         194 min
Histogram: 2 1 0 0 0 0 0 0 0 1
Nghost:          308.5 ave         341 max         271 min
Histogram: 1 0 1 0 0 0 0 0 1 1
Neighs:         831.75 ave        1680 max         445 min
Histogram: 2 1 0 0 0 0 0 0 0 1

Total # of neighbors = 3327
Ave neighs/atom = 3.3403614
Neighbor list builds = 112
Dangerous builds = 24

# run_style
run_style verlet

# write restart
write_restart ${write_res}
write_restart ./pgnpmf/37/equpmf16.res
System init for write_restart ...
Generated 0 of 1 mixed pair_coeff terms from geometric mixing rule

Total wall time: 0:00:47
