LAMMPS data file, Author: Jerry Qin

1000 atoms
0 bonds
0 angles

2 atom types

-100 4100 xlo xhi
-100 4100 ylo yhi
-100 4100 zlo zhi

Masses

1 221851
2 422051

Atoms

1 1  1798.155 0.746 503.403
2 1  1996.957 118.888 3.715
3 1  0.306 686.340 1413.795
4 1  194.609 21.861 1773.108
5 1  1855.602 1888.649 14.720
6 1  555.300 5.034 10.314
7 1  1926.502 1873.104 289.918
8 1  75.191 130.245 1884.031
9 1  614.204 56.663 971.060
10 1  0.012 1176.988 531.705
11 1  1997.272 8.312 280.950
12 1  853.905 1656.853 1062.254
13 1  622.073 660.282 501.283
14 1  844.575 465.812 720.617
15 1  401.013 35.436 152.786
16 1  447.717 570.420 618.641
17 1  377.167 953.040 173.343
18 1  788.722 18.655 902.171
19 1  72.276 497.622 989.133
20 1  333.944 912.190 26.697
21 1  801.476 97.242 256.970
22 1  756.223 437.650 275.657
23 1  294.590 214.425 968.451
24 1  659.076 247.556 593.698
25 1  856.643 642.038 275.345
26 1  300.630 900.909 491.346
27 1  448.446 462.269 497.409
28 1  7.064 734.045 444.484
29 1  783.785 704.242 47.937
30 1  434.501 0.000 390.101
31 1  926.732 1543.398 56.842
32 1  239.943 728.484 890.035
33 1  615.026 712.034 642.567
34 1  880.745 366.321 42.283
35 1  0.000 109.256 1998.728
36 1  334.685 157.242 816.061
37 1  219.225 408.730 531.829
38 1  56.874 967.972 71.927
39 1  1044.376 540.536 892.376
40 1  842.965 752.747 917.331
41 1  953.037 290.929 441.922
42 1  622.879 603.467 343.084
43 1  0.000 446.331 370.142
44 1  1014.364 586.734 447.435
45 1  31.354 489.978 188.189
46 1  320.794 74.444 357.398
47 1  398.406 178.607 676.268
48 1  896.777 118.495 471.782
49 1  884.626 760.808 317.877
50 1  881.873 941.093 559.824
51 1  516.732 980.559 963.964
52 1  490.676 143.009 97.370
53 1  947.653 468.260 214.495
54 1  530.048 78.608 1218.021
55 1  932.904 1224.696 1124.302
56 1  781.894 124.134 98.050
57 1  733.376 15.370 16.656
58 1  722.880 625.617 233.657
59 1  99.619 1168.552 0.000
60 1  1083.411 717.609 672.807
61 1  439.857 153.330 541.466
62 1  151.096 864.636 307.055
63 1  9.856 540.929 881.564
64 1  616.018 604.190 178.820
65 1  733.551 750.456 150.996
66 1  154.075 480.740 1232.107
67 1  132.119 274.026 486.463
68 1  625.049 690.341 3.374
69 1  131.594 668.415 46.662
70 1  2000.000 1665.851 249.796
71 1  1040.449 318.430 838.361
72 1  146.291 1753.444 390.527
73 1  90.463 1920.594 0.131
74 1  1999.427 1999.521 1432.309
75 1  584.868 100.808 855.834
76 1  2369.197 117.436 207.491
77 1  2168.454 474.783 221.100
78 1  2274.715 415.040 149.125
79 1  2404.514 772.994 360.612
80 1  2314.227 274.518 371.864
81 1  2207.026 609.420 243.331
82 1  2128.034 597.072 336.796
83 1  2360.082 513.615 166.217
84 1  2204.626 214.931 750.732
85 1  2381.642 750.312 578.730
86 1  2192.087 261.485 353.108
87 1  2302.177 202.834 93.607
88 1  2348.009 135.874 333.080
89 1  2433.781 855.586 241.812
90 1  2171.028 144.917 978.661
91 1  2251.932 670.493 638.689
92 1  2425.187 301.746 614.039
93 1  2313.356 528.262 728.834
94 1  2142.805 657.303 507.202
95 1  2290.774 807.090 668.380
96 1  2385.968 371.237 749.289
97 1  2204.927 875.207 500.124
98 1  2318.622 852.012 967.841
99 1  2142.165 312.604 546.669
100 1  2389.008 976.505 234.092
101 1  2354.817 773.681 53.097
102 1  2383.313 522.681 928.270
103 1  2327.500 797.159 450.830
104 1  2397.488 613.423 657.088
105 1  2388.315 361.602 19.043
106 1  2293.629 629.943 521.357
107 1  2184.685 377.456 878.999
108 1  2340.628 927.296 707.989
109 1  2225.664 386.438 665.548
110 1  2344.364 408.698 389.594
111 1  2264.453 688.682 911.070
112 1  2312.963 13.356 290.376
113 1  2190.994 40.111 701.538
114 1  2159.314 964.575 820.333
115 1  2151.460 877.090 370.284
116 1  2224.118 704.183 362.639
117 1  2313.499 887.619 831.510
118 1  2226.249 538.988 79.050
119 1  2185.903 3.517 822.881
120 1  2253.977 380.646 269.713
121 1  2153.510 222.344 884.079
122 1  2368.199 426.221 623.160
123 1  2181.833 566.534 777.592
124 1  2312.431 344.813 843.964
125 1  2351.158 138.535 919.894
126 1  2421.062 889.884 547.323
127 1  2297.485 10.511 910.847
128 1  2306.261 278.987 576.820
129 1  2280.014 468.629 855.272
130 1  2175.732 729.611 815.411
131 1  2129.223 397.685 313.237
132 1  2216.777 761.967 145.489
133 1  2110.580 873.872 904.366
134 1  2236.001 355.024 429.204
135 1  2183.893 792.791 281.793
136 1  2362.165 701.712 163.687
137 1  2299.201 25.905 164.497
138 1  2128.452 197.262 655.429
139 1  2335.689 775.508 259.429
140 1  2082.308 76.316 820.228
141 1  2139.674 695.947 70.154
142 1  2140.313 403.974 63.988
143 1  2257.517 153.298 580.846
144 1  2443.067 266.900 300.520
145 1  2413.896 678.985 914.271
146 1  2247.222 933.110 37.940
147 1  2274.888 125.180 820.726
148 1  2326.047 569.999 315.841
149 1  2176.129 23.448 968.413
150 1  2380.755 261.670 958.153
151 1  49.289 2145.043 1450.138
152 1  79.253 3866.581 306.470
153 1  1627.905 3866.598 95.909
154 1  1143.435 2895.769 618.146
155 1  1048.424 3581.472 1898.150
156 1  1514.451 3978.309 19.469
157 1  596.992 3685.538 810.545
158 1  822.556 2310.011 506.949
159 1  234.793 2358.234 375.762
160 1  0.166 2400.608 335.296
161 1  362.847 2296.874 330.826
162 1  395.763 2424.334 238.595
163 1  224.705 2325.829 258.566
164 1  298.226 2459.529 13.454
165 1  197.773 2389.782 1000.464
166 1  307.067 2206.953 226.816
167 1  159.645 2340.306 479.919
168 1  766.190 2394.750 572.727
169 1  99.906 2547.599 430.067
170 1  585.675 2159.503 905.363
171 1  290.692 2489.931 532.992
172 1  267.985 2189.710 774.994
173 1  154.608 2290.241 704.959
174 1  892.395 2444.003 781.258
175 1  931.662 2454.610 912.635
176 1  662.819 2166.196 233.190
177 1  790.121 2417.442 981.975
178 1  375.500 2566.063 962.884
179 1  851.866 2214.358 724.184
180 1  964.560 2371.181 394.537
181 1  318.982 2348.709 162.915
182 1  96.025 2268.956 599.594
183 1  111.273 2241.863 0.000
184 1  865.386 2274.577 28.788
185 1  119.776 2424.833 395.322
186 1  777.791 2401.415 35.224
187 1  117.036 2474.473 1052.564
188 1  673.816 2488.168 74.457
189 1  5.440 2292.421 174.579
190 1  179.323 2235.354 375.687
191 1  519.895 2198.062 167.475
192 1  751.155 2214.894 425.932
193 1  169.395 2528.041 931.445
194 1  537.701 2433.180 904.690
195 1  238.209 2382.276 616.114
196 1  682.908 2544.697 306.625
197 1  756.280 2449.193 805.910
198 1  41.863 2215.564 909.361
199 1  739.944 2226.926 0.298
200 1  747.519 2256.896 119.993
201 1  419.753 2328.040 605.919
202 1  692.935 2226.103 608.107
203 1  877.673 2270.983 214.870
204 1  607.370 2413.342 633.249
205 1  379.638 2197.316 855.169
206 1  491.033 2259.639 16.061
207 1  176.214 2531.281 64.138
208 1  383.979 2264.867 87.584
209 1  408.102 2267.278 716.482
210 1  554.547 2440.559 780.494
211 1  160.073 2439.245 733.356
212 1  749.019 2177.316 902.232
213 1  816.545 2408.239 301.906
214 1  891.553 2422.561 638.089
215 1  561.136 2193.097 791.608
216 1  948.279 2184.558 20.126
217 1  790.833 2482.288 153.140
218 1  644.265 2360.463 148.460
219 1  755.251 2328.203 233.053
220 1  1953.377 2191.729 1878.231
221 1  326.395 3916.322 1899.354
222 1  327.805 3029.850 915.209
223 1  339.039 2440.346 652.854
224 1  1073.018 2525.184 1541.337
225 1  514.956 2444.311 190.110
226 1  454.894 916.123 2280.825
227 1  1999.797 670.663 3999.924
228 1  617.338 121.027 2293.237
229 1  331.374 98.424 2493.426
230 1  13.725 838.799 2210.895
231 1  761.133 569.937 2363.612
232 1  820.988 884.327 2214.876
233 1  546.882 382.480 2283.638
234 1  367.102 719.454 2377.513
235 1  925.807 32.429 2279.371
236 1  643.937 646.482 2184.496
237 1  263.313 630.830 2563.061
238 1  94.519 695.853 2232.615
239 1  699.665 594.684 2533.618
240 1  350.711 557.525 2320.940
241 1  979.566 917.970 2373.824
242 1  397.449 263.648 2280.808
243 1  285.380 396.296 2605.622
244 1  540.833 40.599 2454.350
245 1  965.981 482.833 2302.980
246 1  735.023 372.377 2297.270
247 1  732.718 765.530 2284.001
248 1  374.113 698.264 2168.365
249 1  77.759 357.953 2196.564
250 1  23.394 632.144 2510.650
251 1  807.764 889.673 2349.004
252 1  984.033 314.130 2288.470
253 1  81.652 126.452 2397.561
254 1  6.902 769.030 2004.181
255 1  156.746 877.242 2234.885
256 1  1064.114 497.014 2474.113
257 1  223.641 606.069 2242.496
258 1  519.715 596.363 2301.613
259 1  665.286 983.199 2304.390
260 1  211.187 466.776 2471.395
261 1  199.113 933.830 2387.367
262 1  235.216 426.852 2276.618
263 1  235.976 642.937 2370.554
264 1  52.974 519.050 2451.767
265 1  934.117 656.206 2480.680
266 1  755.467 114.338 2429.905
267 1  416.569 486.574 2394.434
268 1  695.567 264.247 2243.313
269 1  92.723 872.049 2375.786
270 1  494.811 179.750 2484.618
271 1  305.449 340.764 2378.658
272 1  576.396 804.263 2440.651
273 1  992.362 762.724 2507.243
274 1  74.350 981.459 2522.840
275 1  885.034 204.903 2525.077
276 1  233.777 326.652 2196.772
277 1  556.539 302.469 2459.919
278 1  984.450 941.570 2216.496
279 1  89.668 5.729 2342.195
280 1  299.607 1049.697 2297.644
281 1  838.394 23.522 2368.418
282 1  419.844 343.411 2525.552
283 1  833.003 129.176 2265.470
284 1  905.983 535.092 2463.786
285 1  271.831 3.729 2298.874
286 1  63.712 500.953 2326.478
287 1  330.489 787.881 2528.684
288 1  157.194 255.578 2491.903
289 1  176.420 222.674 2164.127
290 1  233.630 33.066 2441.274
291 1  307.455 89.296 2216.719
292 1  691.069 43.414 2504.046
293 1  811.481 701.909 2172.389
294 1  441.618 79.196 2235.606
295 1  322.513 862.134 2347.697
296 1  219.072 154.731 2328.649
297 1  589.693 537.464 2537.028
298 1  615.259 200.400 2504.095
299 1  13.781 234.903 2392.695
300 1  0.000 829.060 2443.523
301 1  3494.260 2002.964 947.442
302 1  3845.251 2037.258 109.042
303 1  2475.175 2002.964 342.814
304 1  2137.626 3993.115 1991.290
305 1  3987.438 2157.095 373.643
306 1  2638.302 2104.816 706.175
307 1  2187.215 2010.792 48.696
308 1  3177.210 3999.984 0.007
309 1  3982.006 2000.161 142.693
310 1  2409.506 2126.234 802.150
311 1  2495.119 3931.410 1830.019
312 1  2292.054 2156.914 684.076
313 1  2445.562 2488.502 95.410
314 1  3145.463 2938.254 1557.781
315 1  2174.091 2854.113 432.486
316 1  2218.230 2334.667 907.026
317 1  2198.483 2440.012 876.468
318 1  2736.982 2562.694 597.143
319 1  3723.133 3328.215 2000.000
320 1  2189.981 2160.602 824.034
321 1  2874.497 2006.541 364.001
322 1  2172.377 2419.785 741.578
323 1  2172.038 2404.308 98.120
324 1  2230.890 2354.441 675.021
325 1  2073.486 2137.363 214.702
326 1  2147.314 2322.557 610.610
327 1  2621.439 2490.308 819.968
328 1  2087.728 2367.294 891.847
329 1  2279.091 2343.029 465.179
330 1  2399.105 2236.473 768.789
331 1  2319.550 2016.251 892.479
332 1  2106.040 2635.440 0.000
333 1  2357.604 2431.094 642.778
334 1  2233.389 2405.558 240.548
335 1  2114.680 2187.433 596.417
336 1  2534.408 2445.536 683.010
337 1  2687.983 2266.040 104.478
338 1  2453.771 2265.586 901.999
339 1  2226.009 2299.871 347.834
340 1  2235.939 2519.773 688.181
341 1  2050.874 3999.985 452.411
342 1  2353.919 2143.128 202.938
343 1  2146.968 2446.302 634.477
344 1  2322.343 2045.235 541.863
345 1  2120.904 2301.963 792.216
346 1  2322.070 2119.816 428.137
347 1  2439.669 2216.540 641.346
348 1  2387.098 2376.394 134.720
349 1  2344.854 2348.726 738.977
350 1  2419.106 2461.091 222.827
351 1  2000.000 2631.396 434.183
352 1  2328.446 2340.038 277.634
353 1  2270.825 2181.029 1213.924
354 1  2149.444 2000.004 530.991
355 1  2412.000 2248.812 193.973
356 1  2456.002 2397.862 604.952
357 1  2234.046 2261.868 811.848
358 1  2282.846 2201.727 931.124
359 1  2203.091 2030.582 765.931
360 1  2261.942 2486.703 491.979
361 1  2417.846 2968.218 1889.761
362 1  2284.740 2479.278 1063.021
363 1  2000.000 2487.995 330.947
364 1  2525.047 2188.161 1006.605
365 1  2372.749 2079.527 702.286
366 1  2151.090 2195.678 990.916
367 1  2246.083 2415.751 0.000
368 1  2415.905 2113.077 351.487
369 1  2028.209 2803.296 199.782
370 1  2046.710 2338.591 4.614
371 1  2231.107 2169.181 171.731
372 1  2544.084 3793.087 1999.993
373 1  2011.590 2097.367 1752.401
374 1  2140.921 3849.114 1778.467
375 1  2000.000 3037.154 828.029
376 1  3995.415 720.249 2304.154
377 1  3522.245 1999.368 2854.349
378 1  3944.501 655.261 2504.590
379 1  3301.862 1999.645 2031.729
380 1  2073.872 1552.423 3441.421
381 1  2074.295 975.655 3999.612
382 1  3716.224 0.000 2362.174
383 1  2000.341 140.019 2004.411
384 1  2013.848 1997.875 3726.702
385 1  2004.423 39.758 3998.809
386 1  2003.803 954.338 3029.336
387 1  2305.759 602.158 2282.509
388 1  2052.607 612.299 2416.966
389 1  2247.657 1235.075 2267.719
390 1  2403.753 677.393 2402.386
391 1  2001.270 974.923 2291.316
392 1  2371.591 484.422 2405.850
393 1  2208.471 1150.115 2361.448
394 1  2156.610 558.947 2051.565
395 1  2215.306 368.042 2396.305
396 1  2323.281 727.986 2614.227
397 1  2488.262 433.115 2257.409
398 1  2373.513 532.782 2053.074
399 1  2004.817 1062.893 3995.987
400 1  2312.405 965.279 2000.000
401 1  2153.247 1141.747 2062.778
402 1  2154.083 537.747 2551.340
403 1  2206.414 15.243 2067.904
404 1  3856.103 1999.991 3978.680
405 1  2645.030 628.300 2350.959
406 1  2396.773 863.528 2346.837
407 1  2000.000 738.180 2364.057
408 1  2010.585 671.395 2527.817
409 1  2329.958 366.871 2079.269
410 1  2413.410 318.814 2485.098
411 1  4000.000 1049.102 3246.707
412 1  2094.517 416.488 2404.070
413 1  2000.000 491.952 2000.000
414 1  2386.371 820.382 2501.227
415 1  2229.721 329.256 2731.210
416 1  2288.997 738.902 2307.833
417 1  2218.745 260.515 2122.384
418 1  2502.710 786.237 2003.639
419 1  2000.000 665.391 2274.408
420 1  3231.434 1999.996 3997.896
421 1  2266.961 707.788 2414.764
422 1  2150.147 578.659 2306.455
423 1  2112.233 32.032 2406.695
424 1  2185.461 1035.099 2463.371
425 1  2444.467 470.902 2121.830
426 1  2454.325 703.498 2104.251
427 1  2000.000 461.677 2341.414
428 1  2463.273 577.819 2195.769
429 1  2326.681 372.500 2543.859
430 1  2414.512 20.635 2407.468
431 1  2213.058 514.886 2194.966
432 1  2377.264 252.741 2371.754
433 1  2967.047 376.106 2000.000
434 1  2137.370 251.978 2274.437
435 1  2421.249 118.037 2255.857
436 1  2362.087 1065.339 2439.287
437 1  2363.143 1093.473 2186.059
438 1  2188.012 506.459 2424.922
439 1  2383.528 628.999 2000.707
440 1  2180.941 136.720 2344.946
441 1  2254.315 348.600 2283.410
442 1  2079.521 885.061 2267.493
443 1  2254.389 496.683 2315.484
444 1  2000.608 1677.300 4000.000
445 1  2105.951 220.203 2164.757
446 1  2911.867 3.000 2001.503
447 1  2000.010 903.501 2000.048
448 1  3968.806 1823.583 2406.896
449 1  4000.000 680.837 2000.000
450 1  2204.614 356.311 2595.140
451 1  291.952 3997.867 2001.950
452 1  1995.334 2003.899 3877.023
453 1  551.112 2000.009 3974.179
454 1  0.026 3847.628 3999.996
455 1  273.987 3699.624 2230.303
456 1  352.970 2017.050 3322.374
457 1  4.562 3949.548 2251.094
458 1  1491.136 2007.896 2821.760
459 1  902.139 4000.000 4000.000
460 1  913.341 2401.535 2000.000
461 1  14.831 3495.381 2040.857
462 1  1978.191 2409.991 3385.057
463 1  292.417 2506.888 2360.961
464 1  374.483 2368.942 2358.411
465 1  219.212 2374.451 2237.290
466 1  776.717 2530.112 2174.491
467 1  329.287 2131.637 2357.631
468 1  795.288 2378.616 2163.857
469 1  387.719 2101.277 2649.612
470 1  1002.216 2095.467 2286.868
471 1  438.606 2649.774 2000.000
472 1  513.468 2065.014 2132.652
473 1  696.314 2003.554 2391.630
474 1  1100.541 2285.386 2162.487
475 1  460.403 2423.555 2427.646
476 1  668.318 2434.948 2250.750
477 1  550.999 2477.705 2197.392
478 1  1028.119 2524.128 2293.796
479 1  478.023 2388.276 2172.225
480 1  604.761 2583.259 2421.785
481 1  1985.979 2012.072 3988.234
482 1  915.901 2307.868 2422.885
483 1  1194.126 2709.176 2150.679
484 1  366.850 2236.019 2406.847
485 1  829.467 2001.244 2000.000
486 1  0.000 2234.927 2373.970
487 1  938.011 2991.673 2015.557
488 1  112.813 2109.725 2000.000
489 1  4.796 2429.355 2352.001
490 1  0.000 2372.254 2142.967
491 1  207.859 2221.381 2158.279
492 1  2.660 3317.202 2049.180
493 1  858.709 2001.166 2273.965
494 1  1007.453 2581.220 2018.722
495 1  516.635 2362.876 2329.017
496 1  580.645 2194.365 2000.000
497 1  0.000 2482.009 2511.798
498 1  1039.717 2232.615 2267.120
499 1  0.000 2325.533 2278.325
500 1  423.082 2239.482 2785.007
501 1  600.331 2000.001 2150.833
502 1  466.927 2054.382 2514.583
503 1  355.871 2250.470 2556.552
504 1  1351.200 2366.269 2000.000
505 1  426.110 2309.730 2103.017
506 1  1252.497 2002.664 2328.675
507 1  718.776 2267.778 2482.881
508 1  1982.563 3860.429 3942.503
509 1  652.134 2363.025 2072.606
510 1  724.398 2679.741 2543.328
511 1  0.146 2166.388 2507.294
512 1  138.492 2320.905 2329.960
513 1  439.528 2303.903 2482.879
514 1  677.133 2582.930 2130.425
515 1  1070.831 2088.575 2404.882
516 1  630.913 2000.862 2269.308
517 1  307.160 2603.186 2141.636
518 1  0.000 2227.756 2662.061
519 1  94.073 2168.765 2350.111
520 1  582.694 2000.000 2600.954
521 1  1632.976 3701.484 2226.431
522 1  1638.879 2009.759 2205.765
523 1  1835.010 2195.165 3937.519
524 1  1999.956 3965.950 3888.754
525 1  397.073 2470.031 2209.049
526 1  3667.351 3857.637 2893.273
527 1  3911.949 2516.270 3999.867
528 1  2110.413 3843.138 2340.280
529 1  2000.381 3783.325 2476.076
530 1  3949.717 3515.395 3846.974
531 1  2591.835 3999.981 3999.968
532 1  2014.349 3459.629 2227.026
533 1  2264.057 3997.014 3914.068
534 1  2696.988 3031.247 2602.485
535 1  3847.899 2182.062 2011.025
536 1  2007.533 2420.023 2451.862
537 1  2500.159 3376.434 3444.891
538 1  2156.399 2175.154 2293.549
539 1  3933.454 2343.479 3890.822
540 1  2557.650 2168.029 2122.373
541 1  2122.766 2124.113 2516.410
542 1  2347.773 2510.455 2403.165
543 1  2356.440 2196.174 2937.405
544 1  2512.206 2344.780 2464.318
545 1  2793.465 2804.386 2844.820
546 1  2225.700 2562.466 2000.000
547 1  2497.321 2066.253 2513.523
548 1  2483.971 2000.183 2344.141
549 1  2000.000 2554.727 2459.152
550 1  2581.203 2079.827 2603.762
551 1  2613.401 2346.872 2566.034
552 1  2435.715 2000.000 2211.028
553 1  2389.101 2206.434 2059.147
554 1  2122.308 2000.000 3003.838
555 1  2338.896 2329.924 2260.799
556 1  2531.766 2185.116 2480.861
557 1  2309.108 2554.433 2506.930
558 1  2574.188 2659.479 2206.572
559 1  2740.821 2000.000 2430.284
560 1  2681.544 2468.886 2549.468
561 1  3177.807 2021.361 2456.849
562 1  2483.300 2103.485 2305.088
563 1  2000.001 3304.072 2317.660
564 1  2021.197 2626.064 2254.164
565 1  2384.269 2468.696 2235.500
566 1  2000.000 2686.438 2350.566
567 1  2009.520 2125.334 3982.376
568 1  2061.977 2275.653 2123.723
569 1  2140.168 2227.770 2480.444
570 1  2445.534 4000.000 2355.558
571 1  2767.516 2215.954 2157.004
572 1  2218.381 2027.141 2664.884
573 1  2626.805 2347.560 2184.419
574 1  3998.972 3890.558 2000.026
575 1  2168.079 2671.361 2022.087
576 1  2055.349 2687.292 2034.545
577 1  2488.147 2249.453 2081.892
578 1  2109.270 2007.470 2893.601
579 1  2162.672 2000.389 2134.360
580 1  2013.482 2837.742 3880.984
581 1  2000.000 2100.030 2274.004
582 1  2000.000 2775.384 2621.432
583 1  2288.926 2251.669 2416.095
584 1  2057.780 2553.450 2353.784
585 1  2624.895 2000.000 2000.000
586 1  2151.353 2595.420 2284.122
587 1  2416.741 2315.212 2000.000
588 1  2176.199 2475.303 2419.686
589 1  2167.057 2430.763 2000.000
590 1  2083.875 2339.583 2003.855
591 1  2617.892 2494.845 2330.169
592 1  2407.106 2404.394 2680.052
593 1  2494.235 2390.554 2289.628
594 1  2695.047 2252.630 2008.148
595 1  2004.523 2782.541 2105.180
596 1  3290.783 3999.943 2388.625
597 1  3069.361 4000.000 2989.450
598 1  2171.724 2032.515 2268.194
599 1  3999.797 3999.682 3999.725
600 1  2209.447 2484.167 2267.123
601 2  1999.742 486.730 0.042
602 2  7.359 1992.666 0.009
603 2  1990.464 12.744 36.152
604 2  914.799 500.963 1185.668
605 2  1883.282 21.425 4.754
606 2  0.016 1999.980 1776.607
607 2  1701.696 1226.379 1703.177
608 2  1104.433 33.696 970.837
609 2  702.088 344.139 126.661
610 2  473.978 136.210 815.731
611 2  846.721 207.384 183.076
612 2  0.000 383.548 0.000
613 2  800.079 318.788 686.635
614 2  797.147 744.517 705.159
615 2  148.067 87.305 990.471
616 2  703.041 225.281 783.406
617 2  424.264 598.545 910.419
618 2  229.380 1229.688 482.244
619 2  731.405 850.232 588.982
620 2  188.318 722.884 775.961
621 2  424.359 401.715 58.146
622 2  332.458 467.161 964.094
623 2  470.612 265.015 433.030
624 2  138.556 947.116 457.201
625 2  886.235 385.664 380.320
626 2  647.841 212.214 222.978
627 2  308.032 686.807 757.795
628 2  528.813 118.547 251.689
629 2  67.784 573.683 470.027
630 2  162.950 680.303 663.963
631 2  747.476 352.661 1000.704
632 2  166.387 822.948 571.467
633 2  0.000 0.000 969.618
634 2  30.759 345.681 469.855
635 2  845.210 791.566 431.533
636 2  131.999 70.970 726.466
637 2  899.020 0.000 658.596
638 2  342.272 176.038 129.039
639 2  772.367 833.071 247.892
640 2  91.640 20.120 325.587
641 2  281.245 679.355 530.481
642 2  34.589 290.540 211.759
643 2  764.720 210.410 295.691
644 2  550.245 500.973 65.264
645 2  867.559 570.041 458.552
646 2  723.319 903.489 721.199
647 2  102.585 456.276 331.697
648 2  53.070 76.302 1286.864
649 2  1949.888 1556.971 105.775
650 2  369.333 54.451 621.310
651 2  3561.842 8.248 10.233
652 2  3728.179 486.945 165.084
653 2  2444.235 186.288 63.900
654 2  2073.757 1756.507 1995.776
655 2  2005.176 21.891 148.723
656 2  3695.387 241.795 422.403
657 2  3604.534 184.465 394.077
658 2  3620.940 928.394 515.551
659 2  3192.995 875.519 365.678
660 2  3070.254 884.193 626.056
661 2  3468.463 305.837 95.174
662 2  3925.176 346.090 762.059
663 2  3937.768 19.811 1.505
664 2  3803.564 409.236 714.923
665 2  3411.512 495.528 309.243
666 2  3990.233 561.721 722.006
667 2  3918.774 747.908 89.429
668 2  2000.000 1227.524 1262.029
669 2  3933.252 908.649 428.560
670 2  3797.746 706.777 540.682
671 2  3919.852 921.460 193.252
672 2  3721.429 819.105 575.290
673 2  3498.289 248.068 317.173
674 2  3230.255 681.397 623.665
675 2  3028.464 884.696 444.606
676 2  4000.000 1210.216 308.058
677 2  3512.538 0.000 1084.853
678 2  3118.763 526.393 42.855
679 2  2171.235 77.292 9.024
680 2  3303.412 0.000 1469.034
681 2  3842.425 788.934 650.650
682 2  3424.748 669.628 150.016
683 2  3764.566 552.383 501.975
684 2  3932.972 242.494 154.403
685 2  2562.915 2000.000 1452.773
686 2  3868.951 650.553 404.618
687 2  3247.799 449.176 852.000
688 2  3452.356 898.668 802.320
689 2  3130.148 835.317 531.067
690 2  3411.061 385.064 746.092
691 2  3339.146 0.000 95.422
692 2  3180.350 1208.765 0.000
693 2  2954.362 685.924 770.869
694 2  3180.582 725.691 389.209
695 2  2767.990 0.000 2000.000
696 2  2972.069 309.152 348.015
697 2  3731.286 1582.024 1.477
698 2  2463.863 954.159 1917.106
699 2  2221.562 1927.848 1951.480
700 2  3963.267 844.438 802.327
701 2  1164.736 2720.919 599.417
702 2  0.371 2734.757 0.086
703 2  1776.957 3640.524 195.830
704 2  210.570 3879.225 1835.196
705 2  471.684 2110.106 0.002
706 2  36.085 2005.923 147.379
707 2  1138.099 2000.613 1999.512
708 2  1991.409 2546.082 71.481
709 2  413.362 2000.000 559.028
710 2  183.468 2000.000 969.925
711 2  70.472 2006.037 950.815
712 2  1023.184 2000.000 849.533
713 2  80.069 2042.597 415.658
714 2  240.301 2001.004 231.525
715 2  750.490 2000.000 687.568
716 2  79.868 2000.000 724.277
717 2  452.904 2018.317 211.117
718 2  723.312 2000.000 805.551
719 2  295.738 2000.000 894.825
720 2  368.582 2000.002 427.536
721 2  494.678 2000.854 0.001
722 2  205.999 2000.000 439.901
723 2  836.023 2003.421 898.414
724 2  473.551 2000.000 347.409
725 2  513.651 2000.000 468.733
726 2  650.069 2090.641 0.000
727 2  165.179 2000.000 323.454
728 2  352.139 2049.023 26.222
729 2  975.259 2000.000 295.665
730 2  411.314 2000.001 684.474
731 2  666.384 2000.000 351.559
732 2  634.181 2000.000 480.861
733 2  608.338 3330.982 312.986
734 2  229.671 2006.231 550.739
735 2  148.703 2001.010 127.175
736 2  569.214 2000.000 599.901
737 2  229.385 2000.000 791.620
738 2  0.000 2133.591 203.496
739 2  429.756 2000.000 804.074
740 2  760.318 2000.000 439.541
741 2  43.454 2000.000 844.159
742 2  849.943 2000.000 310.785
743 2  339.526 2000.055 321.205
744 2  298.532 2000.000 120.047
745 2  755.980 3867.353 1841.640
746 2  247.517 2000.000 666.775
747 2  343.698 2202.059 588.027
748 2  1823.450 3297.223 1927.888
749 2  1680.490 3999.861 1999.645
750 2  516.221 2000.000 891.609
751 2  33.510 357.383 2322.975
752 2  183.624 1749.912 2231.668
753 2  1893.821 217.372 3703.444
754 2  180.961 1809.254 2861.680
755 2  1577.906 1962.493 3888.373
756 2  25.087 1964.326 2002.667
757 2  740.927 958.932 3906.396
758 2  882.610 978.931 2000.000
759 2  1318.208 147.794 2212.607
760 2  1997.020 3.774 2141.837
761 2  409.070 276.985 2000.000
762 2  666.674 733.762 2000.000
763 2  549.720 988.969 2000.000
764 2  778.728 559.800 2000.000
765 2  28.158 499.197 2000.000
766 2  353.516 515.707 2000.000
767 2  302.657 1018.880 2000.000
768 2  161.700 58.418 2000.326
769 2  121.073 883.610 2000.000
770 2  764.291 942.020 2000.000
771 2  456.703 425.928 2000.000
772 2  0.334 616.956 2000.000
773 2  618.769 490.161 2000.000
774 2  160.976 322.220 2000.000
775 2  882.815 111.146 2000.000
776 2  84.051 703.603 2048.171
777 2  516.032 718.940 2000.000
778 2  337.235 374.494 2000.000
779 2  19.820 363.396 2000.000
780 2  157.630 770.532 2000.385
781 2  486.703 182.094 2000.000
782 2  649.451 864.158 2000.000
783 2  788.331 718.209 2000.000
784 2  227.377 541.292 2000.000
785 2  928.334 612.464 2000.000
786 2  108.397 1995.916 3163.483
787 2  151.950 444.369 2000.000
788 2  270.547 270.202 2000.000
789 2  22.789 251.278 2004.631
790 2  498.397 543.974 2000.006
791 2  706.101 277.908 2000.000
792 2  721.809 160.377 2000.000
793 2  550.595 334.125 2000.000
794 2  0.000 879.388 2000.000
795 2  528.630 857.067 2000.000
796 2  319.971 747.550 2000.000
797 2  821.155 236.641 2000.000
798 2  321.139 109.484 2000.001
799 2  307.771 0.217 2000.687
800 2  394.612 847.532 2000.000
801 2  3976.574 3996.874 1982.791
802 2  2741.755 3687.744 63.876
803 2  2000.069 3997.793 1998.622
804 2  2590.484 2202.812 1260.680
805 2  3807.200 3981.469 27.319
806 2  2299.992 2509.081 1308.481
807 2  3999.999 4000.000 595.245
808 2  3999.970 3543.061 0.012
809 2  2071.072 3998.872 1.663
810 2  2933.109 2871.211 0.000
811 2  4000.000 2109.862 145.279
812 2  2846.955 3203.030 623.810
813 2  2037.956 2002.152 1095.472
814 2  2104.424 2000.661 301.273
815 2  2729.041 2143.165 649.072
816 2  2136.246 2002.849 1205.026
817 2  2000.000 2220.375 225.389
818 2  4000.000 2850.515 0.000
819 2  2000.601 2101.422 1365.567
820 2  2000.000 2236.160 116.504
821 2  2228.574 2135.070 21.837
822 2  3555.386 2000.000 2000.000
823 2  2393.653 2454.857 1245.683
824 2  2406.220 2069.816 133.886
825 2  2187.349 2572.595 585.786
826 2  2260.836 2115.284 1102.205
827 2  2486.083 2036.721 658.450
828 2  3996.975 2888.925 854.054
829 2  2209.769 2351.089 1183.309
830 2  2742.450 2543.299 308.412
831 2  2003.869 2000.003 487.214
832 2  3070.794 2113.126 1000.410
833 2  2012.403 2011.286 1212.308
834 2  2082.814 2167.431 1918.766
835 2  2126.261 2017.487 165.565
836 2  2000.226 2000.206 1542.533
837 2  2498.858 2773.882 514.294
838 2  2000.057 2075.606 272.767
839 2  2162.511 2000.000 1026.373
840 2  2384.866 2000.000 627.258
841 2  4000.000 3936.861 93.217
842 2  2000.520 2000.140 169.584
843 2  2569.136 2321.945 148.097
844 2  2000.000 2230.135 6.617
845 2  2015.207 2001.526 1321.874
846 2  2382.814 2000.000 37.520
847 2  2193.384 2264.114 1305.988
848 2  2039.532 2001.544 1859.764
849 2  2000.237 3455.881 1999.841
850 2  2133.807 2046.509 410.867
851 2  3999.885 0.072 3644.596
852 2  3896.947 1885.510 3085.823
853 2  2125.917 1.468 3999.215
854 2  2000.000 1999.999 3118.143
855 2  2017.067 1378.704 3996.776
856 2  3043.810 1075.306 2502.727
857 2  3980.317 1884.171 2008.342
858 2  3619.258 2000.000 3187.487
859 2  2231.460 616.376 2556.578
860 2  2505.644 576.110 2069.689
861 2  2569.476 312.944 2000.000
862 2  2001.936 115.795 2208.476
863 2  2196.516 825.593 2032.389
864 2  2937.891 258.131 2000.000
865 2  2187.903 994.261 2074.570
866 2  2882.664 649.453 2808.892
867 2  2000.000 979.091 2109.523
868 2  2706.408 187.271 2447.470
869 2  2172.358 443.554 2105.329
870 2  2000.000 0.000 3648.153
871 2  2000.028 1239.832 2203.555
872 2  2271.415 1117.755 2000.000
873 2  2208.049 1857.491 3211.460
874 2  2848.177 484.808 2801.816
875 2  2002.589 185.568 2114.488
876 2  3619.650 0.000 4000.000
877 2  2000.000 505.085 2692.391
878 2  2644.442 1406.228 2562.735
879 2  2000.009 1324.562 2130.091
880 2  2005.658 290.737 2172.185
881 2  3670.558 413.166 2000.002
882 2  2000.249 1421.225 2000.184
883 2  2114.089 1999.435 3951.023
884 2  2121.413 758.904 2156.688
885 2  2669.508 2.181 2681.611
886 2  3987.658 437.420 3953.934
887 2  2000.000 1132.906 2000.000
888 2  2791.913 1767.000 2692.066
889 2  2013.843 156.821 2394.608
890 2  2142.341 393.742 2005.301
891 2  2609.910 0.000 2103.137
892 2  2249.901 1161.120 2151.287
893 2  2456.562 0.000 2026.713
894 2  2564.175 0.000 2002.381
895 2  2089.385 928.695 2157.468
896 2  2498.822 554.245 2329.227
897 2  2657.742 1368.669 3112.997
898 2  2357.781 1123.719 3370.377
899 2  3159.003 734.920 3656.508
900 2  2000.004 1424.796 2176.383
901 2  1060.101 2015.551 2567.001
902 2  1797.842 3726.000 2329.156
903 2  233.203 3439.700 2012.242
904 2  1766.551 2157.379 2711.636
905 2  136.629 3859.989 3999.938
906 2  182.280 3990.423 2007.938
907 2  1878.073 3994.244 2002.808
908 2  4.613 2016.941 2658.590
909 2  805.382 2014.046 2443.386
910 2  143.003 2017.640 2624.826
911 2  1136.261 2109.200 2112.565
912 2  565.752 2502.076 2792.594
913 2  1934.676 2466.374 3727.751
914 2  1423.926 2009.278 2066.556
915 2  469.976 2149.024 2000.000
916 2  899.824 2012.760 2116.881
917 2  758.825 3372.745 2030.829
918 2  93.598 2038.487 3915.531
919 2  145.659 2321.901 2645.444
920 2  183.920 2551.161 2000.000
921 2  284.354 2133.497 2509.314
922 2  0.000 3672.400 2306.428
923 2  1550.862 3775.833 2594.589
924 2  1536.489 2032.894 2000.001
925 2  651.841 2092.079 2000.001
926 2  0.000 2937.816 2588.684
927 2  1.379 2115.694 3729.299