LAMMPS (23 Jun 2022 - Update 1)
OMP_NUM_THREADS environment is not set. Defaulting to 1 thread. (src/comm.cpp:98)
  using 1 OpenMP thread(s) per MPI task
# Read restart
read_restart ${read_res}
read_restart ./pgnpmf/6040/equpmf14.res
Reading restart file ...
  restart file = 23 Jun 2022, LAMMPS = 23 Jun 2022
  restoring atom style atomic from restart
  orthogonal box = (1546.1049 1546.1049 1546.1049) to (2453.8951 2453.8951 2453.8951)
  1 by 2 by 2 MPI processor grid
  restoring pair style table from restart
  1000 atoms
  read_restart CPU = 0.006 seconds

# Settings

pair_style table spline 9941

pair_coeff 1 1 ./pgnpmf/N20.txt DE_GNP 75.6
pair_coeff 2 2 ./pgnpmf/N100.txt DE_GNP 115.92
WARNING: 3 of 9941 force values in table DE_GNP are inconsistent with -dE/dr.
WARNING:  Should only be flagged at inflection points (src/pair_table.cpp:463)
pair_coeff 1 2 ./pgnpmf/mixed_potential.txt DE_GNP 95.66
WARNING: 1562 of 9941 force values in table DE_GNP are inconsistent with -dE/dr.
WARNING:  Should only be flagged at inflection points (src/pair_table.cpp:463)

#Neigh_list Calc Frequency

neigh_modify delay 0 every 1 check yes

# Saving Frequency (50 frames)

variable ts_save equal ${steps_equ}
variable ts_save equal 5000

# Dump
#dump 1 all custom ${ts_save} ./pgnpmf/${folder}/equilibration/trajectory/trajectory_${usic}_${trial}.equ.custom type x y z ix iy iz
#dump_modify 1 first no sort id
dump 2 all cfg 50000 ./pgnpmf/${folder}/equilibration/trajectory/dumpgen.tens_*.cfg mass type xs ys zs fx fy fz
dump 2 all cfg 50000 ./pgnpmf/6040/equilibration/trajectory/dumpgen.tens_*.cfg mass type xs ys zs fx fy fz
dump_modify 2 element N20 N100

# thermo_style
thermo_style custom step temp press pe density ke etotal lx ly lz xlo xhi ylo yhi zlo zhi vol dt time cpu tpcpu spcpu cpuremain

# run info
timestep ${ts}
timestep 0.1
thermo 10000


# fix

fix 1 all momentum 1000 linear 1 1 1 angular
variable T equal ${temp}
variable T equal 300
fix 2 all nvt temp ${T} 370000 100.0
fix 2 all nvt temp 300 370000 100.0

run 200000
Generated 0 of 1 mixed pair_coeff terms from geometric mixing rule
Unused restart file global fix info:
  fix style: npt, fix ID: 5
Neighbor list info ...
  update every 1 steps, delay 0 steps, check yes
  max neighbors/atom: 2000, page size: 100000
  master list distance cutoff = 117.92
  ghost atom cutoff = 117.92
  binsize = 58.96, bins = 16 16 16
  1 neighbor lists, perpetual/occasional/extra = 1 0 0
  (1) pair table, perpetual
      attributes: half, newton on
      pair build: half/bin/atomonly/newton
      stencil: half/bin/3d
      bin: standard
Per MPI rank memory allocation (min/avg/max) = 4.344 | 4.345 | 4.345 Mbytes
   Step          Temp          Press          PotEng        Density         KinEng         TotEng           Lx             Ly             Lz            Xlo            Xhi            Ylo            Yhi            Zlo            Zhi           Volume           Dt            Time           CPU           T/CPU          S/CPU         CPULeft    
  19200000   308.69988      1.7917207     -13234432       0.6701936      919.25553     -13233513       907.79021      907.79021      907.79021      1546.1049      2453.8951      1546.1049      2453.8951      1546.1049      2453.8951      7.4809454e+08  0.1            4080000        0              0              0              0            
  19210000   17639.811     -43.213444     -13261144       0.6701936      52528.344     -13208616       907.79021      907.79021      907.79021      1546.1049      2453.8951      1546.1049      2453.8951      1546.1049      2453.8951      7.4809454e+08  0.1            4081000        0.4580121      2183.3453      21833.415      8.7022725    
  19220000   37579.952     -119.58166     -13299416       0.6701936      111906.68     -13187510       907.79021      907.79021      907.79021      1546.1049      2453.8951      1546.1049      2453.8951      1546.1049      2453.8951      7.4809454e+08  0.1            4082000        0.91618581     2182.5785      21825.78       8.2456932    
  19230000   57313.099     -181.75227     -13347532       0.6701936      170668.62     -13176864       907.79021      907.79021      907.79021      1546.1049      2453.8951      1546.1049      2453.8951      1546.1049      2453.8951      7.4809454e+08  0.1            4083000        1.3702705      2202.2319      22022.326      7.7648789    
  19240000   73790.823     -208.40972     -13367374       0.6701936      219736.47     -13147637       907.79021      907.79021      907.79021      1546.1049      2453.8951      1546.1049      2453.8951      1546.1049      2453.8951      7.4809454e+08  0.1            4084000        1.8259902      2194.3312      21943.31       7.3039702    
  19250000   91348.826     -198.57562     -13394198       0.6701936      272021.2      -13122176       907.79021      907.79021      907.79021      1546.1049      2453.8951      1546.1049      2453.8951      1546.1049      2453.8951      7.4809454e+08  0.1            4085000        2.2840553      2183.0954      21830.935      6.8521742    
  19260000   114160.9      -169.05843     -13414972       0.6701936      339951.67     -13075021       907.79021      907.79021      907.79021      1546.1049      2453.8951      1546.1049      2453.8951      1546.1049      2453.8951      7.4809454e+08  0.1            4086000        2.7422825      2182.3246      21823.261      6.3986645    
  19270000   129491.75     -132.06863     -13466896       0.6701936      385604.31     -13081292       907.79021      907.79021      907.79021      1546.1049      2453.8951      1546.1049      2453.8951      1546.1049      2453.8951      7.4809454e+08  0.1            4087000        3.2008679      2180.6176      21806.171      5.9444738    
  19280000   151885.43     -77.918118     -13519739       0.6701936      452288.89     -13067450       907.79021      907.79021      907.79021      1546.1049      2453.8951      1546.1049      2453.8951      1546.1049      2453.8951      7.4809454e+08  0.1            4088000        3.6590104      2182.7282      21827.29       5.4885189    
  19290000   170159.02     -22.494199     -13535402       0.6701936      506704.5      -13028697       907.79021      907.79021      907.79021      1546.1049      2453.8951      1546.1049      2453.8951      1546.1049      2453.8951      7.4809454e+08  0.1            4089000        4.1185499      2176.0917      21760.918      5.0337859    
  19300000   179333.97      24.377758     -13546121       0.6701936      534025.93     -13012095       907.79021      907.79021      907.79021      1546.1049      2453.8951      1546.1049      2453.8951      1546.1049      2453.8951      7.4809454e+08  0.1            4090000        4.60489        2056.1723      20561.69       4.604894     
  19310000   205632.81      69.870802     -13520087       0.6701936      612339.4      -12907747       907.79021      907.79021      907.79021      1546.1049      2453.8951      1546.1049      2453.8951      1546.1049      2453.8951      7.4809454e+08  0.1            4091000        5.0746524      2128.7377      21287.406      4.1519902    
  19320000   224283.53      89.184988     -13553018       0.6701936      667878.06     -12885140       907.79021      907.79021      907.79021      1546.1049      2453.8951      1546.1049      2453.8951      1546.1049      2453.8951      7.4809454e+08  0.1            4092000        5.5312468      2190.1279      21901.277      3.6874994    
  19330000   232554.47      84.592815     -13569732       0.6701936      692507.5      -12877225       907.79021      907.79021      907.79021      1546.1049      2453.8951      1546.1049      2453.8951      1546.1049      2453.8951      7.4809454e+08  0.1            4093000        5.9888638      2185.2336      21852.336      3.224774     
  19340000   257357.75      81.883647     -13607156       0.6701936      766367.44     -12840789       907.79021      907.79021      907.79021      1546.1049      2453.8951      1546.1049      2453.8951      1546.1049      2453.8951      7.4809454e+08  0.1            4094000        6.4525207      2156.7665      21567.672      2.765367     
  19350000   286229.9       94.695386     -13692091       0.6701936      852343.77     -12839747       907.79021      907.79021      907.79021      1546.1049      2453.8951      1546.1049      2453.8951      1546.1049      2453.8951      7.4809454e+08  0.1            4095000        6.915005       2162.236       21622.356      2.3050024    
  19360000   302323.92      120.83369     -13712387       0.6701936      900269.02     -12812118       907.79021      907.79021      907.79021      1546.1049      2453.8951      1546.1049      2453.8951      1546.1049      2453.8951      7.4809454e+08  0.1            4096000        7.3750839      2173.5401      21735.4        1.8437716    
  19370000   307176.04      144.76917     -13753452       0.6701936      914717.8      -12838734       907.79021      907.79021      907.79021      1546.1049      2453.8951      1546.1049      2453.8951      1546.1049      2453.8951      7.4809454e+08  0.1            4097000        7.8373239      2163.3783      21633.778      1.3830576    
  19380000   334255.15      161.0798      -13748350       0.6701936      995354.75     -12752995       907.79021      907.79021      907.79021      1546.1049      2453.8951      1546.1049      2453.8951      1546.1049      2453.8951      7.4809454e+08  0.1            4098000        8.3027469      2148.5832      21485.836      0.92252769   
  19390000   351653.43      156.91078     -13739353       0.6701936      1047163.9     -12692189       907.79021      907.79021      907.79021      1546.1049      2453.8951      1546.1049      2453.8951      1546.1049      2453.8951      7.4809454e+08  0.1            4099000        8.7691702      2143.9747      21439.749      0.4615354    
  19400000   355906.13      132.67959     -13774575       0.6701936      1059827.7     -12714747       907.79021      907.79021      907.79021      1546.1049      2453.8951      1546.1049      2453.8951      1546.1049      2453.8951      7.4809454e+08  0.1            4100000        9.2365096      2139.7725      21397.723      0            
Loop time of 9.23654 on 4 procs for 200000 steps with 1000 atoms

Performance: 187.083 ns/day, 0.128 hours/ns, 21653.119 timesteps/s
99.4% CPU use with 4 MPI tasks x 1 OpenMP threads

MPI task timing breakdown:
Section |  min time  |  avg time  |  max time  |%varavg| %total
---------------------------------------------------------------
Pair    | 2.6854     | 3.0913     | 3.9415     |  28.2 | 33.47
Neigh   | 0.0085436  | 0.0098683  | 0.011698   |   1.2 |  0.11
Comm    | 3.6535     | 4.444      | 4.8365     |  22.0 | 48.11
Output  | 0.035225   | 0.03538    | 0.035834   |   0.1 |  0.38
Modify  | 1.1039     | 1.1417     | 1.183      |   2.6 | 12.36
Other   |            | 0.5143     |            |       |  5.57

Nlocal:            250 ave         281 max         233 min
Histogram: 1 1 1 0 0 0 0 0 0 1
Nghost:            486 ave         504 max         463 min
Histogram: 1 0 0 0 1 0 0 0 1 1
Neighs:         728.75 ave         894 max         662 min
Histogram: 2 1 0 0 0 0 0 0 0 1

Total # of neighbors = 2915
Ave neighs/atom = 2.915
Neighbor list builds = 71
Dangerous builds = 0

unfix 2

fix 3 all nvt temp 370000 370000 $(100.0*dt) #iso 1.0 1.0 $(1000.0*dt)
fix 3 all nvt temp 370000 370000 10 

run 500000
Generated 0 of 1 mixed pair_coeff terms from geometric mixing rule
Per MPI rank memory allocation (min/avg/max) = 4.345 | 4.345 | 4.345 Mbytes
   Step          Temp          Press          PotEng        Density         KinEng         TotEng           Lx             Ly             Lz            Xlo            Xhi            Ylo            Yhi            Zlo            Zhi           Volume           Dt            Time           CPU           T/CPU          S/CPU         CPULeft    
  19400000   355906.13      132.67959     -13774575       0.6701936      1059827.7     -12714747       907.79021      907.79021      907.79021      1546.1049      2453.8951      1546.1049      2453.8951      1546.1049      2453.8951      7.4809454e+08  0.1            4100000        0              0              0              0            
  19410000   369959.82      118.12063     -13749467       0.6701936      1101677.2     -12647790       907.79021      907.79021      907.79021      1546.1049      2453.8951      1546.1049      2453.8951      1546.1049      2453.8951      7.4809454e+08  0.1            4101000        0.46767368     2138.2399      21382.361      22.916121    
  19420000   357867.87      101.01924     -13761653       0.6701936      1065669.4     -12695984       907.79021      907.79021      907.79021      1546.1049      2453.8951      1546.1049      2453.8951      1546.1049      2453.8951      7.4809454e+08  0.1            4102000        0.93668297     2132.154       21321.544      22.480443    
  19430000   371205.66      96.453123     -13740075       0.6701936      1105387.1     -12634688       907.79021      907.79021      907.79021      1546.1049      2453.8951      1546.1049      2453.8951      1546.1049      2453.8951      7.4809454e+08  0.1            4103000        1.4018955      2149.5553      21495.554      21.963062    
  19440000   366511.36      93.554504     -13799780       0.6701936      1091408.2     -12708372       907.79021      907.79021      907.79021      1546.1049      2453.8951      1546.1049      2453.8951      1546.1049      2453.8951      7.4809454e+08  0.1            4104000        1.8731741      2121.8864      21218.855      21.541531    
  19450000   385226.16      89.202368     -13768811       0.6701936      1147137.7     -12621673       907.79021      907.79021      907.79021      1546.1049      2453.8951      1546.1049      2453.8951      1546.1049      2453.8951      7.4809454e+08  0.1            4105000        2.3452714      2118.2078      21182.083      21.107463    
  19460000   381071.48      63.927117     -13755346       0.6701936      1134765.8     -12620580       907.79021      907.79021      907.79021      1546.1049      2453.8951      1546.1049      2453.8951      1546.1049      2453.8951      7.4809454e+08  0.1            4106000        2.8159774      2124.4685      21244.667      20.65052     
  19470000   379126.41      42.049135     -13726984       0.6701936      1128973.7     -12598010       907.79021      907.79021      907.79021      1546.1049      2453.8951      1546.1049      2453.8951      1546.1049      2453.8951      7.4809454e+08  0.1            4107000        3.2864954      2125.3178      21253.195      20.188485    
  19480000   371455.05      32.456855     -13685946       0.6701936      1106129.7     -12579816       907.79021      907.79021      907.79021      1546.1049      2453.8951      1546.1049      2453.8951      1546.1049      2453.8951      7.4809454e+08  0.1            4108000        3.7563386      2128.369       21283.687      19.72079     
  19490000   367344.19      26.689013     -13651328       0.6701936      1093888.3     -12557439       907.79021      907.79021      907.79021      1546.1049      2453.8951      1546.1049      2453.8951      1546.1049      2453.8951      7.4809454e+08  0.1            4109000        4.2272379      2123.5964      21235.962      19.257428    
  19500000   366899.7       22.902271     -13621696       0.6701936      1092564.7     -12529131       907.79021      907.79021      907.79021      1546.1049      2453.8951      1546.1049      2453.8951      1546.1049      2453.8951      7.4809454e+08  0.1            4110000        4.6924511      2149.552       21495.516      18.769814    
  19510000   374727.84      27.84318      -13639089       0.6701936      1115875.5     -12523213       907.79021      907.79021      907.79021      1546.1049      2453.8951      1546.1049      2453.8951      1546.1049      2453.8951      7.4809454e+08  0.1            4111000        5.1556048      2159.1106      21591.116      18.27897     
  19520000   357458.92      35.662123     -13600990       0.6701936      1064451.6     -12536538       907.79021      907.79021      907.79021      1546.1049      2453.8951      1546.1049      2453.8951      1546.1049      2453.8951      7.4809454e+08  0.1            4112000        5.6198914      2153.8425      21538.422      17.79633     
  19530000   372694.31      26.256657     -13628275       0.6701936      1109820       -12518455       907.79021      907.79021      907.79021      1546.1049      2453.8951      1546.1049      2453.8951      1546.1049      2453.8951      7.4809454e+08  0.1            4113000        6.0906957      2124.0244      21240.244      17.335064    
  19540000   368800.04     -8.6469509     -13624560       0.6701936      1098223.5     -12526337       907.79021      907.79021      907.79021      1546.1049      2453.8951      1546.1049      2453.8951      1546.1049      2453.8951      7.4809454e+08  0.1            4114000        6.5582308      2138.8773      21388.772      16.864028    
  19550000   376645.01     -29.882294     -13629984       0.6701936      1121584.5     -12508399       907.79021      907.79021      907.79021      1546.1049      2453.8951      1546.1049      2453.8951      1546.1049      2453.8951      7.4809454e+08  0.1            4115000        7.0313453      2113.6524      21136.529      16.406478    
  19560000   373338.01     -12.443892     -13587133       0.6701936      1111736.8     -12475396       907.79021      907.79021      907.79021      1546.1049      2453.8951      1546.1049      2453.8951      1546.1049      2453.8951      7.4809454e+08  0.1            4116000        7.4972171      2146.5138      21465.123      15.931592    
  19570000   368210.84      10.828339     -13540447       0.6701936      1096469       -12443978       907.79021      907.79021      907.79021      1546.1049      2453.8951      1546.1049      2453.8951      1546.1049      2453.8951      7.4809454e+08  0.1            4117000        7.967522       2126.28        21262.809      15.466371    
  19580000   375631.87      2.6975259     -13515164       0.6701936      1118567.6     -12396596       907.79021      907.79021      907.79021      1546.1049      2453.8951      1546.1049      2453.8951      1546.1049      2453.8951      7.4809454e+08  0.1            4118000        8.434357       2142.0846      21420.845      14.994417    
  19590000   369758.68     -16.619349     -13527824       0.6701936      1101078.2     -12426746       907.79021      907.79021      907.79021      1546.1049      2453.8951      1546.1049      2453.8951      1546.1049      2453.8951      7.4809454e+08  0.1            4119000        8.8974075      2159.5916      21595.922      14.516826    
  19600000   369562.32     -11.549231     -13512337       0.6701936      1100493.5     -12411843       907.79021      907.79021      907.79021      1546.1049      2453.8951      1546.1049      2453.8951      1546.1049      2453.8951      7.4809454e+08  0.1            4120000        9.3602937      2160.3581      21603.582      14.040444    
  19610000   364673.19      15.329622     -13473077       0.6701936      1085934.5     -12387142       907.79021      907.79021      907.79021      1546.1049      2453.8951      1546.1049      2453.8951      1546.1049      2453.8951      7.4809454e+08  0.1            4121000        9.8613451      1995.8033      19958.035      13.618051    
  19620000   365464.63      34.220624     -13478442       0.6701936      1088291.3     -12390151       907.79021      907.79021      907.79021      1546.1049      2453.8951      1546.1049      2453.8951      1546.1049      2453.8951      7.4809454e+08  0.1            4122000        10.332119      2124.1594      21241.586      13.149973    
  19630000   370267.95      40.014014     -13432554       0.6701936      1102594.7     -12329960       907.79021      907.79021      907.79021      1546.1049      2453.8951      1546.1049      2453.8951      1546.1049      2453.8951      7.4809454e+08  0.1            4123000        10.800254      2136.1377      21361.383      12.678562    
  19640000   370901.32      40.143322     -13439738       0.6701936      1104480.8     -12335258       907.79021      907.79021      907.79021      1546.1049      2453.8951      1546.1049      2453.8951      1546.1049      2453.8951      7.4809454e+08  0.1            4124000        11.265895      2147.5766      21475.765      12.204722    
  19650000   378341.9       43.336113     -13405178       0.6701936      1126637.6     -12278540       907.79021      907.79021      907.79021      1546.1049      2453.8951      1546.1049      2453.8951      1546.1049      2453.8951      7.4809454e+08  0.1            4125000        11.734365      2134.609       21346.087      11.734367    
  19660000   374388.7       40.270064     -13414205       0.6701936      1114865.6     -12299339       907.79021      907.79021      907.79021      1546.1049      2453.8951      1546.1049      2453.8951      1546.1049      2453.8951      7.4809454e+08  0.1            4126000        12.202432      2136.4457      21364.457      11.263786    
  19670000   374360.76      27.45997      -13466804       0.6701936      1114782.4     -12352021       907.79021      907.79021      907.79021      1546.1049      2453.8951      1546.1049      2453.8951      1546.1049      2453.8951      7.4809454e+08  0.1            4127000        12.668053      2147.6699      21476.694      10.791307    
  19680000   359674.42      16.119665     -13474661       0.6701936      1071049       -12403612       907.79021      907.79021      907.79021      1546.1049      2453.8951      1546.1049      2453.8951      1546.1049      2453.8951      7.4809454e+08  0.1            4128000        13.132908      2151.206       21512.067      10.318716    
  19690000   375190.64      22.527598     -13511807       0.6701936      1117253.7     -12394554       907.79021      907.79021      907.79021      1546.1049      2453.8951      1546.1049      2453.8951      1546.1049      2453.8951      7.4809454e+08  0.1            4129000        13.596017      2159.3203      21593.204      9.8453935    
  19700000   366039.79      30.971921     -13538001       0.6701936      1090004       -12447997       907.79021      907.79021      907.79021      1546.1049      2453.8951      1546.1049      2453.8951      1546.1049      2453.8951      7.4809454e+08  0.1            4130000        14.061425      2148.6506      21486.503      9.3742854    
  19710000   360139.63      34.345202     -13532307       0.6701936      1072434.3     -12459873       907.79021      907.79021      907.79021      1546.1049      2453.8951      1546.1049      2453.8951      1546.1049      2453.8951      7.4809454e+08  0.1            4131000        14.52416       2161.067       21610.675      8.9019059    
  19720000   394279.18      28.952093     -13570137       0.6701936      1174096.1     -12396041       907.79021      907.79021      907.79021      1546.1049      2453.8951      1546.1049      2453.8951      1546.1049      2453.8951      7.4809454e+08  0.1            4132000        14.985857      2165.9241      21659.237      8.4295458    
  19730000   371799.06      28.050167     -13575842       0.6701936      1107154.1     -12468688       907.79021      907.79021      907.79021      1546.1049      2453.8951      1546.1049      2453.8951      1546.1049      2453.8951      7.4809454e+08  0.1            4133000        15.445323      2176.4362      21764.363      7.956683     
  19740000   382728.74      40.735018     -13587704       0.6701936      1139700.8     -12448003       907.79021      907.79021      907.79021      1546.1049      2453.8951      1546.1049      2453.8951      1546.1049      2453.8951      7.4809454e+08  0.1            4134000        15.907368      2164.2949      21642.95       7.4858212    
  19750000   360639.05      24.210072     -13601926       0.6701936      1073921.5     -12528005       907.79021      907.79021      907.79021      1546.1049      2453.8951      1546.1049      2453.8951      1546.1049      2453.8951      7.4809454e+08  0.1            4135000        16.37036       2159.8605      21598.605      7.0158698    
  19760000   380528.99      17.808712     -13614766       0.6701936      1133150.3     -12481616       907.79021      907.79021      907.79021      1546.1049      2453.8951      1546.1049      2453.8951      1546.1049      2453.8951      7.4809454e+08  0.1            4136000        16.838051      2138.1675      21381.67       6.5481318    
  19770000   378798.38      20.684477     -13607480       0.6701936      1127996.9     -12479483       907.79021      907.79021      907.79021      1546.1049      2453.8951      1546.1049      2453.8951      1546.1049      2453.8951      7.4809454e+08  0.1            4137000        17.304447      2144.0996      21441          6.0799417    
  19780000   373489.04      15.3084       -13639776       0.6701936      1112186.6     -12527589       907.79021      907.79021      907.79021      1546.1049      2453.8951      1546.1049      2453.8951      1546.1049      2453.8951      7.4809454e+08  0.1            4138000        17.765082      2170.9158      21709.16       5.6100267    
  19790000   348101.01      8.3522073     -13628569       0.6701936      1036585.4     -12591984       907.79021      907.79021      907.79021      1546.1049      2453.8951      1546.1049      2453.8951      1546.1049      2453.8951      7.4809454e+08  0.1            4139000        18.226305      2168.1494      21681.492      5.1407533    
  19800000   375491.29      17.69367      -13599847       0.6701936      1118148.9     -12481698       907.79021      907.79021      907.79021      1546.1049      2453.8951      1546.1049      2453.8951      1546.1049      2453.8951      7.4809454e+08  0.1            4140000        18.703446      2095.8146      20958.145      4.6758622    
  19810000   380897.75      17.19798      -13587902       0.6701936      1134248.4     -12453653       907.79021      907.79021      907.79021      1546.1049      2453.8951      1546.1049      2453.8951      1546.1049      2453.8951      7.4809454e+08  0.1            4141000        19.167087      2156.8405      21568.408      4.20741      
  19820000   365396.91      14.720612     -13583150       0.6701936      1088089.6     -12495060       907.79021      907.79021      907.79021      1546.1049      2453.8951      1546.1049      2453.8951      1546.1049      2453.8951      7.4809454e+08  0.1            4142000        19.627947      2169.8572      21698.562      3.7386571    
  19830000   367698.22      10.684263     -13588977       0.6701936      1094942.5     -12494034       907.79021      907.79021      907.79021      1546.1049      2453.8951      1546.1049      2453.8951      1546.1049      2453.8951      7.4809454e+08  0.1            4143000        20.09574       2137.6961      21376.966      3.2714       
  19840000   380323.46      4.1753844     -13556366       0.6701936      1132538.3     -12423828       907.79021      907.79021      907.79021      1546.1049      2453.8951      1546.1049      2453.8951      1546.1049      2453.8951      7.4809454e+08  0.1            4144000        20.553736      2183.4296      21834.298      2.8027825    
  19850000   383682.39      0.48215076    -13557665       0.6701936      1142540.6     -12415124       907.79021      907.79021      907.79021      1546.1049      2453.8951      1546.1049      2453.8951      1546.1049      2453.8951      7.4809454e+08  0.1            4145000        21.042983      2043.9525      20439.499      2.3381097    
  19860000   370230.56     -1.2641142     -13527986       0.6701936      1102483.4     -12425503       907.79021      907.79021      907.79021      1546.1049      2453.8951      1546.1049      2453.8951      1546.1049      2453.8951      7.4809454e+08  0.1            4146000        21.506913      2155.4992      21555.02       1.8701666    
  19870000   359069.61     -9.2964828     -13548088       0.6701936      1069248       -12478840       907.79021      907.79021      907.79021      1546.1049      2453.8951      1546.1049      2453.8951      1546.1049      2453.8951      7.4809454e+08  0.1            4147000        21.969195      2163.1834      21631.837      1.4022892    
  19880000   376242.71      4.2295623     -13562893       0.6701936      1120386.5     -12442506       907.79021      907.79021      907.79021      1546.1049      2453.8951      1546.1049      2453.8951      1546.1049      2453.8951      7.4809454e+08  0.1            4148000        22.429671      2171.6643      21716.64       0.93456975   
  19890000   373265.21      31.47779      -13543879       0.6701936      1111520.1     -12432359       907.79021      907.79021      907.79021      1546.1049      2453.8951      1546.1049      2453.8951      1546.1049      2453.8951      7.4809454e+08  0.1            4149000        22.890288      2171.0038      21710.037      0.46714878   
  19900000   380628.86      45.947134     -13574071       0.6701936      1133447.7     -12440623       907.79021      907.79021      907.79021      1546.1049      2453.8951      1546.1049      2453.8951      1546.1049      2453.8951      7.4809454e+08  0.1            4150000        23.34916       2179.2543      21792.548      0            
Loop time of 23.3492 on 4 procs for 500000 steps with 1000 atoms

Performance: 185.017 ns/day, 0.130 hours/ns, 21414.004 timesteps/s
99.4% CPU use with 4 MPI tasks x 1 OpenMP threads

MPI task timing breakdown:
Section |  min time  |  avg time  |  max time  |%varavg| %total
---------------------------------------------------------------
Pair    | 7.1203     | 8.0009     | 10.122     |  43.5 | 34.27
Neigh   | 0.030198   | 0.03226    | 0.037204   |   1.6 |  0.14
Comm    | 9.1595     | 11.178     | 12.038     |  35.1 | 47.87
Output  | 0.060462   | 0.061149   | 0.063195   |   0.5 |  0.26
Modify  | 2.707      | 2.8045     | 2.8791     |   3.7 | 12.01
Other   |            | 1.273      |            |       |  5.45

Nlocal:            250 ave         263 max         242 min
Histogram: 2 0 0 0 1 0 0 0 0 1
Nghost:         484.25 ave         504 max         470 min
Histogram: 1 0 1 1 0 0 0 0 0 1
Neighs:         714.25 ave         853 max         606 min
Histogram: 1 0 1 0 1 0 0 0 0 1

Total # of neighbors = 2857
Ave neighs/atom = 2.857
Neighbor list builds = 233
Dangerous builds = 0

unfix 3

fix 4 all nvt temp 370000 ${T} $(100.0*dt)
fix 4 all nvt temp 370000 300 $(100.0*dt)
fix 4 all nvt temp 370000 300 10

run 200000
Generated 0 of 1 mixed pair_coeff terms from geometric mixing rule
Per MPI rank memory allocation (min/avg/max) = 4.345 | 4.345 | 4.345 Mbytes
   Step          Temp          Press          PotEng        Density         KinEng         TotEng           Lx             Ly             Lz            Xlo            Xhi            Ylo            Yhi            Zlo            Zhi           Volume           Dt            Time           CPU           T/CPU          S/CPU         CPULeft    
  19900000   380628.86      45.947134     -13574071       0.6701936      1133447.7     -12440623       907.79021      907.79021      907.79021      1546.1049      2453.8951      1546.1049      2453.8951      1546.1049      2453.8951      7.4809454e+08  0.1            4150000        0              0              0              0            
  19910000   361376.1       34.219892     -13608659       0.6701936      1076116.3     -12532542       907.79021      907.79021      907.79021      1546.1049      2453.8951      1546.1049      2453.8951      1546.1049      2453.8951      7.4809454e+08  0.1            4151000        0.45588379     2193.5386      21935.34       8.6618367    
  19920000   341305.61      8.6695948     -13595920       0.6701936      1016349.8     -12579570       907.79021      907.79021      907.79021      1546.1049      2453.8951      1546.1049      2453.8951      1546.1049      2453.8951      7.4809454e+08  0.1            4152000        0.91317562     2186.7866      21867.872      8.2186015    
  19930000   321925.6      -15.983028     -13589052       0.6701936      958639.46     -12630413       907.79021      907.79021      907.79021      1546.1049      2453.8951      1546.1049      2453.8951      1546.1049      2453.8951      7.4809454e+08  0.1            4153000        1.3709817      2184.3316      21843.315      7.7689094    
  19940000   307762.61     -34.943821     -13588225       0.6701936      916464.51     -12671760       907.79021      907.79021      907.79021      1546.1049      2453.8951      1546.1049      2453.8951      1546.1049      2453.8951      7.4809454e+08  0.1            4154000        1.8301565      2177.8202      21778.202      7.3206347    
  19950000   283978.63     -62.418575     -13609924       0.6701936      845639.87     -12764284       907.79021      907.79021      907.79021      1546.1049      2453.8951      1546.1049      2453.8951      1546.1049      2453.8951      7.4809454e+08  0.1            4155000        2.290058       2174.3782      21743.782      6.8701809    
  19960000   248564.78     -96.065449     -13673308       0.6701936      740183.46     -12933125       907.79021      907.79021      907.79021      1546.1049      2453.8951      1546.1049      2453.8951      1546.1049      2453.8951      7.4809454e+08  0.1            4156000        2.7518287      2165.5771      21655.77       6.420939     
  19970000   238252.8      -107.74872     -13726001       0.6701936      709476.15     -13016525       907.79021      907.79021      907.79021      1546.1049      2453.8951      1546.1049      2453.8951      1546.1049      2453.8951      7.4809454e+08  0.1            4157000        3.2092807      2186.0208      21860.207      5.9600973    
  19980000   221400.31     -106.85653     -13731950       0.6701936      659292.31     -13072658       907.79021      907.79021      907.79021      1546.1049      2453.8951      1546.1049      2453.8951      1546.1049      2453.8951      7.4809454e+08  0.1            4158000        3.6722925      2159.7713      21597.716      5.5084426    
  19990000   205070.27     -116.79703     -13738567       0.6701936      610664.25     -13127903       907.79021      907.79021      907.79021      1546.1049      2453.8951      1546.1049      2453.8951      1546.1049      2453.8951      7.4809454e+08  0.1            4159000        4.1271138      2198.6679      21986.681      5.0442528    
  20000000   183176.07     -130.5032      -13806641       0.6701936      545467.04     -13261174       907.79021      907.79021      907.79021      1546.1049      2453.8951      1546.1049      2453.8951      1546.1049      2453.8951      7.4809454e+08  0.1            4160000        4.5858699      2179.8073      21798.071      4.585872     
  20010000   168687.59     -130.44252     -13831970       0.6701936      502322.84     -13329647       907.79021      907.79021      907.79021      1546.1049      2453.8951      1546.1049      2453.8951      1546.1049      2453.8951      7.4809454e+08  0.1            4161000        5.0444377      2180.7021      21807.024      4.127269     
  20020000   144709.4      -131.28612     -13842095       0.6701936      430919.9      -13411175       907.79021      907.79021      907.79021      1546.1049      2453.8951      1546.1049      2453.8951      1546.1049      2453.8951      7.4809454e+08  0.1            4162000        5.5040491      2175.7509      21757.502      3.6693677    
  20030000   124329.7      -135.73614     -13846647       0.6701936      370232.6      -13476415       907.79021      907.79021      907.79021      1546.1049      2453.8951      1546.1049      2453.8951      1546.1049      2453.8951      7.4809454e+08  0.1            4163000        5.9603621      2191.479       21914.771      3.2094272    
  20040000   107871.26     -139.19579     -13874945       0.6701936      321222.2      -13553722       907.79021      907.79021      907.79021      1546.1049      2453.8951      1546.1049      2453.8951      1546.1049      2453.8951      7.4809454e+08  0.1            4164000        6.4202372      2174.5031      21745.057      2.7515312    
  20050000   91514.45      -144.40462     -13918073       0.6701936      272514.4      -13645558       907.79021      907.79021      907.79021      1546.1049      2453.8951      1546.1049      2453.8951      1546.1049      2453.8951      7.4809454e+08  0.1            4165000        6.8808097      2171.2104      21712.101      2.293604     
  20060000   75750.862     -160.96134     -13960073       0.6701936      225573.13     -13734500       907.79021      907.79021      907.79021      1546.1049      2453.8951      1546.1049      2453.8951      1546.1049      2453.8951      7.4809454e+08  0.1            4166000        7.3420762      2167.9448      21679.451      1.8355196    
  20070000   55600.923     -185.35519     -14034793       0.6701936      165570.05     -13869223       907.79021      907.79021      907.79021      1546.1049      2453.8951      1546.1049      2453.8951      1546.1049      2453.8951      7.4809454e+08  0.1            4167000        7.8025565      2171.6445      21716.44       1.3769222    
  20080000   37997.649     -207.61462     -14090101       0.6701936      113150.51     -13976950       907.79021      907.79021      907.79021      1546.1049      2453.8951      1546.1049      2453.8951      1546.1049      2453.8951      7.4809454e+08  0.1            4168000        8.2634794      2169.5613      21695.615      0.91816463   
  20090000   19223.61      -226.10572     -14138365       0.6701936      57244.629     -14081120       907.79021      907.79021      907.79021      1546.1049      2453.8951      1546.1049      2453.8951      1546.1049      2453.8951      7.4809454e+08  0.1            4169000        8.7243644      2169.7383      21697.374      0.4591772    
  20100000   516.2592      -237.55534     -14177775       0.6701936      1537.3317     -14176238       907.79021      907.79021      907.79021      1546.1049      2453.8951      1546.1049      2453.8951      1546.1049      2453.8951      7.4809454e+08  0.1            4170000        9.3357507      1635.6229      16352.64       0            
Loop time of 9.33596 on 4 procs for 200000 steps with 1000 atoms

Performance: 185.091 ns/day, 0.130 hours/ns, 21422.535 timesteps/s
99.1% CPU use with 4 MPI tasks x 1 OpenMP threads

MPI task timing breakdown:
Section |  min time  |  avg time  |  max time  |%varavg| %total
---------------------------------------------------------------
Pair    | 2.7751     | 3.1805     | 3.8926     |  24.0 | 34.07
Neigh   | 0.0087878  | 0.0092073  | 0.010305   |   0.7 |  0.10
Comm    | 3.6899     | 4.3835     | 4.7726     |  19.9 | 46.95
Output  | 0.15945    | 0.15967    | 0.16031    |   0.1 |  1.71
Modify  | 1.0511     | 1.0974     | 1.115      |   2.6 | 11.75
Other   |            | 0.5057     |            |       |  5.42

Nlocal:            250 ave         267 max         240 min
Histogram: 2 0 0 0 1 0 0 0 0 1
Nghost:            490 ave         511 max         471 min
Histogram: 1 0 1 0 0 0 1 0 0 1
Neighs:          720.5 ave         853 max         614 min
Histogram: 1 0 0 1 1 0 0 0 0 1

Total # of neighbors = 2882
Ave neighs/atom = 2.882
Neighbor list builds = 66
Dangerous builds = 0

unfix 4

fix 5 all npt temp ${T} ${T} $(100.0*dt) iso 1.0 1.0 $(1000.0*dt)
fix 5 all npt temp 300 ${T} $(100.0*dt) iso 1.0 1.0 $(1000.0*dt)
fix 5 all npt temp 300 300 $(100.0*dt) iso 1.0 1.0 $(1000.0*dt)
fix 5 all npt temp 300 300 10 iso 1.0 1.0 $(1000.0*dt)
fix 5 all npt temp 300 300 10 iso 1.0 1.0 100

run 300000
Generated 0 of 1 mixed pair_coeff terms from geometric mixing rule
Per MPI rank memory allocation (min/avg/max) = 4.345 | 4.345 | 4.345 Mbytes
   Step          Temp          Press          PotEng        Density         KinEng         TotEng           Lx             Ly             Lz            Xlo            Xhi            Ylo            Yhi            Zlo            Zhi           Volume           Dt            Time           CPU           T/CPU          S/CPU         CPULeft    
  20100000   516.2592      -237.55534     -14177775       0.6701936      1537.3317     -14176238       907.79021      907.79021      907.79021      1546.1049      2453.8951      1546.1049      2453.8951      1546.1049      2453.8951      7.4809454e+08  0.1            4170000        0              0              0              0            
  20110000   315.28987      1.0580493     -14344661       0.69324492     938.8794      -14343722       897.61484      897.61484      897.61484      1551.1926      2448.8074      1551.1926      2448.8074      1551.1926      2448.8074      7.2321941e+08  0.1            4171000        0.59464062     1681.6859      16816.835      17.244647    
  20120000   314.63799      0.34235745    -14362180       0.6942682      936.93822     -14361243       897.17362      897.17362      897.17362      1551.4132      2448.5868      1551.4132      2448.5868      1551.4132      2448.5868      7.2215345e+08  0.1            4172000        1.1794417      1709.9832      17099.834      16.512216    
  20130000   314.08844      1.891999      -14371164       0.6954587      935.30174     -14370229       896.6614       896.6614       896.6614       1551.6693      2448.3307      1551.6693      2448.3307      1551.6693      2448.3307      7.2091726e+08  0.1            4173000        1.7615566      1717.8741      17178.738      15.85403     
  20140000   313.58666      0.76991857    -14403859       0.69656467     933.80753     -14402925       896.18659      896.18659      896.18659      1551.9067      2448.0933      1551.9067      2448.0933      1551.9067      2448.0933      7.1977262e+08  0.1            4174000        2.3468103      1708.661       17086.613      15.254281    
  20150000   313.12776      0.099068705   -14412571       0.69761297     932.44101     -14411639       895.73746      895.73746      895.73746      1552.1313      2447.8687      1552.1313      2447.8687      1552.1313      2447.8687      7.1869102e+08  0.1            4175000        2.932804       1706.5027      17065.029      14.664031    
  20160000   312.74504      1.1049815     -14424419       0.69878125     931.30132     -14423488       895.238        895.238        895.238        1552.381       2447.619       1552.381       2447.619       1552.381       2447.619       7.1748945e+08  0.1            4176000        3.5247857      1689.2417      16892.416      14.099151    
  20170000   312.42069      3.0559396     -14445297       0.70000311     930.33547     -14444367       894.71681      894.71681      894.71681      1552.6416      2447.3584      1552.6416      2447.3584      1552.6416      2447.3584      7.1623707e+08  0.1            4177000        4.111206       1705.2611      17052.611      13.508256    
  20180000   311.97435      1.0499813     -14460253       0.70082921     929.00634     -14459324       894.36513      894.36513      894.36513      1552.8174      2447.1826      1552.8174      2447.1826      1552.8174      2447.1826      7.1539281e+08  0.1            4178000        4.7001554      1697.9378      16979.377      12.925434    
  20190000   311.72168      0.91117308    -14469503       0.70191641     928.25394     -14468575       893.90312      893.90312      893.90312      1553.0484      2446.9516      1553.0484      2446.9516      1553.0484      2446.9516      7.1428473e+08  0.1            4179000        5.2884081      1699.9507      16999.508      12.339624    
  20200000   311.43393      0.97318167    -14478969       0.70295533     927.39707     -14478041       893.46253      893.46253      893.46253      1553.2687      2446.7313      1553.2687      2446.7313      1553.2687      2446.7313      7.1322907e+08  0.1            4180000        5.8756044      1703.0078      17030.076      11.751213    
  20210000   311.18893      0.24967246    -14494114       0.70392602     926.6675      -14493187       893.05166      893.05166      893.05166      1553.4742      2446.5258      1553.4742      2446.5258      1553.4742      2446.5258      7.1224555e+08  0.1            4181000        6.4649334      1696.8453      16968.45       11.166707    
  20220000   310.93883      1.0144022     -14508356       0.70491401     925.92275     -14507430       892.63424      892.63424      892.63424      1553.6829      2446.3171      1553.6829      2446.3171      1553.6829      2446.3171      7.1124729e+08  0.1            4182000        7.0541277      1697.2334      16972.337      10.581195    
  20230000   310.77264      1.4571773     -14516979       0.70594143     925.42784     -14516053       892.20098      892.20098      892.20098      1553.8995      2446.1005      1553.8995      2446.1005      1553.8995      2446.1005      7.1021214e+08  0.1            4183000        7.6421515      1700.6108      17006.108      9.9935857    
  20240000   310.54677      1.2678692     -14536645       0.70691688     924.75525     -14535720       891.79042      891.79042      891.79042      1554.1048      2445.8952      1554.1048      2445.8952      1554.1048      2445.8952      7.0923215e+08  0.1            4184000        8.2352524      1686.054       16860.541      9.4117196    
  20250000   310.35381      0.53676265    -14543482       0.70782541     924.18066     -14542558       891.40871      891.40871      891.40871      1554.2956      2445.7044      1554.2956      2445.7044      1554.2956      2445.7044      7.0832181e+08  0.1            4185000        8.8246347      1696.6916      16966.912      8.8246371    
  20260000   310.23764      1.8636923     -14564621       0.70889976     923.8347      -14563698       890.95816      890.95816      890.95816      1554.5209      2445.4791      1554.5209      2445.4791      1554.5209      2445.4791      7.0724834e+08  0.1            4186000        9.4125021      1701.0636      17010.641      8.2359413    
  20270000   310.03713      0.25279317    -14587541       0.70972656     923.23765     -14586618       890.61205      890.61205      890.61205      1554.694       2445.306       1554.694       2445.306       1554.694       2445.306       7.0642442e+08  0.1            4187000        9.998627       1706.1214      17061.208      7.6460107    
  20280000   309.93955      1.6927921     -14601095       0.71080463     922.94705     -14600172       890.16156      890.16156      890.16156      1554.9192      2445.0808      1554.9192      2445.0808      1554.9192      2445.0808      7.05353e+08    0.1            4188000        10.588754      1694.551       16945.513      7.0591707    
  20290000   309.74302      1.5541353     -14607178       0.71166461     922.36182     -14606256       889.80286      889.80286      889.80286      1555.0986      2444.9014      1555.0986      2444.9014      1555.0986      2444.9014      7.0450065e+08  0.1            4189000        11.178488      1695.6768      16956.768      6.471758     
  20300000   309.63505      1.8659551     -14619212       0.71260479     922.0403      -14618290       889.41137      889.41137      889.41137      1555.2943      2444.7057      1555.2943      2444.7057      1555.2943      2444.7057      7.0357116e+08  0.1            4190000        11.769241      1692.7561      16927.56       5.8846218    
  20310000   309.47884      0.3203963     -14634754       0.71344315     921.57515     -14633832       889.06285      889.06285      889.06285      1555.4686      2444.5314      1555.4686      2444.5314      1555.4686      2444.5314      7.027444e+08   0.1            4191000        12.362512      1685.5714      16855.718      5.2982204    
  20320000   309.39809      0.69930602    -14644390       0.71441883     921.33468     -14643469       888.65794      888.65794      888.65794      1555.671       2444.329       1555.671       2444.329       1555.671       2444.329       7.0178467e+08  0.1            4192000        12.950799      1699.8489      16998.487      4.7093825    
  20330000   309.2878       2.0650549     -14661319       0.71539078     921.00625     -14660398       888.2553       888.2553       888.2553       1555.8723      2444.1277      1555.8723      2444.1277      1555.8723      2444.1277      7.0083119e+08  0.1            4193000        13.542434      1690.2331      16902.333      4.121611     
  20340000   309.20617      1.4898921     -14667386       0.71628214     920.76318     -14666465       887.88669      887.88669      887.88669      1556.0567      2443.9433      1556.0567      2443.9433      1556.0567      2443.9433      6.9995907e+08  0.1            4194000        14.134105      1690.1274      16901.274      3.5335269    
  20350000   309.0274       0.37987606    -14673402       0.71703734     920.23083     -14672482       887.57487      887.57487      887.57487      1556.2126      2443.7874      1556.2126      2443.7874      1556.2126      2443.7874      6.9922185e+08  0.1            4195000        14.728098      1683.5222      16835.22       2.9456201    
  20360000   309.00687      1.5093975     -14686724       0.71802805     920.1697      -14685804       887.16647      887.16647      887.16647      1556.4168      2443.5832      1556.4168      2443.5832      1556.4168      2443.5832      6.9825709e+08  0.1            4196000        15.316668      1699.0324      16990.324      2.3564109    
  20370000   308.86425     -0.75244912    -14692244       0.71875403     919.74499     -14691324       886.86767      886.86767      886.86767      1556.5662      2443.4338      1556.5662      2443.4338      1556.5662      2443.4338      6.9755182e+08  0.1            4197000        15.90431       1701.716       17017.16       1.7671459    
  20380000   308.76264      0.77971777    -14699965       0.71966502     919.44242     -14699046       886.4933       886.4933       886.4933       1556.7534      2443.2466      1556.7534      2443.2466      1556.7534      2443.2466      6.9666881e+08  0.1            4198000        16.492445      1700.2904      17002.904      1.178032     
  20390000   308.59967     -0.72424086    -14716496       0.72039387     918.95713     -14715577       886.19423      886.19423      886.19423      1556.9029      2443.0971      1556.9029      2443.0971      1556.9029      2443.0971      6.9596397e+08  0.1            4199000        17.088534      1677.6008      16776.006      0.58925989   
  20400000   308.52064      0.45891144    -14723696       0.72132186     918.72178     -14722777       885.81403      885.81403      885.81403      1557.093       2442.907       1557.093       2442.907       1557.093       2442.907       6.950686e+08   0.1            4200000        17.679314      1692.6793      16926.793      0            
Loop time of 17.6794 on 4 procs for 300000 steps with 1000 atoms

Performance: 146.612 ns/day, 0.164 hours/ns, 16968.936 timesteps/s
99.5% CPU use with 4 MPI tasks x 1 OpenMP threads

MPI task timing breakdown:
Section |  min time  |  avg time  |  max time  |%varavg| %total
---------------------------------------------------------------
Pair    | 4.9971     | 5.6054     | 6.7556     |  28.8 | 31.71
Neigh   | 0.007378   | 0.008574   | 0.010596   |   1.4 |  0.05
Comm    | 5.7633     | 6.8704     | 7.4454     |  25.1 | 38.86
Output  | 0.010746   | 0.010961   | 0.011584   |   0.3 |  0.06
Modify  | 4.1951     | 4.3185     | 4.4475     |   4.4 | 24.43
Other   |            | 0.8655     |            |       |  4.90

Nlocal:            250 ave         265 max         242 min
Histogram: 2 0 0 1 0 0 0 0 0 1
Nghost:          508.5 ave         530 max         495 min
Histogram: 2 0 0 0 0 1 0 0 0 1
Neighs:            748 ave         876 max         642 min
Histogram: 1 0 0 1 1 0 0 0 0 1

Total # of neighbors = 2992
Ave neighs/atom = 2.992
Neighbor list builds = 58
Dangerous builds = 21

# run_style
run_style verlet

# write restart
write_restart ${write_res}
write_restart ./pgnpmf/6040/equpmf15.res
System init for write_restart ...
Generated 0 of 1 mixed pair_coeff terms from geometric mixing rule

Total wall time: 0:00:59
