LAMMPS (23 Jun 2022 - Update 1)
OMP_NUM_THREADS environment is not set. Defaulting to 1 thread. (src/comm.cpp:98)
  using 1 OpenMP thread(s) per MPI task
# Read restart
read_restart ${read_res}
read_restart ./pgnpmf/6040/equpmf66.res
Reading restart file ...
  restart file = 23 Jun 2022, LAMMPS = 23 Jun 2022
  restoring atom style atomic from restart
  orthogonal box = (1686.8118 1686.8118 1686.8118) to (2313.1882 2313.1882 2313.1882)
  1 by 2 by 2 MPI processor grid
  restoring pair style table from restart
  1000 atoms
  read_restart CPU = 0.006 seconds

# Settings

pair_style table spline 9941

pair_coeff 1 1 ./pgnpmf/N20.txt DE_GNP 75.6
pair_coeff 2 2 ./pgnpmf/N100.txt DE_GNP 115.92
WARNING: 3 of 9941 force values in table DE_GNP are inconsistent with -dE/dr.
WARNING:  Should only be flagged at inflection points (src/pair_table.cpp:463)
pair_coeff 1 2 ./pgnpmf/mixed_potential.txt DE_GNP 95.66
WARNING: 1562 of 9941 force values in table DE_GNP are inconsistent with -dE/dr.
WARNING:  Should only be flagged at inflection points (src/pair_table.cpp:463)

#Neigh_list Calc Frequency

neigh_modify delay 0 every 1 check yes

# Saving Frequency (50 frames)

variable ts_save equal ${steps_equ}
variable ts_save equal 5000

# Dump
#dump 1 all custom ${ts_save} ./pgnpmf/${folder}/equilibration/trajectory/trajectory_${usic}_${trial}.equ.custom type x y z ix iy iz
#dump_modify 1 first no sort id
dump 2 all cfg 50000 ./pgnpmf/${folder}/equilibration/trajectory/dumpgen.tens_*.cfg mass type xs ys zs fx fy fz
dump 2 all cfg 50000 ./pgnpmf/6040/equilibration/trajectory/dumpgen.tens_*.cfg mass type xs ys zs fx fy fz
dump_modify 2 element N20 N100

# thermo_style
thermo_style custom step temp press pe density ke etotal lx ly lz xlo xhi ylo yhi zlo zhi vol dt time cpu tpcpu spcpu cpuremain

# run info
timestep ${ts}
timestep 0.1
thermo 10000


# fix

fix 1 all momentum 1000 linear 1 1 1 angular
variable T equal ${temp}
variable T equal 300
fix 2 all nvt temp ${T} 370000 100.0
fix 2 all nvt temp 300 370000 100.0

run 200000
Generated 0 of 1 mixed pair_coeff terms from geometric mixing rule
Unused restart file global fix info:
  fix style: npt, fix ID: 5
Neighbor list info ...
  update every 1 steps, delay 0 steps, check yes
  max neighbors/atom: 2000, page size: 100000
  master list distance cutoff = 117.92
  ghost atom cutoff = 117.92
  binsize = 58.96, bins = 11 11 11
  1 neighbor lists, perpetual/occasional/extra = 1 0 0
  (1) pair table, perpetual
      attributes: half, newton on
      pair build: half/bin/atomonly/newton
      stencil: half/bin/3d
      bin: standard
Per MPI rank memory allocation (min/avg/max) = 4.353 | 4.353 | 4.353 Mbytes
   Step          Temp          Press          PotEng        Density         KinEng         TotEng           Lx             Ly             Lz            Xlo            Xhi            Ylo            Yhi            Zlo            Zhi           Volume           Dt            Time           CPU           T/CPU          S/CPU         CPULeft    
  81600000   291.00158      0.20705194    -27212235       2.0400965      866.55302     -27211368       626.37635      626.37635      626.37635      1686.8118      2313.1882      1686.8118      2313.1882      1686.8118      2313.1882      2.4575709e+08  0.1            10320000       0              0              0              0            
  81610000   19995.66      -5.6700006     -27219121       2.0400965      59543.661     -27159577       626.37635      626.37635      626.37635      1686.8118      2313.1882      1686.8118      2313.1882      1686.8118      2313.1882      2.4575709e+08  0.1            10321000       0.68339938     1463.272       14632.695      12.984639    
  81620000   36685.235      4.4811572     -27236405       2.0400965      109242.36     -27127163       626.37635      626.37635      626.37635      1686.8118      2313.1882      1686.8118      2313.1882      1686.8118      2313.1882      2.4575709e+08  0.1            10322000       1.3678858      1460.9496      14609.496      12.310995    
  81630000   54529.121      53.476854     -27253763       2.0400965      162378.41     -27091385       626.37635      626.37635      626.37635      1686.8118      2313.1882      1686.8118      2313.1882      1686.8118      2313.1882      2.4575709e+08  0.1            10323000       2.0505963      1464.7493      14647.494      11.620061    
  81640000   74813.845      144.3355      -27256215       2.0400965      222782.86     -27033433       626.37635      626.37635      626.37635      1686.8118      2313.1882      1686.8118      2313.1882      1686.8118      2313.1882      2.4575709e+08  0.1            10324000       2.7332142      1464.9486      14649.489      10.932867    
  81650000   93928.699      241.93034     -27272706       2.0400965      279703.63     -26993002       626.37635      626.37635      626.37635      1686.8118      2313.1882      1686.8118      2313.1882      1686.8118      2313.1882      2.4575709e+08  0.1            10325000       3.416637       1463.2231      14632.234      10.249918    
  81660000   110613.64      364.34717     -27252664       2.0400965      329388.54     -26923276       626.37635      626.37635      626.37635      1686.8118      2313.1882      1686.8118      2313.1882      1686.8118      2313.1882      2.4575709e+08  0.1            10326000       4.0970566      1469.6811      14696.805      9.5598049    
  81670000   128806.28      520.28481     -27208592       2.0400965      383563.11     -26825029       626.37635      626.37635      626.37635      1686.8118      2313.1882      1686.8118      2313.1882      1686.8118      2313.1882      2.4575709e+08  0.1            10327000       4.7787605      1466.9126      14669.129      8.8748455    
  81680000   149276.86      692.491       -27137032       2.0400965      444520.99     -26692511       626.37635      626.37635      626.37635      1686.8118      2313.1882      1686.8118      2313.1882      1686.8118      2313.1882      2.4575709e+08  0.1            10328000       5.4653132      1456.5525      14565.524      8.1979734    
  81690000   167934.63      875.38778     -27117408       2.0400965      500080.65     -26617327       626.37635      626.37635      626.37635      1686.8118      2313.1882      1686.8118      2313.1882      1686.8118      2313.1882      2.4575709e+08  0.1            10329000       6.1500227      1460.473       14604.729      7.5166977    
  81700000   186276.52      1075.1563     -27094240       2.0400965      554699.68     -26539540       626.37635      626.37635      626.37635      1686.8118      2313.1882      1686.8118      2313.1882      1686.8118      2313.1882      2.4575709e+08  0.1            10330000       6.8368442      1455.9826      14559.831      6.8368465    
  81710000   208823.5       1306.5782     -27054027       2.0400965      621840.73     -26432186       626.37635      626.37635      626.37635      1686.8118      2313.1882      1686.8118      2313.1882      1686.8118      2313.1882      2.4575709e+08  0.1            10331000       7.5208915      1461.8872      14618.862      6.153459     
  81720000   213715.21      1523.3498     -26991691       2.0400965      636407.39     -26355283       626.37635      626.37635      626.37635      1686.8118      2313.1882      1686.8118      2313.1882      1686.8118      2313.1882      2.4575709e+08  0.1            10332000       8.207994       1455.3867      14553.872      5.4719978    
  81730000   245091.94      1732.8636     -26947660       2.0400965      729841.95     -26217818       626.37635      626.37635      626.37635      1686.8118      2313.1882      1686.8118      2313.1882      1686.8118      2313.1882      2.4575709e+08  0.1            10333000       8.8951199      1455.3377      14553.38       4.7896813    
  81740000   251806.16      1935.4474     -26903635       2.0400965      749835.75     -26153799       626.37635      626.37635      626.37635      1686.8118      2313.1882      1686.8118      2313.1882      1686.8118      2313.1882      2.4575709e+08  0.1            10334000       9.5840054      1451.6191      14516.186      4.1074322    
  81750000   282080.68      2150.3957     -26862507       2.0400965      839988.11     -26022519       626.37635      626.37635      626.37635      1686.8118      2313.1882      1686.8118      2313.1882      1686.8118      2313.1882      2.4575709e+08  0.1            10335000       10.275817      1445.4797      14454.803      3.4252733    
  81760000   296344.69      2396.3604     -26756689       2.0400965      882463.87     -25874225       626.37635      626.37635      626.37635      1686.8118      2313.1882      1686.8118      2313.1882      1686.8118      2313.1882      2.4575709e+08  0.1            10336000       10.966973      1446.8529      14468.526      2.7417439    
  81770000   335791.66      2665.6018     -26668402       2.0400965      999930.24     -25668472       626.37635      626.37635      626.37635      1686.8118      2313.1882      1686.8118      2313.1882      1686.8118      2313.1882      2.4575709e+08  0.1            10337000       11.65785       1447.4342      14474.34       2.0572682    
  81780000   326574.7       2871.9698     -26620514       2.0400965      972483.68     -25648031       626.37635      626.37635      626.37635      1686.8118      2313.1882      1686.8118      2313.1882      1686.8118      2313.1882      2.4575709e+08  0.1            10338000       12.349713      1445.3727      14453.728      1.3721907    
  81790000   348719.15      3037.2503     -26541628       2.0400965      1038426.1     -25503202       626.37635      626.37635      626.37635      1686.8118      2313.1882      1686.8118      2313.1882      1686.8118      2313.1882      2.4575709e+08  0.1            10339000       13.044936      1438.3892      14383.893      0.6865757    
  81800000   379748.63      3143.7296     -26511617       2.0400965      1130826.6     -25380790       626.37635      626.37635      626.37635      1686.8118      2313.1882      1686.8118      2313.1882      1686.8118      2313.1882      2.4575709e+08  0.1            10340000       13.739148      1440.482       14404.822      0            
Loop time of 13.7392 on 4 procs for 200000 steps with 1000 atoms

Performance: 125.772 ns/day, 0.191 hours/ns, 14556.892 timesteps/s
99.7% CPU use with 4 MPI tasks x 1 OpenMP threads

MPI task timing breakdown:
Section |  min time  |  avg time  |  max time  |%varavg| %total
---------------------------------------------------------------
Pair    | 7.0972     | 7.3447     | 7.5877     |   6.4 | 53.46
Neigh   | 0.016724   | 0.018156   | 0.019325   |   0.7 |  0.13
Comm    | 4.4362     | 4.6942     | 4.9125     |   7.9 | 34.17
Output  | 0.0075906  | 0.0077511  | 0.0082267  |   0.3 |  0.06
Modify  | 1.0959     | 1.1219     | 1.1561     |   2.2 |  8.17
Other   |            | 0.5525     |            |       |  4.02

Nlocal:            250 ave         260 max         235 min
Histogram: 1 0 0 0 0 1 0 0 1 1
Nghost:          803.5 ave         817 max         795 min
Histogram: 2 0 0 0 1 0 0 0 0 1
Neighs:        1720.25 ave        1773 max        1615 min
Histogram: 1 0 0 0 0 0 1 0 0 2

Total # of neighbors = 6881
Ave neighs/atom = 6.881
Neighbor list builds = 91
Dangerous builds = 0

unfix 2

fix 3 all nvt temp 370000 370000 $(100.0*dt) #iso 1.0 1.0 $(1000.0*dt)
fix 3 all nvt temp 370000 370000 10 

run 500000
Generated 0 of 1 mixed pair_coeff terms from geometric mixing rule
Per MPI rank memory allocation (min/avg/max) = 4.353 | 4.353 | 4.353 Mbytes
   Step          Temp          Press          PotEng        Density         KinEng         TotEng           Lx             Ly             Lz            Xlo            Xhi            Ylo            Yhi            Zlo            Zhi           Volume           Dt            Time           CPU           T/CPU          S/CPU         CPULeft    
  81800000   379748.63      3143.7296     -26511617       2.0400965      1130826.6     -25380790       626.37635      626.37635      626.37635      1686.8118      2313.1882      1686.8118      2313.1882      1686.8118      2313.1882      2.4575709e+08  0.1            10340000       0              0              0              0            
  81810000   375045.39      3234.2377     -26427828       2.0400965      1116821.1     -25311007       626.37635      626.37635      626.37635      1686.8118      2313.1882      1686.8118      2313.1882      1686.8118      2313.1882      2.4575709e+08  0.1            10341000       0.689415       1450.5034      14505.013      33.781466    
  81820000   374489.18      3278.842      -26394500       2.0400965      1115164.8     -25279335       626.37635      626.37635      626.37635      1686.8118      2313.1882      1686.8118      2313.1882      1686.8118      2313.1882      2.4575709e+08  0.1            10342000       1.3788835      1450.393       14503.93       33.093264    
  81830000   363914.14      3360.2272     -26359071       2.0400965      1083674.2     -25275397       626.37635      626.37635      626.37635      1686.8118      2313.1882      1686.8118      2313.1882      1686.8118      2313.1882      2.4575709e+08  0.1            10343000       2.0678437      1451.4626      14514.623      32.396259    
  81840000   368945.65      3451.3629     -26343478       2.0400965      1098657.1     -25244821       626.37635      626.37635      626.37635      1686.8118      2313.1882      1686.8118      2313.1882      1686.8118      2313.1882      2.4575709e+08  0.1            10344000       2.7577996      1449.3672      14493.675      31.71473     
  81850000   368642.05      3525.358      -26276972       2.0400965      1097753.1     -25179219       626.37635      626.37635      626.37635      1686.8118      2313.1882      1686.8118      2313.1882      1686.8118      2313.1882      2.4575709e+08  0.1            10345000       3.4505121      1443.6011      14436.012      31.054631    
  81860000   367124.18      3505.3112     -26315950       2.0400965      1093233.1     -25222717       626.37635      626.37635      626.37635      1686.8118      2313.1882      1686.8118      2313.1882      1686.8118      2313.1882      2.4575709e+08  0.1            10346000       4.1442709      1441.4236      14414.235      30.391337    
  81870000   361539.5       3467.7527     -26336333       2.0400965      1076602.9     -25259730       626.37635      626.37635      626.37635      1686.8118      2313.1882      1686.8118      2313.1882      1686.8118      2313.1882      2.4575709e+08  0.1            10347000       4.8396371      1438.0909      14380.91       29.729214    
  81880000   381966.14      3465.0953     -26368892       2.0400965      1137429.9     -25231462       626.37635      626.37635      626.37635      1686.8118      2313.1882      1686.8118      2313.1882      1686.8118      2313.1882      2.4575709e+08  0.1            10348000       5.5312317      1445.9341      14459.34       29.038979    
  81890000   360190.15      3390.3856     -26425902       2.0400965      1072584.8     -25353317       626.37635      626.37635      626.37635      1686.8118      2313.1882      1686.8118      2313.1882      1686.8118      2313.1882      2.4575709e+08  0.1            10349000       6.2249034      1441.603       14416.029      28.357906    
  81900000   361451.35      3359.7003     -26426917       2.0400965      1076340.4     -25350577       626.37635      626.37635      626.37635      1686.8118      2313.1882      1686.8118      2313.1882      1686.8118      2313.1882      2.4575709e+08  0.1            10350000       6.9192743      1440.1533      14401.536      27.677106    
  81910000   372079.77      3361.8586     -26366506       2.0400965      1107990       -25258516       626.37635      626.37635      626.37635      1686.8118      2313.1882      1686.8118      2313.1882      1686.8118      2313.1882      2.4575709e+08  0.1            10351000       7.6133385      1440.7889      14407.889      26.992754    
  81920000   358808.38      3387.7502     -26357989       2.0400965      1068470.1     -25289519       626.37635      626.37635      626.37635      1686.8118      2313.1882      1686.8118      2313.1882      1686.8118      2313.1882      2.4575709e+08  0.1            10352000       8.3091568      1437.1567      14371.565      26.312338    
  81930000   375151.3       3428.1885     -26321838       2.0400965      1117136.5     -25204701       626.37635      626.37635      626.37635      1686.8118      2313.1882      1686.8118      2313.1882      1686.8118      2313.1882      2.4575709e+08  0.1            10353000       9.0049801      1437.1462      14371.465      25.629566    
  81940000   378983.74      3454.6395     -26284590       2.0400965      1128548.9     -25156041       626.37635      626.37635      626.37635      1686.8118      2313.1882      1686.8118      2313.1882      1686.8118      2313.1882      2.4575709e+08  0.1            10354000       9.6991134      1440.6458      14406.455      24.940584    
  81950000   372726.29      3400.4949     -26302914       2.0400965      1109915.2     -25192998       626.37635      626.37635      626.37635      1686.8118      2313.1882      1686.8118      2313.1882      1686.8118      2313.1882      2.4575709e+08  0.1            10355000       10.397339      1432.2008      14322.014      24.260464    
  81960000   364429.17      3355.5393     -26322741       2.0400965      1085207.8     -25237534       626.37635      626.37635      626.37635      1686.8118      2313.1882      1686.8118      2313.1882      1686.8118      2313.1882      2.4575709e+08  0.1            10356000       11.096513      1430.2593      14302.579      23.580097    
  81970000   383298.71      3343.0446     -26313248       2.0400965      1141398.1     -25171850       626.37635      626.37635      626.37635      1686.8118      2313.1882      1686.8118      2313.1882      1686.8118      2313.1882      2.4575709e+08  0.1            10357000       11.794918      1431.8332      14318.343      22.896023    
  81980000   374842.08      3347.3151     -26297998       2.0400965      1116215.7     -25181782       626.37635      626.37635      626.37635      1686.8118      2313.1882      1686.8118      2313.1882      1686.8118      2313.1882      2.4575709e+08  0.1            10358000       12.496805      1424.7307      14247.306      22.216548    
  81990000   367119.17      3345.3341     -26192086       2.0400965      1093218.2     -25098868       626.37635      626.37635      626.37635      1686.8118      2313.1882      1686.8118      2313.1882      1686.8118      2313.1882      2.4575709e+08  0.1            10359000       13.20008       1421.9204      14219.203      21.536977    
  82000000   374068.19      3331.6756     -26177205       2.0400965      1113911.2     -25063293       626.37635      626.37635      626.37635      1686.8118      2313.1882      1686.8118      2313.1882      1686.8118      2313.1882      2.4575709e+08  0.1            10360000       13.906853      1414.8804      14148.81       20.860284    
  82010000   369828.07      3318.0955     -26244856       2.0400965      1101284.8     -25143571       626.37635      626.37635      626.37635      1686.8118      2313.1882      1686.8118      2313.1882      1686.8118      2313.1882      2.4575709e+08  0.1            10361000       14.610981      1420.1978      14201.972      20.177072    
  82020000   370556.22      3298.7277     -26212271       2.0400965      1103453.1     -25108818       626.37635      626.37635      626.37635      1686.8118      2313.1882      1686.8118      2313.1882      1686.8118      2313.1882      2.4575709e+08  0.1            10362000       15.31894       1412.51        14125.1        19.496837    
  82030000   362528.55      3294.2454     -26189522       2.0400965      1079548.1     -25109974       626.37635      626.37635      626.37635      1686.8118      2313.1882      1686.8118      2313.1882      1686.8118      2313.1882      2.4575709e+08  0.1            10363000       16.024594      1417.1256      14171.259      18.811483    
  82040000   372082.06      3232.1391     -26238088       2.0400965      1107996.8     -25130091       626.37635      626.37635      626.37635      1686.8118      2313.1882      1686.8118      2313.1882      1686.8118      2313.1882      2.4575709e+08  0.1            10364000       16.726237      1425.2259      14252.261      18.120093    
  82050000   371338.35      3142.632      -26339453       2.0400965      1105782.2     -25233671       626.37635      626.37635      626.37635      1686.8118      2313.1882      1686.8118      2313.1882      1686.8118      2313.1882      2.4575709e+08  0.1            10365000       17.424902      1431.3005      14313.006      17.424905    
  82060000   368864.85      3104.84       -26337670       2.0400965      1098416.5     -25239254       626.37635      626.37635      626.37635      1686.8118      2313.1882      1686.8118      2313.1882      1686.8118      2313.1882      2.4575709e+08  0.1            10366000       18.120723      1437.1412      14371.41       16.726829    
  82070000   359609.62      3070.886      -26342302       2.0400965      1070856       -25271446       626.37635      626.37635      626.37635      1686.8118      2313.1882      1686.8118      2313.1882      1686.8118      2313.1882      2.4575709e+08  0.1            10367000       18.816766      1436.7041      14367.041      16.029099    
  82080000   353961.3       3036.2213     -26280587       2.0400965      1054036.3     -25226550       626.37635      626.37635      626.37635      1686.8118      2313.1882      1686.8118      2313.1882      1686.8118      2313.1882      2.4575709e+08  0.1            10368000       19.512354      1437.631       14376.311      15.331138    
  82090000   370492.69      3043.0505     -26272286       2.0400965      1103264       -25169022       626.37635      626.37635      626.37635      1686.8118      2313.1882      1686.8118      2313.1882      1686.8118      2313.1882      2.4575709e+08  0.1            10369000       20.205176      1443.3738      14433.737      14.631336    
  82100000   368023.05      3008.2678     -26298956       2.0400965      1095909.8     -25203046       626.37635      626.37635      626.37635      1686.8118      2313.1882      1686.8118      2313.1882      1686.8118      2313.1882      2.4575709e+08  0.1            10370000       20.895257      1449.1045      14491.049      13.930173    
  82110000   368037.24      2980.065      -26336014       2.0400965      1095952.1     -25240062       626.37635      626.37635      626.37635      1686.8118      2313.1882      1686.8118      2313.1882      1686.8118      2313.1882      2.4575709e+08  0.1            10371000       21.584228      1451.4411      14514.406      13.229044    
  82120000   374002.14      2941.5512     -26345611       2.0400965      1113714.5     -25231896       626.37635      626.37635      626.37635      1686.8118      2313.1882      1686.8118      2313.1882      1686.8118      2313.1882      2.4575709e+08  0.1            10372000       22.275782      1446.0172      14460.174      12.530129    
  82130000   362155.49      2979.9623     -26304695       2.0400965      1078437.2     -25226258       626.37635      626.37635      626.37635      1686.8118      2313.1882      1686.8118      2313.1882      1686.8118      2313.1882      2.4575709e+08  0.1            10373000       22.969149      1442.2385      14422.385      11.832593    
  82140000   366762.83      2997.6987     -26311229       2.0400965      1092157.1     -25219072       626.37635      626.37635      626.37635      1686.8118      2313.1882      1686.8118      2313.1882      1686.8118      2313.1882      2.4575709e+08  0.1            10374000       23.659646      1448.2326      14482.328      11.133952    
  82150000   366884.95      2955.5238     -26285112       2.0400965      1092520.7     -25192591       626.37635      626.37635      626.37635      1686.8118      2313.1882      1686.8118      2313.1882      1686.8118      2313.1882      2.4575709e+08  0.1            10375000       24.353776      1440.6512      14406.512      10.437334    
  82160000   375601.67      3071.7063     -26216514       2.0400965      1118477.6     -25098037       626.37635      626.37635      626.37635      1686.8118      2313.1882      1686.8118      2313.1882      1686.8118      2313.1882      2.4575709e+08  0.1            10376000       25.047248      1442.02        14420.191      9.7405976    
  82170000   356433.13      3169.5076     -26194695       2.0400965      1061397       -25133298       626.37635      626.37635      626.37635      1686.8118      2313.1882      1686.8118      2313.1882      1686.8118      2313.1882      2.4575709e+08  0.1            10377000       25.73796       1447.7808      14477.814      9.0430681    
  82180000   372184.69      3091.9945     -26194942       2.0400965      1108302.5     -25086640       626.37635      626.37635      626.37635      1686.8118      2313.1882      1686.8118      2313.1882      1686.8118      2313.1882      2.4575709e+08  0.1            10378000       26.425879      1453.6605      14536.605      8.3450152    
  82190000   379047.3       3008.3547     -26251710       2.0400965      1128738.1     -25122972       626.37635      626.37635      626.37635      1686.8118      2313.1882      1686.8118      2313.1882      1686.8118      2313.1882      2.4575709e+08  0.1            10379000       27.113094      1455.1468      14551.471      7.6472838    
  82200000   373550.08      2972.6448     -26256401       2.0400965      1112368.4     -25144033       626.37635      626.37635      626.37635      1686.8118      2313.1882      1686.8118      2313.1882      1686.8118      2313.1882      2.4575709e+08  0.1            10380000       27.803022      1449.4285      14494.286      6.9507561    
  82210000   359468.42      2922.7469     -26291285       2.0400965      1070435.6     -25220849       626.37635      626.37635      626.37635      1686.8118      2313.1882      1686.8118      2313.1882      1686.8118      2313.1882      2.4575709e+08  0.1            10381000       28.489614      1456.4683      14564.673      6.2538184    
  82220000   375441.33      2958.2681     -26298583       2.0400965      1118000.2     -25180582       626.37635      626.37635      626.37635      1686.8118      2313.1882      1686.8118      2313.1882      1686.8118      2313.1882      2.4575709e+08  0.1            10382000       29.175448      1458.0781      14580.786      5.5572288    
  82230000   368682.87      3029.9725     -26308865       2.0400965      1097874.6     -25210991       626.37635      626.37635      626.37635      1686.8118      2313.1882      1686.8118      2313.1882      1686.8118      2313.1882      2.4575709e+08  0.1            10383000       29.866138      1447.8274      14478.276      4.86193      
  82240000   370814.24      3069.6533     -26243454       2.0400965      1104221.5     -25139233       626.37635      626.37635      626.37635      1686.8118      2313.1882      1686.8118      2313.1882      1686.8118      2313.1882      2.4575709e+08  0.1            10384000       30.553596      1454.6356      14546.356      4.1663998    
  82250000   371952.38      3048.4239     -26231479       2.0400965      1107610.7     -25123869       626.37635      626.37635      626.37635      1686.8118      2313.1882      1686.8118      2313.1882      1686.8118      2313.1882      2.4575709e+08  0.1            10385000       31.243828      1448.7884      14487.888      3.4715367    
  82260000   389224.59      3047.8359     -26266836       2.0400965      1159044.4     -25107792       626.37635      626.37635      626.37635      1686.8118      2313.1882      1686.8118      2313.1882      1686.8118      2313.1882      2.4575709e+08  0.1            10386000       31.930883      1455.4857      14554.852      2.7765988    
  82270000   365837.62      3040.3663     -26265844       2.0400965      1089402       -25176442       626.37635      626.37635      626.37635      1686.8118      2313.1882      1686.8118      2313.1882      1686.8118      2313.1882      2.4575709e+08  0.1            10387000       32.62027       1450.5651      14505.652      2.0821451    
  82280000   360635.09      3096.074      -26181874       2.0400965      1073909.7     -25107964       626.37635      626.37635      626.37635      1686.8118      2313.1882      1686.8118      2313.1882      1686.8118      2313.1882      2.4575709e+08  0.1            10388000       33.307299      1455.5413      14555.412      1.3878043    
  82290000   359888.89      3083.2        -26177558       2.0400965      1071687.7     -25105870       626.37635      626.37635      626.37635      1686.8118      2313.1882      1686.8118      2313.1882      1686.8118      2313.1882      2.4575709e+08  0.1            10389000       33.994636      1454.8925      14548.92       0.69376814   
  82300000   359823.42      3024.2117     -26218214       2.0400965      1071492.7     -25146722       626.37635      626.37635      626.37635      1686.8118      2313.1882      1686.8118      2313.1882      1686.8118      2313.1882      2.4575709e+08  0.1            10390000       34.688607      1440.9801      14409.81       0            
Loop time of 34.6887 on 4 procs for 500000 steps with 1000 atoms

Performance: 124.536 ns/day, 0.193 hours/ns, 14413.926 timesteps/s
99.7% CPU use with 4 MPI tasks x 1 OpenMP threads

MPI task timing breakdown:
Section |  min time  |  avg time  |  max time  |%varavg| %total
---------------------------------------------------------------
Pair    | 17.901     | 18.521     | 19.235     |  11.0 | 53.39
Neigh   | 0.046      | 0.050032   | 0.054761   |   1.4 |  0.14
Comm    | 11.223     | 11.909     | 12.517     |  13.3 | 34.33
Output  | 0.019341   | 0.019685   | 0.020701   |   0.4 |  0.06
Modify  | 2.7476     | 2.8042     | 2.839      |   2.0 |  8.08
Other   |            | 1.384      |            |       |  3.99

Nlocal:            250 ave         265 max         236 min
Histogram: 1 0 0 0 1 1 0 0 0 1
Nghost:          802.5 ave         817 max         788 min
Histogram: 1 0 0 0 1 1 0 0 0 1
Neighs:         1713.5 ave        1803 max        1635 min
Histogram: 1 0 0 1 0 1 0 0 0 1

Total # of neighbors = 6854
Ave neighs/atom = 6.854
Neighbor list builds = 251
Dangerous builds = 0

unfix 3

fix 4 all nvt temp 370000 ${T} $(100.0*dt)
fix 4 all nvt temp 370000 300 $(100.0*dt)
fix 4 all nvt temp 370000 300 10

run 200000
Generated 0 of 1 mixed pair_coeff terms from geometric mixing rule
Per MPI rank memory allocation (min/avg/max) = 4.353 | 4.353 | 4.354 Mbytes
   Step          Temp          Press          PotEng        Density         KinEng         TotEng           Lx             Ly             Lz            Xlo            Xhi            Ylo            Yhi            Zlo            Zhi           Volume           Dt            Time           CPU           T/CPU          S/CPU         CPULeft    
  82300000   359823.42      3024.2117     -26218214       2.0400965      1071492.7     -25146722       626.37635      626.37635      626.37635      1686.8118      2313.1882      1686.8118      2313.1882      1686.8118      2313.1882      2.4575709e+08  0.1            10390000       0              0              0              0            
  82310000   344614.93      3010.3127     -26238707       2.0400965      1026204.4     -25212502       626.37635      626.37635      626.37635      1686.8118      2313.1882      1686.8118      2313.1882      1686.8118      2313.1882      2.4575709e+08  0.1            10391000       0.69183017     1445.4399      14454.381      13.144821    
  82320000   335297.53      3033.28       -26201148       2.0400965      998458.78     -25202689       626.37635      626.37635      626.37635      1686.8118      2313.1882      1686.8118      2313.1882      1686.8118      2313.1882      2.4575709e+08  0.1            10392000       1.3838654      1445.0135      14450.128      12.454813    
  82330000   327054.17      2885.9447     -26288787       2.0400965      973911.47     -25314876       626.37635      626.37635      626.37635      1686.8118      2313.1882      1686.8118      2313.1882      1686.8118      2313.1882      2.4575709e+08  0.1            10393000       2.0807523      1434.9529      14349.533      11.790944    
  82340000   300635.71      2696.4213     -26393917       2.0400965      895241.8      -25498675       626.37635      626.37635      626.37635      1686.8118      2313.1882      1686.8118      2313.1882      1686.8118      2313.1882      2.4575709e+08  0.1            10394000       2.7772947      1435.6625      14356.624      11.10919     
  82350000   275669.8       2611.4418     -26422419       2.0400965      820897.6      -25601521       626.37635      626.37635      626.37635      1686.8118      2313.1882      1686.8118      2313.1882      1686.8118      2313.1882      2.4575709e+08  0.1            10395000       3.4742557      1434.8009      14348.013      10.422774    
  82360000   268341.8       2514.2973     -26500737       2.0400965      799076.07     -25701661       626.37635      626.37635      626.37635      1686.8118      2313.1882      1686.8118      2313.1882      1686.8118      2313.1882      2.4575709e+08  0.1            10396000       4.171095       1435.051       14350.507      9.7325609    
  82370000   232540.75      2369.296      -26523860       2.0400965      692466.64     -25831393       626.37635      626.37635      626.37635      1686.8118      2313.1882      1686.8118      2313.1882      1686.8118      2313.1882      2.4575709e+08  0.1            10397000       4.8651986      1440.7073      14407.072      9.035374     
  82380000   217843.85      2182.1662     -26568056       2.0400965      648701.78     -25919354       626.37635      626.37635      626.37635      1686.8118      2313.1882      1686.8118      2313.1882      1686.8118      2313.1882      2.4575709e+08  0.1            10398000       5.5636691      1431.6996      14316.996      8.3455074    
  82390000   201976.86      1989.2772     -26625949       2.0400965      601452.6      -26024496       626.37635      626.37635      626.37635      1686.8118      2313.1882      1686.8118      2313.1882      1686.8118      2313.1882      2.4575709e+08  0.1            10399000       6.2633727      1429.177       14291.759      7.6552367    
  82400000   185272.2       1812.1253     -26728275       2.0400965      551708.98     -26176566       626.37635      626.37635      626.37635      1686.8118      2313.1882      1686.8118      2313.1882      1686.8118      2313.1882      2.4575709e+08  0.1            10400000       6.9655511      1424.1392      14241.406      6.9655534    
  82410000   163467.56      1678.8365     -26740225       2.0400965      486778.49     -26253447       626.37635      626.37635      626.37635      1686.8118      2313.1882      1686.8118      2313.1882      1686.8118      2313.1882      2.4575709e+08  0.1            10401000       7.670276       1418.9933      14189.93       6.2756824    
  82420000   144858.89      1517.8712     -26764325       2.0400965      431365.04     -26332960       626.37635      626.37635      626.37635      1686.8118      2313.1882      1686.8118      2313.1882      1686.8118      2313.1882      2.4575709e+08  0.1            10402000       8.3708379      1427.4255      14274.251      5.5805604    
  82430000   131690.29      1340.3185     -26831507       2.0400965      392151.19     -26439355       626.37635      626.37635      626.37635      1686.8118      2313.1882      1686.8118      2313.1882      1686.8118      2313.1882      2.4575709e+08  0.1            10403000       9.0685531      1433.2492      14332.494      4.8830686    
  82440000   113782.44      1185.6        -26886281       2.0400965      338824.69     -26547457       626.37635      626.37635      626.37635      1686.8118      2313.1882      1686.8118      2313.1882      1686.8118      2313.1882      2.4575709e+08  0.1            10404000       9.7643113      1437.2816      14372.816      4.184706     
  82450000   96317.541      1050.4521     -26935813       2.0400965      286817.19     -26648995       626.37635      626.37635      626.37635      1686.8118      2313.1882      1686.8118      2313.1882      1686.8118      2313.1882      2.4575709e+08  0.1            10405000       10.460451      1436.4913      14364.919      3.4868181    
  82460000   76202.632      906.57067     -27028680       2.0400965      226918.43     -26801762       626.37635      626.37635      626.37635      1686.8118      2313.1882      1686.8118      2313.1882      1686.8118      2313.1882      2.4575709e+08  0.1            10406000       11.154139      1441.5712      14415.71       2.7885355    
  82470000   54245.091      736.50706     -27078531       2.0400965      161532.62     -26916998       626.37635      626.37635      626.37635      1686.8118      2313.1882      1686.8118      2313.1882      1686.8118      2313.1882      2.4575709e+08  0.1            10407000       11.844729      1448.038       14480.377      2.0902468    
  82480000   36368.527      587.25657     -27118518       2.0400965      108299.26     -27010219       626.37635      626.37635      626.37635      1686.8118      2313.1882      1686.8118      2313.1882      1686.8118      2313.1882      2.4575709e+08  0.1            10408000       12.534031      1450.7425      14507.427      1.3926704    
  82490000   19916.219      454.58504     -27146061       2.0400965      59307.1       -27086754       626.37635      626.37635      626.37635      1686.8118      2313.1882      1686.8118      2313.1882      1686.8118      2313.1882      2.4575709e+08  0.1            10409000       13.224056      1449.2232      14492.231      0.6960031    
  82500000   525.04415      359.10668     -27172234       2.0400965      1563.4918     -27170671       626.37635      626.37635      626.37635      1686.8118      2313.1882      1686.8118      2313.1882      1686.8118      2313.1882      2.4575709e+08  0.1            10410000       13.91542       1446.4157      14464.16       0            
Loop time of 13.9155 on 4 procs for 200000 steps with 1000 atoms

Performance: 124.178 ns/day, 0.193 hours/ns, 14372.480 timesteps/s
99.6% CPU use with 4 MPI tasks x 1 OpenMP threads

MPI task timing breakdown:
Section |  min time  |  avg time  |  max time  |%varavg| %total
---------------------------------------------------------------
Pair    | 7.0639     | 7.3591     | 7.7564     |   9.4 | 52.88
Neigh   | 0.011507   | 0.012606   | 0.013761   |   0.7 |  0.09
Comm    | 4.4822     | 4.8577     | 5.1475     |  10.9 | 34.91
Output  | 0.0073029  | 0.0074293  | 0.0078009  |   0.2 |  0.05
Modify  | 1.1002     | 1.1243     | 1.1498     |   1.7 |  8.08
Other   |            | 0.5544     |            |       |  3.98

Nlocal:            250 ave         267 max         234 min
Histogram: 1 0 0 0 1 1 0 0 0 1
Nghost:         804.25 ave         818 max         796 min
Histogram: 2 0 0 0 1 0 0 0 0 1
Neighs:         1707.5 ave        1809 max        1600 min
Histogram: 1 0 0 0 0 2 0 0 0 1

Total # of neighbors = 6830
Ave neighs/atom = 6.83
Neighbor list builds = 64
Dangerous builds = 0

unfix 4

fix 5 all npt temp ${T} ${T} $(100.0*dt) iso 1.0 1.0 $(1000.0*dt)
fix 5 all npt temp 300 ${T} $(100.0*dt) iso 1.0 1.0 $(1000.0*dt)
fix 5 all npt temp 300 300 $(100.0*dt) iso 1.0 1.0 $(1000.0*dt)
fix 5 all npt temp 300 300 10 iso 1.0 1.0 $(1000.0*dt)
fix 5 all npt temp 300 300 10 iso 1.0 1.0 100

run 300000
Generated 0 of 1 mixed pair_coeff terms from geometric mixing rule
Per MPI rank memory allocation (min/avg/max) = 4.353 | 4.353 | 4.354 Mbytes
   Step          Temp          Press          PotEng        Density         KinEng         TotEng           Lx             Ly             Lz            Xlo            Xhi            Ylo            Yhi            Zlo            Zhi           Volume           Dt            Time           CPU           T/CPU          S/CPU         CPULeft    
  82500000   525.04415      359.10668     -27172234       2.0400965      1563.4918     -27170671       626.37635      626.37635      626.37635      1686.8118      2313.1882      1686.8118      2313.1882      1686.8118      2313.1882      2.4575709e+08  0.1            10410000       0              0              0              0            
  82510000   311.70329     -7.6495909     -27123018       2.0290458      928.19916     -27122090       627.51143      627.51143      627.51143      1686.2443      2313.7557      1686.2443      2313.7557      1686.2443      2313.7557      2.4709555e+08  0.1            10411000       0.83061792     1203.9217      12039.202      24.088       
  82520000   310.30809      1.5354057     -27139410       2.0297624      924.04449     -27138486       627.43757      627.43757      627.43757      1686.2812      2313.7188      1686.2812      2313.7188      1686.2812      2313.7188      2.4700831e+08  0.1            10412000       1.6534903      1215.2558      12152.559      23.148898    
  82530000   309.17692      0.7171089     -27145688       2.0303299      920.67608     -27144767       627.37911      627.37911      627.37911      1686.3104      2313.6896      1686.3104      2313.6896      1686.3104      2313.6896      2.4693927e+08  0.1            10413000       2.4757579      1216.1486      12161.488      22.281844    
  82540000   308.19449      5.9574772     -27160190       2.0309546      917.75056     -27159272       627.31478      627.31478      627.31478      1686.3426      2313.6574      1686.3426      2313.6574      1686.3426      2313.6574      2.4686331e+08  0.1            10414000       3.2995573      1213.8882      12138.881      21.447138    
  82550000   307.33915      1.829013      -27179586       2.0312676      915.20352     -27178670       627.28255      627.28255      627.28255      1686.3587      2313.6413      1686.3587      2313.6413      1686.3587      2313.6413      2.4682527e+08  0.1            10415000       4.1267845      1208.8577      12088.578      20.633934    
  82560000   306.66612     -3.5039786     -27186731       2.0315594      913.19932     -27185818       627.25252      627.25252      627.25252      1686.3737      2313.6263      1686.3737      2313.6263      1686.3737      2313.6263      2.4678982e+08  0.1            10416000       4.9510714      1213.1696      12131.694      19.804296    
  82570000   306.0988      -1.5172556     -27198219       2.0319253      911.50996     -27197308       627.21487      627.21487      627.21487      1686.3926      2313.6074      1686.3926      2313.6074      1686.3926      2313.6074      2.4674538e+08  0.1            10417000       5.7748255      1213.9548      12139.549      18.974434    
  82580000   305.61075      2.3167594     -27202719       2.0323531      910.05662     -27201809       627.17085      627.17085      627.17085      1686.4146      2313.5854      1686.4146      2313.5854      1686.4146      2313.5854      2.4669344e+08  0.1            10418000       6.5975092      1215.534       12155.338      18.143157    
  82590000   305.2096       4.7758494     -27202397       2.0326604      908.86206     -27201488       627.13924      627.13924      627.13924      1686.4304      2313.5696      1686.4304      2313.5696      1686.4304      2313.5696      2.4665614e+08  0.1            10419000       7.425663       1207.5052      12075.052      17.326553    
  82600000   304.87277      1.1445823     -27198245       2.0327902      907.85903     -27197337       627.1259       627.1259       627.1259       1686.437       2313.563       1686.437       2313.563       1686.437       2313.563       2.466404e+08   0.1            10420000       8.252565       1209.333       12093.334      16.505135    
  82610000   304.57464      5.1923949     -27205041       2.0330952      906.97127     -27204134       627.09453      627.09453      627.09453      1686.4527      2313.5473      1686.4527      2313.5473      1686.4527      2313.5473      2.4660339e+08  0.1            10421000       9.0776834      1211.9471      12119.468      15.679639    
  82620000   304.34649     -5.1433357     -27214889       2.0330066      906.29187     -27213983       627.10364      627.10364      627.10364      1686.4482      2313.5518      1686.4482      2313.5518      1686.4482      2313.5518      2.4661414e+08  0.1            10422000       9.9025763      1212.2788      12122.79       14.853868    
  82630000   304.12415      8.3776719     -27232335       2.0336811      905.6298      -27231429       627.03431      627.03431      627.03431      1686.4828      2313.5172      1686.4828      2313.5172      1686.4828      2313.5172      2.4653234e+08  0.1            10423000       10.727511      1212.2173      12122.172      14.028287    
  82640000   303.88947     -4.338339      -27234513       2.0335915      904.93096     -27233608       627.04352      627.04352      627.04352      1686.4782      2313.5218      1686.4782      2313.5218      1686.4782      2313.5218      2.4654321e+08  0.1            10424000       11.55205       1212.7988      12127.988      13.202346    
  82650000   303.6615      -0.549738      -27236915       2.0338467      904.2521      -27236011       627.01729      627.01729      627.01729      1686.4914      2313.5086      1686.4914      2313.5086      1686.4914      2313.5086      2.4651227e+08  0.1            10425000       12.377331      1211.7068      12117.072      12.377334    
  82660000   303.5434      -6.4971312     -27237670       2.0338774      903.90042     -27236766       627.01413      627.01413      627.01413      1686.4929      2313.5071      1686.4929      2313.5071      1686.4929      2313.5071      2.4650855e+08  0.1            10426000       13.199939      1215.646       12156.458      11.54995     
  82670000   303.48058     -4.7587192     -27247638       2.0341557      903.71333     -27246735       626.98554      626.98554      626.98554      1686.5072      2313.4928      1686.5072      2313.4928      1686.5072      2313.4928      2.4647482e+08  0.1            10427000       14.021181      1217.6687      12176.688      10.722082    
  82680000   303.27253     -0.29479169    -27249780       2.0343568      903.09382     -27248877       626.96488      626.96488      626.96488      1686.5176      2313.4824      1686.5176      2313.4824      1686.5176      2313.4824      2.4645047e+08  0.1            10428000       14.843271      1216.412       12164.119      9.8955157    
  82690000   303.09391      2.0793611     -27237075       2.0344983      902.56191     -27236172       626.95034      626.95034      626.95034      1686.5248      2313.4752      1686.5248      2313.4752      1686.5248      2313.4752      2.4643332e+08  0.1            10429000       15.664516      1217.6628      12176.628      9.068932     
  82700000   302.834       -2.6566602     -27227903       2.0344498      901.78795     -27227001       626.95532      626.95532      626.95532      1686.5223      2313.4777      1686.5223      2313.4777      1686.5223      2313.4777      2.464392e+08   0.1            10430000       16.487229      1215.4904      12154.906      8.243616     
  82710000   302.77823     -1.2299754     -27226615       2.0346787      901.62186     -27225713       626.93182      626.93182      626.93182      1686.5341      2313.4659      1686.5341      2313.4659      1686.5341      2313.4659      2.4641148e+08  0.1            10431000       17.308092      1218.2304      12182.302      7.417755     
  82720000   294.97952      0.68836308    -27228479       2.0349312      878.39863     -27227601       626.90588      626.90588      626.90588      1686.5471      2313.4529      1686.5471      2313.4529      1686.5471      2313.4529      2.463809e+08   0.1            10432000       18.127826      1219.9084      12199.084      6.5919377    
  82730000   294.77289      2.258487      -27232187       2.0351367      877.78334     -27231309       626.88478      626.88478      626.88478      1686.5576      2313.4424      1686.5576      2313.4424      1686.5576      2313.4424      2.4635602e+08  0.1            10433000       18.948806      1218.0562      12180.561      5.7670288    
  82740000   301.69435     -1.2209601     -27236225       2.0351326      898.39425     -27235326       626.8852       626.8852       626.8852       1686.5574      2313.4426      1686.5574      2313.4426      1686.5574      2313.4426      2.4635652e+08  0.1            10434000       19.768948      1219.3005      12193.005      4.9422378    
  82750000   304.92611     -1.6959171     -27243772       2.0352955      908.01788     -27242864       626.86848      626.86848      626.86848      1686.5658      2313.4342      1686.5658      2313.4342      1686.5658      2313.4342      2.463368e+08   0.1            10435000       20.589525      1218.6547      12186.55       4.1179056    
  82760000   298.65123      7.4894805     -27247305       2.0356915      889.33235     -27246416       626.82783      626.82783      626.82783      1686.5861      2313.4139      1686.5861      2313.4139      1686.5861      2313.4139      2.4628888e+08  0.1            10436000       21.409069      1220.1908      12201.907      3.2937034    
  82770000   299.2949      -2.5744909     -27251587       2.035539       891.24911     -27250696       626.84348      626.84348      626.84348      1686.5783      2313.4217      1686.5783      2313.4217      1686.5783      2313.4217      2.4630733e+08  0.1            10437000       22.226866      1222.7981      12227.98       2.4696521    
  82780000   303.93294     -4.0538529     -27253157       2.0356714      905.06039     -27252252       626.82988      626.82988      626.82988      1686.5851      2313.4149      1686.5851      2313.4149      1686.5851      2313.4149      2.4629131e+08  0.1            10438000       23.045196      1222.0014      12220.013      1.6460856    
  82790000   297.00342     -5.9296972     -27254329       2.0357191      884.42546     -27253445       626.825        626.825        626.825        1686.5875      2313.4125      1686.5875      2313.4125      1686.5875      2313.4125      2.4628555e+08  0.1            10439000       23.864455      1220.6153      12206.153      0.82291233   
  82800000   299.19355     -5.1547616     -27255456       2.0358257      890.94731     -27254565       626.81405      626.81405      626.81405      1686.593       2313.407       1686.593       2313.407       1686.593       2313.407       2.4627264e+08  0.1            10440000       24.683628      1220.7426      12207.429      0            
Loop time of 24.6837 on 4 procs for 300000 steps with 1000 atoms

Performance: 105.009 ns/day, 0.229 hours/ns, 12153.773 timesteps/s
99.6% CPU use with 4 MPI tasks x 1 OpenMP threads

MPI task timing breakdown:
Section |  min time  |  avg time  |  max time  |%varavg| %total
---------------------------------------------------------------
Pair    | 11.574     | 11.971     | 12.548     |  10.4 | 48.50
Neigh   | 0.0052104  | 0.0059248  | 0.0065973  |   0.6 |  0.02
Comm    | 6.8304     | 7.3639     | 7.7449     |  12.3 | 29.83
Output  | 0.010598   | 0.010793   | 0.011366   |   0.3 |  0.04
Modify  | 4.3443     | 4.4278     | 4.4983     |   2.6 | 17.94
Other   |            | 0.9038     |            |       |  3.66

Nlocal:            250 ave         266 max         235 min
Histogram: 1 0 0 0 1 1 0 0 0 1
Nghost:         800.75 ave         814 max         794 min
Histogram: 2 0 0 1 0 0 0 0 0 1
Neighs:           1704 ave        1795 max        1598 min
Histogram: 1 0 0 0 0 2 0 0 0 1

Total # of neighbors = 6816
Ave neighs/atom = 6.816
Neighbor list builds = 31
Dangerous builds = 5

# run_style
run_style verlet

# write restart
write_restart ${write_res}
write_restart ./pgnpmf/6040/equpmf67.res
System init for write_restart ...
Generated 0 of 1 mixed pair_coeff terms from geometric mixing rule

Total wall time: 0:01:27
