LAMMPS (23 Jun 2022 - Update 1)
OMP_NUM_THREADS environment is not set. Defaulting to 1 thread. (src/comm.cpp:98)
  using 1 OpenMP thread(s) per MPI task

# Init #
dimension   3
boundary    p p p
units       real
atom_style  atomic

# Atom Definition #
read_data ${input_data}
read_data ./pgnpmf/28/dat28.dat
Reading data file ...
  orthogonal box = (-100 -100 -100) to (5100 5100 5100)
  1 by 1 by 1 MPI processor grid
  reading atoms ...
  1000 atoms
  read_data CPU = 0.005 seconds

# Settings #
pair_style table spline 9941

pair_coeff 1 1 ./pgnpmf/N20.txt DE_GNP 75.6
pair_coeff 2 2 ./pgnpmf/N100.txt DE_GNP 115.92
WARNING: 3 of 9941 force values in table DE_GNP are inconsistent with -dE/dr.
WARNING:  Should only be flagged at inflection points (src/pair_table.cpp:463)
pair_coeff 1 2 ./pgnpmf/mixed_potential.txt DE_GNP 95.66
WARNING: 1562 of 9941 force values in table DE_GNP are inconsistent with -dE/dr.
WARNING:  Should only be flagged at inflection points (src/pair_table.cpp:463)

# Neighbor list calc frequency #
neigh_modify delay 0 every 1 check yes

# Saving frequency #
variable ts_save equal floor(${steps_gen}*0.01)
variable ts_save equal floor(5000*0.01)

# Dump #
dump 1 all custom 5000 ./pgnpmf/${folder}/generation/trajectory/trajectory_${usic}_${trial}.gen.custom type x y z ix iy iz
dump 1 all custom 5000 ./pgnpmf/28/generation/trajectory/trajectory_${usic}_${trial}.gen.custom type x y z ix iy iz
dump 1 all custom 5000 ./pgnpmf/28/generation/trajectory/trajectory_1_${trial}.gen.custom type x y z ix iy iz
dump 1 all custom 5000 ./pgnpmf/28/generation/trajectory/trajectory_1_1.gen.custom type x y z ix iy iz
dump_modify 1 first no sort id
dump 2 all cfg 5000 ./pgnpmf/${folder}/generation/trajectory/dumpgen.tens_*.cfg mass type xs ys zs fx fy fz
dump 2 all cfg 5000 ./pgnpmf/28/generation/trajectory/dumpgen.tens_*.cfg mass type xs ys zs fx fy fz
dump_modify 2 element N20 N100

# Fix #
fix 1 all momentum 1000 linear 1 1 1 angular

variable T equal ${Temp}
variable T equal 300

# Velocity #
velocity all create ${T} ${Vseed} mom yes rot yes dist gaussian
velocity all create 300 ${Vseed} mom yes rot yes dist gaussian
velocity all create 300 57138 mom yes rot yes dist gaussian

fix 2 all nvt temp ${T} 370000 100.0 #iso 1.0 1.0 1000.0
fix 2 all nvt temp 300 370000 100.0 
run ${steps_gen}
run 5000
Generated 0 of 1 mixed pair_coeff terms from geometric mixing rule
Neighbor list info ...
  update every 1 steps, delay 0 steps, check yes
  max neighbors/atom: 2000, page size: 100000
  master list distance cutoff = 117.92
  ghost atom cutoff = 117.92
  binsize = 58.96, bins = 89 89 89
  1 neighbor lists, perpetual/occasional/extra = 1 0 0
  (1) pair table, perpetual
      attributes: half, newton on
      pair build: half/bin/atomonly/newton
      stencil: half/bin/3d
      bin: standard
Per MPI rank memory allocation (min/avg/max) = 8.913 | 8.913 | 8.913 Mbytes
   Step          Temp          E_pair         E_mol          TotEng         Press     
         0   300           -7546.0617      0             -6652.7129     -0.00061414813
      5000   357448.12     -60369.606      0              1004049.9      0.33828207   
Loop time of 0.145715 on 1 procs for 5000 steps with 1000 atoms

Performance: 2964.701 ns/day, 0.008 hours/ns, 34313.666 timesteps/s
99.3% CPU use with 1 MPI tasks x 1 OpenMP threads

MPI task timing breakdown:
Section |  min time  |  avg time  |  max time  |%varavg| %total
---------------------------------------------------------------
Pair    | 0.019771   | 0.019771   | 0.019771   |   0.0 | 13.57
Neigh   | 0.0085105  | 0.0085105  | 0.0085105  |   0.0 |  5.84
Comm    | 0.0077016  | 0.0077016  | 0.0077016  |   0.0 |  5.29
Output  | 0.0056285  | 0.0056285  | 0.0056285  |   0.0 |  3.86
Modify  | 0.08631    | 0.08631    | 0.08631    |   0.0 | 59.23
Other   |            | 0.01779    |            |       | 12.21

Nlocal:           1000 ave        1000 max        1000 min
Histogram: 1 0 0 0 0 0 0 0 0 0
Nghost:            123 ave         123 max         123 min
Histogram: 1 0 0 0 0 0 0 0 0 0
Neighs:             21 ave          21 max          21 min
Histogram: 1 0 0 0 0 0 0 0 0 0

Total # of neighbors = 21
Ave neighs/atom = 0.021
Neighbor list builds = 13
Dangerous builds = 0

fix 3 all nvt temp 370000 370000 100.0
run 400000
Generated 0 of 1 mixed pair_coeff terms from geometric mixing rule
WARNING: One or more atoms are time integrated more than once (src/modify.cpp:292)
Per MPI rank memory allocation (min/avg/max) = 8.913 | 8.913 | 8.913 Mbytes
   Step          Temp          E_pair         E_mol          TotEng         Press     
      5000   357448.12     -60369.606      0              1004049.9      0.33828207   
    405000   382434.26     -500136.38      0              638687.56      0.34215325   
Loop time of 22.4192 on 1 procs for 400000 steps with 1000 atoms

Performance: 1541.535 ns/day, 0.016 hours/ns, 17841.842 timesteps/s
99.3% CPU use with 1 MPI tasks x 1 OpenMP threads

MPI task timing breakdown:
Section |  min time  |  avg time  |  max time  |%varavg| %total
---------------------------------------------------------------
Pair    | 3.1584     | 3.1584     | 3.1584     |   0.0 | 14.09
Neigh   | 2.3292     | 2.3292     | 2.3292     |   0.0 | 10.39
Comm    | 0.84197    | 0.84197    | 0.84197    |   0.0 |  3.76
Output  | 0.52192    | 0.52192    | 0.52192    |   0.0 |  2.33
Modify  | 14.056     | 14.056     | 14.056     |   0.0 | 62.70
Other   |            | 1.511      |            |       |  6.74

Nlocal:           1000 ave        1000 max        1000 min
Histogram: 1 0 0 0 0 0 0 0 0 0
Nghost:            181 ave         181 max         181 min
Histogram: 1 0 0 0 0 0 0 0 0 0
Neighs:             63 ave          63 max          63 min
Histogram: 1 0 0 0 0 0 0 0 0 0

Total # of neighbors = 63
Ave neighs/atom = 0.063
Neighbor list builds = 3497
Dangerous builds = 0

fix 4 all nvt temp 370000 ${T} 100.0
fix 4 all nvt temp 370000 300 100.0
run ${steps_gen}
run 5000
Generated 0 of 1 mixed pair_coeff terms from geometric mixing rule
WARNING: One or more atoms are time integrated more than once (src/modify.cpp:292)
Per MPI rank memory allocation (min/avg/max) = 8.913 | 8.913 | 8.913 Mbytes
   Step          Temp          E_pair         E_mol          TotEng         Press     
    405000   382434.26     -500136.38      0              638687.56      0.34215325   
    410000   33095.383     -536691.8       0             -438139.4       0.069892294  
Loop time of 0.461462 on 1 procs for 5000 steps with 1000 atoms

Performance: 936.154 ns/day, 0.026 hours/ns, 10835.119 timesteps/s
99.8% CPU use with 1 MPI tasks x 1 OpenMP threads

MPI task timing breakdown:
Section |  min time  |  avg time  |  max time  |%varavg| %total
---------------------------------------------------------------
Pair    | 0.041014   | 0.041014   | 0.041014   |   0.0 |  8.89
Neigh   | 0.041922   | 0.041922   | 0.041922   |   0.0 |  9.08
Comm    | 0.013575   | 0.013575   | 0.013575   |   0.0 |  2.94
Output  | 0.0061543  | 0.0061543  | 0.0061543  |   0.0 |  1.33
Modify  | 0.33453    | 0.33453    | 0.33453    |   0.0 | 72.49
Other   |            | 0.02426    |            |       |  5.26

Nlocal:           1000 ave        1000 max        1000 min
Histogram: 1 0 0 0 0 0 0 0 0 0
Nghost:            181 ave         181 max         181 min
Histogram: 1 0 0 0 0 0 0 0 0 0
Neighs:             68 ave          68 max          68 min
Histogram: 1 0 0 0 0 0 0 0 0 0

Total # of neighbors = 68
Ave neighs/atom = 0.068
Neighbor list builds = 54
Dangerous builds = 0


# Thermo #
thermo_style custom step temp press pe ke etotal epair lx ly lz xlo xhi ylo yhi zlo zhi vol density dt time

# Run stle #
run_style verlet

# Run #
timestep ${ts}
timestep 1
thermo ${ts_save}
thermo 50
# run ${steps_gen}

# write restart #
write_restart ${write_restart}
write_restart ./pgnpmf/28/genpmf.res
System init for write_restart ...
Generated 0 of 1 mixed pair_coeff terms from geometric mixing rule
WARNING: One or more atoms are time integrated more than once (src/modify.cpp:292)


Total wall time: 0:00:23
