LAMMPS (23 Jun 2022 - Update 1)
# Read restart
read_restart ${read_res}
read_restart ./pgnpmf/28/equpmf31.res
Reading restart file ...
  restart file = 23 Jun 2022, LAMMPS = 23 Jun 2022
  restoring atom style atomic from restart
  orthogonal box = (2000.4722 2000.4722 2000.4722) to (2999.5278 2999.5278 2999.5278)
  1 by 2 by 2 MPI processor grid
  restoring pair style table from restart
  1000 atoms
  read_restart CPU = 0.005 seconds

# Settings

pair_style table spline 9941

pair_coeff 1 1 ./pgnpmf/N20.txt DE_GNP 75.6
pair_coeff 2 2 ./pgnpmf/N100.txt DE_GNP 115.92
WARNING: 3 of 9941 force values in table DE_GNP are inconsistent with -dE/dr.
WARNING:  Should only be flagged at inflection points (../pair_table.cpp:463)
pair_coeff 1 2 ./pgnpmf/mixed_potential.txt DE_GNP 95.66
WARNING: 1562 of 9941 force values in table DE_GNP are inconsistent with -dE/dr.
WARNING:  Should only be flagged at inflection points (../pair_table.cpp:463)

#Neigh_list Calc Frequency

neigh_modify delay 0 every 1 check yes

# Saving Frequency (50 frames)

variable ts_save equal ${steps_equ}
variable ts_save equal 5000

# Dump
#dump 1 all custom ${ts_save} ./pgnpmf/${folder}/equilibration/trajectory/trajectory_${usic}_${trial}.equ.custom type x y z ix iy iz
#dump_modify 1 first no sort id
dump 2 all cfg 50000 ./pgnpmf/${folder}/equilibration/trajectory/dumpgen.tens_*.cfg mass type xs ys zs fx fy fz
dump 2 all cfg 50000 ./pgnpmf/28/equilibration/trajectory/dumpgen.tens_*.cfg mass type xs ys zs fx fy fz
dump_modify 2 element N20 N100

# thermo_style
thermo_style custom step temp press pe density ke etotal lx ly lz xlo xhi ylo yhi zlo zhi vol dt time cpu tpcpu spcpu cpuremain

# run info
timestep ${ts}
timestep 0.5
thermo 200

# fix

fix 1 all momentum 1000 linear 1 1 1 angular
variable T equal ${temp}
variable T equal 300
fix 2 all nvt temp ${T} 370000 100.0
fix 2 all nvt temp 300 370000 100.0

run 100000
Generated 0 of 1 mixed pair_coeff terms from geometric mixing rule
Unused restart file global fix info:
  fix style: npt, fix ID: 5
Neighbor list info ...
  update every 1 steps, delay 0 steps, check yes
  max neighbors/atom: 2000, page size: 100000
  master list distance cutoff = 117.92
  ghost atom cutoff = 117.92
  binsize = 58.96, bins = 17 17 17
  1 neighbor lists, perpetual/occasional/extra = 1 0 0
  (1) pair table, perpetual
      attributes: half, newton on
      pair build: half/bin/atomonly/newton
      stencil: half/bin/3d
      bin: standard
Per MPI rank memory allocation (min/avg/max) = 3.076 | 3.077 | 3.079 Mbytes
   Step          Temp          Press          PotEng        Density         KinEng         TotEng           Lx             Ly             Lz            Xlo            Xhi            Ylo            Yhi            Zlo            Zhi           Volume           Dt            Time           CPU           T/CPU          S/CPU         CPULeft    
  22110000   306.65615     -1.855643      -42029101       0.63614479     913.16965     -42028188       999.05558      999.05558      999.05558      2000.4722      2999.5278      2000.4722      2999.5278      2000.4722      2999.5278      9.9716942e+08  0.5            11260000       0              0              0              0            
  22110200   392.94159     -2.0442433     -42029191       0.63614479     1170.1129     -42028021       999.05558      999.05558      999.05558      2000.4722      2999.5278      2000.4722      2999.5278      2000.4722      2999.5278      9.9716942e+08  0.5            11260100       0.019671846    5083.207       10165.937      9.81757      
  22110400   583.20075     -2.2507975     -42029296       0.63614479     1736.6722     -42027560       999.05558      999.05558      999.05558      2000.4722      2999.5278      2000.4722      2999.5278      2000.4722      2999.5278      9.9716942e+08  0.5            11260200       0.039742282    4982.4791      9964.9826      9.8964181    
  22110600   906.32865     -2.3463795     -42022049       0.63614479     2698.892      -42019350       999.05558      999.05558      999.05558      2000.4722      2999.5278      2000.4722      2999.5278      2000.4722      2999.5278      9.9716942e+08  0.5            11260300       0.06137397     4622.8379      9245.6921      10.168028    
  22110800   1424.5853     -2.4918838     -42022211       0.63614479     4242.1718     -42017968       999.05558      999.05558      999.05558      2000.4722      2999.5278      2000.4722      2999.5278      2000.4722      2999.5278      9.9716942e+08  0.5            11260400       0.081437192    4984.2418      9968.4976      10.0985      
  22111000   2214.1548     -2.8790712     -42029788       0.63614479     6593.375      -42023195       999.05558      999.05558      999.05558      2000.4722      2999.5278      2000.4722      2999.5278      2000.4722      2999.5278      9.9716942e+08  0.5            11260500       0.10171214     4932.2221      9864.4229      10.069731    
  22111200   3334.2991     -3.2013381     -42030031       0.63614479     9928.9734     -42020102       999.05558      999.05558      999.05558      2000.4722      2999.5278      2000.4722      2999.5278      2000.4722      2999.5278      9.9716942e+08  0.5            11260600       0.12184524     4966.9492      9933.9151      10.032115    
  22111400   4747.4076     -3.613721      -42030319       0.63614479     14136.969     -42016182       999.05558      999.05558      999.05558      2000.4722      2999.5278      2000.4722      2999.5278      2000.4722      2999.5278      9.9716942e+08  0.5            11260700       0.14277019     4778.9954      9557.9656      10.055259    
  22111600   6215.7209     -4.2577607     -42038020       0.63614479     18509.355     -42019510       999.05558      999.05558      999.05558      2000.4722      2999.5278      2000.4722      2999.5278      2000.4722      2999.5278      9.9716942e+08  0.5            11260800       0.16330607     4869.5205      9739.031       10.043468    
  22111800   7302.1657     -4.9086942     -42038368       0.63614479     21744.603     -42016623       999.05558      999.05558      999.05558      2000.4722      2999.5278      2000.4722      2999.5278      2000.4722      2999.5278      9.9716942e+08  0.5            11260900       0.18344531     4965.46        9930.9309      10.008079    
  22112000   7758.1095     -5.595166      -42038725       0.63614479     23102.325     -42015622       999.05558      999.05558      999.05558      2000.4722      2999.5278      2000.4722      2999.5278      2000.4722      2999.5278      9.9716942e+08  0.5            11261000       0.20350408     4985.3304      9970.6623      9.9718083    
  22112200   8106.1589     -6.4875422     -42046445       0.63614479     24138.757     -42022306       999.05558      999.05558      999.05558      2000.4722      2999.5278      2000.4722      2999.5278      2000.4722      2999.5278      9.9716942e+08  0.5            11261100       0.22354871     4988.8843      9977.777       9.9378553    
  22112400   8999.0803     -7.1767661     -42046777       0.63614479     26797.724     -42019979       999.05558      999.05558      999.05558      2000.4722      2999.5278      2000.4722      2999.5278      2000.4722      2999.5278      9.9716942e+08  0.5            11261200       0.24489592     4684.4343      9368.8685      9.9591901    
  22112600   10150.529     -7.7186304     -42047104       0.63614479     30226.542     -42016878       999.05558      999.05558      999.05558      2000.4722      2999.5278      2000.4722      2999.5278      2000.4722      2999.5278      9.9716942e+08  0.5            11261300       0.26584795     4772.8156      9545.6313      9.9591594    
  22112800   10881.551     -8.3998112     -42047415       0.63614479     32403.4       -42015011       999.05558      999.05558      999.05558      2000.4722      2999.5278      2000.4722      2999.5278      2000.4722      2999.5278      9.9716942e+08  0.5            11261400       0.28684991     4761.4644      9522.9375      9.9578722    
  22113000   11226.769     -8.8222995     -42040331       0.63614479     33431.4       -42006899       999.05558      999.05558      999.05558      2000.4722      2999.5278      2000.4722      2999.5278      2000.4722      2999.5278      9.9716942e+08  0.5            11261500       0.30820417     4682.8928      9365.7614      9.9653418    
  22113200   11850.267     -9.2204564     -42040593       0.63614479     35288.072     -42005305       999.05558      999.05558      999.05558      2000.4722      2999.5278      2000.4722      2999.5278      2000.4722      2999.5278      9.9716942e+08  0.5            11261600       0.33040956     4503.4105      9006.8263      9.9949636    
  22113400   12943.147     -9.8087133     -42040823       0.63614479     38542.482     -42002281       999.05558      999.05558      999.05558      2000.4722      2999.5278      2000.4722      2999.5278      2000.4722      2999.5278      9.9716942e+08  0.5            11261700       0.35133177     4779.6278      9559.2808      9.9820156    
  22113600   13906.194     -10.546869     -42042920       0.63614479     41410.27      -42001510       999.05558      999.05558      999.05558      2000.4722      2999.5278      2000.4722      2999.5278      2000.4722      2999.5278      9.9716942e+08  0.5            11261800       0.37257933     4706.4172      9412.8203      9.9769064    
  22113800   14368.69      -11.006096     -42035710       0.63614479     42787.504     -41992923       999.05558      999.05558      999.05558      2000.4722      2999.5278      2000.4722      2999.5278      2000.4722      2999.5278      9.9716942e+08  0.5            11261900       0.39346764     4787.374       9574.7453      9.9609993    
  22114000   14795.982     -11.411303     -42032044       0.63614479     44059.909     -41987984       999.05558      999.05558      999.05558      2000.4722      2999.5278      2000.4722      2999.5278      2000.4722      2999.5278      9.9716942e+08  0.5            11262000       0.41496617     4651.4629      9302.9231      9.9592432    
  22114200   15719.188     -11.954175     -42032133       0.63614479     46809.057     -41985324       999.05558      999.05558      999.05558      2000.4722      2999.5278      2000.4722      2999.5278      2000.4722      2999.5278      9.9716942e+08  0.5            11262100       0.43600072     4754.0863      9508.179       9.9450229    
  22114400   16823.881     -12.450572     -42032182       0.63614479     50098.645     -41982083       999.05558      999.05558      999.05558      2000.4722      2999.5278      2000.4722      2999.5278      2000.4722      2999.5278      9.9716942e+08  0.5            11262200       0.45697827     4767.0143      9534.0355      9.9289383    
  22114600   17497.552     -12.915699     -42032197       0.63614479     52104.722     -41980092       999.05558      999.05558      999.05558      2000.4722      2999.5278      2000.4722      2999.5278      2000.4722      2999.5278      9.9716942e+08  0.5            11262300       0.47796772     4764.2928      9528.5992      9.9126791    
  22114800   17853.648     -13.285845     -42024805       0.63614479     53165.115     -41971640       999.05558      999.05558      999.05558      2000.4722      2999.5278      2000.4722      2999.5278      2000.4722      2999.5278      9.9716942e+08  0.5            11262400       0.4984115      4891.4612      9782.9195      9.8852041    
  22115000   18540.253     -13.995511     -42024765       0.63614479     55209.708     -41969555       999.05558      999.05558      999.05558      2000.4722      2999.5278      2000.4722      2999.5278      2000.4722      2999.5278      9.9716942e+08  0.5            11262500       0.51877432     4910.9213      9821.8093      9.8567531    
  22115200   19653.306     -14.733295     -42026607       0.63614479     58524.188     -41968083       999.05558      999.05558      999.05558      2000.4722      2999.5278      2000.4722      2999.5278      2000.4722      2999.5278      9.9716942e+08  0.5            11262600       0.53963099     4794.6095      9589.2498      9.8379293    
  22115400   20561.539     -15.38326      -42019163       0.63614479     61228.753     -41957934       999.05558      999.05558      999.05558      2000.4722      2999.5278      2000.4722      2999.5278      2000.4722      2999.5278      9.9716942e+08  0.5            11262700       0.56052487     4786.098       9572.1631      9.8196072    
  22115600   20984.221     -16.282213     -42019103       0.63614479     62487.427     -41956615       999.05558      999.05558      999.05558      2000.4722      2999.5278      2000.4722      2999.5278      2000.4722      2999.5278      9.9716942e+08  0.5            11262800       0.58131006     4811.117       9622.2483      9.7992642    
  22115800   21456.233     -16.979346     -42019053       0.63614479     63892.999     -41955160       999.05558      999.05558      999.05558      2000.4722      2999.5278      2000.4722      2999.5278      2000.4722      2999.5278      9.9716942e+08  0.5            11262900       0.60295051     4620.9722      9241.9388      9.7927863    
  22116000   22435.58      -17.482396     -42017127       0.63614479     66809.327     -41950318       999.05558      999.05558      999.05558      2000.4722      2999.5278      2000.4722      2999.5278      2000.4722      2999.5278      9.9716942e+08  0.5            11263000       0.62563255     4408.7675      8817.5362      9.8016124    
  22116200   23522.077     -17.944402     -42007842       0.63614479     70044.727     -41937797       999.05558      999.05558      999.05558      2000.4722      2999.5278      2000.4722      2999.5278      2000.4722      2999.5278      9.9716942e+08  0.5            11263100       0.64709898     4658.443       9316.8651      9.7900185    
  22116400   24132.421     -18.609082     -42015246       0.63614479     71862.229     -41943384       999.05558      999.05558      999.05558      2000.4722      2999.5278      2000.4722      2999.5278      2000.4722      2999.5278      9.9716942e+08  0.5            11263200       0.66805791     4771.2394      9542.4728      9.7703837    
  22116600   24479.497     -19.295311     -42007935       0.63614479     72895.761     -41935039       999.05558      999.05558      999.05558      2000.4722      2999.5278      2000.4722      2999.5278      2000.4722      2999.5278      9.9716942e+08  0.5            11263300       0.68896493     4783.0888      9566.2024      9.7499289    
  22116800   25229.568     -19.879503     -42008047       0.63614479     75129.345     -41932918       999.05558      999.05558      999.05558      2000.4722      2999.5278      2000.4722      2999.5278      2000.4722      2999.5278      9.9716942e+08  0.5            11263400       0.71042959     4658.8078      9317.6282      9.7370949    
  22117000   26373.441     -20.747813     -42015575       0.63614479     78535.605     -41937040       999.05558      999.05558      999.05558      2000.4722      2999.5278      2000.4722      2999.5278      2000.4722      2999.5278      9.9716942e+08  0.5            11263500       0.73138708     4771.5663      9543.118       9.7170305    
  22117200   27230.441     -21.364828     -42016136       0.63614479     81087.602     -41935048       999.05558      999.05558      999.05558      2000.4722      2999.5278      2000.4722      2999.5278      2000.4722      2999.5278      9.9716942e+08  0.5            11263600       0.75242681     4752.9125      9505.8435      9.6979744    
  22117400   27591.685     -22.093471     -42023752       0.63614479     82163.328     -41941588       999.05558      999.05558      999.05558      2000.4722      2999.5278      2000.4722      2999.5278      2000.4722      2999.5278      9.9716942e+08  0.5            11263700       0.77332701     4784.6439      9569.2988      9.6770668    
  22117600   28084.95      -22.584983     -42016637       0.63614479     83632.185     -41933005       999.05558      999.05558      999.05558      2000.4722      2999.5278      2000.4722      2999.5278      2000.4722      2999.5278      9.9716942e+08  0.5            11263800       0.79464222     4691.5008      9382.9672      9.6612034    
  22117800   29134.093     -23.541702     -42024288       0.63614479     86756.353     -41937532       999.05558      999.05558      999.05558      2000.4722      2999.5278      2000.4722      2999.5278      2000.4722      2999.5278      9.9716942e+08  0.5            11263900       0.81560695     4769.8971      9539.8228      9.6409187    
  22118000   30221.949     -24.606373     -42031938       0.63614479     89995.805     -41941942       999.05558      999.05558      999.05558      2000.4722      2999.5278      2000.4722      2999.5278      2000.4722      2999.5278      9.9716942e+08  0.5            11264000       0.83695959     4683.268       9366.515       9.6250619    
  22118200   30746.566     -25.238664     -42032188       0.63614479     91558.025     -41940630       999.05558      999.05558      999.05558      2000.4722      2999.5278      2000.4722      2999.5278      2000.4722      2999.5278      9.9716942e+08  0.5            11264100       0.8581916      4709.8655      9419.7358      9.6075862    
  22118400   31050.574     -26.125444     -42032394       0.63614479     92463.307     -41939931       999.05558      999.05558      999.05558      2000.4722      2999.5278      2000.4722      2999.5278      2000.4722      2999.5278      9.9716942e+08  0.5            11264200       0.87815395     5009.4531      10018.895      9.5760829    
  22118600   31873.983     -27.001557     -42032546       0.63614479     94915.277     -41937631       999.05558      999.05558      999.05558      2000.4722      2999.5278      2000.4722      2999.5278      2000.4722      2999.5278      9.9716942e+08  0.5            11264300       0.89853803     4905.7664      9811.5563      9.549603     
  22118800   33087.349     -27.423828     -42017875       0.63614479     98528.475     -41919347       999.05558      999.05558      999.05558      2000.4722      2999.5278      2000.4722      2999.5278      2000.4722      2999.5278      9.9716942e+08  0.5            11264400       0.91856171     4994.1137      9988.2369      9.5196613    
  22119000   33878.749     -28.185991     -42017861       0.63614479     100885.13     -41916976       999.05558      999.05558      999.05558      2000.4722      2999.5278      2000.4722      2999.5278      2000.4722      2999.5278      9.9716942e+08  0.5            11264500       0.93853908     5005.6499      10011.283      9.4896946    
  22119200   34148.94      -28.397848     -42010367       0.63614479     101689.71     -41908678       999.05558      999.05558      999.05558      2000.4722      2999.5278      2000.4722      2999.5278      2000.4722      2999.5278      9.9716942e+08  0.5            11264600       0.9595358      4762.6278      9525.2369      9.4702249    
  22119400   34689.641     -28.771702     -42010158       0.63614479     103299.83     -41906858       999.05558      999.05558      999.05558      2000.4722      2999.5278      2000.4722      2999.5278      2000.4722      2999.5278      9.9716942e+08  0.5            11264700       0.98044731     4782.076       9564.1625      9.4498643    
  22119600   35847.221     -29.319605     -42019109       0.63614479     106746.9      -41912362       999.05558      999.05558      999.05558      2000.4722      2999.5278      2000.4722      2999.5278      2000.4722      2999.5278      9.9716942e+08  0.5            11264800       1.0013319      4788.2066      9576.4334      9.4292309    
  22119800   36910.105     -29.722663     -42026035       0.63614479     109911.99     -41916123       999.05558      999.05558      999.05558      2000.4722      2999.5278      2000.4722      2999.5278      2000.4722      2999.5278      9.9716942e+08  0.5            11264900       1.0226738      4685.6345      9371.2641      9.4127936    
  22120000   37331.076     -29.869692     -42027352       0.63614479     111165.57     -41916187       999.05558      999.05558      999.05558      2000.4722      2999.5278      2000.4722      2999.5278      2000.4722      2999.5278      9.9716942e+08  0.5            11265000       1.0443944      4603.9182      9207.8081      9.3995702    
  22120200   37651.081     -30.190027     -42026667       0.63614479     112118.49     -41914548       999.05558      999.05558      999.05558      2000.4722      2999.5278      2000.4722      2999.5278      2000.4722      2999.5278      9.9716942e+08  0.5            11265100       1.0658435      4662.1968      9324.4358      9.3836227    
  22120400   38587.243     -30.225831     -42023969       0.63614479     114906.22     -41909063       999.05558      999.05558      999.05558      2000.4722      2999.5278      2000.4722      2999.5278      2000.4722      2999.5278      9.9716942e+08  0.5            11265200       1.0867742      4777.6752      9555.3385      9.3629967    
  22120600   39794.412     -30.587792     -42038164       0.63614479     118500.96     -41919663       999.05558      999.05558      999.05558      2000.4722      2999.5278      2000.4722      2999.5278      2000.4722      2999.5278      9.9716942e+08  0.5            11265300       1.1075351      4816.7406      9633.4775      9.3409275    
  22120800   40493.057     -30.488064     -42031658       0.63614479     120581.41     -41911076       999.05558      999.05558      999.05558      2000.4722      2999.5278      2000.4722      2999.5278      2000.4722      2999.5278      9.9716942e+08  0.5            11265400       1.1290306      4652.1073      9304.2167      9.3249773    
  22121000   40772.905     -30.505399     -42030553       0.63614479     121414.75     -41909138       999.05558      999.05558      999.05558      2000.4722      2999.5278      2000.4722      2999.5278      2000.4722      2999.5278      9.9716942e+08  0.5            11265500       1.1499975      4769.4646      9538.9278      9.304543     
  22121200   41432.837     -30.08075      -42022017       0.63614479     123379.91     -41898637       999.05558      999.05558      999.05558      2000.4722      2999.5278      2000.4722      2999.5278      2000.4722      2999.5278      9.9716942e+08  0.5            11265600       1.1715161      4647.1362      9294.2867      9.2884671    
  22121400   42600.946     -29.848989     -42020803       0.63614479     126858.34     -41893945       999.05558      999.05558      999.05558      2000.4722      2999.5278      2000.4722      2999.5278      2000.4722      2999.5278      9.9716942e+08  0.5            11265700       1.1924619      4774.2252      9548.4295      9.2677475    
  22121600   43537.382     -29.479287     -42006711       0.63614479     129646.89     -41877064       999.05558      999.05558      999.05558      2000.4722      2999.5278      2000.4722      2999.5278      2000.4722      2999.5278      9.9716942e+08  0.5            11265800       1.213398       4776.4324      9552.8666      9.2469465    
  22121800   43963.987     -29.469805     -42005484       0.63614479     130917.25     -41874566       999.05558      999.05558      999.05558      2000.4722      2999.5278      2000.4722      2999.5278      2000.4722      2999.5278      9.9716942e+08  0.5            11265900       1.2346682      4701.4296      9402.8756      9.228638     
  22122000   44460.342     -29.522563     -42004280       0.63614479     132395.31     -41871884       999.05558      999.05558      999.05558      2000.4722      2999.5278      2000.4722      2999.5278      2000.4722      2999.5278      9.9716942e+08  0.5            11266000       1.2557686      4739.2417      9478.4785      9.2089862    
  22122200   45500.797     -29.445296     -42001223       0.63614479     135493.6      -41865730       999.05558      999.05558      999.05558      2000.4722      2999.5278      2000.4722      2999.5278      2000.4722      2999.5278      9.9716942e+08  0.5            11266100       1.276862       4740.8192      9481.6105      9.189237     
  22122400   46558.606     -29.309543     -41992744       0.63614479     138643.58     -41854100       999.05558      999.05558      999.05558      2000.4722      2999.5278      2000.4722      2999.5278      2000.4722      2999.5278      9.9716942e+08  0.5            11266200       1.2980423      4721.366       9442.7248      9.1700574    
  22122600   47170.184     -29.854549     -41984350       0.63614479     140464.75     -41843885       999.05558      999.05558      999.05558      2000.4722      2999.5278      2000.4722      2999.5278      2000.4722      2999.5278      9.9716942e+08  0.5            11266300       1.3191496      4737.6848      9475.3849      9.1503074    
  22122800   47880.899     -30.39759      -41990793       0.63614479     142581.14     -41848212       999.05558      999.05558      999.05558      2000.4722      2999.5278      2000.4722      2999.5278      2000.4722      2999.5278      9.9716942e+08  0.5            11266400       1.3395674      4897.7072      9795.4216      9.1258176    
  22123000   49578.829     -30.102689     -41982558       0.63614479     147637.29     -41834921       999.05558      999.05558      999.05558      2000.4722      2999.5278      2000.4722      2999.5278      2000.4722      2999.5278      9.9716942e+08  0.5            11266500       1.3615665      4545.6252      9091.2384      9.1120374    
  22123200   50407.714     -30.237488     -41981771       0.63614479     150105.57     -41831666       999.05558      999.05558      999.05558      2000.4722      2999.5278      2000.4722      2999.5278      2000.4722      2999.5278      9.9716942e+08  0.5            11266600       1.382533       4769.5217      9539.047       9.0912176    
  22123400   48543.16      -30.365982     -41979177       0.63614479     144553.24     -41834624       999.05558      999.05558      999.05558      2000.4722      2999.5278      2000.4722      2999.5278      2000.4722      2999.5278      9.9716942e+08  0.5            11266700       1.4035683      4753.9204      9507.8472      9.0708369    
  22123600   47462.78      -30.980168     -41978583       0.63614479     141336.05     -41837247       999.05558      999.05558      999.05558      2000.4722      2999.5278      2000.4722      2999.5278      2000.4722      2999.5278      9.9716942e+08  0.5            11266800       1.4248897      4690.1367      9380.2695      9.0522545    
  22123800   50915.736     -31.367382     -41978053       0.63614479     151618.37     -41826435       999.05558      999.05558      999.05558      2000.4722      2999.5278      2000.4722      2999.5278      2000.4722      2999.5278      9.9716942e+08  0.5            11266900       1.4458506      4770.7568      9541.5313      9.0313424    
  22124000   52103.978     -31.96058      -41984947       0.63614479     155156.75     -41829790       999.05558      999.05558      999.05558      2000.4722      2999.5278      2000.4722      2999.5278      2000.4722      2999.5278      9.9716942e+08  0.5            11267000       1.4668784      4755.63        9511.2284      9.0108384    
  22124200   52928.414     -32.161585     -41999273       0.63614479     157611.78     -41841661       999.05558      999.05558      999.05558      2000.4722      2999.5278      2000.4722      2999.5278      2000.4722      2999.5278      9.9716942e+08  0.5            11267100       1.4882685      4675.0606      9350.1418      8.9925088    
  22124400   53972.507     -32.392091     -41993386       0.63614479     160720.91     -41832665       999.05558      999.05558      999.05558      2000.4722      2999.5278      2000.4722      2999.5278      2000.4722      2999.5278      9.9716942e+08  0.5            11267200       1.5092166      4773.6983      9547.4239      8.9714666    
  22124600   55354.206     -32.349965     -41983714       0.63614479     164835.37     -41818878       999.05558      999.05558      999.05558      2000.4722      2999.5278      2000.4722      2999.5278      2000.4722      2999.5278      9.9716942e+08  0.5            11267300       1.5301228      4783.2632      9566.5053      8.950183     
  22124800   56309.504     -32.466209     -41968566       0.63614479     167680.09     -41800886       999.05558      999.05558      999.05558      2000.4722      2999.5278      2000.4722      2999.5278      2000.4722      2999.5278      9.9716942e+08  0.5            11267400       1.551403       4699.2004      9398.3951      8.9310635    
  22125000   55225.969     -33.020502     -41968156       0.63614479     164453.5      -41803703       999.05558      999.05558      999.05558      2000.4722      2999.5278      2000.4722      2999.5278      2000.4722      2999.5278      9.9716942e+08  0.5            11267500       1.5725358      4731.9869      9463.9617      8.9110488    
  22125200   54054.268     -34.178017     -41967729       0.63614479     160964.38     -41806765       999.05558      999.05558      999.05558      2000.4722      2999.5278      2000.4722      2999.5278      2000.4722      2999.5278      9.9716942e+08  0.5            11267600       1.5936939      4726.3205      9452.6643      8.8911474    
  22125400   57165.996     -34.165341     -41959913       0.63614479     170230.58     -41789683       999.05558      999.05558      999.05558      2000.4722      2999.5278      2000.4722      2999.5278      2000.4722      2999.5278      9.9716942e+08  0.5            11267700       1.6151131      4668.7045      9333.2394      8.8726994    
  22125600   58751.846     -34.746346     -41961326       0.63614479     174952.97     -41786373       999.05558      999.05558      999.05558      2000.4722      2999.5278      2000.4722      2999.5278      2000.4722      2999.5278      9.9716942e+08  0.5            11267800       1.636218       4738.2404      9480.7722      8.8523713    
  22125800   58358.067     -35.259161     -41960803       0.63614479     173780.36     -41787023       999.05558      999.05558      999.05558      2000.4722      2999.5278      2000.4722      2999.5278      2000.4722      2999.5278      9.9716942e+08  0.5            11267900       1.6574008      4720.8106      9441.6144      8.8324896    
  22126000   58640.257     -36.179866     -41960228       0.63614479     174620.67     -41785607       999.05558      999.05558      999.05558      2000.4722      2999.5278      2000.4722      2999.5278      2000.4722      2999.5278      9.9716942e+08  0.5            11268000       1.6785646      4725.0478      9450.0929      8.8124757    
  22126200   62176.457     -36.213384     -41959598       0.63614479     185150.87     -41774447       999.05558      999.05558      999.05558      2000.4722      2999.5278      2000.4722      2999.5278      2000.4722      2999.5278      9.9716942e+08  0.5            11268100       1.700123       4638.5447      9277.0824      8.7944761    
  22126400   62400.489     -36.876523     -41958898       0.63614479     185818        -41773080       999.05558      999.05558      999.05558      2000.4722      2999.5278      2000.4722      2999.5278      2000.4722      2999.5278      9.9716942e+08  0.5            11268200       1.7212509      4733.1128      9466.226       8.7741933    
  22126600   60142.384     -37.765479     -41950763       0.63614479     179093.75     -41771670       999.05558      999.05558      999.05558      2000.4722      2999.5278      2000.4722      2999.5278      2000.4722      2999.5278      9.9716942e+08  0.5            11268300       1.7422807      4755.1468      9510.3126      8.7533976    
  22126800   60738.602     -37.533485     -41942582       0.63614479     180869.18     -41761713       999.05558      999.05558      999.05558      2000.4722      2999.5278      2000.4722      2999.5278      2000.4722      2999.5278      9.9716942e+08  0.5            11268400       1.763742       4659.53        9319.0418      8.7347343    
  22127000   65462.38      -37.492446     -41956457       0.63614479     194935.79     -41761521       999.05558      999.05558      999.05558      2000.4722      2999.5278      2000.4722      2999.5278      2000.4722      2999.5278      9.9716942e+08  0.5            11268500       1.7843253      4858.3285      9716.6838      8.7117167    
  22127200   64103.713     -38.327966     -41962876       0.63614479     190889.91     -41771986       999.05558      999.05558      999.05558      2000.4722      2999.5278      2000.4722      2999.5278      2000.4722      2999.5278      9.9716942e+08  0.5            11268600       1.8054121      4742.3017      9484.5719      8.6911812    
  22127400   62547.089     -38.14524      -41954498       0.63614479     186254.55     -41768244       999.05558      999.05558      999.05558      2000.4722      2999.5278      2000.4722      2999.5278      2000.4722      2999.5278      9.9716942e+08  0.5            11268700       1.8270157      4628.8515      9257.7069      8.6730854    
  22127600   64770.014     -37.81273      -41946068       0.63614479     192874.04     -41753194       999.05558      999.05558      999.05558      2000.4722      2999.5278      2000.4722      2999.5278      2000.4722      2999.5278      9.9716942e+08  0.5            11268800       1.8481404      4733.7959      9467.5959      8.6526684    
  22127800   67181.077     -38.227728     -41965160       0.63614479     200053.78     -41765106       999.05558      999.05558      999.05558      2000.4722      2999.5278      2000.4722      2999.5278      2000.4722      2999.5278      9.9716942e+08  0.5            11268900       1.8696292      4653.5989      9307.1987      8.6339158    
  22128000   66694.698     -39.00335      -41980953       0.63614479     198605.42     -41782348       999.05558      999.05558      999.05558      2000.4722      2999.5278      2000.4722      2999.5278      2000.4722      2999.5278      9.9716942e+08  0.5            11269000       1.8913074      4612.9091      9225.8357      8.6159664    
  22128200   66521.946     -38.863401     -41987046       0.63614479     198091        -41788955       999.05558      999.05558      999.05558      2000.4722      2999.5278      2000.4722      2999.5278      2000.4722      2999.5278      9.9716942e+08  0.5            11269100       1.9123658      4748.7198      9497.4424      8.5951487    
  22128400   70573.726     -38.351102     -41985672       0.63614479     210156.51     -41775516       999.05558      999.05558      999.05558      2000.4722      2999.5278      2000.4722      2999.5278      2000.4722      2999.5278      9.9716942e+08  0.5            11269200       1.9334779      4736.6265      9473.2409      8.5745653    
  22128600   71331.768     -38.150602     -41976803       0.63614479     212413.82     -41764389       999.05558      999.05558      999.05558      2000.4722      2999.5278      2000.4722      2999.5278      2000.4722      2999.5278      9.9716942e+08  0.5            11269300       1.9550079      4644.6717      9289.3348      8.5557974    
  22128800   68714.688     -37.860259     -41967877       0.63614479     204620.61     -41763257       999.05558      999.05558      999.05558      2000.4722      2999.5278      2000.4722      2999.5278      2000.4722      2999.5278      9.9716942e+08  0.5            11269400       1.9760437      4753.7937      9507.5842      8.5348369    
  22129000   68609.07      -37.387667     -41951534       0.63614479     204306.1      -41747228       999.05558      999.05558      999.05558      2000.4722      2999.5278      2000.4722      2999.5278      2000.4722      2999.5278      9.9716942e+08  0.5            11269500       1.9968966      4795.5117      9591.0529      8.5130946    
  22129200   71051.786     -36.542899     -41949862       0.63614479     211580.09     -41738282       999.05558      999.05558      999.05558      2000.4722      2999.5278      2000.4722      2999.5278      2000.4722      2999.5278      9.9716942e+08  0.5            11269600       2.0187619      4573.4208      9146.8312      8.4956332    
  22129400   71559.972     -35.941718     -41955492       0.63614479     213093.38     -41742398       999.05558      999.05558      999.05558      2000.4722      2999.5278      2000.4722      2999.5278      2000.4722      2999.5278      9.9716942e+08  0.5            11269700       2.0398853      4734.1204      9468.2346      8.4749968    
  22129600   72036.219     -35.28111      -41951813       0.63614479     214511.56     -41737301       999.05558      999.05558      999.05558      2000.4722      2999.5278      2000.4722      2999.5278      2000.4722      2999.5278      9.9716942e+08  0.5            11269800       2.0618207      4558.82        9117.6221      8.4576829    
  22129800   73939.431     -35.292103     -41964730       0.63614479     220179        -41744551       999.05558      999.05558      999.05558      2000.4722      2999.5278      2000.4722      2999.5278      2000.4722      2999.5278      9.9716942e+08  0.5            11269900       2.0831885      4679.9269      9359.8718      8.437975     
  22130000   75778.344     -34.987098     -41972095       0.63614479     225654.97     -41746440       999.05558      999.05558      999.05558      2000.4722      2999.5278      2000.4722      2999.5278      2000.4722      2999.5278      9.9716942e+08  0.5            11270000       2.1037301      4868.1747      9736.33        8.41493      
  22130200   76207.34      -34.543321     -41977518       0.63614479     226932.44     -41750585       999.05558      999.05558      999.05558      2000.4722      2999.5278      2000.4722      2999.5278      2000.4722      2999.5278      9.9716942e+08  0.5            11270100       2.12552        4589.2898      9178.5715      8.3968657    
  22130400   75452.555     -34.179934     -41975557       0.63614479     224684.83     -41750872       999.05558      999.05558      999.05558      2000.4722      2999.5278      2000.4722      2999.5278      2000.4722      2999.5278      9.9716942e+08  0.5            11270200       2.1468679      4684.3182      9368.6701      8.3770033    
  22130600   75042.867     -33.638143     -41973618       0.63614479     223464.84     -41750153       999.05558      999.05558      999.05558      2000.4722      2999.5278      2000.4722      2999.5278      2000.4722      2999.5278      9.9716942e+08  0.5            11270300       2.1680784      4714.6572      9429.3165      8.3565826    
  22130800   77577.653     -33.175916     -41986454       0.63614479     231013        -41755441       999.05558      999.05558      999.05558      2000.4722      2999.5278      2000.4722      2999.5278      2000.4722      2999.5278      9.9716942e+08  0.5            11270400       2.189448       4679.5284      9359.0291      8.3367528    
  22131000   79446.845     -32.453347     -41997057       0.63614479     236579.14     -41760478       999.05558      999.05558      999.05558      2000.4722      2999.5278      2000.4722      2999.5278      2000.4722      2999.5278      9.9716942e+08  0.5            11270500       2.2107367      4697.3167      9394.6514      8.3165895    
  22131200   78488.44      -32.106687     -41995198       0.63614479     233725.17     -41761473       999.05558      999.05558      999.05558      2000.4722      2999.5278      2000.4722      2999.5278      2000.4722      2999.5278      9.9716942e+08  0.5            11270600       2.2322461      4649.1466      9298.2931      8.2972252    
  22131400   76269.253     -32.489444     -41986053       0.63614479     227116.81     -41758936       999.05558      999.05558      999.05558      2000.4722      2999.5278      2000.4722      2999.5278      2000.4722      2999.5278      9.9716942e+08  0.5            11270700       2.253388       4729.9481      9459.9199      8.2764707    
  22131600   78410.914     -32.184454     -41991741       0.63614479     233494.31     -41758246       999.05558      999.05558      999.05558      2000.4722      2999.5278      2000.4722      2999.5278      2000.4722      2999.5278      9.9716942e+08  0.5            11270800       2.2744609      4745.4221      9490.8379      8.255459     
  22131800   82195.824     -31.480478     -41990097       0.63614479     244765.13     -41745332       999.05558      999.05558      999.05558      2000.4722      2999.5278      2000.4722      2999.5278      2000.4722      2999.5278      9.9716942e+08  0.5            11270900       2.2959098      4662.2392      9324.4506      8.2357948    
  22132000   82168.756     -31.176034     -41990404       0.63614479     244684.52     -41745720       999.05558      999.05558      999.05558      2000.4722      2999.5278      2000.4722      2999.5278      2000.4722      2999.5278      9.9716942e+08  0.5            11271000       2.3170855      4722.3863      9444.7596      8.2151298    
  22132200   80984.288     -31.277378     -41979628       0.63614479     241157.38     -41738471       999.05558      999.05558      999.05558      2000.4722      2999.5278      2000.4722      2999.5278      2000.4722      2999.5278      9.9716942e+08  0.5            11271100       2.3385178      4665.8642      9331.7497      8.1953543    
  22132400   82671.254     -31.178072     -41978223       0.63614479     246180.88     -41732042       999.05558      999.05558      999.05558      2000.4722      2999.5278      2000.4722      2999.5278      2000.4722      2999.5278      9.9716942e+08  0.5            11271200       2.3591761      4840.6755      9681.3729      8.172868     
  22132600   86615.357     -30.737252     -41978749       0.63614479     257925.74     -41720823       999.05558      999.05558      999.05558      2000.4722      2999.5278      2000.4722      2999.5278      2000.4722      2999.5278      9.9716942e+08  0.5            11271300       2.380925       4597.9178      9195.8027      8.1541498    
  22132800   85186.595     -30.722252     -41990287       0.63614479     253671.13     -41736616       999.05558      999.05558      999.05558      2000.4722      2999.5278      2000.4722      2999.5278      2000.4722      2999.5278      9.9716942e+08  0.5            11271400       2.4023558      4666.1855      9332.3763      8.1343003    
  22133000   82079.835     -32.17842      -41983568       0.63614479     244419.73     -41739149       999.05558      999.05558      999.05558      2000.4722      2999.5278      2000.4722      2999.5278      2000.4722      2999.5278      9.9716942e+08  0.5            11271500       2.423403       4751.2208      9502.4548      8.1131397    
  22133200   84835.024     -32.468854     -41982402       0.63614479     252624.21     -41729778       999.05558      999.05558      999.05558      2000.4722      2999.5278      2000.4722      2999.5278      2000.4722      2999.5278      9.9716942e+08  0.5            11271600       2.4449329      4644.7263      9289.4504      8.0935787    
  22133400   89381.56      -31.728987     -41966502       0.63614479     266163.02     -41700339       999.05558      999.05558      999.05558      2000.4722      2999.5278      2000.4722      2999.5278      2000.4722      2999.5278      9.9716942e+08  0.5            11271700       2.4661243      4718.8896      9437.7926      8.0728761    
  22133600   87538.058     -31.811984     -41959894       0.63614479     260673.39     -41699221       999.05558      999.05558      999.05558      2000.4722      2999.5278      2000.4722      2999.5278      2000.4722      2999.5278      9.9716942e+08  0.5            11271800       2.4875663      4663.7373      9327.4659      8.0529765    
  22133800   85339.281     -32.280606     -41971695       0.63614479     254125.81     -41717570       999.05558      999.05558      999.05558      2000.4722      2999.5278      2000.4722      2999.5278      2000.4722      2999.5278      9.9716942e+08  0.5            11271900       2.5086221      4749.2949      9498.5921      8.0318138    
  22134000   88815.367     -32.276417     -41990891       0.63614479     264477        -41726414       999.05558      999.05558      999.05558      2000.4722      2999.5278      2000.4722      2999.5278      2000.4722      2999.5278      9.9716942e+08  0.5            11272000       2.5296597      4753.3973      9506.7955      8.010596     
  22134200   92126.529     -32.10354      -41989814       0.63614479     274337.07     -41715477       999.05558      999.05558      999.05558      2000.4722      2999.5278      2000.4722      2999.5278      2000.4722      2999.5278      9.9716942e+08  0.5            11272100       2.5511716      4648.5857      9297.1529      7.9908671    
  22134400   90421.83      -32.096489     -41986806       0.63614479     269260.77     -41717545       999.05558      999.05558      999.05558      2000.4722      2999.5278      2000.4722      2999.5278      2000.4722      2999.5278      9.9716942e+08  0.5            11272200       2.5722948      4734.12        9468.2095      7.9699048    
  22134600   89305.003     -32.83568      -41985694       0.63614479     265935.05     -41719759       999.05558      999.05558      999.05558      2000.4722      2999.5278      2000.4722      2999.5278      2000.4722      2999.5278      9.9716942e+08  0.5            11272300       2.593674       4677.4463      9354.9246      7.9497235    
  22134800   93458.807     -32.560941     -41988146       0.63614479     278304.37     -41709842       999.05558      999.05558      999.05558      2000.4722      2999.5278      2000.4722      2999.5278      2000.4722      2999.5278      9.9716942e+08  0.5            11272400       2.6148872      4714.0589      9428.1199      7.9290198    
  22135000   96938.74      -31.971009     -41986939       0.63614479     288667.01     -41698272       999.05558      999.05558      999.05558      2000.4722      2999.5278      2000.4722      2999.5278      2000.4722      2999.5278      9.9716942e+08  0.5            11272500       2.6363727      4654.3004      9308.5939      7.9091248    
  22135200   93481.58      -32.685397     -41978267       0.63614479     278372.18     -41699895       999.05558      999.05558      999.05558      2000.4722      2999.5278      2000.4722      2999.5278      2000.4722      2999.5278      9.9716942e+08  0.5            11272600       2.6575621      4719.3404      9438.6954      7.8883258    
  22135400   91957.18      -33.48207      -41986239       0.63614479     273832.78     -41712406       999.05558      999.05558      999.05558      2000.4722      2999.5278      2000.4722      2999.5278      2000.4722      2999.5278      9.9716942e+08  0.5            11272700       2.6790172      4660.8811      9321.7638      7.8683016    
  22135600   94476.309     -33.173829     -41992279       0.63614479     281334.32     -41710945       999.05558      999.05558      999.05558      2000.4722      2999.5278      2000.4722      2999.5278      2000.4722      2999.5278      9.9716942e+08  0.5            11272800       2.6999827      4769.751       9539.5066      7.8468312    
  22135800   97671.94      -33.210008     -41985400       0.63614479     290850.36     -41694550       999.05558      999.05558      999.05558      2000.4722      2999.5278      2000.4722      2999.5278      2000.4722      2999.5278      9.9716942e+08  0.5            11272900       2.7214223      4664.2703      9328.5227      7.8267328    
  22136000   96925.886     -32.92894      -41978458       0.63614479     288628.74     -41689829       999.05558      999.05558      999.05558      2000.4722      2999.5278      2000.4722      2999.5278      2000.4722      2999.5278      9.9716942e+08  0.5            11273000       2.7426032      4721.2392      9442.4828      7.8058769    
  22136200   96158.608     -33.27071      -41978847       0.63614479     286343.92     -41692503       999.05558      999.05558      999.05558      2000.4722      2999.5278      2000.4722      2999.5278      2000.4722      2999.5278      9.9716942e+08  0.5            11273100       2.7640626      4659.9621      9319.9259      7.7858009    
  22136400   97279.319     -33.333565     -41979200       0.63614479     289681.2      -41689518       999.05558      999.05558      999.05558      2000.4722      2999.5278      2000.4722      2999.5278      2000.4722      2999.5278      9.9716942e+08  0.5            11273200       2.7850562      4763.3565      9526.7152      7.7644055    
  22136600   100685.55     -32.519149     -41970587       0.63614479     299824.37     -41670763       999.05558      999.05558      999.05558      2000.4722      2999.5278      2000.4722      2999.5278      2000.4722      2999.5278      9.9716942e+08  0.5            11273300       2.8064215      4680.4765      9360.9697      7.7440416    
  22136800   102417.99     -31.5938       -41961522       0.63614479     304983.3      -41656539       999.05558      999.05558      999.05558      2000.4722      2999.5278      2000.4722      2999.5278      2000.4722      2999.5278      9.9716942e+08  0.5            11273400       2.8275779      4726.7115      9453.4283      7.723092     
  22137000   97633.569     -32.441219     -41967176       0.63614479     290736.1      -41676440       999.05558      999.05558      999.05558      2000.4722      2999.5278      2000.4722      2999.5278      2000.4722      2999.5278      9.9716942e+08  0.5            11273500       2.8492628      4611.4947      9222.9575      7.7035685    
  22137200   95030.43      -32.885205     -41965488       0.63614479     282984.39     -41682504       999.05558      999.05558      999.05558      2000.4722      2999.5278      2000.4722      2999.5278      2000.4722      2999.5278      9.9716942e+08  0.5            11273600       2.8706916      4666.6178      9333.2765      7.6833277    
  22137400   100684.22     -31.956459     -41971512       0.63614479     299820.41     -41671691       999.05558      999.05558      999.05558      2000.4722      2999.5278      2000.4722      2999.5278      2000.4722      2999.5278      9.9716942e+08  0.5            11273700       2.8927951      4524.1706      9048.3051      7.6648575    
  22137600   102809.61     -32.035838     -41971663       0.63614479     306149.46     -41665514       999.05558      999.05558      999.05558      2000.4722      2999.5278      2000.4722      2999.5278      2000.4722      2999.5278      9.9716942e+08  0.5            11273800       2.9140808      4697.9677      9395.9455      7.6441894    
  22137800   103281.06     -31.961448     -41984658       0.63614479     307553.36     -41677105       999.05558      999.05558      999.05558      2000.4722      2999.5278      2000.4722      2999.5278      2000.4722      2999.5278      9.9716942e+08  0.5            11273900       2.9355622      4655.1944      9310.4144      7.6240199    
  22138000   103985.25     -32.030164     -41984807       0.63614479     309650.32     -41675156       999.05558      999.05558      999.05558      2000.4722      2999.5278      2000.4722      2999.5278      2000.4722      2999.5278      9.9716942e+08  0.5            11274000       2.9564672      4783.5757      9567.129       7.60235      
  22138200   106938.03     -31.413245     -41986893       0.63614479     318443.2      -41668450       999.05558      999.05558      999.05558      2000.4722      2999.5278      2000.4722      2999.5278      2000.4722      2999.5278      9.9716942e+08  0.5            11274100       2.978266       4587.394       9174.7656      7.5829671    
  22138400   108461.66     -30.627545     -41955698       0.63614479     322980.29     -41632718       999.05558      999.05558      999.05558      2000.4722      2999.5278      2000.4722      2999.5278      2000.4722      2999.5278      9.9716942e+08  0.5            11274200       3.0015273      4298.9798      8597.988       7.5672368    
  22138600   103629.95     -30.999014     -41954058       0.63614479     308592.3      -41645466       999.05558      999.05558      999.05558      2000.4722      2999.5278      2000.4722      2999.5278      2000.4722      2999.5278      9.9716942e+08  0.5            11274300       3.0234983      4551.461       9102.8959      7.5481801    
  22138800   101246.66     -30.897996     -41945143       0.63614479     301495.26     -41643648       999.05558      999.05558      999.05558      2000.4722      2999.5278      2000.4722      2999.5278      2000.4722      2999.5278      9.9716942e+08  0.5            11274400       3.0457704      4489.9242      8979.8673      7.5298269    
  22139000   107820.96     -30.392216     -41958441       0.63614479     321072.41     -41637368       999.05558      999.05558      999.05558      2000.4722      2999.5278      2000.4722      2999.5278      2000.4722      2999.5278      9.9716942e+08  0.5            11274500       3.0669317      4725.6246      9451.2205      7.5087004    
  22139200   108889.29     -30.291744     -41958928       0.63614479     324253.73     -41634674       999.05558      999.05558      999.05558      2000.4722      2999.5278      2000.4722      2999.5278      2000.4722      2999.5278      9.9716942e+08  0.5            11274600       3.0881091      4721.9918      9444.0099      7.4876127    
  22139400   108273.46     -30.390795     -41957604       0.63614479     322419.88     -41635184       999.05558      999.05558      999.05558      2000.4722      2999.5278      2000.4722      2999.5278      2000.4722      2999.5278      9.9716942e+08  0.5            11274700       3.1098519      4599.2431      9198.468       7.4678812    
  22139600   109232.12     -30.209984     -41948977       0.63614479     325274.61     -41623702       999.05558      999.05558      999.05558      2000.4722      2999.5278      2000.4722      2999.5278      2000.4722      2999.5278      9.9716942e+08  0.5            11274800       3.1307311      4789.4448      9578.8946      7.4460684    
  22139800   113633.48     -29.369112     -41942317       0.63614479     338381.1      -41603935       999.05558      999.05558      999.05558      2000.4722      2999.5278      2000.4722      2999.5278      2000.4722      2999.5278      9.9716942e+08  0.5            11274900       3.1522621      4644.4726      9288.9473      7.4258043    
  22140000   114611.02     -29.03678      -41933807       0.63614479     341292.04     -41592515       999.05558      999.05558      999.05558      2000.4722      2999.5278      2000.4722      2999.5278      2000.4722      2999.5278      9.9716942e+08  0.5            11275000       3.1737331      4657.4391      9314.8755      7.4053825    
  22140200   107414.51     -29.874836     -41938216       0.63614479     319862.06     -41618354       999.05558      999.05558      999.05558      2000.4722      2999.5278      2000.4722      2999.5278      2000.4722      2999.5278      9.9716942e+08  0.5            11275100       3.1952294      4651.9649      9303.9254      7.3850056    
  22140400   107360.9      -29.491226     -41935337       0.63614479     319702.42     -41615635       999.05558      999.05558      999.05558      2000.4722      2999.5278      2000.4722      2999.5278      2000.4722      2999.5278      9.9716942e+08  0.5            11275200       3.2164404      4714.5378      9429.0787      7.3639608    
  22140600   111991.9      -28.924918     -41934394       0.63614479     333492.75     -41600901       999.05558      999.05558      999.05558      2000.4722      2999.5278      2000.4722      2999.5278      2000.4722      2999.5278      9.9716942e+08  0.5            11275300       3.2378813      4663.9707      9327.9771      7.3434351    
  22140800   114355.12     -28.217154     -41931561       0.63614479     340530.03     -41591031       999.05558      999.05558      999.05558      2000.4722      2999.5278      2000.4722      2999.5278      2000.4722      2999.5278      9.9716942e+08  0.5            11275400       3.2588666      4765.2554      9530.4909      7.3218742    
  22141000   115891.18     -28.70433      -41939848       0.63614479     345104.16     -41594744       999.05558      999.05558      999.05558      2000.4722      2999.5278      2000.4722      2999.5278      2000.4722      2999.5278      9.9716942e+08  0.5            11275500       3.2799341      4746.6479      9493.2895      7.3005032    
  22141200   116363.39     -27.974756     -41909310       0.63614479     346510.32     -41562799       999.05558      999.05558      999.05558      2000.4722      2999.5278      2000.4722      2999.5278      2000.4722      2999.5278      9.9716942e+08  0.5            11275600       3.3011323      4717.3701      9434.7268      7.2794251    
  22141400   115990.23     -27.594187     -41893477       0.63614479     345399.09     -41548078       999.05558      999.05558      999.05558      2000.4722      2999.5278      2000.4722      2999.5278      2000.4722      2999.5278      9.9716942e+08  0.5            11275700       3.3220238      4786.6472      9573.2948      7.2576746    
  22141600   116389.91     -26.611414     -41884962       0.63614479     346589.27     -41538373       999.05558      999.05558      999.05558      2000.4722      2999.5278      2000.4722      2999.5278      2000.4722      2999.5278      9.9716942e+08  0.5            11275800       3.342463       4892.5577      9785.1533      7.2349561    
  22141800   119220.5      -26.084076     -41893007       0.63614479     355018.3      -41537989       999.05558      999.05558      999.05558      2000.4722      2999.5278      2000.4722      2999.5278      2000.4722      2999.5278      9.9716942e+08  0.5            11275900       3.364202       4600.0191      9200.0158      7.2150543    
  22142000   121310.13     -25.251782     -41889743       0.63614479     361240.87     -41528502       999.05558      999.05558      999.05558      2000.4722      2999.5278      2000.4722      2999.5278      2000.4722      2999.5278      9.9716942e+08  0.5            11276000       3.3853692      4724.2931      9448.5848      7.1939143    
  22142200   118538.89     -25.089872     -41888238       0.63614479     352988.58     -41535249       999.05558      999.05558      999.05558      2000.4722      2999.5278      2000.4722      2999.5278      2000.4722      2999.5278      9.9716942e+08  0.5            11276100       3.4070351      4615.5599      9231.1163      7.173824     
  22142400   113831.01     -25.290055     -41884405       0.63614479     338969.32     -41545436       999.05558      999.05558      999.05558      2000.4722      2999.5278      2000.4722      2999.5278      2000.4722      2999.5278      9.9716942e+08  0.5            11276200       3.4286876      4618.389       9236.7694      7.1536864    
  22142600   119444.89     -23.926573     -41882756       0.63614479     355686.5      -41527070       999.05558      999.05558      999.05558      2000.4722      2999.5278      2000.4722      2999.5278      2000.4722      2999.5278      9.9716942e+08  0.5            11276300       3.4497762      4741.9093      9483.8167      7.1323642    
  22142800   123346.42     -24.183131     -41912363       0.63614479     367304.58     -41545058       999.05558      999.05558      999.05558      2000.4722      2999.5278      2000.4722      2999.5278      2000.4722      2999.5278      9.9716942e+08  0.5            11276400       3.4713019      4645.6062      9291.206       7.1119405    
  22143000   122049.47     -23.283936     -41908553       0.63614479     363442.49     -41545111       999.05558      999.05558      999.05558      2000.4722      2999.5278      2000.4722      2999.5278      2000.4722      2999.5278      9.9716942e+08  0.5            11276500       3.4924496      4728.6415      9457.2941      7.0907356    
  22143200   120876.41     -22.439524     -41899192       0.63614479     359949.29     -41539243       999.05558      999.05558      999.05558      2000.4722      2999.5278      2000.4722      2999.5278      2000.4722      2999.5278      9.9716942e+08  0.5            11276600       3.5139178      4658.0415      9316.0878      7.0701767    
  22143400   125421.91     -20.429369     -41867633       0.63614479     373485.03     -41494148       999.05558      999.05558      999.05558      2000.4722      2999.5278      2000.4722      2999.5278      2000.4722      2999.5278      9.9716942e+08  0.5            11276700       3.5351017      4720.5795      9441.1705      7.0490397    
  22143600   129177.35     -19.468051     -41865475       0.63614479     384668.09     -41480806       999.05558      999.05558      999.05558      2000.4722      2999.5278      2000.4722      2999.5278      2000.4722      2999.5278      9.9716942e+08  0.5            11276800       3.5564844      4676.6763      9353.3448      7.0282952    
  22143800   124251.22     -19.326091     -41863258       0.63614479     369998.92     -41493259       999.05558      999.05558      999.05558      2000.4722      2999.5278      2000.4722      2999.5278      2000.4722      2999.5278      9.9716942e+08  0.5            11276900       3.5775909      4737.8891      9475.7903      7.0070017    
  22144000   120564.66     -18.661597     -41846300       0.63614479     359020.97     -41487279       999.05558      999.05558      999.05558      2000.4722      2999.5278      2000.4722      2999.5278      2000.4722      2999.5278      9.9716942e+08  0.5            11277000       3.5990877      4651.8385      9303.6463      6.9864689    
  22144200   130087.23     -16.409319     -41836734       0.63614479     387377.56     -41449356       999.05558      999.05558      999.05558      2000.4722      2999.5278      2000.4722      2999.5278      2000.4722      2999.5278      9.9716942e+08  0.5            11277100       3.6197106      4849.0049      9698.0601      6.9642427    
  22144400   130582.66     -15.168144     -41849236       0.63614479     388852.86     -41460384       999.05558      999.05558      999.05558      2000.4722      2999.5278      2000.4722      2999.5278      2000.4722      2999.5278      9.9716942e+08  0.5            11277200       3.6414194      4606.4144      9212.7893      6.9441063    
  22144600   125461.99     -15.012736     -41828727       0.63614479     373604.39     -41455123       999.05558      999.05558      999.05558      2000.4722      2999.5278      2000.4722      2999.5278      2000.4722      2999.5278      9.9716942e+08  0.5            11277300       3.6625965      4722.0921      9444.1999      6.9229467    
  22144800   125161.89     -14.116112     -41798872       0.63614479     372710.74     -41426162       999.05558      999.05558      999.05558      2000.4722      2999.5278      2000.4722      2999.5278      2000.4722      2999.5278      9.9716942e+08  0.5            11277400       3.6841069      4648.9002      9297.7943      6.9024115    
  22145000   131712.86     -12.802612     -41811658       0.63614479     392218.4      -41419440       999.05558      999.05558      999.05558      2000.4722      2999.5278      2000.4722      2999.5278      2000.4722      2999.5278      9.9716942e+08  0.5            11277500       3.7051222      4758.4347      9516.8708      6.8809454    
  22145200   132549.63     -11.867524     -41819029       0.63614479     394710.16     -41424319       999.05558      999.05558      999.05558      2000.4722      2999.5278      2000.4722      2999.5278      2000.4722      2999.5278      9.9716942e+08  0.5            11277600       3.7269361      4584.2345      9168.4874      6.8609547    
  22145400   129886.98     -11.480795     -41809846       0.63614479     386781.24     -41423064       999.05558      999.05558      999.05558      2000.4722      2999.5278      2000.4722      2999.5278      2000.4722      2999.5278      9.9716942e+08  0.5            11277700       3.7479607      4756.3462      9512.6774      6.839503     
  22145600   129788.32     -11.369448     -41808125       0.63614479     386487.46     -41421637       999.05558      999.05558      999.05558      2000.4722      2999.5278      2000.4722      2999.5278      2000.4722      2999.5278      9.9716942e+08  0.5            11277800       3.768975       4758.6634      9517.3522      6.8180374    
  22145800   139675.05     -9.645699      -41806474       0.63614479     415928.45     -41390546       999.05558      999.05558      999.05558      2000.4722      2999.5278      2000.4722      2999.5278      2000.4722      2999.5278      9.9716942e+08  0.5            11277900       3.790357       4676.824       9353.6252      6.7972365    
  22146000   137400.59     -8.9354415     -41802950       0.63614479     409155.5      -41393795       999.05558      999.05558      999.05558      2000.4722      2999.5278      2000.4722      2999.5278      2000.4722      2999.5278      9.9716942e+08  0.5            11278000       3.8108204      4886.7823      9773.5813      6.7747955    
  22146200   131203.27     -9.0841149     -41816182       0.63614479     390700.94     -41425481       999.05558      999.05558      999.05558      2000.4722      2999.5278      2000.4722      2999.5278      2000.4722      2999.5278      9.9716942e+08  0.5            11278100       3.8323506      4644.6314      9289.245       6.7542574    
  22146400   131946.42     -8.8580486     -41816602       0.63614479     392913.9      -41423688       999.05558      999.05558      999.05558      2000.4722      2999.5278      2000.4722      2999.5278      2000.4722      2999.5278      9.9716942e+08  0.5            11278200       3.8535914      4707.9434      9415.8931      6.7332019    
  22146600   136994.95     -8.1872609     -41835403       0.63614479     407947.56     -41427455       999.05558      999.05558      999.05558      2000.4722      2999.5278      2000.4722      2999.5278      2000.4722      2999.5278      9.9716942e+08  0.5            11278300       3.8752298      4621.3884      9242.7797      6.7128335    
  22146800   137883.23     -7.438367      -41818832       0.63614479     410592.73     -41408239       999.05558      999.05558      999.05558      2000.4722      2999.5278      2000.4722      2999.5278      2000.4722      2999.5278      9.9716942e+08  0.5            11278400       3.896248       4757.7904      9515.5867      6.6913861    
  22147000   136548.04     -7.5540149     -41824760       0.63614479     406616.75     -41418143       999.05558      999.05558      999.05558      2000.4722      2999.5278      2000.4722      2999.5278      2000.4722      2999.5278      9.9716942e+08  0.5            11278500       3.9177485      4651.06        9302.0794      6.6707648    
  22147200   136579.21     -7.0175741     -41801128       0.63614479     406709.56     -41394418       999.05558      999.05558      999.05558      2000.4722      2999.5278      2000.4722      2999.5278      2000.4722      2999.5278      9.9716942e+08  0.5            11278600       3.9388587      4737.0432      9474.133       6.6494749    
  22147400   139303.83     -6.5197807     -41796015       0.63614479     414823.02     -41381192       999.05558      999.05558      999.05558      2000.4722      2999.5278      2000.4722      2999.5278      2000.4722      2999.5278      9.9716942e+08  0.5            11278700       3.9601984      4686.1061      9372.2052      6.6285709    
  22147600   146191.44     -5.1124241     -41796292       0.63614479     435333.14     -41360959       999.05558      999.05558      999.05558      2000.4722      2999.5278      2000.4722      2999.5278      2000.4722      2999.5278      9.9716942e+08  0.5            11278800       3.9808024      4853.4284      9706.8888      6.6064414    
  22147800   146177.68     -4.8458787     -41787151       0.63614479     435292.17     -41351859       999.05558      999.05558      999.05558      2000.4722      2999.5278      2000.4722      2999.5278      2000.4722      2999.5278      9.9716942e+08  0.5            11278900       4.0022774      4656.5471      9313.0555      6.5857619    
  22148000   135595.74     -5.4369774     -41777957       0.63614479     403780.95     -41374176       999.05558      999.05558      999.05558      2000.4722      2999.5278      2000.4722      2999.5278      2000.4722      2999.5278      9.9716942e+08  0.5            11279000       4.0233919      4736.1222      9472.2467      6.5644849    
  22148200   137728.85     -4.5022884     -41766858       0.63614479     410133        -41356725       999.05558      999.05558      999.05558      2000.4722      2999.5278      2000.4722      2999.5278      2000.4722      2999.5278      9.9716942e+08  0.5            11279100       4.0456216      4498.4409      8996.8713      6.5450148    
  22148400   143584.6      -2.6774236     -41759482       0.63614479     427570.41     -41331912       999.05558      999.05558      999.05558      2000.4722      2999.5278      2000.4722      2999.5278      2000.4722      2999.5278      9.9716942e+08  0.5            11279200       4.0668659      4707.1707      9414.3476      6.5239342    
  22148600   144614.06     -2.1201574     -41759419       0.63614479     430635.97     -41328783       999.05558      999.05558      999.05558      2000.4722      2999.5278      2000.4722      2999.5278      2000.4722      2999.5278      9.9716942e+08  0.5            11279300       4.0881096      4707.2828      9414.578       6.5028515    
  22148800   142349.71     -2.1335563     -41751966       0.63614479     423893.14     -41328073       999.05558      999.05558      999.05558      2000.4722      2999.5278      2000.4722      2999.5278      2000.4722      2999.5278      9.9716942e+08  0.5            11279400       4.1094569      4684.4286      9368.8514      6.4819303    
  22149000   139694.94     -2.3181791     -41742647       0.63614479     415987.69     -41326659       999.05558      999.05558      999.05558      2000.4722      2999.5278      2000.4722      2999.5278      2000.4722      2999.5278      9.9716942e+08  0.5            11279500       4.1308908      4665.5017      9330.9847      6.4611404    
  22149200   144653.54     -0.46672328    -41720496       0.63614479     430753.55     -41289742       999.05558      999.05558      999.05558      2000.4722      2999.5278      2000.4722      2999.5278      2000.4722      2999.5278      9.9716942e+08  0.5            11279600       4.1526105      4604.1202      9208.2545      6.4407872    
  22149400   149974.47      1.1483936     -41716647       0.63614479     446598.37     -41270048       999.05558      999.05558      999.05558      2000.4722      2999.5278      2000.4722      2999.5278      2000.4722      2999.5278      9.9716942e+08  0.5            11279700       4.1735979      4764.7802      9529.5627      6.4192936    
  22149600   147226.08      1.5799259     -41707298       0.63614479     438414.12     -41268884       999.05558      999.05558      999.05558      2000.4722      2999.5278      2000.4722      2999.5278      2000.4722      2999.5278      9.9716942e+08  0.5            11279800       4.1952252      4623.7885      9247.588       6.3987812    
  22149800   141780.88      2.0709219     -41705389       0.63614479     422199.26     -41283190       999.05558      999.05558      999.05558      2000.4722      2999.5278      2000.4722      2999.5278      2000.4722      2999.5278      9.9716942e+08  0.5            11279900       4.2162361      4759.426       9518.8516      6.3773253    
  22150000   145912.92      3.4702194     -41696164       0.63614479     434503.77     -41261660       999.05558      999.05558      999.05558      2000.4722      2999.5278      2000.4722      2999.5278      2000.4722      2999.5278      9.9716942e+08  0.5            11280000       4.2404092      4136.8199      8273.6195      6.3606171    
  22150200   153676.26      5.0569446     -41696211       0.63614479     457621.65     -41238589       999.05558      999.05558      999.05558      2000.4722      2999.5278      2000.4722      2999.5278      2000.4722      2999.5278      9.9716942e+08  0.5            11280100       4.2619553      4641.2051      9282.4073      6.3399269    
  22150400   150043.99      5.6130876     -41679633       0.63614479     446805.39     -41232828       999.05558      999.05558      999.05558      2000.4722      2999.5278      2000.4722      2999.5278      2000.4722      2999.5278      9.9716942e+08  0.5            11280200       4.2832112      4704.6018      9409.2187      6.3188       
  22150600   145809.81      5.6409676     -41676038       0.63614479     434196.71     -41241842       999.05558      999.05558      999.05558      2000.4722      2999.5278      2000.4722      2999.5278      2000.4722      2999.5278      9.9716942e+08  0.5            11280300       4.3045774      4680.2734      9360.539       6.2978334    
  22150800   150750.74      6.4773389     -41668954       0.63614479     448909.96     -41220044       999.05558      999.05558      999.05558      2000.4722      2999.5278      2000.4722      2999.5278      2000.4722      2999.5278      9.9716942e+08  0.5            11280400       4.3256465      4746.2915      9492.5794      6.2764315    
  22151000   157843.02      8.6019853     -41661900       0.63614479     470029.55     -41191870       999.05558      999.05558      999.05558      2000.4722      2999.5278      2000.4722      2999.5278      2000.4722      2999.5278      9.9716942e+08  0.5            11280500       4.3472511      4628.6298      9257.2484      6.2558037    
  22151200   153628.77      8.7774677     -41662230       0.63614479     457480.23     -41204750       999.05558      999.05558      999.05558      2000.4722      2999.5278      2000.4722      2999.5278      2000.4722      2999.5278      9.9716942e+08  0.5            11280600       4.3683265      4744.8817      9489.8188      6.2344108    
  22151400   150315.56      9.0072715     -41669999       0.63614479     447614.07     -41222385       999.05558      999.05558      999.05558      2000.4722      2999.5278      2000.4722      2999.5278      2000.4722      2999.5278      9.9716942e+08  0.5            11280700       4.3897116      4676.172       9352.2969      6.2134596    
  22151600   152895.94      9.8080442     -41668504       0.63614479     455297.99     -41213206       999.05558      999.05558      999.05558      2000.4722      2999.5278      2000.4722      2999.5278      2000.4722      2999.5278      9.9716942e+08  0.5            11280800       4.4107455      4754.2097      9508.4403      6.1920113    
  22151800   161692.85      11.020182     -41681716       0.63614479     481493.69     -41200222       999.05558      999.05558      999.05558      2000.4722      2999.5278      2000.4722      2999.5278      2000.4722      2999.5278      9.9716942e+08  0.5            11280900       4.4316956      4773.2451      9546.5016      6.1704502    
  22152000   161022.63      11.424422     -41689319       0.63614479     479497.91     -41209821       999.05558      999.05558      999.05558      2000.4722      2999.5278      2000.4722      2999.5278      2000.4722      2999.5278      9.9716942e+08  0.5            11281000       4.4528039      4737.4606      9474.896       6.1491133    
  22152200   147828.91      9.9104726     -41704288       0.63614479     440209.25     -41264079       999.05558      999.05558      999.05558      2000.4722      2999.5278      2000.4722      2999.5278      2000.4722      2999.5278      9.9716942e+08  0.5            11281100       4.4742402      4664.9887      9329.9801      6.1282279    
  22152400   153334.66      11.798042     -41700666       0.63614479     456604.43     -41244061       999.05558      999.05558      999.05558      2000.4722      2999.5278      2000.4722      2999.5278      2000.4722      2999.5278      9.9716942e+08  0.5            11281200       4.495515       4700.3994      9400.7965      6.1071178    
  22152600   160427.12      13.27703      -41700346       0.63614479     477724.56     -41222621       999.05558      999.05558      999.05558      2000.4722      2999.5278      2000.4722      2999.5278      2000.4722      2999.5278      9.9716942e+08  0.5            11281300       4.516236       4826.0319      9652.0904      6.0852599    
  22152800   160692.89      14.129812     -41698370       0.63614479     478515.97     -41219854       999.05558      999.05558      999.05558      2000.4722      2999.5278      2000.4722      2999.5278      2000.4722      2999.5278      9.9716942e+08  0.5            11281400       4.5381         4573.6963      9147.3754      6.0649406    
  22153000   156110.33      14.662667     -41690807       0.63614479     464869.91     -41225937       999.05558      999.05558      999.05558      2000.4722      2999.5278      2000.4722      2999.5278      2000.4722      2999.5278      9.9716942e+08  0.5            11281500       4.5591581      4748.7918      9497.5903      6.0435381    
  22153200   154301.46      15.55158      -41674283       0.63614479     459483.41     -41214800       999.05558      999.05558      999.05558      2000.4722      2999.5278      2000.4722      2999.5278      2000.4722      2999.5278      9.9716942e+08  0.5            11281600       4.5801375      4766.5942      9533.2011      6.0220355    
  22153400   164271.19      17.754382     -41672054       0.63614479     489171.57     -41182882       999.05558      999.05558      999.05558      2000.4722      2999.5278      2000.4722      2999.5278      2000.4722      2999.5278      9.9716942e+08  0.5            11281700       4.6010123      4790.4501      9580.8952      6.0004018    
  22153600   165141.18      19.065396     -41676695       0.63614479     491762.25     -41184933       999.05558      999.05558      999.05558      2000.4722      2999.5278      2000.4722      2999.5278      2000.4722      2999.5278      9.9716942e+08  0.5            11281800       4.6220732      4748.1331      9496.2595      5.9790151    
  22153800   159530.31      19.01323      -41679740       0.63614479     475054.03     -41204686       999.05558      999.05558      999.05558      2000.4722      2999.5278      2000.4722      2999.5278      2000.4722      2999.5278      9.9716942e+08  0.5            11281900       4.6429731      4784.7128      9569.4471      5.9574249    
  22154000   158251.71      19.996205     -41662200       0.63614479     471246.58     -41190954       999.05558      999.05558      999.05558      2000.4722      2999.5278      2000.4722      2999.5278      2000.4722      2999.5278      9.9716942e+08  0.5            11282000       4.6645689      4630.5186      9260.9931      5.9367269    
  22154200   170088.28      22.579135     -41674501       0.63614479     506493.86     -41168008       999.05558      999.05558      999.05558      2000.4722      2999.5278      2000.4722      2999.5278      2000.4722      2999.5278      9.9716942e+08  0.5            11282100       4.6856855      4735.6286      9471.2742      5.9154158    
  22154400   168484.06      23.529085     -41681240       0.63614479     501716.75     -41179523       999.05558      999.05558      999.05558      2000.4722      2999.5278      2000.4722      2999.5278      2000.4722      2999.5278      9.9716942e+08  0.5            11282200       4.707631       4556.7316      9113.4516      5.8951444    
  22154600   161881.05      24.712919     -41656582       0.63614479     482054.12     -41174528       999.05558      999.05558      999.05558      2000.4722      2999.5278      2000.4722      2999.5278      2000.4722      2999.5278      9.9716942e+08  0.5            11282300       4.7282404      4852.1659      9704.3615      5.8731982    
  22154800   162122.82      26.164223     -41639344       0.63614479     482774.09     -41156570       999.05558      999.05558      999.05558      2000.4722      2999.5278      2000.4722      2999.5278      2000.4722      2999.5278      9.9716942e+08  0.5            11282400       4.7501398      4566.3347      9132.6615      5.8528536    
[...]
  22799400   305.29799      1.7998983     -42293422       0.65929543     909.12529     -42292513       987.2223       987.2223       987.2223       2006.3889      2993.6111      2006.3889      2993.6111      2006.3889      2993.6111      9.6215461e+08  0.5            11604700       34.093391      4324.9744      8649.9481      1.2487559    
  22799600   305.04374      2.4632505     -42293483       0.65932394     908.36817     -42292574       987.20806      987.20806      987.20806      2006.396       2993.604       2006.396       2993.604       2006.396       2993.604       9.62113e+08    0.5            11604800       34.116591      4310.3872      8620.7714      1.2251815    
  22799800   305.1879       2.4758925     -42293545       0.65933482     908.79746     -42292636       987.20263      987.20263      987.20263      2006.3987      2993.6013      2006.3987      2993.6013      2006.3987      2993.6013      9.6209713e+08  0.5            11604900       34.139677      4331.6063      8663.2257      1.2016036    
  22800000   305.02816      1.3220824     -42293610       0.65931241     908.32177     -42292701       987.21382      987.21382      987.21382      2006.3931      2993.6069      2006.3931      2993.6069      2006.3931      2993.6069      9.6212982e+08  0.5            11605000       34.164676      4000.0931      8000.1965      1.1780924    
  22800200   305.14338      0.68177264    -42286296       0.65929963     908.66489     -42285387       987.2202       987.2202       987.2202       2006.3899      2993.6101      2006.3899      2993.6101      2006.3899      2993.6101      9.6214848e+08  0.5            11605100       34.18794       4298.4764      8596.9284      1.1545205    
  22800400   305.23068     -0.2287879     -42286359       0.65928291     908.92483     -42285450       987.22854      987.22854      987.22854      2006.3857      2993.6143      2006.3857      2993.6143      2006.3857      2993.6143      9.6217288e+08  0.5            11605200       34.211073      4322.9627      8645.9216      1.1309446    
  22800600   305.08138     -0.26930076    -42286421       0.6592909      908.48025     -42285512       987.22455      987.22455      987.22455      2006.3877      2993.6123      2006.3877      2993.6123      2006.3877      2993.6123      9.6216121e+08  0.5            11605300       34.234189      4325.9818      8651.9463      1.1073689    
  22800800   305.14055      4.1578765     -42286478       0.65942575     908.65647     -42285569       987.15726      987.15726      987.15726      2006.4214      2993.5786      2006.4214      2993.5786      2006.4214      2993.5786      9.6196446e+08  0.5            11605400       34.257476      4294.1686      8588.3427      1.0837992    
  22801000   304.84558      1.4494882     -42286545       0.65935824     907.77807     -42285637       987.19094      987.19094      987.19094      2006.4045      2993.5955      2006.4045      2993.5955      2006.4045      2993.5955      9.6206294e+08  0.5            11605500       34.280727      4300.8807      8601.7802      1.0602288    
  22801200   305.06502     -3.0554626     -42279227       0.65923554     908.43153     -42278318       987.25219      987.25219      987.25219      2006.3739      2993.6261      2006.3739      2993.6261      2006.3739      2993.6261      9.6224201e+08  0.5            11605600       34.304135      4272.0916      8544.151       1.0366635    
  22801400   305.40447     -1.2932945     -42279292       0.65929477     909.44236     -42278382       987.22262      987.22262      987.22262      2006.3887      2993.6113      2006.3887      2993.6113      2006.3887      2993.6113      9.6215557e+08  0.5            11605700       34.32761       4259.8155      8519.6398      1.0131004    
  22801600   305.2501       4.2077821     -42286728       0.65946304     908.98267     -42285819       987.13865      987.13865      987.13865      2006.4307      2993.5693      2006.4307      2993.5693      2006.4307      2993.5693      9.6191006e+08  0.5            11605800       34.350725      4326.2211      8652.4531      0.98952713   
  22801800   305.07481      2.0342485     -42279417       0.65940613     908.46068     -42278509       987.16705      987.16705      987.16705      2006.4165      2993.5835      2006.4165      2993.5835      2006.4165      2993.5835      9.6199308e+08  0.5            11605900       34.373875      4319.6639      8639.3395      0.96595543   
  22802000   304.85039      2.0307023     -42279480       0.65941492     907.79239     -42278573       987.16266      987.16266      987.16266      2006.4187      2993.5813      2006.4187      2993.5813      2006.4187      2993.5813      9.6198026e+08  0.5            11606000       34.397914      4159.843       8319.6492      0.94240868   
  22802200   305.26325      3.800607      -42279540       0.65947431     909.02182     -42278631       987.13303      987.13303      987.13303      2006.4335      2993.5665      2006.4335      2993.5665      2006.4335      2993.5665      9.6189363e+08  0.5            11606100       34.421082      4316.3011      8632.6362      0.91883799   
  22802400   305.50425      3.3096131     -42279604       0.65946957     909.73948     -42278695       987.13539      987.13539      987.13539      2006.4323      2993.5677      2006.4323      2993.5677      2006.4323      2993.5677      9.6190053e+08  0.5            11606200       34.444266      4313.393       8626.7719      0.89526826   
  22802600   305.20183      0.84342216    -42277776       0.65940679     908.83893     -42276867       987.16672      987.16672      987.16672      2006.4166      2993.5834      2006.4166      2993.5834      2006.4166      2993.5834      9.6199211e+08  0.5            11606300       34.467432      4316.5709      8633.1642      0.87169863   
  22802800   305.11949     -0.60933849    -42277840       0.65937439     908.59374     -42276931       987.18288      987.18288      987.18288      2006.4086      2993.5914      2006.4086      2993.5914      2006.4086      2993.5914      9.6203938e+08  0.5            11606400       34.490476      4339.6025      8679.1923      0.84812652   
  22803000   304.92013      2.6306475     -42277901       0.65947446     908.00007     -42276993       987.13295      987.13295      987.13295      2006.4335      2993.5665      2006.4335      2993.5665      2006.4335      2993.5665      9.618934e+08   0.5            11606500       34.514052      4241.6403      8483.2777      0.82456785   
  22803200   305.14652      0.93155682    -42277966       0.65943475     908.67422     -42277057       987.15276      987.15276      987.15276      2006.4236      2993.5764      2006.4236      2993.5764      2006.4236      2993.5764      9.6195133e+08  0.5            11606600       34.536993      4358.9114      8717.8319      0.80099445   
  22803400   305.32647     -0.38068114    -42278028       0.65940619     909.21008     -42277119       987.16702      987.16702      987.16702      2006.4165      2993.5835      2006.4165      2993.5835      2006.4165      2993.5835      9.61993e+08    0.5            11606700       34.560309      4288.9399      8577.8658      0.77743032   
  22803600   305.26946      2.2214286     -42278090       0.65948886     909.04032     -42277181       987.12577      987.12577      987.12577      2006.4371      2993.5629      2006.4371      2993.5629      2006.4371      2993.5629      9.6187241e+08  0.5            11606800       34.583483      4315.2173      8630.4573      0.75386344   
  22803800   305.23665      0.98618528    -42278155       0.65946251     908.94263     -42277246       987.13892      987.13892      987.13892      2006.4305      2993.5695      2006.4305      2993.5695      2006.4305      2993.5695      9.6191084e+08  0.5            11606900       34.606567      4332.0334      8664.0476      0.7302952    
  22804000   304.82408      1.0314002     -42278218       0.65947233     907.71405     -42277310       987.13401      987.13401      987.13401      2006.433       2993.567       2006.433       2993.567       2006.433       2993.567       9.6189651e+08  0.5            11607000       34.629949      4276.7835      8553.5831      0.7067337    
  22804200   305.0964      -0.24665778    -42270903       0.65944135     908.52498     -42269995       987.14947      987.14947      987.14947      2006.4253      2993.5747      2006.4253      2993.5747      2006.4253      2993.5747      9.619417e+08   0.5            11607100       34.653187      4303.2667      8606.5412      0.68316961   
  22804400   305.46879      1.5827365     -42278343       0.65950625     909.63391     -42277434       987.11709      987.11709      987.11709      2006.4415      2993.5585      2006.4415      2993.5585      2006.4415      2993.5585      9.6184704e+08  0.5            11607200       34.676291      4328.1709      8656.3302      0.65960341   
  22804600   305.19684      1.6554474     -42278406       0.65951727     908.82407     -42277497       987.11159      987.11159      987.11159      2006.4442      2993.5558      2006.4442      2993.5558      2006.4442      2993.5558      9.6183097e+08  0.5            11607300       34.699619      4286.8599      8573.7131      0.63604193   
  22804800   304.94666     -0.36407026    -42278469       0.65946927     908.07909     -42277561       987.13554      987.13554      987.13554      2006.4322      2993.5678      2006.4322      2993.5678      2006.4322      2993.5678      9.6190098e+08  0.5            11607400       34.722911      4293.1393      8586.2879      0.61248017   
  22805000   304.83873      1.943952      -42278530       0.65954462     907.75768     -42277623       987.09795      987.09795      987.09795      2006.451       2993.549       2006.451       2993.549       2006.451       2993.549       9.6179108e+08  0.5            11607500       34.746088      4314.7662      8629.5185      0.58891678   
  22805200   305.33614      1.7330162     -42278593       0.6595491      909.23889     -42277684       987.09571      987.09571      987.09571      2006.4521      2993.5479      2006.4521      2993.5479      2006.4521      2993.5479      9.6178455e+08  0.5            11607600       34.769336      4301.4699      8602.952       0.56535509   
  22805400   305.46384      1.7960471     -42286034       0.65956395     909.61917     -42285125       987.0883       987.0883       987.0883       2006.4558      2993.5442      2006.4558      2993.5442      2006.4558      2993.5442      9.6176289e+08  0.5            11607700       34.792384      4338.6086      8677.2172      0.54179072   
  22805600   305.12257      1.4229602     -42286098       0.65956178     908.6029      -42285190       987.08939      987.08939      987.08939      2006.4553      2993.5447      2006.4553      2993.5447      2006.4553      2993.5447      9.6176606e+08  0.5            11607800       34.815197      4383.5         8766.9611      0.51822354   
  22805800   305.15356     -0.23075789    -42286162       0.65952389     908.69518     -42285253       987.10829      987.10829      987.10829      2006.4459      2993.5541      2006.4459      2993.5541      2006.4459      2993.5541      9.6182131e+08  0.5            11607900       34.838624      4268.6914      8537.4309      0.49466609   
  22806000   305.05554      1.9320965     -42286225       0.65959346     908.4033      -42285316       987.07358      987.07358      987.07358      2006.4632      2993.5368      2006.4632      2993.5368      2006.4632      2993.5368      9.6171987e+08  0.5            11608000       34.862074      4264.3825      8528.7425      0.47110914   
  22806200   305.05265      0.95012947    -42286288       0.65957354     908.39469     -42285380       987.08352      987.08352      987.08352      2006.4582      2993.5418      2006.4582      2993.5418      2006.4582      2993.5418      9.6174891e+08  0.5            11608100       34.885379      4290.8777      8581.7654      0.44755047   
  22806400   305.13096     -0.068218969   -42286351       0.65955325     908.6279      -42285442       987.09364      987.09364      987.09364      2006.4532      2993.5468      2006.4532      2993.5468      2006.4532      2993.5468      9.6177849e+08  0.5            11608200       34.908498      4325.4423      8650.8723      0.42398988   
  22806600   305.21487      2.9523523     -42286410       0.65964765     908.87777     -42285501       987.04656      987.04656      987.04656      2006.4767      2993.5233      2006.4767      2993.5233      2006.4767      2993.5233      9.6164087e+08  0.5            11608300       34.93165       4319.3104      8638.6405      0.40043027   
  22806800   305.09734     -1.210395      -42286474       0.65953917     908.52779     -42285566       987.10066      987.10066      987.10066      2006.4497      2993.5503      2006.4497      2993.5503      2006.4497      2993.5503      9.6179902e+08  0.5            11608400       34.954827      4314.547       8629.0714      0.37687148   
  22807000   304.66408      2.9167982     -42286534       0.65966419     907.23759     -42285627       987.0383       987.0383       987.0383       2006.4808      2993.5192      2006.4808      2993.5192      2006.4808      2993.5192      9.6161674e+08  0.5            11608500       34.977907      4332.8163      8665.6389      0.35331222   
  22807200   305.037        0.17453934    -42286597       0.65959671     908.34809     -42285689       987.07196      987.07196      987.07196      2006.464       2993.536       2006.464       2993.536       2006.464       2993.536       9.6171512e+08  0.5            11608600       35.001426      4251.7802      8503.5543      0.32975774   
  22807400   305.44637      0.55131659    -42286659       0.65961648     909.56715     -42285750       987.0621       987.0621       987.0621       2006.4689      2993.5311      2006.4689      2993.5311      2006.4689      2993.5311      9.6168631e+08  0.5            11608700       35.024571      4320.5882      8641.1849      0.30620004   
  22807600   305.00123      4.0120402     -42286716       0.65972141     908.24158     -42285808       987.00977      987.00977      987.00977      2006.4951      2993.5049      2006.4951      2993.5049      2006.4951      2993.5049      9.6153335e+08  0.5            11608800       35.047724      4319.1251      8638.2506      0.28264296   
  22807800   304.86177      4.1767862     -42279399       0.65972982     907.82628     -42278491       987.00557      987.00557      987.00557      2006.4972      2993.5028      2006.4972      2993.5028      2006.4972      2993.5028      9.6152109e+08  0.5            11608900       35.070864      4321.5316      8643.0681      0.25908632   
  22808000   304.81756     -2.0040336     -42279464       0.6595644      907.69463     -42278556       987.08808      987.08808      987.08808      2006.456       2993.544       2006.456       2993.544       2006.456       2993.544       9.6176224e+08  0.5            11609000       35.093982      4325.6818      8651.3243      0.2355301    
  22808200   305.03078      3.4218537     -42279522       0.65972562     908.32959     -42278614       987.00767      987.00767      987.00767      2006.4962      2993.5038      2006.4962      2993.5038      2006.4962      2993.5038      9.6152721e+08  0.5            11609100       35.117173      4312.0204      8624.078       0.2119749    
  22808400   304.95678     -0.49246918    -42279586       0.65962406     908.10923     -42278678       987.05832      987.05832      987.05832      2006.4708      2993.5292      2006.4708      2993.5292      2006.4708      2993.5292      9.6167526e+08  0.5            11609200       35.140427      4300.3707      8600.7596      0.18842053   
  22808600   304.94866      1.156566      -42279645       0.65968056     908.08504     -42278737       987.03014      987.03014      987.03014      2006.4849      2993.5151      2006.4849      2993.5151      2006.4849      2993.5151      9.6159289e+08  0.5            11609300       35.163573      4320.4202      8640.8217      0.16486606   
  22808800   305.12852      1.7850553     -42279705       0.65970828     908.62064     -42278797       987.01631      987.01631      987.01631      2006.4918      2993.5082      2006.4918      2993.5082      2006.4918      2993.5082      9.6155248e+08  0.5            11609400       35.186654      4332.4808      8664.9613      0.14131187   
  22809000   304.62422     -0.084817596   -42279767       0.65966465     907.11892     -42278860       987.03807      987.03807      987.03807      2006.481       2993.519       2006.481       2993.519       2006.481       2993.519       9.6161608e+08  0.5            11609500       35.209763      4327.383       8654.7307      0.11775841   
  22809200   304.66527      2.1762316     -42279824       0.65973712     907.24115     -42278917       987.00193      987.00193      987.00193      2006.499       2993.501       2006.499       2993.501       2006.499       2993.501       9.6151044e+08  0.5            11609600       35.23309       4286.8571      8573.7377      0.09420613   
  22809400   305.05127     -0.23287196    -42279884       0.65967929     908.3906      -42278976       987.03077      987.03077      987.03077      2006.4846      2993.5154      2006.4846      2993.5154      2006.4846      2993.5154      9.6159473e+08  0.5            11609700       35.25596       4372.5183      8745.0564      0.070653231  
  22809600   304.94207      2.0603233     -42279942       0.65975364     908.06542     -42279034       986.99369      986.99369      986.99369      2006.5032      2993.4968      2006.5032      2993.4968      2006.5032      2993.4968      9.6148637e+08  0.5            11609800       35.279101      4321.3972      8642.7914      0.047101606  
  22809800   304.62548      0.33685996    -42280002       0.6597141      907.12265     -42279095       987.01341      987.01341      987.01341      2006.4933      2993.5067      2006.4933      2993.5067      2006.4933      2993.5067      9.61544e+08    0.5            11609900       35.302481      4277.1867      8554.369       0.023550689  
  22810000   304.40466      0.92617294    -42280059       0.65974028     906.46508     -42279153       987.00035      987.00035      987.00035      2006.4998      2993.5002      2006.4998      2993.5002      2006.4998      2993.5002      9.6150584e+08  0.5            11610000       35.325734      4300.5011      8601.013       0            
Loop time of 35.3258 on 4 procs for 300000 steps with 1000 atoms

Performance: 366.871 ns/day, 0.065 hours/ns, 8492.382 timesteps/s
98.1% CPU use with 4 MPI tasks x no OpenMP threads

MPI task timing breakdown:
Section |  min time  |  avg time  |  max time  |%varavg| %total
---------------------------------------------------------------
Pair    | 1.3412     | 10.633     | 20.067     | 203.7 | 30.10
Neigh   | 0.0026637  | 0.017505   | 0.031643   |   7.8 |  0.05
Comm    | 7.1299     | 16.248     | 25.322     | 159.8 | 46.00
Output  | 0.065261   | 0.072831   | 0.093279   |   4.4 |  0.21
Modify  | 5.3892     | 6.2678     | 6.9435     |  22.9 | 17.74
Other   |            | 2.087      |            |       |  5.91

Nlocal:            250 ave         417 max          55 min
Histogram: 1 0 0 0 0 1 1 0 0 1
Nghost:            365 ave         422 max         331 min
Histogram: 2 0 0 0 1 0 0 0 0 1
Neighs:         1313.5 ave        2526 max         105 min
Histogram: 1 0 0 0 1 1 0 0 0 1

Total # of neighbors = 5254
Ave neighs/atom = 5.254
Neighbor list builds = 108
Dangerous builds = 21

# run_style
run_style verlet

# write restart
write_restart ${write_res}
write_restart ./pgnpmf/28/equpmf32.res
System init for write_restart ...
Generated 0 of 1 mixed pair_coeff terms from geometric mixing rule

Total wall time: 0:01:17
