LAMMPS (23 Jun 2022 - Update 1)
# Read restart
read_restart ${read_res}
read_restart ./pgnpmf/28/equpmf23.res
Reading restart file ...
  restart file = 23 Jun 2022, LAMMPS = 23 Jun 2022
  restoring atom style atomic from restart
  orthogonal box = (1954.959 1954.959 1954.959) to (3045.041 3045.041 3045.041)
  2 by 1 by 2 MPI processor grid
  restoring pair style table from restart
  1000 atoms
  read_restart CPU = 0.004 seconds

# Settings

pair_style table spline 9941

pair_coeff 1 1 ./pgnpmf/N20.txt DE_GNP 75.6
pair_coeff 2 2 ./pgnpmf/N100.txt DE_GNP 115.92
WARNING: 3 of 9941 force values in table DE_GNP are inconsistent with -dE/dr.
WARNING:  Should only be flagged at inflection points (../pair_table.cpp:463)
pair_coeff 1 2 ./pgnpmf/mixed_potential.txt DE_GNP 95.66
WARNING: 1562 of 9941 force values in table DE_GNP are inconsistent with -dE/dr.
WARNING:  Should only be flagged at inflection points (../pair_table.cpp:463)

#Neigh_list Calc Frequency

neigh_modify delay 0 every 1 check yes

# Saving Frequency (50 frames)

variable ts_save equal ${steps_equ}
variable ts_save equal 5000

# Dump
#dump 1 all custom ${ts_save} ./pgnpmf/${folder}/equilibration/trajectory/trajectory_${usic}_${trial}.equ.custom type x y z ix iy iz
#dump_modify 1 first no sort id
dump 2 all cfg 50000 ./pgnpmf/${folder}/equilibration/trajectory/dumpgen.tens_*.cfg mass type xs ys zs fx fy fz
dump 2 all cfg 50000 ./pgnpmf/28/equilibration/trajectory/dumpgen.tens_*.cfg mass type xs ys zs fx fy fz
dump_modify 2 element N20 N100

# thermo_style
thermo_style custom step temp press pe density ke etotal lx ly lz xlo xhi ylo yhi zlo zhi vol dt time cpu tpcpu spcpu cpuremain

# run info
timestep ${ts}
timestep 0.5
thermo 200

# fix

fix 1 all momentum 1000 linear 1 1 1 angular
variable T equal ${temp}
variable T equal 300
fix 2 all nvt temp ${T} 370000 100.0
fix 2 all nvt temp 300 370000 100.0

run 100000
Generated 0 of 1 mixed pair_coeff terms from geometric mixing rule
Unused restart file global fix info:
  fix style: npt, fix ID: 5
Neighbor list info ...
  update every 1 steps, delay 0 steps, check yes
  max neighbors/atom: 2000, page size: 100000
  master list distance cutoff = 117.92
  ghost atom cutoff = 117.92
  binsize = 58.96, bins = 19 19 19
  1 neighbor lists, perpetual/occasional/extra = 1 0 0
  (1) pair table, perpetual
      attributes: half, newton on
      pair build: half/bin/atomonly/newton
      stencil: half/bin/3d
      bin: standard
Per MPI rank memory allocation (min/avg/max) = 3.08 | 3.081 | 3.083 Mbytes
   Step          Temp          Press          PotEng        Density         KinEng         TotEng           Lx             Ly             Lz            Xlo            Xhi            Ylo            Yhi            Zlo            Zhi           Volume           Dt            Time           CPU           T/CPU          S/CPU         CPULeft    
  16510000   309.02717      0.54893171    -38357818       0.48971953     920.23013     -38356898       1090.082       1090.082       1090.082       1954.959       3045.041       1954.959       3045.041       1954.959       3045.041       1.2953213e+09  0.5            8460000        0              0              0              0            
  16510200   405.54296      0.29790716    -38357937       0.48971953     1207.6377     -38356730       1090.082       1090.082       1090.082       1954.959       3045.041       1954.959       3045.041       1954.959       3045.041       1.2953213e+09  0.5            8460100        0.017578316    5688.5844      11376.59       8.7728292    
  16510400   612.77348      0.0090166042  -38358080       0.48971953     1824.7348     -38356256       1090.082       1090.082       1090.082       1954.959       3045.041       1954.959       3045.041       1954.959       3045.041       1.2953213e+09  0.5            8460200        0.035608203    5546.3858      11092.751      8.8670334    
  16510600   963.51912     -0.33106426    -38358259       0.48971953     2869.1954     -38355390       1090.082       1090.082       1090.082       1954.959       3045.041       1954.959       3045.041       1954.959       3045.041       1.2953213e+09  0.5            8460300        0.053913356    5462.9241      10925.849      8.9320595    
  16510800   1523.0989     -0.73551023    -38358484       0.48971953     4535.5283     -38353949       1090.082       1090.082       1090.082       1954.959       3045.041       1954.959       3045.041       1954.959       3045.041       1.2953213e+09  0.5            8460400        0.071328486    5742.1591      11484.355      8.8450193    
  16511000   2366.4118     -1.0942314     -38351388       0.48971953     7046.7703     -38344341       1090.082       1090.082       1090.082       1954.959       3045.041       1954.959       3045.041       1954.959       3045.041       1.2953213e+09  0.5            8460500        0.089452469    5517.5059      11034.977      8.8560499    
  16511200   3538.5121     -1.6193454     -38351735       0.48971953     10537.085     -38341198       1090.082       1090.082       1090.082       1954.959       3045.041       1954.959       3045.041       1954.959       3045.041       1.2953213e+09  0.5            8460600        0.10733683     5591.5024      11183.012      8.8375967    
  16511400   4965.9913     -2.1833148     -38352147       0.48971953     14787.874     -38337360       1090.082       1090.082       1090.082       1954.959       3045.041       1954.959       3045.041       1954.959       3045.041       1.2953213e+09  0.5            8460700        0.12508464     5634.5301      11269.101      8.8096848    
  16511600   6363.9464     -2.9879247     -38352622       0.48971953     18950.746     -38333671       1090.082       1090.082       1090.082       1954.959       3045.041       1954.959       3045.041       1954.959       3045.041       1.2953213e+09  0.5            8460800        0.14294022     5600.4974      11201.029      8.790954     
  16511800   7287.2765     -3.9476417     -38353144       0.48971953     21700.265     -38331444       1090.082       1090.082       1090.082       1954.959       3045.041       1954.959       3045.041       1954.959       3045.041       1.2953213e+09  0.5            8460900        0.16122304     5469.5978      10939.135      8.7957395    
  16512000   7636.1006     -5.034396      -38353682       0.48971953     22739.004     -38330943       1090.082       1090.082       1090.082       1954.959       3045.041       1954.959       3045.041       1954.959       3045.041       1.2953213e+09  0.5            8461000        0.17932378     5524.6525      11049.315      8.7869767    
  16512200   8086.6659     -5.9414202     -38354223       0.48971953     24080.71      -38330142       1090.082       1090.082       1090.082       1954.959       3045.041       1954.959       3045.041       1954.959       3045.041       1.2953213e+09  0.5            8461100        0.19739096     5534.8886      11069.786      8.7750246    
  16512400   9120.8695     -6.877811      -38354781       0.48971953     27160.392     -38327620       1090.082       1090.082       1090.082       1954.959       3045.041       1954.959       3045.041       1954.959       3045.041       1.2953213e+09  0.5            8461200        0.21525684     5597.2814      11194.554      8.7538699    
  16512600   10229.012     -8.0233269     -38362746       0.48971953     30460.252     -38332285       1090.082       1090.082       1090.082       1954.959       3045.041       1954.959       3045.041       1954.959       3045.041       1.2953213e+09  0.5            8461300        0.23317158     5581.9975      11163.979      8.7350507    
  16512800   10808.579     -9.0122784     -38363360       0.48971953     32186.104     -38331174       1090.082       1090.082       1090.082       1954.959       3045.041       1954.959       3045.041       1954.959       3045.041       1.2953213e+09  0.5            8461400        0.25124656     5532.5087      11051.192      8.7227188    
  16513000   11125.715     -9.9650775     -38363967       0.48971953     33130.479     -38330836       1090.082       1090.082       1090.082       1954.959       3045.041       1954.959       3045.041       1954.959       3045.041       1.2953213e+09  0.5            8461500        0.26922926     5560.9058      11135.781      8.7051536    
  16513200   11898.351     -10.80338      -38364576       0.48971953     35431.259     -38329145       1090.082       1090.082       1090.082       1954.959       3045.041       1954.959       3045.041       1954.959       3045.041       1.2953213e+09  0.5            8461600        0.28726644     5544.0796      11088.214      8.6898778    
  16513400   13077.655     -11.780867     -38365196       0.48971953     38943.023     -38326253       1090.082       1090.082       1090.082       1954.959       3045.041       1954.959       3045.041       1954.959       3045.041       1.2953213e+09  0.5            8461700        0.30558309     5459.5193      10919.036      8.6822192    
  16513600   13921.937     -12.793816     -38373206       0.48971953     41457.151     -38331749       1090.082       1090.082       1090.082       1954.959       3045.041       1954.959       3045.041       1954.959       3045.041       1.2953213e+09  0.5            8461800        0.32376441     5500.1531      11000.342      8.6697482    
  16513800   14242.363     -13.643435     -38373828       0.48971953     42411.326     -38331416       1090.082       1090.082       1090.082       1954.959       3045.041       1954.959       3045.041       1954.959       3045.041       1.2953213e+09  0.5            8461900        0.34137846     5677.3063      11354.582      8.6423209    
  16514000   14740.856     -14.369843     -38372537       0.48971953     43895.753     -38328641       1090.082       1090.082       1090.082       1954.959       3045.041       1954.959       3045.041       1954.959       3045.041       1.2953213e+09  0.5            8462000        0.35928794     5583.6082      11167.201      8.622966     
  16514200   15836.337     -15.176943     -38373130       0.48971953     47157.908     -38325972       1090.082       1090.082       1090.082       1954.959       3045.041       1954.959       3045.041       1954.959       3045.041       1.2953213e+09  0.5            8462100        0.37737656     5528.3588      11056.732      8.6078308    
  16514400   16934.31      -16.064742     -38373712       0.48971953     50427.482     -38323284       1090.082       1090.082       1090.082       1954.959       3045.041       1954.959       3045.041       1954.959       3045.041       1.2953213e+09  0.5            8462200        0.39582209     5421.3521      10842.706      8.600184     
  16514600   17420.761     -16.962416     -38376174       0.48971953     51876.052     -38324298       1090.082       1090.082       1090.082       1954.959       3045.041       1954.959       3045.041       1954.959       3045.041       1.2953213e+09  0.5            8462300        0.41405159     5485.6335      10971.276      8.5871144    
  16514800   17708.682     -17.755616     -38376708       0.48971953     52733.431     -38323974       1090.082       1090.082       1090.082       1954.959       3045.041       1954.959       3045.041       1954.959       3045.041       1.2953213e+09  0.5            8462400        0.43216391     5521.0892      11042.164      8.5712948    
  16515000   18564.443     -18.512946     -38377208       0.48971953     55281.743     -38321927       1090.082       1090.082       1090.082       1954.959       3045.041       1954.959       3045.041       1954.959       3045.041       1.2953213e+09  0.5            8462500        0.44966628     5713.5191      11427.032      8.5437012    
  16515200   19806.266     -19.224345     -38377682       0.48971953     58979.678     -38318703       1090.082       1090.082       1090.082       1954.959       3045.041       1954.959       3045.041       1954.959       3045.041       1.2953213e+09  0.5            8462600        0.46788593     5488.5986      10977.179      8.52996      
  16515400   20581.978     -20.090307     -38378121       0.48971953     61289.617     -38316831       1090.082       1090.082       1090.082       1954.959       3045.041       1954.959       3045.041       1954.959       3045.041       1.2953213e+09  0.5            8462700        0.48584546     5568.0593      11136.135      8.511331     
  16515600   20816.509     -20.92581      -38378518       0.48971953     61988.008     -38316530       1090.082       1090.082       1090.082       1954.959       3045.041       1954.959       3045.041       1954.959       3045.041       1.2953213e+09  0.5            8462800        0.5038245      5562.0233      11124.052      8.4930782    
  16515800   21358.048     -21.584852     -38378864       0.48971953     63600.62      -38315263       1090.082       1090.082       1090.082       1954.959       3045.041       1954.959       3045.041       1954.959       3045.041       1.2953213e+09  0.5            8462900        0.52188174     5537.9633      11075.941      8.4761143    
  16516000   22552.622     -21.978429     -38379164       0.48971953     67157.857     -38312006       1090.082       1090.082       1090.082       1954.959       3045.041       1954.959       3045.041       1954.959       3045.041       1.2953213e+09  0.5            8463000        0.5397908      5583.7429      11167.452      8.4567586    
  16516200   23635.5       -22.524241     -38381307       0.48971953     70382.483     -38310925       1090.082       1090.082       1090.082       1954.959       3045.041       1954.959       3045.041       1954.959       3045.041       1.2953213e+09  0.5            8463100        0.55821108     5428.8071      10857.627      8.4452275    
  16516400   24018.632     -23.278394     -38388879       0.48971953     71523.384     -38317356       1090.082       1090.082       1090.082       1954.959       3045.041       1954.959       3045.041       1954.959       3045.041       1.2953213e+09  0.5            8463200        0.57557861     5757.8758      11515.763      8.4178687    
  16516600   24298.151     -23.971555     -38381650       0.48971953     72355.743     -38309294       1090.082       1090.082       1090.082       1954.959       3045.041       1954.959       3045.041       1954.959       3045.041       1.2953213e+09  0.5            8463300        0.59341886     5605.3089      11210.601      8.3978065    
  16516800   25255.522     -24.516782     -38381746       0.48971953     75206.631     -38306540       1090.082       1090.082       1090.082       1954.959       3045.041       1954.959       3045.041       1954.959       3045.041       1.2953213e+09  0.5            8463400        0.61137278     5569.8133      11139.628      8.3794339    
  16517000   26526.697     -24.999589     -38381780       0.48971953     78991.975     -38302788       1090.082       1090.082       1090.082       1954.959       3045.041       1954.959       3045.041       1954.959       3045.041       1.2953213e+09  0.5            8463500        0.62934905     5562.8605      11125.696      8.3613832    
  16517200   27213.454     -25.425287     -38374375       0.48971953     81037.019     -38293338       1090.082       1090.082       1090.082       1954.959       3045.041       1954.959       3045.041       1954.959       3045.041       1.2953213e+09  0.5            8463600        0.64730446     5569.3598      11138.755      8.3430645    
  16517400   27397.997     -26.018622     -38374290       0.48971953     81586.558     -38292703       1090.082       1090.082       1090.082       1954.959       3045.041       1954.959       3045.041       1954.959       3045.041       1.2953213e+09  0.5            8463700        0.66536413     5537.2227      11074.46       8.3260705    
  16517600   28017.369     -26.572212     -38381522       0.48971953     83430.941     -38298091       1090.082       1090.082       1090.082       1954.959       3045.041       1954.959       3045.041       1954.959       3045.041       1.2953213e+09  0.5            8463800        0.6831546      5620.9661      11241.924      8.3057492    
  16517800   29283.805     -26.990337     -38388701       0.48971953     87202.172     -38301499       1090.082       1090.082       1090.082       1954.959       3045.041       1954.959       3045.041       1954.959       3045.041       1.2953213e+09  0.5            8463900        0.70108039     5578.5606      11157.141      8.2871557    
  16518000   30301.986     -27.327341     -38388441       0.48971953     90234.139     -38298207       1090.082       1090.082       1090.082       1954.959       3045.041       1954.959       3045.041       1954.959       3045.041       1.2953213e+09  0.5            8464000        0.71881936     5637.3208      11274.595      8.2664485    
  16518200   30604.975     -27.965019     -38386231       0.48971953     91136.39      -38295094       1090.082       1090.082       1090.082       1954.959       3045.041       1954.959       3045.041       1954.959       3045.041       1.2953213e+09  0.5            8464100        0.7366925      5594.9903      11190.019      8.2473863    
  16518400   30929.583     -28.248127     -38376599       0.48971953     92103.017     -38284496       1090.082       1090.082       1090.082       1954.959       3045.041       1954.959       3045.041       1954.959       3045.041       1.2953213e+09  0.5            8464200        0.75503049     5453.1282      10906.24       8.2334527    
  16518600   31984.321     -28.5317       -38376197       0.48971953     95243.847     -38280954       1090.082       1090.082       1090.082       1954.959       3045.041       1954.959       3045.041       1954.959       3045.041       1.2953213e+09  0.5            8464300        0.772758       5640.9676      11281.917      8.212824     
  16518800   33232.935     -28.798179     -38368384       0.48971953     98962.005     -38269422       1090.082       1090.082       1090.082       1954.959       3045.041       1954.959       3045.041       1954.959       3045.041       1.2953213e+09  0.5            8464400        0.79047971     5642.797       11285.604      8.1922673    
  16519000   33821.162     -29.306339     -38367918       0.48971953     100713.64     -38267204       1090.082       1090.082       1090.082       1954.959       3045.041       1954.959       3045.041       1954.959       3045.041       1.2953213e+09  0.5            8464500        0.8089032      5427.8412      10855.672      8.1789338    
  16519200   34010.908     -29.892475     -38367443       0.48971953     101278.68     -38266164       1090.082       1090.082       1090.082       1954.959       3045.041       1954.959       3045.041       1954.959       3045.041       1.2953213e+09  0.5            8464600        0.8277736      5299.3224      10598.664      8.1697887    
  16519400   34744.506     -30.599359     -38374365       0.48971953     103463.21     -38270902       1090.082       1090.082       1090.082       1954.959       3045.041       1954.959       3045.041       1954.959       3045.041       1.2953213e+09  0.5            8464700        0.84547479     5649.3374      11298.691      8.1489586    
  16519600   36036.554     -31.160013     -38379412       0.48971953     107310.7      -38272101       1090.082       1090.082       1090.082       1954.959       3045.041       1954.959       3045.041       1954.959       3045.041       1.2953213e+09  0.5            8464800        0.86393701     5416.4473      10832.882      8.1354287    
  16519800   36944.799     -31.496559     -38378983       0.48971953     110015.3      -38268968       1090.082       1090.082       1090.082       1954.959       3045.041       1954.959       3045.041       1954.959       3045.041       1.2953213e+09  0.5            8464900        0.8827814      5306.6278      10613.242      8.1252129    
  16520000   37192.621     -31.968017     -38371199       0.48971953     110753.27     -38260445       1090.082       1090.082       1090.082       1954.959       3045.041       1954.959       3045.041       1954.959       3045.041       1.2953213e+09  0.5            8465000        0.90075875     5562.5647      11125.126      8.1068489    
  16520200   37610.731     -32.547896     -38370817       0.48971953     111998.33     -38258819       1090.082       1090.082       1090.082       1954.959       3045.041       1954.959       3045.041       1954.959       3045.041       1.2953213e+09  0.5            8465100        0.91909467     5453.7703      10907.563      8.091657     
  16520400   38763.593     -33.130993     -38370455       0.48971953     115431.36     -38255024       1090.082       1090.082       1090.082       1954.959       3045.041       1954.959       3045.041       1954.959       3045.041       1.2953213e+09  0.5            8465200        0.93727172     5501.4582      11002.895      8.0749753    
  16520600   39949.761     -33.615212     -38362757       0.48971953     118963.57     -38243793       1090.082       1090.082       1090.082       1954.959       3045.041       1954.959       3045.041       1954.959       3045.041       1.2953213e+09  0.5            8465300        0.95471003     5734.4852      11468.991      8.0520069    
  16520800   40418.194     -34.344261     -38362464       0.48971953     120358.48     -38242105       1090.082       1090.082       1090.082       1954.959       3045.041       1954.959       3045.041       1954.959       3045.041       1.2953213e+09  0.5            8465400        0.97307935     5443.8522      10887.703      8.0369335    
  16521000   40614.236     -35.283437     -38376954       0.48971953     120942.26     -38256012       1090.082       1090.082       1090.082       1954.959       3045.041       1954.959       3045.041       1954.959       3045.041       1.2953213e+09  0.5            8465500        0.99111199     5545.4991      11091.027      8.0190146    
  16521200   41500.382     -35.94228      -38376733       0.48971953     123581.05     -38253152       1090.082       1090.082       1090.082       1954.959       3045.041       1954.959       3045.041       1954.959       3045.041       1.2953213e+09  0.5            8465600        1.0085986      5718.6489      11437.296      7.9967637    
  16521400   42854.301     -36.704442     -38383909       0.48971953     127612.79     -38256296       1090.082       1090.082       1090.082       1954.959       3045.041       1954.959       3045.041       1954.959       3045.041       1.2953213e+09  0.5            8465700        1.0269624      5445.5126      10891.009      7.9814978    
  16521600   43624.15      -37.418165     -38383730       0.48971953     129905.27     -38253824       1090.082       1090.082       1090.082       1954.959       3045.041       1954.959       3045.041       1954.959       3045.041       1.2953213e+09  0.5            8465800        1.044379       5741.6323      11483.282      7.9589054    
  16521800   43744.671     -37.999168     -38383547       0.48971953     130264.16     -38253282       1090.082       1090.082       1090.082       1954.959       3045.041       1954.959       3045.041       1954.959       3045.041       1.2953213e+09  0.5            8465900        1.0621851      5616.0176      11232.029      7.9394014    
  16522000   44319.722     -38.621177     -38390730       0.48971953     131976.56     -38258754       1090.082       1090.082       1090.082       1954.959       3045.041       1954.959       3045.041       1954.959       3045.041       1.2953213e+09  0.5            8466000        1.080243       5537.7857      11075.534      7.9217989    
  16522200   46089.029     -39.205704     -38390519       0.48971953     137245.26     -38253274       1090.082       1090.082       1090.082       1954.959       3045.041       1954.959       3045.041       1954.959       3045.041       1.2953213e+09  0.5            8466100        1.0983342      5527.5493      11055.144      7.9044212    
  16522400   47124.51      -39.790904     -38390274       0.48971953     140328.74     -38249945       1090.082       1090.082       1090.082       1954.959       3045.041       1954.959       3045.041       1954.959       3045.041       1.2953213e+09  0.5            8466200        1.1166445      5461.4097      10922.813      7.8885691    
  16522600   46228.865     -40.742801     -38389989       0.48971953     137661.67     -38252328       1090.082       1090.082       1090.082       1954.959       3045.041       1954.959       3045.041       1954.959       3045.041       1.2953213e+09  0.5            8466300        1.1340951      5730.4787      11460.92       7.8666748    
  16522800   44667.818     -41.586498     -38387786       0.48971953     133013.13     -38254773       1090.082       1090.082       1090.082       1954.959       3045.041       1954.959       3045.041       1954.959       3045.041       1.2953213e+09  0.5            8466400        1.1518924      5618.8251      11237.667      7.8472822    
  16523000   47515.733     -42.077523     -38387434       0.48971953     141493.74     -38245940       1090.082       1090.082       1090.082       1954.959       3045.041       1954.959       3045.041       1954.959       3045.041       1.2953213e+09  0.5            8466500        1.1700883      5495.7387      10991.485      7.830606     
  16523200   49273.406     -42.924648     -38392508       0.48971953     146727.79     -38245780       1090.082       1090.082       1090.082       1954.959       3045.041       1954.959       3045.041       1954.959       3045.041       1.2953213e+09  0.5            8466600        1.1880814      5557.6872      11115.382      7.8125493    
  16523400   49988.265     -43.864999     -38406819       0.48971953     148856.52     -38257962       1090.082       1090.082       1090.082       1954.959       3045.041       1954.959       3045.041       1954.959       3045.041       1.2953213e+09  0.5            8466700        1.2064084      5456.4393      10912.828      7.7966539    
  16523600   50712.65      -44.485767     -38413689       0.48971953     151013.61     -38262675       1090.082       1090.082       1090.082       1954.959       3045.041       1954.959       3045.041       1954.959       3045.041       1.2953213e+09  0.5            8466800        1.2243339      5578.6403      11157.294      7.7781354    
  16523800   52256.707     -44.787381     -38413127       0.48971953     155611.55     -38257516       1090.082       1090.082       1090.082       1954.959       3045.041       1954.959       3045.041       1954.959       3045.041       1.2953213e+09  0.5            8466900        1.2417979      5726.0723      11452.188      7.756751     
  16524000   53735.965     -45.467068     -38412514       0.48971953     160016.53     -38252498       1090.082       1090.082       1090.082       1954.959       3045.041       1954.959       3045.041       1954.959       3045.041       1.2953213e+09  0.5            8467000        1.2601068      5461.8213      10923.603      7.7406699    
  16524200   52596.262     -46.278046     -38419233       0.48971953     156622.69     -38262611       1090.082       1090.082       1090.082       1954.959       3045.041       1954.959       3045.041       1954.959       3045.041       1.2953213e+09  0.5            8467100        1.2781952      5528.4132      11056.851      7.7231924    
  16524400   50367.869     -47.081054     -38416674       0.48971953     149986.91     -38266687       1090.082       1090.082       1090.082       1954.959       3045.041       1954.959       3045.041       1954.959       3045.041       1.2953213e+09  0.5            8467200        1.2962264      5545.9318      11091.874      7.7053587    
  16524600   53201         -47.507363     -38416006       0.48971953     158423.49     -38257583       1090.082       1090.082       1090.082       1954.959       3045.041       1954.959       3045.041       1954.959       3045.041       1.2953213e+09  0.5            8467300        1.3145306      5463.2369      10926.483      7.6891161    
  16524800   55004.165     -48.107729     -38415336       0.48971953     163793.01     -38251543       1090.082       1090.082       1090.082       1954.959       3045.041       1954.959       3045.041       1954.959       3045.041       1.2953213e+09  0.5            8467400        1.3320151      5719.3586      11438.723      7.668099     
  16525000   55761.275     -48.821254     -38414677       0.48971953     166047.55     -38248629       1090.082       1090.082       1090.082       1954.959       3045.041       1954.959       3045.041       1954.959       3045.041       1.2953213e+09  0.5            8467500        1.3501059      5527.6468      11055.252      7.6506129    
  16525200   56814.952     -49.16471      -38412123       0.48971953     169185.22     -38242937       1090.082       1090.082       1090.082       1954.959       3045.041       1954.959       3045.041       1954.959       3045.041       1.2953213e+09  0.5            8467600        1.3684854      5440.8601      10881.724      7.6347204    
  16525400   58365.752     -49.702391     -38420764       0.48971953     173803.24     -38246961       1090.082       1090.082       1090.082       1954.959       3045.041       1954.959       3045.041       1954.959       3045.041       1.2953213e+09  0.5            8467700        1.3859026      5741.4417      11482.909      7.6134771    
  16525600   59599.081     -50.056624     -38420151       0.48971953     177475.88     -38242675       1090.082       1090.082       1090.082       1954.959       3045.041       1954.959       3045.041       1954.959       3045.041       1.2953213e+09  0.5            8467800        1.4039312      5546.7464      11093.447      7.5956397    
  16525800   58533.531     -50.633939     -38421466       0.48971953     174302.86     -38247163       1090.082       1090.082       1090.082       1954.959       3045.041       1954.959       3045.041       1954.959       3045.041       1.2953213e+09  0.5            8467900        1.4218873      5569.1511      11138.325      7.5774111    
  16526000   56649.749     -51.38299      -38413563       0.48971953     168693.28     -38244870       1090.082       1090.082       1090.082       1954.959       3045.041       1954.959       3045.041       1954.959       3045.041       1.2953213e+09  0.5            8468000        1.4399263      5543.5264      11087.038      7.5596245    
  16526200   59496.19      -51.675822     -38413083       0.48971953     177169.49     -38235914       1090.082       1090.082       1090.082       1954.959       3045.041       1954.959       3045.041       1954.959       3045.041       1.2953213e+09  0.5            8468100        1.4582448      5458.9798      10917.979      7.5432775    
  16526400   61628.804     -52.127081     -38414510       0.48971953     183520.06     -38230990       1090.082       1090.082       1090.082       1954.959       3045.041       1954.959       3045.041       1954.959       3045.041       1.2953213e+09  0.5            8468200        1.4762194      5563.3894      11126.786      7.5251293    
  16526600   61518.95      -52.537294     -38406683       0.48971953     183192.93     -38223490       1090.082       1090.082       1090.082       1954.959       3045.041       1954.959       3045.041       1954.959       3045.041       1.2953213e+09  0.5            8468300        1.4942711      5539.6567      11079.325      7.5073728    
  16526800   61728.004     -53.423722     -38432167       0.48971953     183815.45     -38248351       1090.082       1090.082       1090.082       1954.959       3045.041       1954.959       3045.041       1954.959       3045.041       1.2953213e+09  0.5            8468400        1.5125004      5485.6618      10971.285      7.4904895    
  16527000   64776.522     -53.70953      -38424356       0.48971953     192893.42     -38231463       1090.082       1090.082       1090.082       1954.959       3045.041       1954.959       3045.041       1954.959       3045.041       1.2953213e+09  0.5            8468500        1.5299809      5720.6458      11441.306      7.4699179    
  16527200   66071.268     -54.182276     -38416498       0.48971953     196748.95     -38219749       1090.082       1090.082       1090.082       1954.959       3045.041       1954.959       3045.041       1954.959       3045.041       1.2953213e+09  0.5            8468600        1.5483148      5454.4054      10908.821      7.4535259    
  16527400   63080.098     -55.307165     -38430751       0.48971953     187841.76     -38242909       1090.082       1090.082       1090.082       1954.959       3045.041       1954.959       3045.041       1954.959       3045.041       1.2953213e+09  0.5            8468700        1.5664118      5525.7573      11051.512      7.4359651    
  16527600   62117.193     -55.607064     -38422847       0.48971953     184974.4      -38237873       1090.082       1090.082       1090.082       1954.959       3045.041       1954.959       3045.041       1954.959       3045.041       1.2953213e+09  0.5            8468800        1.5838714      5727.5169      11455.028      7.4154082    
  16527800   67661.216     -55.467773     -38424166       0.48971953     201483.55     -38222682       1090.082       1090.082       1090.082       1954.959       3045.041       1954.959       3045.041       1954.959       3045.041       1.2953213e+09  0.5            8468900        1.6016839      5614.0288      11228.075      7.3965505    
  16528000   67304.204     -55.763229     -38416131       0.48971953     200420.43     -38215711       1090.082       1090.082       1090.082       1954.959       3045.041       1954.959       3045.041       1954.959       3045.041       1.2953213e+09  0.5            8469000        1.6195897      5584.7944      11169.575      7.378141     
  16528200   65995.45      -56.375584     -38415392       0.48971953     196523.18     -38218869       1090.082       1090.082       1090.082       1954.959       3045.041       1954.959       3045.041       1954.959       3045.041       1.2953213e+09  0.5            8469100        1.6379147      5457.0015      10914.006      7.3616268    
  16528400   67460.672     -56.430631     -38407208       0.48971953     200886.36     -38206321       1090.082       1090.082       1090.082       1954.959       3045.041       1954.959       3045.041       1954.959       3045.041       1.2953213e+09  0.5            8469200        1.6552882      5755.9191      11511.83       7.340853     
  16528600   70470.527     -56.548243     -38406303       0.48971953     209849.2      -38196453       1090.082       1090.082       1090.082       1954.959       3045.041       1954.959       3045.041       1954.959       3045.041       1.2953213e+09  0.5            8469300        1.6735044      5489.5926      10979.181      7.323841     
  16528800   70341.187     -56.413973     -38405301       0.48971953     209464.04     -38195837       1090.082       1090.082       1090.082       1954.959       3045.041       1954.959       3045.041       1954.959       3045.041       1.2953213e+09  0.5            8469400        1.6913848      5592.7292      11185.455      7.3053527    
  16529000   68840.589     -56.898046     -38404216       0.48971953     204995.52     -38199221       1090.082       1090.082       1090.082       1954.959       3045.041       1954.959       3045.041       1954.959       3045.041       1.2953213e+09  0.5            8469500        1.7102239      5308.0785      10616.078      7.2909654    
  16529200   69415.085     -56.923493     -38401175       0.48971953     206706.27     -38194469       1090.082       1090.082       1090.082       1954.959       3045.041       1954.959       3045.041       1954.959       3045.041       1.2953213e+09  0.5            8469600        1.7285817      5447.3165      10894.724      7.2744574    
  16529400   73436.672     -56.741803     -38407312       0.48971953     218681.87     -38188631       1090.082       1090.082       1090.082       1954.959       3045.041       1954.959       3045.041       1954.959       3045.041       1.2953213e+09  0.5            8469700        1.7465788      5556.4239      11112.862      7.2564139    
  16529600   73785.83      -56.724355     -38398650       0.48971953     219721.6      -38178928       1090.082       1090.082       1090.082       1954.959       3045.041       1954.959       3045.041       1954.959       3045.041       1.2953213e+09  0.5            8469800        1.7648721      5466.505       10932.999      7.2395866    
  16529800   71999.57      -57.184525     -38397326       0.48971953     214402.42     -38182924       1090.082       1090.082       1090.082       1954.959       3045.041       1954.959       3045.041       1954.959       3045.041       1.2953213e+09  0.5            8469900        1.782385       5710.0681      11420.173      7.2195683    
  16530000   72353.734     -57.082844     -38395982       0.48971953     215457.06     -38180525       1090.082       1090.082       1090.082       1954.959       3045.041       1954.959       3045.041       1954.959       3045.041       1.2953213e+09  0.5            8470000        1.8006538      5473.7983      10947.544      7.2026246    
  16530200   76812.793     -56.851936     -38394583       0.48971953     228735.38     -38165847       1090.082       1090.082       1090.082       1954.959       3045.041       1954.959       3045.041       1954.959       3045.041       1.2953213e+09  0.5            8470100        1.8188001      5510.7753      11021.563      7.1851697    
  16530400   76500.072     -57.127243     -38400522       0.48971953     227804.15     -38172718       1090.082       1090.082       1090.082       1954.959       3045.041       1954.959       3045.041       1954.959       3045.041       1.2953213e+09  0.5            8470200        1.8370298      5485.5565      10971.141      7.1680269    
  16530600   74750.305     -57.398878     -38399098       0.48971953     222593.64     -38176504       1090.082       1090.082       1090.082       1954.959       3045.041       1954.959       3045.041       1954.959       3045.041       1.2953213e+09  0.5            8470300        1.8548041      5626.1016      11252.192      7.1491079    
  16530800   76570.406     -57.19494      -38405078       0.48971953     228013.59     -38177065       1090.082       1090.082       1090.082       1954.959       3045.041       1954.959       3045.041       1954.959       3045.041       1.2953213e+09  0.5            8470400        1.8731864      5440.0305      10880.064      7.1325255    
  16531000   80740.486     -57.104099     -38411046       0.48971953     240431.38     -38170615       1090.082       1090.082       1090.082       1954.959       3045.041       1954.959       3045.041       1954.959       3045.041       1.2953213e+09  0.5            8470500        1.8919017      5343.2076      10686.384      7.1171628    
  16531200   78789.439     -57.602476     -38417039       0.48971953     234621.5      -38182417       1090.082       1090.082       1090.082       1954.959       3045.041       1954.959       3045.041       1954.959       3045.041       1.2953213e+09  0.5            8470600        1.9096362      5638.7287      11277.476      7.09809      
  16531400   76875.985     -58.036374     -38415724       0.48971953     228923.56     -38186800       1090.082       1090.082       1090.082       1954.959       3045.041       1954.959       3045.041       1954.959       3045.041       1.2953213e+09  0.5            8470700        1.9277119      5532.288       11064.596      7.0802957    
  16531600   80630.494     -57.785423     -38412569       0.48971953     240103.84     -38172465       1090.082       1090.082       1090.082       1954.959       3045.041       1954.959       3045.041       1954.959       3045.041       1.2953213e+09  0.5            8470800        1.9456118      5586.6293      11173.254      7.0618581    
  16531800   83257.882     -57.388038     -38409435       0.48971953     247927.76     -38161507       1090.082       1090.082       1090.082       1954.959       3045.041       1954.959       3045.041       1954.959       3045.041       1.2953213e+09  0.5            8470900        1.9634914      5592.9644      11185.93       7.0433578    
  16532000   81098.92      -57.681219     -38415640       0.48971953     241498.74     -38174142       1090.082       1090.082       1090.082       1954.959       3045.041       1954.959       3045.041       1954.959       3045.041       1.2953213e+09  0.5            8471000        1.9818222      5455.2892      10910.518      7.0264688    
  16532200   80211.861     -58.253917     -38436694       0.48971953     238857.23     -38197836       1090.082       1090.082       1090.082       1954.959       3045.041       1954.959       3045.041       1954.959       3045.041       1.2953213e+09  0.5            8471100        1.9992612      5734.3093      11468.691      7.0064273    
  16532400   84437.564     -58.001833     -38435695       0.48971953     251440.65     -38184255       1090.082       1090.082       1090.082       1954.959       3045.041       1954.959       3045.041       1954.959       3045.041       1.2953213e+09  0.5            8471200        2.0176084      5450.3974      10900.781      6.9895796    
  16532600   86333.072     -58.03786      -38434728       0.48971953     257085.15     -38177642       1090.082       1090.082       1090.082       1954.959       3045.041       1954.959       3045.041       1954.959       3045.041       1.2953213e+09  0.5            8471300        2.0355062      5587.2767      11174.543      6.9711662    
  16532800   84297.62      -58.472509     -38441212       0.48971953     251023.92     -38190188       1090.082       1090.082       1090.082       1954.959       3045.041       1954.959       3045.041       1954.959       3045.041       1.2953213e+09  0.5            8471400        2.0533623      5600.344       11200.725      6.9526197    
  16533000   83754.333     -58.814846     -38447759       0.48971953     249406.1      -38198353       1090.082       1090.082       1090.082       1954.959       3045.041       1954.959       3045.041       1954.959       3045.041       1.2953213e+09  0.5            8471500        2.0711897      5609.3281      11218.6        6.9339907    
  16533200   86101.098     -58.595004     -38437707       0.48971953     256394.37     -38181313       1090.082       1090.082       1090.082       1954.959       3045.041       1954.959       3045.041       1954.959       3045.041       1.2953213e+09  0.5            8471600        2.0892266      5544.1924      11088.43       6.9160677    
  16533400   90109.549     -58.061479     -38438853       0.48971953     268330.85     -38170522       1090.082       1090.082       1090.082       1954.959       3045.041       1954.959       3045.041       1954.959       3045.041       1.2953213e+09  0.5            8471700        2.1074845      5477.071       10954.136      6.898867     
  16533600   93300.697     -57.774922     -38438115       0.48971953     277833.54     -38160282       1090.082       1090.082       1090.082       1954.959       3045.041       1954.959       3045.041       1954.959       3045.041       1.2953213e+09  0.5            8471800        2.1253303      5603.5732      11207.092      6.880314     
  16533800   89511.503     -58.280079     -38437380       0.48971953     266549.97     -38170830       1090.082       1090.082       1090.082       1954.959       3045.041       1954.959       3045.041       1954.959       3045.041       1.2953213e+09  0.5            8471900        2.1432404      5583.4561      11166.95       6.8619783    
  16534000   85503.721     -58.796378     -38444040       0.48971953     254615.48     -38189424       1090.082       1090.082       1090.082       1954.959       3045.041       1954.959       3045.041       1954.959       3045.041       1.2953213e+09  0.5            8472000        2.1614042      5505.4207      11010.783      6.8444543    
  16534200   88330.77      -58.593151     -38443325       0.48971953     263033.95     -38180291       1090.082       1090.082       1090.082       1954.959       3045.041       1954.959       3045.041       1954.959       3045.041       1.2953213e+09  0.5            8472100        2.1790205      5676.5851      11353.22       6.8252035    
  16534400   92009.049     -58.095532     -38442591       0.48971953     273987.24     -38168603       1090.082       1090.082       1090.082       1954.959       3045.041       1954.959       3045.041       1954.959       3045.041       1.2953213e+09  0.5            8472200        2.1968862      5597.3422      11194.693      6.8067524    
  16534600   91770.733     -58.022541     -38439951       0.48971953     273277.57     -38166674       1090.082       1090.082       1090.082       1954.959       3045.041       1954.959       3045.041       1954.959       3045.041       1.2953213e+09  0.5            8472300        2.2150744      5498.0387      10996.094      6.7892999    
  16534800   90216.577     -57.795672     -38439184       0.48971953     268649.56     -38170534       1090.082       1090.082       1090.082       1954.959       3045.041       1954.959       3045.041       1954.959       3045.041       1.2953213e+09  0.5            8472400        2.2325485      5722.7659      11445.534      6.7696699    
  16535000   91101.441     -57.223119     -38423613       0.48971953     271284.53     -38152329       1090.082       1090.082       1090.082       1954.959       3045.041       1954.959       3045.041       1954.959       3045.041       1.2953213e+09  0.5            8472500        2.250298       5633.9637      11267.92       6.7509007    
  16535200   96091.3       -56.798343     -38431997       0.48971953     286143.48     -38145854       1090.082       1090.082       1090.082       1954.959       3045.041       1954.959       3045.041       1954.959       3045.041       1.2953213e+09  0.5            8472600        2.2686942      5435.9038      10871.814      6.7340672    
  16535400   95781.108     -56.990545     -38438383       0.48971953     285219.78     -38153163       1090.082       1090.082       1090.082       1954.959       3045.041       1954.959       3045.041       1954.959       3045.041       1.2953213e+09  0.5            8472700        2.2861681      5722.8366      11445.686      6.7144999    
  16535600   92034.581     -56.965013     -38429922       0.48971953     274063.27     -38155859       1090.082       1090.082       1090.082       1954.959       3045.041       1954.959       3045.041       1954.959       3045.041       1.2953213e+09  0.5            8472800        2.3041669      5555.9053      11111.771      6.6964914    
  16535800   92662.724     -56.597373     -38428764       0.48971953     275933.77     -38152831       1090.082       1090.082       1090.082       1954.959       3045.041       1954.959       3045.041       1954.959       3045.041       1.2953213e+09  0.5            8472900        2.3215013      5768.9067      11537.829      6.6765718    
  16536000   99183.748     -55.685223     -38427485       0.48971953     295352.26     -38132133       1090.082       1090.082       1090.082       1954.959       3045.041       1954.959       3045.041       1954.959       3045.041       1.2953213e+09  0.5            8473000        2.3389666      5725.6372      11451.255      6.6570649    
  16536200   97860.832     -55.562242     -38433468       0.48971953     291412.85     -38142055       1090.082       1090.082       1090.082       1954.959       3045.041       1954.959       3045.041       1954.959       3045.041       1.2953213e+09  0.5            8473100        2.3566643      5650.4399      11300.886      6.6382438    
  16536400   95323.923     -55.372325     -38439352       0.48971953     283858.36     -38155494       1090.082       1090.082       1090.082       1954.959       3045.041       1954.959       3045.041       1954.959       3045.041       1.2953213e+09  0.5            8473200        2.3745819      5581.089       11162.208      6.6200526    
  16536600   97664.986     -54.999627     -38445151       0.48971953     290829.65     -38154322       1090.082       1090.082       1090.082       1954.959       3045.041       1954.959       3045.041       1954.959       3045.041       1.2953213e+09  0.5            8473300        2.3924719      5589.7168      11179.42       6.6017894    
  16536800   102604.77     -54.234976     -38443433       0.48971953     305539.49     -38137893       1090.082       1090.082       1090.082       1954.959       3045.041       1954.959       3045.041       1954.959       3045.041       1.2953213e+09  0.5            8473400        2.4105707      5525.2044      11050.376      6.5841024    
  16537000   100628.08     -53.951299     -38448962       0.48971953     299653.24     -38149309       1090.082       1090.082       1090.082       1954.959       3045.041       1954.959       3045.041       1954.959       3045.041       1.2953213e+09  0.5            8473500        2.4284961      5578.6919      11157.392      6.5659402    
  16537200   98668.534     -53.246874     -38454444       0.48971953     293818.04     -38160626       1090.082       1090.082       1090.082       1954.959       3045.041       1954.959       3045.041       1954.959       3045.041       1.2953213e+09  0.5            8473600        2.4464683      5564.1735      11128.367      6.5479061    
  16537400   101207.43     -52.193714     -38452479       0.48971953     301378.45     -38151101       1090.082       1090.082       1090.082       1954.959       3045.041       1954.959       3045.041       1954.959       3045.041       1.2953213e+09  0.5            8473700        2.4646103      5512.0377      11024.068      6.5303238    
  16537600   107014.53     -50.902697     -38450373       0.48971953     318670.99     -38131702       1090.082       1090.082       1090.082       1954.959       3045.041       1954.959       3045.041       1954.959       3045.041       1.2953213e+09  0.5            8473800        2.482052       5733.371       11466.765      6.5108962    
  16537800   104523.19     -50.307779     -38446277       0.48971953     311252.21     -38135025       1090.082       1090.082       1090.082       1954.959       3045.041       1954.959       3045.041       1954.959       3045.041       1.2953213e+09  0.5            8473900        2.5001933      5512.3084      11024.613      6.4933136    
  16538000   101773.91     -50.180196     -38444070       0.48971953     303065.33     -38141005       1090.082       1090.082       1090.082       1954.959       3045.041       1954.959       3045.041       1954.959       3045.041       1.2953213e+09  0.5            8474000        2.5181037      5583.3429      11166.661      6.4751298    
  16538200   102992.25     -49.500191     -38445642       0.48971953     306693.33     -38138948       1090.082       1090.082       1090.082       1954.959       3045.041       1954.959       3045.041       1954.959       3045.041       1.2953213e+09  0.5            8474100        2.5360773      5563.7423      11127.507      6.4571101    
  16538400   107955.43     -48.360566     -38443389       0.48971953     321472.82     -38121917       1090.082       1090.082       1090.082       1954.959       3045.041       1954.959       3045.041       1954.959       3045.041       1.2953213e+09  0.5            8474200        2.5545174      5422.9732      10845.941      6.4402676    
  16538600   107387.03     -47.628477     -38450379       0.48971953     319780.24     -38130598       1090.082       1090.082       1090.082       1954.959       3045.041       1954.959       3045.041       1954.959       3045.041       1.2953213e+09  0.5            8474300        2.57216        5668.0519      11336.117      6.4214122    
  16538800   105507.4      -47.155913     -38453629       0.48971953     314183.02     -38139446       1090.082       1090.082       1090.082       1954.959       3045.041       1954.959       3045.041       1954.959       3045.041       1.2953213e+09  0.5            8474400        2.5903401      5500.5219      11000.997      6.4039019    
  16539000   105898.81     -46.09863      -38436697       0.48971953     315348.57     -38121348       1090.082       1090.082       1090.082       1954.959       3045.041       1954.959       3045.041       1954.959       3045.041       1.2953213e+09  0.5            8474500        2.6085281      5498.1331      10996.253      6.3864023    
  16539200   107739.13     -45.163709     -38427204       0.48971953     320828.73     -38106375       1090.082       1090.082       1090.082       1954.959       3045.041       1954.959       3045.041       1954.959       3045.041       1.2953213e+09  0.5            8474600        2.626367       5605.7215      11211.484      6.3680462    
  16539400   109036.98     -44.51506      -38432529       0.48971953     324693.52     -38107836       1090.082       1090.082       1090.082       1954.959       3045.041       1954.959       3045.041       1954.959       3045.041       1.2953213e+09  0.5            8474700        2.6439393      5690.7996      11381.621      6.3490569    
  16539600   109247.59     -43.634236     -38430918       0.48971953     325320.67     -38105597       1090.082       1090.082       1090.082       1954.959       3045.041       1954.959       3045.041       1954.959       3045.041       1.2953213e+09  0.5            8474800        2.6617643      5610.09        11220.171      6.330688     
  16539800   109444.72     -43.173124     -38451178       0.48971953     325907.69     -38125270       1090.082       1090.082       1090.082       1954.959       3045.041       1954.959       3045.041       1954.959       3045.041       1.2953213e+09  0.5            8474900        2.6790697      5778.5495      11557.094      6.3111023    
  16540000   110423.56     -42.433692     -38442047       0.48971953     328822.5      -38113224       1090.082       1090.082       1090.082       1954.959       3045.041       1954.959       3045.041       1954.959       3045.041       1.2953213e+09  0.5            8475000        2.6971939      5517.4828      11034.929      6.2934578    
  16540200   112205.72     -41.180942     -38427531       0.48971953     334129.47     -38093401       1090.082       1090.082       1090.082       1954.959       3045.041       1954.959       3045.041       1954.959       3045.041       1.2953213e+09  0.5            8475100        2.7150512      5599.9539      11199.941      6.2751897    
  16540400   114715.97     -40.107834     -38431473       0.48971953     341604.58     -38089868       1090.082       1090.082       1090.082       1954.959       3045.041       1954.959       3045.041       1954.959       3045.041       1.2953213e+09  0.5            8475200        2.7331974      5510.8169      11021.632      6.2575885    
  16540600   120737.72     -38.380385     -38422635       0.48971953     359536.32     -38063099       1090.082       1090.082       1090.082       1954.959       3045.041       1954.959       3045.041       1954.959       3045.041       1.2953213e+09  0.5            8475300        2.7505238      5771.5301      11543.107      6.2381209    
  16540800   116556.6      -38.443583     -38421221       0.48971953     347085.66     -38074135       1090.082       1090.082       1090.082       1954.959       3045.041       1954.959       3045.041       1954.959       3045.041       1.2953213e+09  0.5            8475400        2.7683928      5596.2737      11192.534      6.2199004    
  16541000   111308.44     -38.333449     -38421801       0.48971953     331457.53     -38090343       1090.082       1090.082       1090.082       1954.959       3045.041       1954.959       3045.041       1954.959       3045.041       1.2953213e+09  0.5            8475500        2.7867044      5461.0091      10921.99       6.2026699    
  16541200   113746.59     -37.661811     -38427975       0.48971953     338717.91     -38089258       1090.082       1090.082       1090.082       1954.959       3045.041       1954.959       3045.041       1954.959       3045.041       1.2953213e+09  0.5            8475600        2.8046274      5579.4399      11158.885      6.1845678    
  16541400   117786.87     -36.883912     -38417548       0.48971953     350749.18     -38066799       1090.082       1090.082       1090.082       1954.959       3045.041       1954.959       3045.041       1954.959       3045.041       1.2953213e+09  0.5            8475700        2.8229097      5469.7572      10939.533      6.1672534    
  16541600   117976        -36.192733     -38402044       0.48971953     351312.39     -38050732       1090.082       1090.082       1090.082       1954.959       3045.041       1954.959       3045.041       1954.959       3045.041       1.2953213e+09  0.5            8475800        2.8407869      5593.7225      11187.427      6.1490499    
  16541800   116768.1      -35.455698     -38393590       0.48971953     347715.47     -38045875       1090.082       1090.082       1090.082       1954.959       3045.041       1954.959       3045.041       1954.959       3045.041       1.2953213e+09  0.5            8475900        2.8591054      5458.9795      10917.956      6.1317968    
  16542000   118621.66     -34.661358     -38385158       0.48971953     353235.05     -38031923       1090.082       1090.082       1090.082       1954.959       3045.041       1954.959       3045.041       1954.959       3045.041       1.2953213e+09  0.5            8476000        2.8779148      5316.4848      10632.959      6.1155737    
  16542200   126046.91     -33.574808     -38391472       0.48971953     375346.18     -38016126       1090.082       1090.082       1090.082       1954.959       3045.041       1954.959       3045.041       1954.959       3045.041       1.2953213e+09  0.5            8476100        2.8961513      5483.5291      10967.087      6.0981117    
  16542400   121250.05     -33.98414      -38397756       0.48971953     361061.95     -38036694       1090.082       1090.082       1090.082       1954.959       3045.041       1954.959       3045.041       1954.959       3045.041       1.2953213e+09  0.5            8476200        2.9144471      5465.709       10931.42       6.0807646    
  16542600   116846.44     -34.005429     -38381944       0.48971953     347948.74     -38033995       1090.082       1090.082       1090.082       1954.959       3045.041       1954.959       3045.041       1954.959       3045.041       1.2953213e+09  0.5            8476300        2.9323577      5583.2868      11166.561      6.0626091    
  16542800   119956.15     -33.158906     -38375431       0.48971953     357208.92     -38018222       1090.082       1090.082       1090.082       1954.959       3045.041       1954.959       3045.041       1954.959       3045.041       1.2953213e+09  0.5            8476400        2.9499098      5697.3064      11394.597      6.0437225    
  16543000   124095        -32.764731     -38381752       0.48971953     369533.72     -38012218       1090.082       1090.082       1090.082       1954.959       3045.041       1954.959       3045.041       1954.959       3045.041       1.2953213e+09  0.5            8476500        2.9678806      5564.5999      11129.153      6.0257016    
  16543200   123540.82     -32.897757     -38380696       0.48971953     367883.47     -38012812       1090.082       1090.082       1090.082       1954.959       3045.041       1954.959       3045.041       1954.959       3045.041       1.2953213e+09  0.5            8476600        2.985838       5568.7315      11137.52       6.0076544    
  16543400   122661.67     -32.604185     -38387019       0.48971953     365265.5      -38021753       1090.082       1090.082       1090.082       1954.959       3045.041       1954.959       3045.041       1954.959       3045.041       1.2953213e+09  0.5            8476700        3.0040905      5478.6733      10957.347      5.990197     
  16543600   123901.4      -32.339684     -38391506       0.48971953     368957.21     -38022548       1090.082       1090.082       1090.082       1954.959       3045.041       1954.959       3045.041       1954.959       3045.041       1.2953213e+09  0.5            8476800        3.0218826      5620.5052      11241.009      5.9718199    
  16543800   130681.76     -31.635188     -38397903       0.48971953     389147.98     -38008755       1090.082       1090.082       1090.082       1954.959       3045.041       1954.959       3045.041       1954.959       3045.041       1.2953213e+09  0.5            8476900        3.039279       5748.3035      11496.634      5.952675     
  16544000   133590.48     -31.366132     -38389523       0.48971953     397809.63     -37991714       1090.082       1090.082       1090.082       1954.959       3045.041       1954.959       3045.041       1954.959       3045.041       1.2953213e+09  0.5            8477000        3.0575298      5479.2029      10958.363      5.9352094    
  16544200   126054.95     -32.1011       -38395933       0.48971953     375370.11     -38020563       1090.082       1090.082       1090.082       1954.959       3045.041       1954.959       3045.041       1954.959       3045.041       1.2953213e+09  0.5            8477100        3.0754868      5568.8844      11137.795      5.9171689    
  16544400   125346.24     -32.205438     -38404316       0.48971953     373259.7      -38031056       1090.082       1090.082       1090.082       1954.959       3045.041       1954.959       3045.041       1954.959       3045.041       1.2953213e+09  0.5            8477200        3.0936915      5493.0857      10986.161      5.8996019    
  16544600   128527.71     -31.960832     -38388717       0.48971953     382733.57     -38005984       1090.082       1090.082       1090.082       1954.959       3045.041       1954.959       3045.041       1954.959       3045.041       1.2953213e+09  0.5            8477300        3.1114736      5623.6258      11247.256      5.8812288    
  16544800   132007.24     -31.706704     -38382439       0.48971953     393095.02     -37989344       1090.082       1090.082       1090.082       1954.959       3045.041       1954.959       3045.041       1954.959       3045.041       1.2953213e+09  0.5            8477400        3.1293248      5601.8587      11203.716      5.8629922    
  16545000   130415.24     -31.634123     -38374305       0.48971953     388354.31     -37985951       1090.082       1090.082       1090.082       1954.959       3045.041       1954.959       3045.041       1954.959       3045.041       1.2953213e+09  0.5            8477500        3.1469398      5676.9737      11353.949      5.8443211    
  16545200   123107.39     -32.538322     -38381001       0.48971953     366592.78     -38014408       1090.082       1090.082       1090.082       1954.959       3045.041       1954.959       3045.041       1954.959       3045.041       1.2953213e+09  0.5            8477600        3.1649169      5562.6637      11125.347      5.8263282    
  16545400   127117.32     -32.333447     -38387784       0.48971953     378533.68     -38009250       1090.082       1090.082       1090.082       1954.959       3045.041       1954.959       3045.041       1954.959       3045.041       1.2953213e+09  0.5            8477700        3.1828785      5567.4259      11134.838      5.8083077    
  16545600   132845.2      -32.669422     -38409363       0.48971953     395590.31     -38013773       1090.082       1090.082       1090.082       1954.959       3045.041       1954.959       3045.041       1954.959       3045.041       1.2953213e+09  0.5            8477800        3.2006406      5629.9478      11259.898      5.7899268    
  16545800   133266.55     -32.87203      -38408814       0.48971953     396845.04     -38011969       1090.082       1090.082       1090.082       1954.959       3045.041       1954.959       3045.041       1954.959       3045.041       1.2953213e+09  0.5            8477900        3.2183733      5639.3281      11278.659      5.7715       
  16546000   132410.89     -32.764382     -38415639       0.48971953     394297.03     -38021342       1090.082       1090.082       1090.082       1954.959       3045.041       1954.959       3045.041       1954.959       3045.041       1.2953213e+09  0.5            8478000        3.2360434      5659.2465      11318.451      5.7529701    
  16546200   133274.82     -32.982991     -38422090       0.48971953     396869.66     -38025220       1090.082       1090.082       1090.082       1954.959       3045.041       1954.959       3045.041       1954.959       3045.041       1.2953213e+09  0.5            8478100        3.2538275      5623.0136      11246.073      5.7346501    
  16546400   138599.16     -32.615676     -38421487       0.48971953     412724.64     -38008763       1090.082       1090.082       1090.082       1954.959       3045.041       1954.959       3045.041       1954.959       3045.041       1.2953213e+09  0.5            8478200        3.2719975      5503.5695      11007.092      5.7170105    
  16546600   139316.97     -32.345171     -38413438       0.48971953     414862.15     -37998576       1090.082       1090.082       1090.082       1954.959       3045.041       1954.959       3045.041       1954.959       3045.041       1.2953213e+09  0.5            8478300        3.2898235      5609.8039      11219.642      5.698769     
  16546800   131785.85     -33.422655     -38412721       0.48971953     392435.75     -38020285       1090.082       1090.082       1090.082       1954.959       3045.041       1954.959       3045.041       1954.959       3045.041       1.2953213e+09  0.5            8478400        3.3072788      5728.9026      11457.815      5.6798956    
  16547000   131570.81     -33.492236     -38411972       0.48971953     391795.41     -38020177       1090.082       1090.082       1090.082       1954.959       3045.041       1954.959       3045.041       1954.959       3045.041       1.2953213e+09  0.5            8478500        3.3254131      5514.3909      11028.734      5.6621939    
  16547200   137674.34     -32.697858     -38411150       0.48971953     409970.69     -38001179       1090.082       1090.082       1090.082       1954.959       3045.041       1954.959       3045.041       1954.959       3045.041       1.2953213e+09  0.5            8478600        3.3433197      5584.5459      11169.127      5.6441026    
  16547400   138686.36     -32.804552     -38410257       0.48971953     412984.3      -37997273       1090.082       1090.082       1090.082       1954.959       3045.041       1954.959       3045.041       1954.959       3045.041       1.2953213e+09  0.5            8478700        3.3609456      5673.4572      11346.911      5.6255438    
  16547600   139066.44     -32.626537     -38401925       0.48971953     414116.12     -37987809       1090.082       1090.082       1090.082       1954.959       3045.041       1954.959       3045.041       1954.959       3045.041       1.2953213e+09  0.5            8478800        3.3787805      5607.0089      11214.01       5.6073415    
  16547800   140579.83     -32.553114     -38393538       0.48971953     418622.74     -37974915       1090.082       1090.082       1090.082       1954.959       3045.041       1954.959       3045.041       1954.959       3045.041       1.2953213e+09  0.5            8478900        3.3964702      5653.0042      11306.052      5.5889042    
  16548000   143990.9      -32.276876     -38407227       0.48971953     428780.32     -37978446       1090.082       1090.082       1090.082       1954.959       3045.041       1954.959       3045.041       1954.959       3045.041       1.2953213e+09  0.5            8479000        3.4141174      5666.604       11333.192      5.5704058    
  16548200   144613.02     -31.902048     -38400617       0.48971953     430632.88     -37969984       1090.082       1090.082       1090.082       1954.959       3045.041       1954.959       3045.041       1954.959       3045.041       1.2953213e+09  0.5            8479100        3.4319706      5601.232       11202.464      5.5522493    
  16548400   138193.23     -32.543772     -38406869       0.48971953     411515.85     -37995353       1090.082       1090.082       1090.082       1954.959       3045.041       1954.959       3045.041       1954.959       3045.041       1.2953213e+09  0.5            8479200        3.4501738      5493.5372      10987.063      5.5346575    
  16548600   137105.93     -32.387979     -38405779       0.48971953     408278.04     -37997501       1090.082       1090.082       1090.082       1954.959       3045.041       1954.959       3045.041       1954.959       3045.041       1.2953213e+09  0.5            8479300        3.4676257      5730.0374      11460.089      5.5158641    
  16548800   146008.35     -31.609346     -38412096       0.48971953     434787.93     -37977308       1090.082       1090.082       1090.082       1954.959       3045.041       1954.959       3045.041       1954.959       3045.041       1.2953213e+09  0.5            8479400        3.4856815      5538.4047      11076.775      5.4980373    
  16549000   146363.04     -31.915365     -38418397       0.48971953     435844.15     -37982553       1090.082       1090.082       1090.082       1954.959       3045.041       1954.959       3045.041       1954.959       3045.041       1.2953213e+09  0.5            8479500        3.5036535      5564.2017      11128.412      5.480077     
  16549200   143551.36     -31.974326     -38417327       0.48971953     427471.44     -37989856       1090.082       1090.082       1090.082       1954.959       3045.041       1954.959       3045.041       1954.959       3045.041       1.2953213e+09  0.5            8479600        3.5210637      5743.764       11487.55       5.4612452    
  16549400   143434.77     -32.344987     -38436543       0.48971953     427124.24     -38009419       1090.082       1090.082       1090.082       1954.959       3045.041       1954.959       3045.041       1954.959       3045.041       1.2953213e+09  0.5            8479700        3.5392881      5487.1389      10974.263      5.4436801    
  16549600   151978.38     -31.289798     -38430033       0.48971953     452565.67     -37977467       1090.082       1090.082       1090.082       1954.959       3045.041       1954.959       3045.041       1954.959       3045.041       1.2953213e+09  0.5            8479800        3.557372       5529.7715      11059.536      5.4258942    
  16549800   152519.04     -31.21515      -38428975       0.48971953     454175.66     -37974800       1090.082       1090.082       1090.082       1954.959       3045.041       1954.959       3045.041       1954.959       3045.041       1.2953213e+09  0.5            8479900        3.5756706      5464.9351      10929.89       5.4084297    
  16550000   145725.41     -32.181037     -38435275       0.48971953     433945.39     -38001330       1090.082       1090.082       1090.082       1954.959       3045.041       1954.959       3045.041       1954.959       3045.041       1.2953213e+09  0.5            8480000        3.5965393      4791.8222      9583.6241      5.3948126    
  16550200   145627.73     -32.33728      -38434196       0.48971953     433654.51     -38000541       1090.082       1090.082       1090.082       1954.959       3045.041       1954.959       3045.041       1954.959       3045.041       1.2953213e+09  0.5            8480100        3.6149368      5435.5359      10871.089      5.3774468    
  16550400   148875.97     -32.048656     -38425684       0.48971953     443327.21     -37982357       1090.082       1090.082       1090.082       1954.959       3045.041       1954.959       3045.041       1954.959       3045.041       1.2953213e+09  0.5            8480200        3.6329097      5563.9522      11127.898      5.3594444    
  16550600   151389.48     -31.367769     -38417089       0.48971953     450812.01     -37966277       1090.082       1090.082       1090.082       1954.959       3045.041       1954.959       3045.041       1954.959       3045.041       1.2953213e+09  0.5            8480300        3.6506591      5633.9761      11267.949      5.3411155    
  16550800   151793.52     -31.448024     -38415773       0.48971953     452015.19     -37963758       1090.082       1090.082       1090.082       1954.959       3045.041       1954.959       3045.041       1954.959       3045.041       1.2953213e+09  0.5            8480400        3.6687485      5528.1232      11056.253      5.3232853    
  16551000   150698.52     -31.171726     -38406990       0.48971953     448754.45     -37958236       1090.082       1090.082       1090.082       1954.959       3045.041       1954.959       3045.041       1954.959       3045.041       1.2953213e+09  0.5            8480500        3.6872477      5405.6088      10811.168      5.3060429    
  16551200   150745.36     -31.365709     -38407402       0.48971953     448893.95     -37958508       1090.082       1090.082       1090.082       1954.959       3045.041       1954.959       3045.041       1954.959       3045.041       1.2953213e+09  0.5            8480600        3.7053357      5528.5517      11057.158      5.2882007    
  16551400   154849.55     -31.124411     -38420555       0.48971953     461115.5      -37959439       1090.082       1090.082       1090.082       1954.959       3045.041       1954.959       3045.041       1954.959       3045.041       1.2953213e+09  0.5            8480700        3.7227472      5743.3339      11486.671      5.269399     
  16551600   157455.91     -30.574762     -38396684       0.48971953     468876.82     -37927807       1090.082       1090.082       1090.082       1954.959       3045.041       1954.959       3045.041       1954.959       3045.041       1.2953213e+09  0.5            8480800        3.74121        5416.2831      10832.532      5.2520866    
  16551800   153780.5      -31.112853     -38400300       0.48971953     457932.07     -37942368       1090.082       1090.082       1090.082       1954.959       3045.041       1954.959       3045.041       1954.959       3045.041       1.2953213e+09  0.5            8480900        3.7586543      5732.5608      11465.138      5.2333447    
  16552000   147989.79     -31.666511     -38398350       0.48971953     440688.32     -37957662       1090.082       1090.082       1090.082       1954.959       3045.041       1954.959       3045.041       1954.959       3045.041       1.2953213e+09  0.5            8481000        3.7770781      5427.7516      10855.481      5.2159682    
  16552200   154973.97     -30.156549     -38388924       0.48971953     461486.02     -37927438       1090.082       1090.082       1090.082       1954.959       3045.041       1954.959       3045.041       1954.959       3045.041       1.2953213e+09  0.5            8481100        3.7951163      5543.7849      11087.626      5.1980533    
  16552400   160434.09     -29.134422     -38386689       0.48971953     477745.33     -37908944       1090.082       1090.082       1090.082       1954.959       3045.041       1954.959       3045.041       1954.959       3045.041       1.2953213e+09  0.5            8481200        3.8134131      5465.4321      10930.809      5.1804889    
  16552600   157455.73     -28.69265      -38364076       0.48971953     468876.27     -37895200       1090.082       1090.082       1090.082       1954.959       3045.041       1954.959       3045.041       1954.959       3045.041       1.2953213e+09  0.5            8481300        3.8308324      5740.7888      11481.623      5.1617348    
  16552800   154398.65     -28.153288     -38361596       0.48971953     459772.81     -37901823       1090.082       1090.082       1090.082       1954.959       3045.041       1954.959       3045.041       1954.959       3045.041       1.2953213e+09  0.5            8481400        3.8492451      5431.0275      10862.07       5.1443212    
  16553000   160450.16     -27.224755     -38376074       0.48971953     477793.19     -37898281       1090.082       1090.082       1090.082       1954.959       3045.041       1954.959       3045.041       1954.959       3045.041       1.2953213e+09  0.5            8481500        3.8682052      5274.2266      10548.428      5.1276239    
  16553200   166024.3      -25.926258     -38373376       0.48971953     494392        -37878984       1090.082       1090.082       1090.082       1954.959       3045.041       1954.959       3045.041       1954.959       3045.041       1.2953213e+09  0.5            8481600        3.8867177      5401.7634      10803.543      5.1103169    
  16553400   160498.23     -26.109336     -38370602       0.48971953     477936.32     -37892666       1090.082       1090.082       1090.082       1954.959       3045.041       1954.959       3045.041       1954.959       3045.041       1.2953213e+09  0.5            8481700        3.9046035      5590.9984      11182.01       5.0921816    
  16553600   157209.74     -25.732106     -38367849       0.48971953     468143.77     -37899705       1090.082       1090.082       1090.082       1954.959       3045.041       1954.959       3045.041       1954.959       3045.041       1.2953213e+09  0.5            8481800        3.9229683      5445.2292      10890.426      5.0746683    
  16553800   160552.77     -24.827984     -38387277       0.48971953     478098.74     -37909178       1090.082       1090.082       1090.082       1954.959       3045.041       1954.959       3045.041       1954.959       3045.041       1.2953213e+09  0.5            8481900        3.9404062      5734.623       11469.28       5.0559579    
  16554000   162445.99     -23.620583     -38391982       0.48971953     483736.42     -37908245       1090.082       1090.082       1090.082       1954.959       3045.041       1954.959       3045.041       1954.959       3045.041       1.2953213e+09  0.5            8482000        3.9586688      5475.6617      10951.268      5.0383088    
  16554200   162929.81     -23.007144     -38389376       0.48971953     485177.14     -37904199       1090.082       1090.082       1090.082       1954.959       3045.041       1954.959       3045.041       1954.959       3045.041       1.2953213e+09  0.5            8482100        3.9768121      5511.6908      11023.396      5.0205032    
  16554400   165042.57     -22.031685     -38381367       0.48971953     491468.59     -37889899       1090.082       1090.082       1090.082       1954.959       3045.041       1954.959       3045.041       1954.959       3045.041       1.2953213e+09  0.5            8482200        3.9952022      5437.6977      10875.391      5.0030039    
  16554600   168663.69     -20.706935     -38379296       0.48971953     502251.67     -37877044       1090.082       1090.082       1090.082       1954.959       3045.041       1954.959       3045.041       1954.959       3045.041       1.2953213e+09  0.5            8482300        4.0126421      5733.9962      11468.022      4.984316     
  16554800   170168.63     -20.213611     -38386184       0.48971953     506733.11     -37879450       1090.082       1090.082       1090.082       1954.959       3045.041       1954.959       3045.041       1954.959       3045.041       1.2953213e+09  0.5            8482400        4.0308989      5477.3884      10954.765      4.9666462    
[...]
  17199400   307.1076       0.86536943    -38701854       0.50554022     914.51399     -38700940       1078.59        1078.59        1078.59        1960.705       3039.295       1960.705       3039.295       1960.705       3039.295       1.2547847e+09  0.5            8804700        32.119824      4597.486       9194.9495      1.1764691    
  17199600   307.08441      0.54785526    -38701940       0.50553739     914.44492     -38701026       1078.5921      1078.5921      1078.5921      1960.704       3039.296       1960.704       3039.296       1960.704       3039.296       1.2547917e+09  0.5            8804800        32.141757      4559.4408      9118.8925      1.1542621    
  17199800   307.00639      1.4905902     -38702025       0.50557294     914.21261     -38701111       1078.5668      1078.5668      1078.5668      1960.7166      3039.2834      1960.7166      3039.2834      1960.7166      3039.2834      1.2547035e+09  0.5            8804900        32.1636        4578.1299      9156.2598      1.1320523    
  17200000   306.68412      1.2427453     -38702110       0.50557217     913.25295     -38701197       1078.5673      1078.5673      1078.5673      1960.7163      3039.2837      1960.7163      3039.2837      1960.7163      3039.2837      1.2547054e+09  0.5            8805000        32.187227      4232.4316      8464.8478      1.1099045    
  17200200   306.89621     -0.077289237   -38702196       0.50553931     913.8845      -38701282       1078.5907      1078.5907      1078.5907      1960.7047      3039.2953      1960.7047      3039.2953      1960.7047      3039.2953      1.254787e+09   0.5            8805100        32.210942      4216.6948      8433.3977      1.0877576    
  17200400   307.15311      1.8649804     -38702279       0.50560617     914.64952     -38701365       1078.5431      1078.5431      1078.5431      1960.7284      3039.2716      1960.7284      3039.2716      1960.7284      3039.2716      1.254621e+09   0.5            8805200        32.232739      4587.7414      9175.49        1.0655452    
  17200600   306.99629      1.0108672     -38702366       0.50558731     914.18252     -38701451       1078.5566      1078.5566      1078.5566      1960.7217      3039.2783      1960.7217      3039.2783      1960.7217      3039.2783      1.2546678e+09  0.5            8805300        32.254642      4565.6397      9131.2785      1.0433367    
  17200800   306.80142      0.11303298    -38702451       0.50556713     913.60223     -38701537       1078.5709      1078.5709      1078.5709      1960.7145      3039.2855      1960.7145      3039.2855      1960.7145      3039.2855      1.2547179e+09  0.5            8805400        32.276618      4550.3095      9100.6472      1.0211311    
  17201000   306.68328      2.5193391     -38702532       0.50564778     913.25043     -38701618       1078.5136      1078.5136      1078.5136      1960.7432      3039.2568      1960.7432      3039.2568      1960.7432      3039.2568      1.2545178e+09  0.5            8805500        32.298503      4569.3675      9138.6928      0.99892287   
  17201200   307.03574     -0.75834546    -38702620       0.50555589     914.30001     -38701705       1078.5789      1078.5789      1078.5789      1960.7106      3039.2894      1960.7106      3039.2894      1960.7106      3039.2894      1.2547458e+09  0.5            8805600        32.320491      4548.0653      9096.1435      0.9767182    
  17201400   307.21317      2.7935832     -38702701       0.5056711      914.82837     -38701786       1078.497       1078.497       1078.497       1960.7515      3039.2485      1960.7515      3039.2485      1960.7515      3039.2485      1.2544599e+09  0.5            8805700        32.342471      4549.4603      9098.931       0.95451364   
  17201600   306.91075     -0.72013368    -38702790       0.50557191     913.92779     -38701876       1078.5675      1078.5675      1078.5675      1960.7162      3039.2838      1960.7162      3039.2838      1960.7162      3039.2838      1.254706e+09   0.5            8805800        32.364222      4597.4904      9194.9787      0.93230277   
  17201800   306.81524      2.6390011     -38702871       0.5056812      913.6434      -38701957       1078.4898      1078.4898      1078.4898      1960.7551      3039.2449      1960.7551      3039.2449      1960.7551      3039.2449      1.2544349e+09  0.5            8805900        32.386034      4584.6779      9169.347       0.91009425   
  17202000   306.65309      2.0262573     -38710334       0.50567338     913.16053     -38709421       1078.4954      1078.4954      1078.4954      1960.7523      3039.2477      1960.7523      3039.2477      1960.7523      3039.2477      1.2544543e+09  0.5            8806000        32.408007      4550.9912      9101.9974      0.88789068   
  17202200   306.8736       2.7465498     -38717794       0.50570526     913.81718     -38716880       1078.4727      1078.4727      1078.4727      1960.7637      3039.2363      1960.7637      3039.2363      1960.7637      3039.2363      1.2543752e+09  0.5            8806100        32.429915      4564.7054      9129.3928      0.86568567   
  17202400   306.92132     -0.068185991   -38710504       0.50562304     913.95927     -38709590       1078.5311      1078.5311      1078.5311      1960.7344      3039.2656      1960.7344      3039.2656      1960.7344      3039.2656      1.2545792e+09  0.5            8806200        32.45188       4552.6653      9105.3419      0.84348258   
  17202600   306.84823      0.70667015    -38717964       0.50565578     913.74162     -38717051       1078.5079      1078.5079      1078.5079      1960.7461      3039.2539      1960.7461      3039.2539      1960.7461      3039.2539      1.2544979e+09  0.5            8806300        32.473728      4576.9659      9153.9276      0.82127686   
  17202800   306.83995     -0.0030326691  -38718048       0.5056408      913.71696     -38717134       1078.5185      1078.5185      1078.5185      1960.7407      3039.2593      1960.7407      3039.2593      1960.7407      3039.2593      1.2545351e+09  0.5            8806400        32.495453      4603.1312      9206.272       0.79906909   
  17203000   306.69945      2.0036297     -38718129       0.50570927     913.29858     -38717216       1078.4698      1078.4698      1078.4698      1960.7651      3039.2349      1960.7651      3039.2349      1960.7651      3039.2349      1.2543652e+09  0.5            8806500        32.517347      4567.3045      9134.5769      0.77686502   
  17203200   306.8867      -0.037126849   -38718215       0.50565557     913.85619     -38717301       1078.508       1078.508       1078.508       1960.746       3039.254       1960.746       3039.254       1960.746       3039.254       1.2544985e+09  0.5            8806600        32.539319      4551.3336      9102.6764      0.75466366   
  17203400   307.06141      1.9782919     -38718297       0.50572519     914.37644     -38717383       1078.4585      1078.4585      1078.4585      1960.7707      3039.2293      1960.7707      3039.2293      1960.7707      3039.2293      1.2543258e+09  0.5            8806700        32.561099      4591.3872      9182.7934      0.73245831   
  17203600   306.99835      0.12244896    -38718384       0.50567649     914.18866     -38717470       1078.4931      1078.4931      1078.4931      1960.7534      3039.2466      1960.7534      3039.2466      1960.7534      3039.2466      1.2544466e+09  0.5            8806800        32.583405      4483.0187      8966.0037      0.71026502   
  17203800   306.93384      1.7804529     -38718467       0.50573312     913.99655     -38717553       1078.4529      1078.4529      1078.4529      1960.7736      3039.2264      1960.7736      3039.2264      1960.7736      3039.2264      1.2543061e+09  0.5            8806900        32.605209      4586.4022      9172.8161      0.68806096   
  17204000   306.64982      0.38820722    -38718553       0.50569698     913.15081     -38717640       1078.4786      1078.4786      1078.4786      1960.7607      3039.2393      1960.7607      3039.2393      1960.7607      3039.2393      1.2543957e+09  0.5            8807000        32.627138      4560.1274      9120.2652      0.66586001   
  17204200   306.90013      1.6115506     -38726014       0.50574352     913.89617     -38725100       1078.4455      1078.4455      1078.4455      1960.7773      3039.2227      1960.7773      3039.2227      1960.7773      3039.2227      1.2542803e+09  0.5            8807100        32.649173      4538.3242      9076.6567      0.64366151   
  17204400   307.1871       0.34033786    -38726100       0.50571177     914.75074     -38725186       1078.4681      1078.4681      1078.4681      1960.766       3039.234       1960.766       3039.234       1960.766       3039.234       1.254359e+09   0.5            8807200        32.671055      4569.9716      9139.9152      0.62146033   
  17204600   307.06024      1.45031       -38726184       0.50575195     914.37297     -38725270       1078.4395      1078.4395      1078.4395      1960.7802      3039.2198      1960.7802      3039.2198      1960.7802      3039.2198      1.2542594e+09  0.5            8807300        32.692751      4609.1426      9218.318       0.59925617   
  17204800   306.83248      1.0151752     -38726270       0.50574553     913.69473     -38725356       1078.4441      1078.4441      1078.4441      1960.778       3039.222       1960.778       3039.222       1960.778       3039.222       1.2542753e+09  0.5            8807400        32.714643      4567.8221      9135.6201      0.57705616   
  17205000   306.59034      0.53622519    -38726354       0.50573837     912.97369     -38725441       1078.4492      1078.4492      1078.4492      1960.7754      3039.2246      1960.7754      3039.2246      1960.7754      3039.2246      1.2542931e+09  0.5            8807500        32.736427      4590.3937      9180.8101      0.55485475   
  17205200   306.92951      1.67198       -38726437       0.50578047     913.98367     -38725523       1078.4192      1078.4192      1078.4192      1960.7904      3039.2096      1960.7904      3039.2096      1960.7904      3039.2096      1.2541887e+09  0.5            8807600        32.758238      4584.9377      9169.8805      0.53265432   
  17205400   307.13352      0.48353603    -38726523       0.5057527      914.59116     -38725609       1078.439       1078.439       1078.439       1960.7805      3039.2195      1960.7805      3039.2195      1960.7805      3039.2195      1.2542575e+09  0.5            8807700        32.780274      4538.0857      9076.1509      0.51045792   
  17205600   307.03774      0.91961503    -38726608       0.50577384     914.30595     -38725693       1078.4239      1078.4239      1078.4239      1960.788       3039.212       1960.788       3039.212       1960.788       3039.212       1.2542051e+09  0.5            8807800        32.802195      4561.8024      9123.6085      0.48826004   
  17205800   306.95828      1.7021549     -38726692       0.50580526     914.06935     -38725777       1078.4016      1078.4016      1078.4016      1960.7992      3039.2008      1960.7992      3039.2008      1960.7992      3039.2008      1.2541272e+09  0.5            8807900        32.823925      4601.8307      9203.6738      0.46605983   
  17206000   306.84007      0.18250357    -38726779       0.50576768     913.71734     -38725865       1078.4283      1078.4283      1078.4283      1960.7858      3039.2142      1960.7858      3039.2142      1960.7858      3039.2142      1.2542204e+09  0.5            8808000        32.845765      4578.8141      9157.614       0.44386173   
  17206200   307.11374      1.0640583     -38726864       0.50580249     914.53228     -38725949       1078.4036      1078.4036      1078.4036      1960.7982      3039.2018      1960.7982      3039.2018      1960.7982      3039.2018      1.2541341e+09  0.5            8808100        32.867811      4535.9717      9071.9446      0.42166675   
  17206400   307.08357      2.2840388     -38726947       0.50584685     914.44243     -38726033       1078.3721      1078.3721      1078.3721      1960.814       3039.186       1960.814       3039.186       1960.814       3039.186       1.2540241e+09  0.5            8808200        32.889872      4532.9453      9065.8963      0.39947216   
  17206600   306.84941      0.2658949     -38727035       0.50579377     913.74514     -38726121       1078.4098      1078.4098      1078.4098      1960.7951      3039.2049      1960.7951      3039.2049      1960.7951      3039.2049      1.2541557e+09  0.5            8808300        32.911851      4549.6756      9099.3438      0.37727682   
  17206800   306.9007      -1.0903082     -38727119       0.50576022     913.89788     -38726205       1078.4336      1078.4336      1078.4336      1960.7832      3039.2168      1960.7832      3039.2168      1960.7832      3039.2168      1.2542389e+09  0.5            8808400        32.933733      4570.1197      9140.2632      0.3550807    
  17207000   307.02395      3.19502       -38727200       0.50589587     914.2649      -38726285       1078.3372      1078.3372      1078.3372      1960.8314      3039.1686      1960.8314      3039.1686      1960.8314      3039.1686      1.2539026e+09  0.5            8808500        32.955696      4553.0957      9106.1636      0.33288584   
  17207200   307.18555      3.3897074     -38727285       0.50590806     914.74612     -38726370       1078.3286      1078.3286      1078.3286      1960.8357      3039.1643      1960.8357      3039.1643      1960.8357      3039.1643      1.2538724e+09  0.5            8808600        32.977664      4552.0302      9104.0649      0.31069134   
  17207400   306.95155     -0.56358692    -38727377       0.50579625     914.04932     -38726463       1078.408       1078.408       1078.408       1960.796       3039.204       1960.796       3039.204       1960.796       3039.204       1.2541496e+09  0.5            8808700        32.999507      4578.1764      9156.3508      0.28849605   
  17207600   306.78242     -1.01395       -38727829       0.50579087     913.54565     -38726916       1078.4118      1078.4118      1078.4118      1960.7941      3039.2059      1960.7941      3039.2059      1960.7941      3039.2059      1.2541629e+09  0.5            8808800        33.021422      4562.9639      9125.9182      0.26630181   
  17207800   306.85234      2.4497442     -38727911       0.50590204     913.75386     -38726997       1078.3328      1078.3328      1078.3328      1960.8336      3039.1664      1960.8336      3039.1664      1960.8336      3039.1664      1.2538873e+09  0.5            8808900        33.043173      4597.5016      9195.0332      0.24410674   
  17208000   306.79593      2.2431715     -38727996       0.50590247     913.58588     -38727082       1078.3325      1078.3325      1078.3325      1960.8337      3039.1663      1960.8337      3039.1663      1960.8337      3039.1663      1.2538862e+09  0.5            8809000        33.065139      4552.5004      9104.9738      0.2219137    
  17208200   307.01941     -0.64901917    -38728083       0.5058217      914.25138     -38727168       1078.3899      1078.3899      1078.3899      1960.805       3039.195       1960.805       3039.195       1960.805       3039.195       1.2540864e+09  0.5            8809100        33.087868      4399.6197      8799.2488      0.19972558   
  17208400   307.10186      1.1427037     -38728167       0.50588195     914.49689     -38727253       1078.3471      1078.3471      1078.3471      1960.8264      3039.1736      1960.8264      3039.1736      1960.8264      3039.1736      1.2539371e+09  0.5            8809200        33.109856      4548.0413      9096.0856      0.17753275   
  17208600   306.95662      2.131535      -38728250       0.50591873     914.06439     -38727336       1078.321       1078.321       1078.321       1960.8395      3039.1605      1960.8395      3039.1605      1960.8395      3039.1605      1.2538459e+09  0.5            8809300        33.131788      4559.6111      9119.2235      0.15533994   
  17208800   306.85933     -0.064017028   -38728337       0.50586011     913.77468     -38727423       1078.3626      1078.3626      1078.3626      1960.8187      3039.1813      1960.8187      3039.1813      1960.8187      3039.1813      1.2539912e+09  0.5            8809400        33.154092      4483.3441      8966.6605      0.13314898   
  17209000   306.76858      1.2920457     -38728421       0.50590862     913.50444     -38727508       1078.3282      1078.3282      1078.3282      1960.8359      3039.1641      1960.8359      3039.1641      1960.8359      3039.1641      1.253871e+09   0.5            8809500        33.175969      4571.1446      9142.2984      0.11095643   
  17209200   307.02427      1.5564914     -38728506       0.5059237      914.26584     -38727591       1078.3175      1078.3175      1078.3175      1960.8413      3039.1587      1960.8413      3039.1587      1960.8413      3039.1587      1.2538336e+09  0.5            8809600        33.19799       4541.0223      9082.0751      0.088764686  
  17209400   307.09235      0.08998586    -38728592       0.50588638     914.46859     -38727678       1078.344       1078.344       1078.344       1960.828       3039.172       1960.828       3039.172       1960.828       3039.172       1.2539261e+09  0.5            8809700        33.220819      4380.473       8760.9249      0.066574792  
  17209600   307.02308      1.48586       -38728676       0.50593535     914.26232     -38727762       1078.3092      1078.3092      1078.3092      1960.8454      3039.1546      1960.8454      3039.1546      1960.8454      3039.1546      1.2538047e+09  0.5            8809800        33.242595      4592.0779      9184.1685      0.044382641  
  17209800   306.97077      1.2880405     -38728761       0.50593652     914.10654     -38727847       1078.3083      1078.3083      1078.3083      1960.8458      3039.1542      1960.8458      3039.1542      1960.8458      3039.1542      1.2538018e+09  0.5            8809900        33.264476      4570.2511      9140.5247      0.022191113  
  17210000   306.73903      0.26203309    -38728847       0.50591305     913.41646     -38727934       1078.325       1078.325       1078.325       1960.8375      3039.1625      1960.8375      3039.1625      1960.8375      3039.1625      1.25386e+09    0.5            8810000        33.286476      4545.5039      9090.9537      0            
Loop time of 33.2865 on 4 procs for 300000 steps with 1000 atoms

Performance: 389.347 ns/day, 0.062 hours/ns, 9012.661 timesteps/s
99.4% CPU use with 4 MPI tasks x no OpenMP threads

MPI task timing breakdown:
Section |  min time  |  avg time  |  max time  |%varavg| %total
---------------------------------------------------------------
Pair    | 1.815      | 9.6911     | 19.435     | 213.5 | 29.11
Neigh   | 0.0039014  | 0.016209   | 0.031751   |   8.2 |  0.05
Comm    | 5.8563     | 15.39      | 23.005     | 164.0 | 46.24
Output  | 0.062413   | 0.071515   | 0.090601   |   4.2 |  0.21
Modify  | 5.4326     | 6.0626     | 6.8561     |  20.7 | 18.21
Other   |            | 2.055      |            |       |  6.17

Nlocal:            250 ave         429 max          93 min
Histogram: 1 0 1 0 0 0 1 0 0 1
Nghost:         361.75 ave         426 max         272 min
Histogram: 1 0 0 0 1 0 0 0 1 1
Neighs:         1194.5 ave        2468 max         165 min
Histogram: 1 0 1 0 0 1 0 0 0 1

Total # of neighbors = 4778
Ave neighs/atom = 4.778
Neighbor list builds = 111
Dangerous builds = 24

# run_style
run_style verlet

# write restart
write_restart ${write_res}
write_restart ./pgnpmf/28/equpmf24.res
System init for write_restart ...
Generated 0 of 1 mixed pair_coeff terms from geometric mixing rule

Total wall time: 0:01:11
