LAMMPS (23 Jun 2022 - Update 1)
OMP_NUM_THREADS environment is not set. Defaulting to 1 thread. (src/comm.cpp:98)
  using 1 OpenMP thread(s) per MPI task
# Read restart
read_restart ${read_res}
read_restart ./pgnpmf/28/genpmf.res
Reading restart file ...
  restart file = 23 Jun 2022, LAMMPS = 23 Jun 2022
  restoring atom style atomic from restart
  orthogonal box = (-100 -100 -100) to (5100 5100 5100)
  1 by 1 by 1 MPI processor grid
  restoring pair style table from restart
  1000 atoms
  read_restart CPU = 0.006 seconds

# Settings

pair_style table spline 9941

pair_coeff 1 1 ./pgnpmf/N20.txt DE_GNP 75.6
pair_coeff 2 2 ./pgnpmf/N100.txt DE_GNP 115.92
WARNING: 3 of 9941 force values in table DE_GNP are inconsistent with -dE/dr.
WARNING:  Should only be flagged at inflection points (src/pair_table.cpp:463)
pair_coeff 1 2 ./pgnpmf/mixed_potential.txt DE_GNP 95.66
WARNING: 1562 of 9941 force values in table DE_GNP are inconsistent with -dE/dr.
WARNING:  Should only be flagged at inflection points (src/pair_table.cpp:463)

#Neigh_list Calc Frequency

neigh_modify delay 0 every 1 check yes

# Saving Frequency (50 frames)

variable ts_save equal ${steps_equ}
variable ts_save equal 5000

# Dump
#dump 1 all custom ${ts_save} ./pgnpmf/${folder}/equilibration/trajectory/trajectory_${usic}_${trial}.equ.custom type x y z ix iy iz
#dump_modify 1 first no sort id
dump 2 all cfg 50000 ./pgnpmf/${folder}/equilibration/trajectory/dumpgen.tens_*.cfg mass type xs ys zs fx fy fz
dump 2 all cfg 50000 ./pgnpmf/28/equilibration/trajectory/dumpgen.tens_*.cfg mass type xs ys zs fx fy fz
dump_modify 2 element N20 N100

# thermo_style
thermo_style custom step temp press pe density ke etotal lx ly lz xlo xhi ylo yhi zlo zhi vol dt time cpu tpcpu spcpu cpuremain

# run info
timestep ${ts}
timestep 0.5
thermo 200

# fix

fix 1 all momentum 1000 linear 1 1 1 angular
variable T equal ${temp}
variable T equal 300
fix 2 all nvt temp ${T} 370000 100.0
fix 2 all nvt temp 300 370000 100.0
Resetting global fix info from restart file:
  fix style: nvt, fix ID: 2

run 100000
Generated 0 of 1 mixed pair_coeff terms from geometric mixing rule
Unused restart file global fix info:
  fix style: nvt, fix ID: 3
  fix style: nvt, fix ID: 4
Neighbor list info ...
  update every 1 steps, delay 0 steps, check yes
  max neighbors/atom: 2000, page size: 100000
  master list distance cutoff = 117.92
  ghost atom cutoff = 117.92
  binsize = 58.96, bins = 89 89 89
  1 neighbor lists, perpetual/occasional/extra = 1 0 0
  (1) pair table, perpetual
      attributes: half, newton on
      pair build: half/bin/atomonly/newton
      stencil: half/bin/3d
      bin: standard
Per MPI rank memory allocation (min/avg/max) = 6.234 | 6.234 | 6.234 Mbytes
   Step          Temp          Press          PotEng        Density         KinEng         TotEng           Lx             Ly             Lz            Xlo            Xhi            Ylo            Yhi            Zlo            Zhi           Volume           Dt            Time           CPU           T/CPU          S/CPU         CPULeft    
    410000   33095.383      0.069892294   -536691.8       0.004511437    98552.398     -438139.4       5200           5200           5200          -100            5100          -100            5100          -100            5100           1.40608e+11    0.5            410000         0              0              0              0            
    410200   1380.8347      0.038886872   -536718.04      0.004511437    4111.89       -532606.15      5200           5200           5200          -100            5100          -100            5100          -100            5100           1.40608e+11    0.5            410100         0.00699721     14289.864      28575.225      3.4930419    
    410400   584.09582      0.037658741   -536781.36      0.004511437    1739.3376     -535042.02      5200           5200           5200          -100            5100          -100            5100          -100            5100           1.40608e+11    0.5            410200         0.013794108    14712.864      29426.305      3.4353683    
    410600   970.46947      0.037172444   -536911.85      0.004511437    2889.8924     -534021.96      5200           5200           5200          -100            5100          -100            5100          -100            5100           1.40608e+11    0.5            410300         0.020578933    14738.897      29477.834      3.4096543    
    410800   3061.4524      0.037306487   -537204.34      0.004511437    9116.4824     -528087.86      5200           5200           5200          -100            5100          -100            5100          -100            5100           1.40608e+11    0.5            410400         0.027369682    14726.014      29452.175      3.3941405    
    411000   6120.7628      0.036735097   -537735.07      0.004511437    18226.586     -519508.49      5200           5200           5200          -100            5100          -100            5100          -100            5100           1.40608e+11    0.5            410500         0.034220854    14596.03       29191.945      3.3881019    
    411200   4995.7404      0.031679174   -538353.06      0.004511437    14876.462     -523476.6       5200           5200           5200          -100            5100          -100            5100          -100            5100           1.40608e+11    0.5            410600         0.040998835    14753.673      29507.421      3.3757684    
    411400   3687.0562      0.027043189   -538889.39      0.004511437    10979.424     -527909.96      5200           5200           5200          -100            5100          -100            5100          -100            5100           1.40608e+11    0.5            410700         0.047877401    14537.703      29075.553      3.3721095    
    411600   4863.3999      0.024623875   -539434.88      0.004511437    14482.374     -524952.51      5200           5200           5200          -100            5100          -100            5100          -100            5100           1.40608e+11    0.5            410800         0.054660814    14742.037      29484.161      3.3617857    
    411800   8620.8975      0.023355288   -540133.63      0.004511437    25671.561     -514462.06      5200           5200           5200          -100            5100          -100            5100          -100            5100           1.40608e+11    0.5            410900         0.061440682    14749.582      29499.095      3.3520583    
    412000   9701.9378      0.018596982   -540953.63      0.004511437    28890.714     -512062.92      5200           5200           5200          -100            5100          -100            5100          -100            5100           1.40608e+11    0.5            411000         0.068280338    14620.544      29240.771      3.3458542    
    412200   7109.8192      0.011191454   -541675.97      0.004511437    21171.828     -520504.15      5200           5200           5200          -100            5100          -100            5100          -100            5100           1.40608e+11    0.5            411100         0.075059052    14752.128      29504.308      3.3368213    
    412400   6826.2456      0.0063234087  -542291.07      0.004511437    20327.394     -521963.68      5200           5200           5200          -100            5100          -100            5100          -100            5100           1.40608e+11    0.5            411200         0.081844074    14738.061      29476.405      3.3284269    
    412600   10098.65       0.0046674301  -542934.76      0.004511437    30072.056     -512862.7       5200           5200           5200          -100            5100          -100            5100          -100            5100           1.40608e+11    0.5            411300         0.088619145    14760.185      29520.33       3.3198969    
    412800   13724.386      0.0020647614  -543658.98      0.004511437    40868.877     -502790.1       5200           5200           5200          -100            5100          -100            5100          -100            5100           1.40608e+11    0.5            411400         0.097132726    11745.957      23491.897      3.3719758    
    413000   11604.116     -0.006024857   -544329.01      0.004511437    34555.076     -509773.93      5200           5200           5200          -100            5100          -100            5100          -100            5100           1.40608e+11    0.5            411500         0.10456337     13457.527      26914.984      3.3809666    
    413200   9440.4287     -0.012600947   -544855.89      0.004511437    28111.985     -516743.9       5200           5200           5200          -100            5100          -100            5100          -100            5100           1.40608e+11    0.5            411600         0.11134871     14737.803      29475.349      3.3683763    
    413400   11288.03      -0.015381553   -545319.19      0.004511437    33613.824     -511705.37      5200           5200           5200          -100            5100          -100            5100          -100            5100           1.40608e+11    0.5            411700         0.11812968     14747.255      29494.597      3.3563423    
    413600   16187.009     -0.016385428   -545789.3       0.004511437    48202.147     -497587.15      5200           5200           5200          -100            5100          -100            5100          -100            5100           1.40608e+11    0.5            411800         0.12491046     14747.459      29495.067      3.3448899    
    413800   16685.421     -0.021003775   -546227.29      0.004511437    49686.336     -496540.96      5200           5200           5200          -100            5100          -100            5100          -100            5100           1.40608e+11    0.5            411900         0.14276804     5599.6754      11198.698      3.6144111    
    414000   13088.16      -0.029540795   -546553.68      0.004511437    38974.304     -507579.38      5200           5200           5200          -100            5100          -100            5100          -100            5100           1.40608e+11    0.5            412000         0.15697975     7036.5633      14073.427      3.7676145    
    414200   12852.912     -0.033704362   -546789.9       0.004511437    38273.776     -508516.12      5200           5200           5200          -100            5100          -100            5100          -100            5100           1.40608e+11    0.5            412100         0.16771301     9316.9606      18634.02       3.8255436    
    414400   17327.391     -0.033718353   -546981.99      0.004511437    51598.01      -495383.98      5200           5200           5200          -100            5100          -100            5100          -100            5100           1.40608e+11    0.5            412200         0.17773159     9981.583       19963.363      3.8617027    
    414600   21100.105     -0.034279397   -547125.15      0.004511437    62832.509     -484292.64      5200           5200           5200          -100            5100          -100            5100          -100            5100           1.40608e+11    0.5            412300         0.18727017     10483.783      20968.163      3.883886     
    414800   17902.859     -0.040914506   -547191.24      0.004511437    53311.658     -493879.59      5200           5200           5200          -100            5100          -100            5100          -100            5100           1.40608e+11    0.5            412400         0.19627231     11108.356      22216.964      3.892797     
    415000   15296.387     -0.046762563   -547192.81      0.004511437    45550.028     -501642.79      5200           5200           5200          -100            5100          -100            5100          -100            5100           1.40608e+11    0.5            412500         0.20496231     11507.685      23015.458      3.8943385    
    415200   18011.678     -0.046518338   -547146.3       0.004511437    53635.702     -493510.6       5200           5200           5200          -100            5100          -100            5100          -100            5100           1.40608e+11    0.5            412600         0.21525172     9718.7076      19437.115      3.924259     
    415400   23777.329     -0.043220407   -547039.77      0.004511437    70804.825     -476234.94      5200           5200           5200          -100            5100          -100            5100          -100            5100           1.40608e+11    0.5            412700         0.22320842     12567.971      25136.602      3.9103291    
    415600   23398.529     -0.046069793   -546869.16      0.004511437    69676.824     -477192.34      5200           5200           5200          -100            5100          -100            5100          -100            5100           1.40608e+11    0.5            412800         0.23094157     12931.507      25863.09       3.8930603    
    415800   18973.756     -0.053147537   -546670.53      0.004511437    56500.607     -490169.92      5200           5200           5200          -100            5100          -100            5100          -100            5100           1.40608e+11    0.5            412900         0.23837037     13461.112      26922.48       3.8715054    
    416000   19106.777     -0.054114304   -546454.63      0.004511437    56896.719     -489557.91      5200           5200           5200          -100            5100          -100            5100          -100            5100           1.40608e+11    0.5            413000         0.24567203     13695.561      27372.055      3.8489829    
    416200   24764.423     -0.049684578   -546198.2       0.004511437    73744.222     -472453.97      5200           5200           5200          -100            5100          -100            5100          -100            5100           1.40608e+11    0.5            413100         0.25446672     11370.464      22754.058      3.8498726    
    416400   28312.081     -0.047043391   -545884.79      0.004511437    84308.543     -461576.24      5200           5200           5200          -100            5100          -100            5100          -100            5100           1.40608e+11    0.5            413200         0.26124038     14763.146      29526.667      3.8206751    
    416600   23987.436     -0.049966051   -545565.56      0.004511437    71430.489     -474135.07      5200           5200           5200          -100            5100          -100            5100          -100            5100           1.40608e+11    0.5            413300         0.26802977     14728.929      29457.554      3.7930613    
    416800   21246.139     -0.051007093   -545277.12      0.004511437    63267.375     -482009.74      5200           5200           5200          -100            5100          -100            5100          -100            5100           1.40608e+11    0.5            413400         0.27479849     14773.908      29547.553      3.7663884    
    417000   25009.361     -0.045284666   -544988.21      0.004511437    74473.605     -470514.6       5200           5200           5200          -100            5100          -100            5100          -100            5100           1.40608e+11    0.5            413500         0.28160527     14691.215      29382.991      3.7413574    
    417200   31358.401     -0.037448028   -544667.46      0.004511437    93379.963     -451287.5       5200           5200           5200          -100            5100          -100            5100          -100            5100           1.40608e+11    0.5            413600         0.29010317     11767.561      23535.08       3.7391386    
    417400   29845.232     -0.035868549   -544315.52      0.004511437    88874.005     -455441.52      5200           5200           5200          -100            5100          -100            5100          -100            5100           1.40608e+11    0.5            413700         0.29699245     14515.29       29030.138      3.7164494    
    417600   24802.734     -0.038165854   -543985.94      0.004511437    73858.305     -470127.64      5200           5200           5200          -100            5100          -100            5100          -100            5100           1.40608e+11    0.5            413800         0.30380538     14678.011      29356.217      3.6936629    
    417800   25593.248     -0.034729428   -543667.68      0.004511437    76212.324     -467455.35      5200           5200           5200          -100            5100          -100            5100          -100            5100           1.40608e+11    0.5            413900         0.31065305     14603.435      29207.232      3.6721063    
    418000   32352.883     -0.025542474   -543314.94      0.004511437    96341.36      -446973.58      5200           5200           5200          -100            5100          -100            5100          -100            5100           1.40608e+11    0.5            414000         0.31751439     14574.495      29148.914      3.6514423    
    418200   35284.089     -0.01894932    -542908.68      0.004511437    105069.99     -437838.69      5200           5200           5200          -100            5100          -100            5100          -100            5100           1.40608e+11    0.5            414100         0.3260052      11777.285      23554.182      3.6496969    
    418400   29882.926     -0.020934683   -542491.31      0.004511437    88986.25      -453505.06      5200           5200           5200          -100            5100          -100            5100          -100            5100           1.40608e+11    0.5            414200         0.33280503     14706.471      29413.504      3.6291856    
    418600   27309.848     -0.019872277   -542088.62      0.004511437    81324.064     -460764.56      5200           5200           5200          -100            5100          -100            5100          -100            5100           1.40608e+11    0.5            414300         0.35051603     5645.9612      11291.295      3.7253051    
    418800   32246.529     -0.0119428     -541665.03      0.004511437    96024.657     -445640.37      5200           5200           5200          -100            5100          -100            5100          -100            5100           1.40608e+11    0.5            414400         0.36169966     8941.8765      17883.977      3.7485695    
    419000   38839.095     -0.00065932843 -541166.09      0.004511437    115656.19     -425509.89      5200           5200           5200          -100            5100          -100            5100          -100            5100           1.40608e+11    0.5            414500         0.37323186     8671.4919      17343.351      3.7738277    
    419200   36038.976      0.00093429147 -540621.03      0.004511437    107317.92     -433303.11      5200           5200           5200          -100            5100          -100            5100          -100            5100           1.40608e+11    0.5            414600         0.38296294     10276.564      20553.546      3.7797106    
    419400   30620.611     -0.00082678402 -540086.93      0.004511437    91182.952     -448903.98      5200           5200           5200          -100            5100          -100            5100          -100            5100           1.40608e+11    0.5            414700         0.39218627     10841.974      21684.262      3.7800389    
    419600   32305.989      0.0052340971  -539551.33      0.004511437    96201.72      -443349.61      5200           5200           5200          -100            5100          -100            5100          -100            5100           1.40608e+11    0.5            414800         0.40104842     11283.997      22567.89       3.77657      
    419800   40031.075      0.016794629   -538947.5       0.004511437    119205.71     -419741.79      5200           5200           5200          -100            5100          -100            5100          -100            5100           1.40608e+11    0.5            414900         0.41357279     7983.9331      15966.622      3.8066115    
    420000   42023.142      0.023326086   -538270.25      0.004511437    125137.74     -413132.51      5200           5200           5200          -100            5100          -100            5100          -100            5100           1.40608e+11    0.5            415000         0.42641887     7784.728       15569.732      3.8378136    
    420200   35660.346      0.021960972   -537592.17      0.004511437    106190.42     -431401.75      5200           5200           5200          -100            5100          -100            5100          -100            5100           1.40608e+11    0.5            415100         0.43809779     8562.6101      17125.65       3.8570155    
    420400   33523.257      0.024400444   -536949.63      0.004511437    99826.535     -437123.1       5200           5200           5200          -100            5100          -100            5100          -100            5100           1.40608e+11    0.5            415200         0.44890935     9249.3316      18498.843      3.8675603    
    420600   39702.707      0.03410231    -538179.62      0.004511437    118227.88     -419951.74      5200           5200           5200          -100            5100          -100            5100          -100            5100           1.40608e+11    0.5            415300         0.46157724     7893.9695      15788.012      3.8929574    
    420800   46207.174      0.045730938   -537449.77      0.004511437    137597.07     -399852.7       5200           5200           5200          -100            5100          -100            5100          -100            5100           1.40608e+11    0.5            415400         0.47116091     10434.545      20869.633      3.8914676    
    421000   42031.358      0.046252402   -536701.07      0.004511437    125162.21     -411538.86      5200           5200           5200          -100            5100          -100            5100          -100            5100           1.40608e+11    0.5            415500         0.48026209     10987.662      21975.373      3.8857827    
    421200   36477.977      0.044647899   -536021.92      0.004511437    108625.19     -427396.73      5200           5200           5200          -100            5100          -100            5100          -100            5100           1.40608e+11    0.5            415600         0.48895259     11506.842      23013.869      3.8767189    
    421400   39268.839      0.051614657   -535391.48      0.004511437    116935.9      -418455.59      5200           5200           5200          -100            5100          -100            5100          -100            5100           1.40608e+11    0.5            415700         0.49937037     9598.8865      19197.65       3.8810964    
    421600   47774.09       0.06306428    -534742.79      0.004511437    142263.08     -392479.7       5200           5200           5200          -100            5100          -100            5100          -100            5100           1.40608e+11    0.5            415800         0.50736802     12503.887      25008.271      3.8665152    
    421800   48528.724      0.067566626   -534104.14      0.004511437    144510.25     -389593.88      5200           5200           5200          -100            5100          -100            5100          -100            5100           1.40608e+11    0.5            415900         0.51515705     12838.655      25677.461      3.8506001    
    422000   41363.014      0.064263952   -533543.63      0.004511437    123171.99     -410371.64      5200           5200           5200          -100            5100          -100            5100          -100            5100           1.40608e+11    0.5            416000         0.52263955     13364.528      26729.02       3.8327092    
    422200   39937.662      0.065250738   -533090.51      0.004511437    118927.54     -414162.97      5200           5200           5200          -100            5100          -100            5100          -100            5100           1.40608e+11    0.5            416100         0.53179623     10920.735      21841.145      3.8272111    
    422400   47370.782      0.075573165   -532699.01      0.004511437    141062.1      -391636.91      5200           5200           5200          -100            5100          -100            5100          -100            5100           1.40608e+11    0.5            416200         0.53891895     14039.998      28080.836      3.807219     
    422600   53391.183      0.083873968   -532364.06      0.004511437    158989.82     -373374.24      5200           5200           5200          -100            5100          -100            5100          -100            5100           1.40608e+11    0.5            416300         0.54580089     14530.841      29061.763      3.7859691    
    422800   47832.743      0.08023652    -532114.98      0.004511437    142437.74     -389677.24      5200           5200           5200          -100            5100          -100            5100          -100            5100           1.40608e+11    0.5            416400         0.55850195     7872.7257      15743.808      3.8048352    
    423000   42441.257      0.077670937   -531974.55      0.004511437    126382.81     -405591.74      5200           5200           5200          -100            5100          -100            5100          -100            5100           1.40608e+11    0.5            416500         0.57127258     7830.8033      15662.127      3.8231641    
    423200   46502.513      0.081654224   -531942.8       0.004511437    138476.54     -393466.26      5200           5200           5200          -100            5100          -100            5100          -100            5100           1.40608e+11    0.5            416600         0.58293375     8575.6498      17151.497      3.833257     
    423400   55474.901      0.090988602   -532014.73      0.004511437    165194.78     -366819.95      5200           5200           5200          -100            5100          -100            5100          -100            5100           1.40608e+11    0.5            416700         0.60093307     5555.617       11111.086      3.8836747    
    423600   54736.438      0.090453717   -532188.96      0.004511437    162995.77     -369193.19      5200           5200           5200          -100            5100          -100            5100          -100            5100           1.40608e+11    0.5            416800         0.61493918     7139.7371      14279.767      3.9067019    
    423800   47043.488      0.083482796   -532439.81      0.004511437    140087.47     -392352.34      5200           5200           5200          -100            5100          -100            5100          -100            5100           1.40608e+11    0.5            416900         0.62524546     9703.2654      19406.587      3.9055428    
    424000   46597.174      0.082682561   -532767.76      0.004511437    138758.43     -394009.33      5200           5200           5200          -100            5100          -100            5100          -100            5100           1.40608e+11    0.5            417000         0.63511172     10135.567      20271.743      3.9014215    
    424200   55157.465      0.090030922   -533195.04      0.004511437    164249.51     -368945.53      5200           5200           5200          -100            5100          -100            5100          -100            5100           1.40608e+11    0.5            417100         0.64437711     10792.949      21586.139      3.8935092    
    424400   60264.086      0.094374999   -533719.62      0.004511437    179456.16     -354263.46      5200           5200           5200          -100            5100          -100            5100          -100            5100           1.40608e+11    0.5            417200         0.65538465     9084.6704      18169.128      3.8959174    
    424600   53465.574      0.086189827   -534277.54      0.004511437    159211.35     -375066.2       5200           5200           5200          -100            5100          -100            5100          -100            5100           1.40608e+11    0.5            417300         0.66383705     11831.022      23662.786      3.8830089    
    424800   48560.606      0.080513951   -534832         0.004511437    144605.19     -390226.8       5200           5200           5200          -100            5100          -100            5100          -100            5100           1.40608e+11    0.5            417400         0.67199049     12264.846      24529.722      3.8685015    
    425000   53956.254      0.08430546    -535418.5       0.004511437    160672.51     -374745.98      5200           5200           5200          -100            5100          -100            5100          -100            5100           1.40608e+11    0.5            417500         0.68065103     11546.603      23093.187      3.8570382    
    425200   62989.589      0.091228962   -536055.8       0.004511437    187572.24     -348483.56      5200           5200           5200          -100            5100          -100            5100          -100            5100           1.40608e+11    0.5            417600         0.68819851     13249.527      26499.413      3.8394377    
    425400   60661.312      0.086682613   -538584.35      0.004511437    180639.03     -357945.32      5200           5200           5200          -100            5100          -100            5100          -100            5100           1.40608e+11    0.5            417700         0.69556081     13582.776      27165.804      3.8210813    
    425600   52760.472      0.078026236   -539146.85      0.004511437    157111.68     -382035.17      5200           5200           5200          -100            5100          -100            5100          -100            5100           1.40608e+11    0.5            417800         0.70450191     11184.224      22368.027      3.8115511    
    425800   53481.351      0.077029785   -539652.15      0.004511437    159258.33     -380393.82      5200           5200           5200          -100            5100          -100            5100          -100            5100           1.40608e+11    0.5            417900         0.71136686     14566.92       29134.129      3.7909685    
    426000   62961.749      0.085435801   -540132.34      0.004511437    187489.34     -352643         5200           5200           5200          -100            5100          -100            5100          -100            5100           1.40608e+11    0.5            418000         0.718263       14500.712      29001.765      3.7708937    
    426200   66848.93       0.087729561   -540563.42      0.004511437    199064.7      -341498.72      5200           5200           5200          -100            5100          -100            5100          -100            5100           1.40608e+11    0.5            418100         0.72680785     11703.04       23406.223      3.7596725    
    426400   59021.769      0.078917702   -540889.43      0.004511437    175756.75     -365132.68      5200           5200           5200          -100            5100          -100            5100          -100            5100           1.40608e+11    0.5            418200         0.73361048     14700.197      29400.541      3.7396359    
    426600   54835.395      0.073986353   -541112.47      0.004511437    163290.44     -377822.03      5200           5200           5200          -100            5100          -100            5100          -100            5100           1.40608e+11    0.5            418300         0.74040713     14713.183      29426.119      3.7198887    
    426800   61573.67       0.079951525   -541257.02      0.004511437    183355.87     -357901.15      5200           5200           5200          -100            5100          -100            5100          -100            5100           1.40608e+11    0.5            418400         0.74792465     13302.233      26604.419      3.7040197    
    427000   70358.643      0.088262736   -541316.22      0.004511437    209516.02     -331800.19      5200           5200           5200          -100            5100          -100            5100          -100            5100           1.40608e+11    0.5            418500         0.75479275     14560.104      29120.406      3.6851758    
    427200   66435.364      0.084736692   -541265.04      0.004511437    197833.17     -343431.87      5200           5200           5200          -100            5100          -100            5100          -100            5100           1.40608e+11    0.5            418600         0.76159973     14690.887      29381.731      3.6663167    
    427400   58538.544      0.077385599   -541121.07      0.004511437    174317.79     -366803.28      5200           5200           5200          -100            5100          -100            5100          -100            5100           1.40608e+11    0.5            418700         0.77026952     11534.023      23067.952      3.656579     
    427600   60562.431      0.080731227   -540907.61      0.004511437    180344.58     -360563.04      5200           5200           5200          -100            5100          -100            5100          -100            5100           1.40608e+11    0.5            418800         0.77712226     14592.925      29185.828      3.6383566    
    427800   70815.377      0.091437117   -540612.7       0.004511437    210876.1      -329736.6       5200           5200           5200          -100            5100          -100            5100          -100            5100           1.40608e+11    0.5            418900         0.78394332     14660.581      29321.244      3.6202435    
    428000   73271.561      0.095232708   -540215.17      0.004511437    218190.2      -322024.98      5200           5200           5200          -100            5100          -100            5100          -100            5100           1.40608e+11    0.5            419000         0.79179351     12738.566      25477.009      3.6070703    
    428200   64541.782      0.08809696    -539748.55      0.004511437    192194.41     -347554.14      5200           5200           5200          -100            5100          -100            5100          -100            5100           1.40608e+11    0.5            419100         0.81599157     4132.4117      8264.5202      3.6675007    
    428400   61260.601      0.08702608    -531889.72      0.004511437    182423.61     -349466.11      5200           5200           5200          -100            5100          -100            5100          -100            5100           1.40608e+11    0.5            419200         0.82674428     9300.4404      18601.642      3.6664479    
    428600   69376.463      0.096198598   -531375         0.004511437    206591.26     -324783.74      5200           5200           5200          -100            5100          -100            5100          -100            5100           1.40608e+11    0.5            419300         0.83974836     7689.9433      15379.74       3.6750443    
    428800   77628.622      0.1060914     -530773.83      0.004511437    231164.78     -299609.05      5200           5200           5200          -100            5100          -100            5100          -100            5100           1.40608e+11    0.5            419400         0.84923436     10541.981      21084.534      3.6679835    
    429000   72069.678      0.10233583    -530121.92      0.004511437    214611.19     -315510.73      5200           5200           5200          -100            5100          -100            5100          -100            5100           1.40608e+11    0.5            419500         0.85959523     9651.6935      19303.307      3.6646036    
    429200   64379.187      0.097357098   -529484.36      0.004511437    191710.23     -337774.14      5200           5200           5200          -100            5100          -100            5100          -100            5100           1.40608e+11    0.5            419600         0.86821086     11606.796      23214.088      3.6537334    
    429400   67866.583      0.10195546    -528861.5       0.004511437    202095.1      -326766.4       5200           5200           5200          -100            5100          -100            5100          -100            5100           1.40608e+11    0.5            419700         0.87638494     12233.945      24467.693      3.6410753    
    429600   78696.499      0.1149525     -528202.5       0.004511437    234344.73     -293857.76      5200           5200           5200          -100            5100          -100            5100          -100            5100           1.40608e+11    0.5            419800         0.8870012      9419.3676      18838.765      3.6385274    
    429800   79481.664      0.11815911    -527517.1       0.004511437    236682.82     -290834.28      5200           5200           5200          -100            5100          -100            5100          -100            5100           1.40608e+11    0.5            419900         0.89460864     13145.275      26290.976      3.6236276    
    430000   70025.598      0.1117968     -526871.67      0.004511437    208524.27     -318347.4       5200           5200           5200          -100            5100          -100            5100          -100            5100           1.40608e+11    0.5            420000         0.90210545     13339.155      26678.483      3.6084318    
    430200   67876.594      0.11201284    -526301.02      0.004511437    202124.91     -324176.11      5200           5200           5200          -100            5100          -100            5100          -100            5100           1.40608e+11    0.5            420100         0.91099792     11245.426      22490.848      3.5989029    
    430400   77328.461      0.12318386    -525763.72      0.004511437    230270.95     -295492.76      5200           5200           5200          -100            5100          -100            5100          -100            5100           1.40608e+11    0.5            420200         0.91788724     14515.408      29031.234      3.581569     
    430600   84699.039      0.13184697    -525230.55      0.004511437    252219.28     -273011.27      5200           5200           5200          -100            5100          -100            5100          -100            5100           1.40608e+11    0.5            420300         0.92471204     14652.399      29304.605      3.5641904    
    430800   77554.47       0.1264352     -524733.39      0.004511437    230943.97     -293789.42      5200           5200           5200          -100            5100          -100            5100          -100            5100           1.40608e+11    0.5            420400         0.93233697     13114.838      26229.739      3.5500615    
    431000   70339.49       0.11960314    -524306.37      0.004511437    209458.99     -314847.38      5200           5200           5200          -100            5100          -100            5100          -100            5100           1.40608e+11    0.5            420500         0.93922137     14525.643      29051.057      3.5332703    
    431200   75400.667      0.12618672    -516578.01      0.004511437    224530.31     -292047.7       5200           5200           5200          -100            5100          -100            5100          -100            5100           1.40608e+11    0.5            420600         0.94773166     11750.463      23501.125      3.5227095    
    431400   86504.804      0.13731447    -516294.43      0.004511437    257596.54     -258697.9       5200           5200           5200          -100            5100          -100            5100          -100            5100           1.40608e+11    0.5            420700         0.95451082     14751.092      29502.293      3.5058285    
    431600   85428.582      0.13605018    -516066.85      0.004511437    254391.73     -261675.12      5200           5200           5200          -100            5100          -100            5100          -100            5100           1.40608e+11    0.5            420800         0.9613045      14719.281      29438.051      3.4891888    
    431800   75519.835      0.12649725    -515932.84      0.004511437    224885.17     -291047.67      5200           5200           5200          -100            5100          -100            5100          -100            5100           1.40608e+11    0.5            420900         0.96882318     13300.481      26601.373      3.4753279    
    432000   74729.461      0.12461751    -515892.06      0.004511437    222531.57     -293360.49      5200           5200           5200          -100            5100          -100            5100          -100            5100           1.40608e+11    0.5            421000         0.97568528     14572.665      29145.079      3.4592563    
    432200   85376.538      0.13275234    -515942.3       0.004511437    254236.75     -261705.55      5200           5200           5200          -100            5100          -100            5100          -100            5100           1.40608e+11    0.5            421100         0.98253783     14593.223      29186.531      3.4433168    
    432400   91482.975      0.13685885    -516080.78      0.004511437    272420.68     -243660.1       5200           5200           5200          -100            5100          -100            5100          -100            5100           1.40608e+11    0.5            421200         0.99105878     11735.713      23471.426      3.4333191    
    432600   82917.798      0.12699635    -508922.82      0.004511437    246915.04     -262007.78      5200           5200           5200          -100            5100          -100            5100          -100            5100           1.40608e+11    0.5            421300         0.99793591     14540.962      29082.077      3.4177178    
    432800   76489.564      0.11874252    -509215.82      0.004511437    227772.86     -281442.96      5200           5200           5200          -100            5100          -100            5100          -100            5100           1.40608e+11    0.5            421400         1.0054399      13326.221      26652.381      3.4043921    
    433000   83151.285      0.12212439    -509588.62      0.004511437    247610.33     -261978.29      5200           5200           5200          -100            5100          -100            5100          -100            5100           1.40608e+11    0.5            421500         1.0237526      5460.4181      10920.189      3.4273637    
    433200   94109.867      0.12966984    -510051.72      0.004511437    280243.11     -229808.61      5200           5200           5200          -100            5100          -100            5100          -100            5100           1.40608e+11    0.5            421600         1.0355927      8446.2256      16892.561      3.4281842    
    433400   91104.111      0.12413603    -510569.25      0.004511437    271292.48     -239276.76      5200           5200           5200          -100            5100          -100            5100          -100            5100           1.40608e+11    0.5            421700         1.0496933      7091.9446      14184.302      3.4361883    
    433600   81098.2        0.11192392    -503723.05      0.004511437    241496.59     -262226.47      5200           5200           5200          -100            5100          -100            5100          -100            5100           1.40608e+11    0.5            421800         1.0598593      9836.8296      19673.452      3.4310823    
    433800   81840.942      0.1089879     -504280.52      0.004511437    243708.35     -260572.17      5200           5200           5200          -100            5100          -100            5100          -100            5100           1.40608e+11    0.5            421900         1.0694169      10462.967      20926.668      3.4239419    
    434000   93412.846      0.11647177    -504882.42      0.004511437    278167.51     -226714.91      5200           5200           5200          -100            5100          -100            5100          -100            5100           1.40608e+11    0.5            422000         1.0795844      9835.302       19670.221      3.4186947    
    434200   97919.903      0.11693256    -505510.72      0.004511437    291588.75     -213921.97      5200           5200           5200          -100            5100          -100            5100          -100            5100           1.40608e+11    0.5            422100         1.088609       11079.723      22158.192      3.409792     
    434400   88210.682      0.10390941    -506107.56      0.004511437    262676.35     -243431.22      5200           5200           5200          -100            5100          -100            5100          -100            5100           1.40608e+11    0.5            422200         1.1050505      6082.2104      12164.398      3.4238614    
    434600   82845.61       0.095653645   -506653.8       0.004511437    246700.08     -259953.72      5200           5200           5200          -100            5100          -100            5100          -100            5100           1.40608e+11    0.5            422300         1.1171184      8286.7707      16573.727      3.424027     
    434800   91059.239      0.10013349    -507178.11      0.004511437    271158.86     -236019.25      5200           5200           5200          -100            5100          -100            5100          -100            5100           1.40608e+11    0.5            422400         1.1282852      8955.2693      17910.959      3.4212637    
    435000   101483.84      0.11002988    -492945.95      0.004511437    302201.55     -190744.4       5200           5200           5200          -100            5100          -100            5100          -100            5100           1.40608e+11    0.5            422500         1.1398892      8617.7596      17235.709      3.4196784    
    435200   96582.083      0.10278097    -493409.8       0.004511437    287604.95     -205804.85      5200           5200           5200          -100            5100          -100            5100          -100            5100           1.40608e+11    0.5            422600         1.1496828      10210.786      20422.071      3.4125602    
    435400   86779.047      0.090972414   -493764.35      0.004511437    258413.18     -235351.17      5200           5200           5200          -100            5100          -100            5100          -100            5100           1.40608e+11    0.5            422700         1.1612371      8654.7453      17309.455      3.4105721    
    435600   89160.228      0.091436582   -494030.33      0.004511437    265503.93     -228526.39      5200           5200           5200          -100            5100          -100            5100          -100            5100           1.40608e+11    0.5            422800         1.1700062      11403.714      22807.717      3.4003394    
    435800   101410.67      0.1001732     -494215.34      0.004511437    301983.65     -192231.69      5200           5200           5200          -100            5100          -100            5100          -100            5100           1.40608e+11    0.5            422900         1.178487       11791.371      23582.717      3.3893006    
    436000   104119.54      0.1006336     -494307.48      0.004511437    310050.21     -184257.27      5200           5200           5200          -100            5100          -100            5100          -100            5100           1.40608e+11    0.5            423000         1.187545       11040.02       22080.141      3.3799439    
    436200   93501.743      0.089605802   -494282.82      0.004511437    278432.22     -215850.6       5200           5200           5200          -100            5100          -100            5100          -100            5100           1.40608e+11    0.5            423100         1.1953088      12880.442      25761.092      3.366946     
    436400   89381.785      0.084967736   -494162.4       0.004511437    266163.69     -227998.71      5200           5200           5200          -100            5100          -100            5100          -100            5100           1.40608e+11    0.5            423200         1.2028694      13226.546      26453.151      3.3534613    
    436600   99089.653      0.094292951   -493946.45      0.004511437    295072.07     -198874.38      5200           5200           5200          -100            5100          -100            5100          -100            5100           1.40608e+11    0.5            423300         1.2121813      10738.772      21477.223      3.3448994    
    436800   108676.73      0.1028261     -493616.03      0.004511437    323620.73     -169995.3       5200           5200           5200          -100            5100          -100            5100          -100            5100           1.40608e+11    0.5            423400         1.2192309      14185.349      28371.446      3.3301452    
    437000   101948.74      0.09774643    -493180.05      0.004511437    303585.93     -189594.11      5200           5200           5200          -100            5100          -100            5100          -100            5100           1.40608e+11    0.5            423500         1.2269356      12979.222      25958.559      3.317277     
    437200   92584.754      0.090995465   -492682.83      0.004511437    275701.59     -216981.24      5200           5200           5200          -100            5100          -100            5100          -100            5100           1.40608e+11    0.5            423600         1.2337345      14708.32       29416.701      3.3020606    
    437400   96696.578      0.096808534   -492129.42      0.004511437    287945.9      -204183.53      5200           5200           5200          -100            5100          -100            5100          -100            5100           1.40608e+11    0.5            423700         1.2405046      14770.78       29541.5        3.286891     
    437600   109387.18      0.11126684    -491479.45      0.004511437    325736.33     -165743.12      5200           5200           5200          -100            5100          -100            5100          -100            5100           1.40608e+11    0.5            423800         1.2490681      11677.249      23354.549      3.2765476    
    437800   110116.64      0.11521363    -490729.94      0.004511437    327908.55     -162821.39      5200           5200           5200          -100            5100          -100            5100          -100            5100           1.40608e+11    0.5            423900         1.2610864      8320.6139      16640.966      3.2752032    
    438000   98808.588      0.1069977     -489940.43      0.004511437    294235.1      -195705.33      5200           5200           5200          -100            5100          -100            5100          -100            5100           1.40608e+11    0.5            424000         1.2689275      12753.389      25507.055      3.2629634    
    438200   96129.88       0.10773289    -489138.7       0.004511437    286258.37     -202880.34      5200           5200           5200          -100            5100          -100            5100          -100            5100           1.40608e+11    0.5            424100         1.2757087      14746.874      29494.131      3.2480876    
    438400   107260.78      0.12123194    -488289.75      0.004511437    319404.28     -168885.48      5200           5200           5200          -100            5100          -100            5100          -100            5100           1.40608e+11    0.5            424200         1.2824739      14781.824      29563.783      3.2332851    
    438600   115680.76      0.13355235    -487357.25      0.004511437    344477.54     -142879.72      5200           5200           5200          -100            5100          -100            5100          -100            5100           1.40608e+11    0.5            424300         1.2912986      11331.12       22661.734      3.2237392    
    438800   107197.92      0.12768509    -486402.92      0.004511437    319217.11     -167185.81      5200           5200           5200          -100            5100          -100            5100          -100            5100           1.40608e+11    0.5            424400         1.2981279      14643.784      29288.212      3.2092667    
    439000   98526.39       0.12216353    -485494.85      0.004511437    293394.77     -192100.09      5200           5200           5200          -100            5100          -100            5100          -100            5100           1.40608e+11    0.5            424500         1.305726       13161.031      26322.245      3.1967835    
    439200   104459.4       0.13155775    -484620.51      0.004511437    311062.26     -173558.26      5200           5200           5200          -100            5100          -100            5100          -100            5100           1.40608e+11    0.5            424600         1.312522       14714.56       29428.66       3.1824226    
    439400   117290.11      0.1475836     -483715.91      0.004511437    349269.9      -134446         5200           5200           5200          -100            5100          -100            5100          -100            5100           1.40608e+11    0.5            424700         1.319305       14742.824      29486.052      3.1681328    
    439600   115876.53      0.15051881    -482793.13      0.004511437    345060.51     -137732.62      5200           5200           5200          -100            5100          -100            5100          -100            5100           1.40608e+11    0.5            424800         1.3278989      11636.158      23272.261      3.1582518    
    439800   104144.82      0.14462423    -481919.82      0.004511437    310125.49     -171794.34      5200           5200           5200          -100            5100          -100            5100          -100            5100           1.40608e+11    0.5            424900         1.3346624      14785.369      29570.913      3.144076     
    440000   103118.03      0.14775959    -481113.27      0.004511437    307067.89     -174045.38      5200           5200           5200          -100            5100          -100            5100          -100            5100           1.40608e+11    0.5            425000         1.3422461      13186.136      26372.236      3.1319131    
    440200   115521.54      0.16375657    -480329.88      0.004511437    344003.41     -136326.47      5200           5200           5200          -100            5100          -100            5100          -100            5100           1.40608e+11    0.5            425100         1.3490553      14686.063      29372.186      3.1180206    
    440400   122405.02      0.17534606    -479530.02      0.004511437    364501.26     -115028.76      5200           5200           5200          -100            5100          -100            5100          -100            5100           1.40608e+11    0.5            425200         1.3575905      11716.154      23432.344      3.1081731    
    440600   112326.26      0.16948673    -478764.74      0.004511437    334488.44     -144276.3       5200           5200           5200          -100            5100          -100            5100          -100            5100           1.40608e+11    0.5            425300         1.3643872      14712.992      29425.781      3.0944       
    440800   104651.61      0.16574646    -478073.09      0.004511437    311634.63     -166438.46      5200           5200           5200          -100            5100          -100            5100          -100            5100           1.40608e+11    0.5            425400         1.3711601      14764.735      29529.684      3.0806637    
    441000   112435.23      0.17672377    -477431.74      0.004511437    334812.91     -142618.83      5200           5200           5200          -100            5100          -100            5100          -100            5100           1.40608e+11    0.5            425500         1.3787884      13109.058      26218.196      3.0689213    
    441200   125014.5       0.1928981     -469423.5       0.004511437    372271.82     -97151.676      5200           5200           5200          -100            5100          -100            5100          -100            5100           1.40608e+11    0.5            425600         1.3855716      14742.178      29484.096      3.0553685    
    441400   121374.29      0.19259681    -468818.37      0.004511437    361431.91     -107386.46      5200           5200           5200          -100            5100          -100            5100          -100            5100           1.40608e+11    0.5            425700         1.3940724      11763.409      23526.86       3.0456544    
    441600   109559.78      0.18427805    -468264.54      0.004511437    326250.31     -142014.23      5200           5200           5200          -100            5100          -100            5100          -100            5100           1.40608e+11    0.5            425800         1.4008307      14797.157      29594.327      3.0321829    
    441800   110363.02      0.18781526    -467767.42      0.004511437    328642.22     -139125.2       5200           5200           5200          -100            5100          -100            5100          -100            5100           1.40608e+11    0.5            425900         1.4083946      13220.635      26441.218      3.0205244    
    442000   123784.29      0.20346948    -467284.13      0.004511437    368608.47     -98675.665      5200           5200           5200          -100            5100          -100            5100          -100            5100           1.40608e+11    0.5            426000         1.4152392      14610.07       29220.299      3.0073883    
    442200   128807.68      0.21141445    -459432.68      0.004511437    383567.27     -75865.414      5200           5200           5200          -100            5100          -100            5100          -100            5100           1.40608e+11    0.5            426100         1.4238162      11659.083      23318.141      2.9979782    
    442400   117394.73      0.20225581    -458960.79      0.004511437    349581.47     -109379.32      5200           5200           5200          -100            5100          -100            5100          -100            5100           1.40608e+11    0.5            426200         1.4358024      8342.7356      16685.158      2.9956927    
    442600   110997.78      0.19742568    -458510.95      0.004511437    330532.45     -127978.5       5200           5200           5200          -100            5100          -100            5100          -100            5100           1.40608e+11    0.5            426300         1.4433203      13301.886      26604.101      2.984048     
    442800   120581.08      0.20888571    -450697.8       0.004511437    359069.87     -91627.933      5200           5200           5200          -100            5100          -100            5100          -100            5100           1.40608e+11    0.5            426400         1.4501099      14728.521      29457.311      2.9709619    
    443000   132492.48      0.22179629    -450232.05      0.004511437    394539.98     -55692.065      5200           5200           5200          -100            5100          -100            5100          -100            5100           1.40608e+11    0.5            426500         1.4587057      11633.668      23267.369      2.9616195    
    443200   126646.1       0.21655432    -449726.44      0.004511437    377130.45     -72595.993      5200           5200           5200          -100            5100          -100            5100          -100            5100           1.40608e+11    0.5            426600         1.4654759      14770.671      29541.635      2.9486128    
    443400   115105.27      0.20754265    -441845.41      0.004511437    342763.84     -99081.572      5200           5200           5200          -100            5100          -100            5100          -100            5100           1.40608e+11    0.5            426700         1.4723426      14562.769      29125.241      2.9358738    
    443600   117866.71      0.21012962    -441354.09      0.004511437    350986.94     -90367.15       5200           5200           5200          -100            5100          -100            5100          -100            5100           1.40608e+11    0.5            426800         1.4798484      13323.282      26646.593      2.924467     
    443800   132005.46      0.22452574    -440847.85      0.004511437    393089.73     -47758.123      5200           5200           5200          -100            5100          -100            5100          -100            5100           1.40608e+11    0.5            426900         1.486578       14859.492      29719.294      2.9115865    
    444000   134894.96      0.22677943    -440306.63      0.004511437    401694.16     -38612.469      5200           5200           5200          -100            5100          -100            5100          -100            5100           1.40608e+11    0.5            427000         1.4942159      13092.534      26184.766      2.9005416    
    444200   122461.65      0.2145989     -439776.37      0.004511437    364669.87     -75106.491      5200           5200           5200          -100            5100          -100            5100          -100            5100           1.40608e+11    0.5            427100         1.5009839      14775.708      29551.626      2.8878624    
    444400   117613.27      0.20938697    -439291.45      0.004511437    350232.23     -89059.226      5200           5200           5200          -100            5100          -100            5100          -100            5100           1.40608e+11    0.5            427200         1.5094808      11768.926      23537.597      2.8785496    
    444600   128893.19      0.21856153    -438848.23      0.004511437    383821.92     -55026.303      5200           5200           5200          -100            5100          -100            5100          -100            5100           1.40608e+11    0.5            427300         1.5162545      14763.068      29526.379      2.8659885    
    444800   139718.52      0.22676614    -438423.62      0.004511437    416057.9      -22365.721      5200           5200           5200          -100            5100          -100            5100          -100            5100           1.40608e+11    0.5            427400         1.5237326      13372.416      26744.951      2.8548137    
    445000   131770.91      0.21691502    -438049.53      0.004511437    392391.26     -45658.27       5200           5200           5200          -100            5100          -100            5100          -100            5100           1.40608e+11    0.5            427500         1.5305329      14705.242      29410.593      2.8424225    
    445200   120850.43      0.20340892    -437762.36      0.004511437    359871.94     -77890.415      5200           5200           5200          -100            5100          -100            5100          -100            5100           1.40608e+11    0.5            427600         1.5390722      11710.511      23420.874      2.8332964    
    445400   125654.26      0.2055574     -437576.83      0.004511437    374176.92     -63399.916      5200           5200           5200          -100            5100          -100            5100          -100            5100           1.40608e+11    0.5            427700         1.545816       14828.347      29656.782      2.8209003    
    445600   140142.21      0.21514309    -444862.72      0.004511437    417319.58     -27543.146      5200           5200           5200          -100            5100          -100            5100          -100            5100           1.40608e+11    0.5            427800         1.5533035      13355.659      26711.378      2.8099129    
    445800   140695.65      0.21192812    -444866.79      0.004511437    418967.63     -25899.159      5200           5200           5200          -100            5100          -100            5100          -100            5100           1.40608e+11    0.5            427900         1.5600583      14804.265      29608.597      2.7976507    
    446000   127586.62      0.19575252    -444966.53      0.004511437    379931.18     -65035.349      5200           5200           5200          -100            5100          -100            5100          -100            5100           1.40608e+11    0.5            428000         1.5675878      13281.195      26562.365      2.7868269    
    446200   124518.72      0.18880114    -445165.87      0.004511437    370795.48     -74370.388      5200           5200           5200          -100            5100          -100            5100          -100            5100           1.40608e+11    0.5            428100         1.5743346      14821.732      29643.529      2.7746601    
    446400   137301.23      0.19743803    -445481.1       0.004511437    408859.63     -36621.477      5200           5200           5200          -100            5100          -100            5100          -100            5100           1.40608e+11    0.5            428200         1.5828443      11751.25       23502.326      2.7656333    
    446600   146611.15      0.20214518    -445907.45      0.004511437    436582.97     -9324.483       5200           5200           5200          -100            5100          -100            5100          -100            5100           1.40608e+11    0.5            428300         1.5896224      14753.552      29507.19       2.7536123    
    446800   136752.13      0.18875508    -446419.38      0.004511437    407224.5      -39194.872      5200           5200           5200          -100            5100          -100            5100          -100            5100           1.40608e+11    0.5            428400         1.5970855      13399.186      26798.239      2.7428249    
    447000   126807.95      0.17412295    -446965.49      0.004511437    377612.41     -69353.086      5200           5200           5200          -100            5100          -100            5100          -100            5100           1.40608e+11    0.5            428500         1.6038757      14727.161      29454.578      2.7309275    
    447200   133656.28      0.17554355    -447559.4       0.004511437    398005.58     -49553.816      5200           5200           5200          -100            5100          -100            5100          -100            5100           1.40608e+11    0.5            428600         1.6182297      6966.5298      13932.878      2.7318552    
    447400   148045.2       0.18441958    -448207.39      0.004511437    440853.33     -7354.0606      5200           5200           5200          -100            5100          -100            5100          -100            5100           1.40608e+11    0.5            428700         1.6250256      14715.227      29430.787      2.7199671    
    447600   146166.62      0.17713716    -448871.58      0.004511437    435259.25     -13612.33       5200           5200           5200          -100            5100          -100            5100          -100            5100           1.40608e+11    0.5            428800         1.6325153      13351.891      26704.213      2.709285     
    447800   132796.93      0.15893824    -449498.13      0.004511437    395446.57     -54051.559      5200           5200           5200          -100            5100          -100            5100          -100            5100           1.40608e+11    0.5            428900         1.6399978      13364.501      26728.902      2.6986247    
    448000   131687.01      0.15273444    -450080.38      0.004511437    392141.43     -57938.955      5200           5200           5200          -100            5100          -100            5100          -100            5100           1.40608e+11    0.5            429000         1.6468321      14632.085      29264.157      2.6869404    
    448200   145682.34      0.16159482    -450636.67      0.004511437    433817.12     -16819.553      5200           5200           5200          -100            5100          -100            5100          -100            5100           1.40608e+11    0.5            429100         1.6535854      14807.661      29615.493      2.6751759    
    448400   153120.41      0.16356274    -443772.93      0.004511437    455966.44      12193.51       5200           5200           5200          -100            5100          -100            5100          -100            5100           1.40608e+11    0.5            429200         1.6621126      11727.033      23454.05       2.6663096    
    448600   141657.16      0.14758509    -444204.23      0.004511437    421830.83     -22373.394      5200           5200           5200          -100            5100          -100            5100          -100            5100           1.40608e+11    0.5            429300         1.6695715      13406.844      26813.702      2.655747     
    448800   133001.7       0.13409942    -444527.44      0.004511437    396056.34     -48471.096      5200           5200           5200          -100            5100          -100            5100          -100            5100           1.40608e+11    0.5            429400         1.676294       14875.489      29750.837      2.6440551    
    449000   141831         0.13725502    -444757.74      0.004511437    422348.51     -22409.227      5200           5200           5200          -100            5100          -100            5100          -100            5100           1.40608e+11    0.5            429500         1.6838124      13300.697      26601.468      2.633659     
    449200   155712.01      0.14590045    -444894.86      0.004511437    463683.77      18788.91       5200           5200           5200          -100            5100          -100            5100          -100            5100           1.40608e+11    0.5            429600         1.6905169      14915.407      29830.955      2.6220298    
    449400   151428.07      0.13742662    -444923.96      0.004511437    450926.94      6002.982       5200           5200           5200          -100            5100          -100            5100          -100            5100           1.40608e+11    0.5            429700         1.6990309      11745.176      23489.838      2.6132345    
    449600   138152.19      0.12009645    -444848.85      0.004511437    411393.62     -33455.23       5200           5200           5200          -100            5100          -100            5100          -100            5100           1.40608e+11    0.5            429800         1.7058356      14695.954      29392.012      2.601834     
    449800   139113.94      0.11832198    -444688.65      0.004511437    414257.55     -30431.098      5200           5200           5200          -100            5100          -100            5100          -100            5100           1.40608e+11    0.5            429900         1.7133393      13326.652      26653.493      2.5915372    
    450000   154061.19      0.12927631    -444441.61      0.004511437    458767.92      14326.307      5200           5200           5200          -100            5100          -100            5100          -100            5100           1.40608e+11    0.5            430000         1.7249046      8646.554       17292.959      2.5873611    
    450200   159378.82      0.13098775    -451483.88      0.004511437    474602.9       23119.024      5200           5200           5200          -100            5100          -100            5100          -100            5100           1.40608e+11    0.5            430100         1.7334365      11720.818      23442.119      2.5785982    
    450400   146576.76      0.11608508    -451078.33      0.004511437    436480.57     -14597.756      5200           5200           5200          -100            5100          -100            5100          -100            5100           1.40608e+11    0.5            430200         1.7401826      14823.373      29646.856      2.5672036    
    450600   139439.32      0.10711434    -450633.44      0.004511437    415226.47     -35406.966      5200           5200           5200          -100            5100          -100            5100          -100            5100           1.40608e+11    0.5            430300         1.7477036      13296.032      26591.473      2.5569889    
    450800   150184.32      0.11586754    -450142.55      0.004511437    447223.26     -2919.287       5200           5200           5200          -100            5100          -100            5100          -100            5100           1.40608e+11    0.5            430400         1.7545144      14682.52       29365.07       2.5457699    
    451000   163194.78      0.12671973    -449583.55      0.004511437    485966.18      36382.63       5200           5200           5200          -100            5100          -100            5100          -100            5100           1.40608e+11    0.5            430500         1.7623752      12721.186      25442.383      2.5361049    
    451200   156540.71      0.11904462    -448979.53      0.004511437    466151.5       17171.972      5200           5200           5200          -100            5100          -100            5100          -100            5100           1.40608e+11    0.5            430600         1.7692033      14645.586      29291.266      2.5249832    
    451400   143662.45      0.10525493    -448373.48      0.004511437    427802.24     -20571.241      5200           5200           5200          -100            5100          -100            5100          -100            5100           1.40608e+11    0.5            430700         1.7785432      10706.662      21413.18       2.5174588    
    451600   146798.13      0.10777429    -447764.91      0.004511437    437139.76     -10625.156      5200           5200           5200          -100            5100          -100            5100          -100            5100           1.40608e+11    0.5            430800         1.7852821      14839.607      29679.725      2.5062648    
    451800   162409.52      0.12217743    -447141.22      0.004511437    483627.82      36486.602      5200           5200           5200          -100            5100          -100            5100          -100            5100           1.40608e+11    0.5            430900         1.7927738      13348.055      26696.246      2.4961621    
    452000   165363.23      0.12503493    -446503.49      0.004511437    492423.47      45919.976      5200           5200           5200          -100            5100          -100            5100          -100            5100           1.40608e+11    0.5            431000         1.8041535      8787.4234      17574.418      2.4914541    
    452200   151509.53      0.11143638    -445905.36      0.004511437    451169.5       5264.1439      5200           5200           5200          -100            5100          -100            5100          -100            5100           1.40608e+11    0.5            431100         1.8127896      11579.356      23159.146      2.4829241    
    452400   146128.93      0.10732488    -437970.73      0.004511437    435146.99     -2823.734       5200           5200           5200          -100            5100          -100            5100          -100            5100           1.40608e+11    0.5            431200         1.8195247      14847.958      29696.03       2.4718106    
    452600   158666.94      0.11831284    -437431.62      0.004511437    472483.05      35051.428      5200           5200           5200          -100            5100          -100            5100          -100            5100           1.40608e+11    0.5            431300         1.8269891      13396.849      26793.722      2.4617211    
    452800   170400.19      0.12993749    -436886.26      0.004511437    507422.68      70536.422      5200           5200           5200          -100            5100          -100            5100          -100            5100           1.40608e+11    0.5            431400         1.8337283      14838.62       29677.606      2.4506868    
    453000   161487.74      0.12174637    -436361.22      0.004511437    480882.92      44521.708      5200           5200           5200          -100            5100          -100            5100          -100            5100           1.40608e+11    0.5            431500         1.8412962      13213.6        26426.866      2.4407914    
    453200   149356.96      0.11011855    -435881.6       0.004511437    444759.52      8877.923       5200           5200           5200          -100            5100          -100            5100          -100            5100           1.40608e+11    0.5            431600         1.8505912      10758.46       21516.838      2.4331882    
    453400   154729.31      0.11502218    -435427.96      0.004511437    460757.46      25329.494      5200           5200           5200          -100            5100          -100            5100          -100            5100           1.40608e+11    0.5            431700         1.857397       14693.363      29387.118      2.4223229    
    453600   170614.04      0.13149247    -427599.61      0.004511437    508059.49      80459.878      5200           5200           5200          -100            5100          -100            5100          -100            5100           1.40608e+11    0.5            431800         1.8652029      12810.936      25621.819      2.4127886    
    453800   171021.05      0.13253802    -419776.69      0.004511437    509271.48      89494.796      5200           5200           5200          -100            5100          -100            5100          -100            5100           1.40608e+11    0.5            431900         1.8712443      16552.66       33106.258      2.4010056    
    454000   156489.75      0.11979095    -411989.6       0.004511437    465999.75      54010.145      5200           5200           5200          -100            5100          -100            5100          -100            5100           1.40608e+11    0.5            432000         1.8775223      15928.586      31857.213      2.3895765    
    454200   153099.81      0.11614273    -411614.33      0.004511437    455905.1       44290.77       5200           5200           5200          -100            5100          -100            5100          -100            5100           1.40608e+11    0.5            432100         1.8830959      17941.806      35883.856      2.3773045    
    454400   167217.56      0.1297375     -411243.74      0.004511437    497945.33      86701.591      5200           5200           5200          -100            5100          -100            5100          -100            5100           1.40608e+11    0.5            432200         1.8901595      14157.145      28314.427      2.3669589    
    454600   177256.69      0.13926238    -410853.17      0.004511437    527840.14      116986.97      5200           5200           5200          -100            5100          -100            5100          -100            5100           1.40608e+11    0.5            432300         1.8957428      17910.645      35821.109      2.354804     
[...]
   1099400   335.6631       1.0185003     -1907905.4      0.03494168     999.5474      -1906905.8      2628.2119      2628.2119      2628.2119      1185.894       3814.106       1185.894       3814.106       1185.894       3814.106       1.8154369e+10  0.5            754700         24.57816       6450.3445      12900.661      0.90023679   
   1099600   335.64924      1.0019882     -1915640.2      0.034958678    999.50612     -1914640.7      2627.7859      2627.7859      2627.7859      1186.1071      3813.8929      1186.1071      3813.8929      1186.1071      3813.8929      1.8145541e+10  0.5            754800         24.594471      6130.7966      12261.611      0.88322697   
   1099800   335.75883      1.0160459     -1915851.4      0.034994848    999.83247     -1914851.5      2626.8802      2626.8802      2626.8802      1186.5599      3813.4401      1186.5599      3813.4401      1186.5599      3813.4401      1.8126787e+10  0.5            754900         24.611008      6046.9879      12093.949      0.86622607   
   1100000   335.66061      0.98840986    -1916306.6      0.034998836    999.53998     -1915307.1      2626.7805      2626.7805      2626.7805      1186.6098      3813.3902      1186.6098      3813.3902      1186.6098      3813.3902      1.8124721e+10  0.5            755000         24.661637      1975.1236      3950.2122      0.85040144   
   1100200   335.66405      0.98010297    -1916647.9      0.03501782     999.55021     -1915648.3      2626.3057      2626.3057      2626.3057      1186.8472      3813.1528      1186.8472      3813.1528      1186.8472      3813.1528      1.8114895e+10  0.5            755100         24.683212      4635.2316      9270.4838      0.8335476    
   1100400   335.8204       1.0089613     -1918668.4      0.035065744    1000.0158     -1917668.4      2625.1087      2625.1087      2625.1087      1187.4457      3812.5543      1187.4457      3812.5543      1187.4457      3812.5543      1.8090138e+10  0.5            755200         24.703629      4897.8631      9795.8232      0.816649     
   1100600   335.82615      1.0165128     -1918931.9      0.035095106    1000.0329     -1917931.8      2624.3764      2624.3764      2624.3764      1187.8118      3812.1882      1187.8118      3812.1882      1187.8118      3812.1882      1.8075003e+10  0.5            755300         24.722554      5283.9321      10567.799      0.79969732   
   1100800   335.80366      1.0168907     -1919228.4      0.035120075    999.96597     -1918228.4      2623.7543      2623.7543      2623.7543      1188.1228      3811.8772      1188.1228      3811.8772      1188.1228      3811.8772      1.8062152e+10  0.5            755400         24.740076      5707.2938      11414.739      0.7826985    
   1101000   335.74909      0.99586574    -1921523        0.035131406    999.80345     -1920523.2      2623.4722      2623.4722      2623.4722      1188.2639      3811.7361      1188.2639      3811.7361      1188.2639      3811.7361      1.8056326e+10  0.5            755500         24.756172      6212.8032      12425.687      0.76565488   
   1101200   335.80024      0.98389987    -1921887.4      0.035147336    999.95578     -1920887.4      2623.0758      2623.0758      2623.0758      1188.4621      3811.5379      1188.4621      3811.5379      1188.4621      3811.5379      1.8048143e+10  0.5            755600         24.772654      6066.9238      12133.702      0.74862426   
   1101400   335.86862      0.99663278    -1922110.7      0.035182361    1000.1594     -1921110.6      2622.2051      2622.2051      2622.2051      1188.8975      3811.1025      1188.8975      3811.1025      1188.8975      3811.1025      1.8030175e+10  0.5            755700         24.788665      6245.2103      12489.775      0.73158057   
   1101600   335.85607      1.0079547     -1922348.6      0.035215351    1000.122      -1921348.4      2621.386       2621.386       2621.386       1189.307       3810.693       1189.307       3810.693       1189.307       3810.693       1.8013284e+10  0.5            755800         24.816991      3530.4367      7060.9289      0.71489289   
   1101800   335.79673      1.0123304     -1922625.5      0.035243041    999.94533     -1921625.5      2620.6992      2620.6992      2620.6992      1189.6504      3810.3496      1189.6504      3810.3496      1189.6504      3810.3496      1.7999131e+10  0.5            755900         24.841348      4105.6925      8211.5199      0.69807775   
   1102000   335.74886      1.0098465     -1922934.6      0.035266439    999.80277     -1921934.8      2620.1195      2620.1195      2620.1195      1189.9402      3810.0598      1189.9402      3810.0598      1189.9402      3810.0598      1.798719e+10   0.5            756000         24.862589      4707.8151      9415.6581      0.68116693   
   1102200   335.73894      0.99938569    -1923287.2      0.03528401     999.77323     -1922287.5      2619.6845      2619.6845      2619.6845      1190.1577      3809.8423      1190.1577      3809.8423      1190.1577      3809.8423      1.7978232e+10  0.5            756100         24.882143      5114.0173      10228.106      0.66420515   
   1102400   335.75963      0.99495284    -1923608.8      0.035305751    999.83485     -1922609        2619.1467      2619.1467      2619.1467      1190.4266      3809.5734      1190.4266      3809.5734      1190.4266      3809.5734      1.7967162e+10  0.5            756200         24.899703      5694.9064      11389.878      0.64718799   
   1102600   335.75317      0.99358193    -1923916.5      0.035329373    999.81561     -1922916.6      2618.5628      2618.5628      2618.5628      1190.7186      3809.2814      1190.7186      3809.2814      1190.7186      3809.2814      1.7955149e+10  0.5            756300         24.916107      6096.0463      12192.158      0.63014086   
   1102800   335.76034      0.99042896    -1924229.3      0.035352274    999.83694     -1923229.5      2617.9973      2617.9973      2617.9973      1191.0014      3808.9986      1191.0014      3808.9986      1191.0014      3808.9986      1.7943517e+10  0.5            756400         24.93152       6488.0022      12976.011      0.61307024   
   1103000   335.88017      1.0003472     -1924460.7      0.035386341    1000.1938     -1923460.5      2617.1569      2617.1569      2617.1569      1191.4216      3808.5784      1191.4216      3808.5784      1191.4216      3808.5784      1.7926242e+10  0.5            756500         24.946739      6570.6144      13141.207      0.59599726   
   1103200   335.95589      1.0089486     -1924706.2      0.03541853     1000.4193     -1923705.7      2616.3638      2616.3638      2616.3638      1191.8181      3808.1819      1191.8181      3808.1819      1191.8181      3808.1819      1.7909951e+10  0.5            756600         24.962057      6528.5137      13057.059      0.57892908   
   1103400   335.90916      0.99597962    -1925083.1      0.035432901    1000.2801     -1924082.8      2616.01        2616.01        2616.01        1191.995       3808.005       1191.995       3808.005       1191.995       3808.005       1.7902687e+10  0.5            756700         24.977647      6414.1814      12828.324      0.56186943   
   1103600   336.10777      0.99449128    -1934621.5      0.035462637    1000.8716     -1933620.6      2615.2787      2615.2787      2615.2787      1192.3607      3807.6393      1192.3607      3807.6393      1192.3607      3807.6393      1.7887675e+10  0.5            756800         24.992935      6541.3381      13082.716      0.54480518   
   1103800   335.99399      0.99127368    -1934948.6      0.035483895    1000.5327     -1933948.1      2614.7563      2614.7563      2614.7563      1192.6219      3807.3781      1192.6219      3807.3781      1192.6219      3807.3781      1.7876959e+10  0.5            756900         25.008507      6421.7237      12843.466      0.52774936   
   1104000   335.98931      0.99542363    -1935225.3      0.03551206     1000.5188     -1934224.8      2614.0648      2614.0648      2614.0648      1192.9676      3807.0324      1192.9676      3807.0324      1192.9676      3807.0324      1.786278e+10   0.5            757000         25.023754      6558.4303      13116.873      0.51068892   
   1104200   336.06048      1.0018828     -1935486.4      0.035542422    1000.7307     -1934485.7      2613.3203      2613.3203      2613.3203      1193.3399      3806.6601      1193.3399      3806.6601      1193.3399      3806.6601      1.7847521e+10  0.5            757100         25.039194      6476.7569      12953.479      0.49363475   
   1104400   336.08851      1.0101424     -1935748.3      0.035572676    1000.8142     -1934747.5      2612.5792      2612.5792      2612.5792      1193.7104      3806.2896      1193.7104      3806.2896      1193.7104      3806.2896      1.7832342e+10  0.5            757200         25.054829      6395.8309      12791.686      0.47658648   
   1104600   336.09034      0.98887041    -1943509.9      0.03558634     1000.8196     -1942509.1      2612.2448      2612.2448      2612.2448      1193.8776      3806.1224      1193.8776      3806.1224      1193.8776      3806.1224      1.7825495e+10  0.5            757300         25.070499      6381.6727      12763.321      0.45954077   
   1104800   336.49807      1.0118808     -1951030        0.035633408    1002.0338     -1950028        2611.0941      2611.0941      2611.0941      1194.4529      3805.5471      1194.4529      3805.5471      1194.4529      3805.5471      1.780195e+10   0.5            757400         25.149354      1268.1447      2536.2682      0.44361149   
   1105000   336.50717      1.0113529     -1951329.5      0.035658972    1002.0609     -1950327.5      2610.47        2610.47        2610.47        1194.765       3805.235       1194.765       3805.235       1194.765       3805.235       1.7789187e+10  0.5            757500         25.173303      4175.5651      8351.1802      0.42666623   
   1105200   336.45168      0.9943671     -1951718.6      0.035672283    1001.8956     -1950716.7      2610.1452      2610.1452      2610.1452      1194.9274      3805.0726      1194.9274      3805.0726      1194.9274      3805.0726      1.7782549e+10  0.5            757600         25.194572      4701.6376      9403.3862      0.40966791   
   1105400   336.60461      0.99220424    -1952021.7      0.035697481    1002.3511     -1951019.4      2609.531       2609.531       2609.531       1195.2345      3804.7655      1195.2345      3804.7655      1195.2345      3804.7655      1.7769997e+10  0.5            757700         25.214155      5106.6397      10213.326      0.39263754   
   1105600   336.75714      0.9840661     -1959700.7      0.035723247    1002.8053     -1958697.9      2608.9034      2608.9034      2608.9034      1195.5483      3804.4517      1195.5483      3804.4517      1195.5483      3804.4517      1.775718e+10   0.5            757800         25.231797      5668.1987      11336.458      0.37557484   
   1105800   336.68748      0.98809512    -1959993.2      0.035750283    1002.5978     -1958990.6      2608.2456      2608.2456      2608.2456      1195.8772      3804.1228      1195.8772      3804.1228      1195.8772      3804.1228      1.7743751e+10  0.5            757900         25.24816       6111.3574      12222.73       0.35849319   
   1106000   336.63054      1.0199418     -1960165.1      0.035793809    1002.4283     -1959162.7      2607.1879      2607.1879      2607.1879      1196.406       3803.594       1196.406       3803.594       1196.406       3803.594       1.7722174e+10  0.5            758000         25.264501      6119.5398      12239.113      0.34141222   
   1106200   336.23966      0.98455076    -1960666.1      0.035791628    1001.2643     -1959664.9      2607.2409      2607.2409      2607.2409      1196.3796      3803.6204      1196.3796      3803.6204      1196.3796      3803.6204      1.7723254e+10  0.5            758100         25.280164      6384.5842      12769.208      0.32432355   
   1106400   335.99564      0.98767075    -1960974.6      0.035815969    1000.5376     -1959974.1      2606.6501      2606.6501      2606.6501      1196.6749      3803.3251      1196.6749      3803.3251      1196.6749      3803.3251      1.771121e+10   0.5            758200         25.296212      6231.35        12462.6        0.30724148   
   1106600   335.91224      1.0088901     -1961183.2      0.035854124    1000.2893     -1960182.9      2605.7251      2605.7251      2605.7251      1197.1374      3802.8626      1197.1374      3802.8626      1197.1374      3802.8626      1.7692362e+10  0.5            758300         25.312759      6043.2791      12086.641      0.29016653   
   1106800   335.84158      1.0177959     -1961446.2      0.035884535    1000.0789     -1960446.1      2604.9888      2604.9888      2604.9888      1197.5056      3802.4944      1197.5056      3802.4944      1197.5056      3802.4944      1.7677368e+10  0.5            758400         25.329746      5886.829       11773.617      0.27309703   
   1107000   335.77206      0.99032202    -1961896.3      0.035888933    999.87187     -1960896.4      2604.8824      2604.8824      2604.8824      1197.5588      3802.4412      1197.5588      3802.4412      1197.5588      3802.4412      1.7675202e+10  0.5            758500         25.346733      5886.9794      11774.019      0.25602763   
   1107200   336.05506      1.0124696     -1969414.3      0.035936802    1000.7146     -1968413.6      2603.7253      2603.7253      2603.7253      1198.1373      3801.8627      1198.1373      3801.8627      1198.1373      3801.8627      1.7651658e+10  0.5            758600         25.363209      6069.4822      12138.969      0.23895354   
   1107400   336.159        0.9935628     -1969811.1      0.035948886    1001.0241     -1968810.1      2603.4335      2603.4335      2603.4335      1198.2832      3801.7168      1198.2832      3801.7168      1198.2832      3801.7168      1.7645724e+10  0.5            758700         25.380032      5944.3041      11888.587      0.22188329   
   1107600   336.55197      1.0090131     -1977339.2      0.035995879    1002.1943     -1976337        2602.3001      2602.3001      2602.3001      1198.8499      3801.1501      1198.8499      3801.1501      1198.8499      3801.1501      1.7622688e+10  0.5            758800         25.396534      6059.6387      12119.288      0.20481078   
   1107800   336.60874      0.98406636    -1977769.2      0.036003718    1002.3633     -1976766.9      2602.1112      2602.1112      2602.1112      1198.9444      3801.0556      1198.9444      3801.0556      1198.9444      3801.0556      1.7618851e+10  0.5            758900         25.412254      6361.4846      12722.926      0.18773326   
   1108000   336.65524      0.98406231    -1978066.4      0.036030394    1002.5018     -1977063.9      2601.4689      2601.4689      2601.4689      1199.2655      3800.7345      1199.2655      3800.7345      1199.2655      3800.7345      1.7605806e+10  0.5            759000         25.428026      6340.2668      12680.553      0.17065791   
   1108200   336.55556      0.99143167    -1978351        0.036058898    1002.205      -1977348.7      2600.7832      2600.7832      2600.7832      1199.6084      3800.3916      1199.6084      3800.3916      1199.6084      3800.3916      1.7591889e+10  0.5            759100         25.443923      6290.6771      12581.385      0.15358506   
   1108400   336.36806      1.001825      -1980528.4      0.036087531    1001.6466     -1979526.8      2600.0952      2600.0952      2600.0952      1199.9524      3800.0476      1199.9524      3800.0476      1199.9524      3800.0476      1.7577931e+10  0.5            759200         25.459247      6525.7305      13051.423      0.13651072   
   1108600   336.01093      1.0091        -1980844.1      0.036111145    1000.5832     -1979843.6      2599.5283      2599.5283      2599.5283      1200.2358      3799.7642      1200.2358      3799.7642      1200.2358      3799.7642      1.7566437e+10  0.5            759300         25.474945      6370.1583      12740.341      0.11944048   
   1108800   335.66904      1.0124138     -1981165.8      0.036133619    999.56507     -1980166.2      2598.9893      2598.9893      2598.9893      1200.5054      3799.4946      1200.5054      3799.4946      1200.5054      3799.4946      1.755551e+10   0.5            759400         25.490554      6406.5603      12813.121      0.10237171   
   1109000   335.78532      0.99837801    -1996234.9      0.036157317    999.91135     -1995235        2598.4214      2598.4214      2598.4214      1200.7893      3799.2107      1200.7893      3799.2107      1200.7893      3799.2107      1.7544005e+10  0.5            759500         25.506017      6467.083       12934.123      0.085304414  
   1109200   336.0824       0.98955452    -2003919.8      0.036182169    1000.796      -2002919        2597.8263      2597.8263      2597.8263      1201.0868      3798.9132      1201.0868      3798.9132      1201.0868      3798.9132      1.7531954e+10  0.5            759600         25.521442      6482.9221      12965.852      0.068239157  
   1109400   336.50861      1.0049249     -2004117.4      0.036222967    1002.0652     -2003115.3      2596.8506      2596.8506      2596.8506      1201.5747      3798.4253      1201.5747      3798.4253      1201.5747      3798.4253      1.7512208e+10  0.5            759700         25.537115      6380.4943      12761.012      0.051176588  
   1109600   336.62773      1.0001992     -2004432.9      0.036247219    1002.4199     -2003430.5      2596.2713      2596.2713      2596.2713      1201.8643      3798.1357      1201.8643      3798.1357      1201.8643      3798.1357      1.7500491e+10  0.5            759800         25.566528      3399.8502      6799.679       0.03413422   
   1109800   336.6123       0.98903162    -2004795.6      0.0362648      1002.3739     -2003793.2      2595.8517      2595.8517      2595.8517      1202.0741      3797.9259      1202.0741      3797.9259      1202.0741      3797.9259      1.7492007e+10  0.5            759900         25.582082      6429.1337      12858.318      0.017066101  
   1110000   336.52979      0.98915521    -2005104.1      0.036290144    1002.1283     -2004101.9      2595.2473      2595.2473      2595.2473      1202.3764      3797.6236      1202.3764      3797.6236      1202.3764      3797.6236      1.7479791e+10  0.5            760000         25.597858      6338.5158      12677.023      0            
Loop time of 25.5979 on 1 procs for 300000 steps with 1000 atoms

Performance: 506.292 ns/day, 0.047 hours/ns, 11719.724 timesteps/s
95.3% CPU use with 1 MPI tasks x 1 OpenMP threads

MPI task timing breakdown:
Section |  min time  |  avg time  |  max time  |%varavg| %total
---------------------------------------------------------------
Pair    | 4.9983     | 4.9983     | 4.9983     |   0.0 | 19.53
Neigh   | 3.9282     | 3.9282     | 3.9282     |   0.0 | 15.35
Comm    | 0.82684    | 0.82684    | 0.82684    |   0.0 |  3.23
Output  | 1.251      | 1.251      | 1.251      |   0.0 |  4.89
Modify  | 13.201     | 13.201     | 13.201     |   0.0 | 51.57
Other   |            | 1.393      |            |       |  5.44

Nlocal:           1000 ave        1000 max        1000 min
Histogram: 1 0 0 0 0 0 0 0 0 0
Nghost:            344 ave         344 max         344 min
Histogram: 1 0 0 0 0 0 0 0 0 0
Neighs:            302 ave         302 max         302 min
Histogram: 1 0 0 0 0 0 0 0 0 0

Total # of neighbors = 302
Ave neighs/atom = 0.302
Neighbor list builds = 8496
Dangerous builds = 42

# run_style
run_style verlet

# write restart
write_restart ${write_res}
write_restart ./pgnpmf/28/equpmf1.res
System init for write_restart ...
Generated 0 of 1 mixed pair_coeff terms from geometric mixing rule

Total wall time: 0:00:42
