LAMMPS (23 Jun 2022 - Update 1)
# Read restart
read_restart ${read_res}
read_restart ./pgnpmf/28/equpmf38.res
Reading restart file ...
  restart file = 23 Jun 2022, LAMMPS = 23 Jun 2022
  restoring atom style atomic from restart
  orthogonal box = (2038.4737 2038.4737 2038.4737) to (2961.5263 2961.5263 2961.5263)
  1 by 2 by 2 MPI processor grid
  restoring pair style table from restart
  1000 atoms
  read_restart CPU = 0.007 seconds

# Settings

pair_style table spline 9941

pair_coeff 1 1 ./pgnpmf/N20.txt DE_GNP 75.6
pair_coeff 2 2 ./pgnpmf/N100.txt DE_GNP 115.92
WARNING: 3 of 9941 force values in table DE_GNP are inconsistent with -dE/dr.
WARNING:  Should only be flagged at inflection points (../pair_table.cpp:463)
pair_coeff 1 2 ./pgnpmf/mixed_potential.txt DE_GNP 95.66
WARNING: 1562 of 9941 force values in table DE_GNP are inconsistent with -dE/dr.
WARNING:  Should only be flagged at inflection points (../pair_table.cpp:463)

#Neigh_list Calc Frequency

neigh_modify delay 0 every 1 check yes

# Saving Frequency (50 frames)

variable ts_save equal ${steps_equ}
variable ts_save equal 5000

# Dump
#dump 1 all custom ${ts_save} ./pgnpmf/${folder}/equilibration/trajectory/trajectory_${usic}_${trial}.equ.custom type x y z ix iy iz
#dump_modify 1 first no sort id
dump 2 all cfg 50000 ./pgnpmf/${folder}/equilibration/trajectory/dumpgen.tens_*.cfg mass type xs ys zs fx fy fz
dump 2 all cfg 50000 ./pgnpmf/28/equilibration/trajectory/dumpgen.tens_*.cfg mass type xs ys zs fx fy fz
dump_modify 2 element N20 N100

# thermo_style
thermo_style custom step temp press pe density ke etotal lx ly lz xlo xhi ylo yhi zlo zhi vol dt time cpu tpcpu spcpu cpuremain

# run info
timestep ${ts}
timestep 0.5
thermo 200

# fix

fix 1 all momentum 1000 linear 1 1 1 angular
variable T equal ${temp}
variable T equal 300
fix 2 all nvt temp ${T} 370000 100.0
fix 2 all nvt temp 300 370000 100.0

run 100000
Generated 0 of 1 mixed pair_coeff terms from geometric mixing rule
Unused restart file global fix info:
  fix style: npt, fix ID: 5
Neighbor list info ...
  update every 1 steps, delay 0 steps, check yes
  max neighbors/atom: 2000, page size: 100000
  master list distance cutoff = 117.92
  ghost atom cutoff = 117.92
  binsize = 58.96, bins = 16 16 16
  1 neighbor lists, perpetual/occasional/extra = 1 0 0
  (1) pair table, perpetual
      attributes: half, newton on
      pair build: half/bin/atomonly/newton
      stencil: half/bin/3d
      bin: standard
Per MPI rank memory allocation (min/avg/max) = 3.076 | 3.077 | 3.078 Mbytes
   Step          Temp          Press          PotEng        Density         KinEng         TotEng           Lx             Ly             Lz            Xlo            Xhi            Ylo            Yhi            Zlo            Zhi           Volume           Dt            Time           CPU           T/CPU          S/CPU         CPULeft    
  27010000   306.14442      3.665924      -43275931       0.80657666     911.6458      -43275019       923.05255      923.05255      923.05255      2038.4737      2961.5263      2038.4737      2961.5263      2038.4737      2961.5263      7.8646477e+08  0.5            13710000       0              0              0              0            
  27010200   389.28158      3.3990962     -43274117       0.80657666     1159.2141     -43272957       923.05255      923.05255      923.05255      2038.4737      2961.5263      2038.4737      2961.5263      2038.4737      2961.5263      7.8646477e+08  0.5            13710100       0.01772496     5641.522       11282.479      8.8459985    
  27010400   574.99498      2.983737      -43274213       0.80657666     1712.2369     -43272500       923.05255      923.05255      923.05255      2038.4737      2961.5263      2038.4737      2961.5263      2038.4737      2961.5263      7.8646477e+08  0.5            13710200       0.035383974    5662.8508      11325.697      8.8112066    
  27010600   890.92903      2.5198417     -43274331       0.80657666     2653.0345     -43271678       923.05255      923.05255      923.05255      2038.4737      2961.5263      2038.4737      2961.5263      2038.4737      2961.5263      7.8646477e+08  0.5            13710300       0.053154921    5627.1723      11254.386      8.8063775    
  27010800   1398.0496      1.9291664     -43274476       0.80657666     4163.153      -43270313       923.05255      923.05255      923.05255      2038.4737      2961.5263      2038.4737      2961.5263      2038.4737      2961.5263      7.8646477e+08  0.5            13710400       0.070841034    5654.1418      11308.257      8.7845837    
  27011000   2174.3191      1.189836      -43274657       0.80657666     6474.7509     -43268183       923.05255      923.05255      923.05255      2038.4737      2961.5263      2038.4737      2961.5263      2038.4737      2961.5263      7.8646477e+08  0.5            13710500       0.088745977    5585.049       11170.062      8.7860913    
  27011200   3281.8223      0.42480231    -43267502       0.80657666     9772.7063     -43257729       923.05255      923.05255      923.05255      2038.4737      2961.5263      2038.4737      2961.5263      2038.4737      2961.5263      7.8646477e+08  0.5            13710600       0.1065465      5617.8349      11235.741      8.7725138    
  27011400   4694.3966     -0.67553871    -43267775       0.80657666     13979.112     -43253795       923.05255      923.05255      923.05255      2038.4737      2961.5263      2038.4737      2961.5263      2038.4737      2961.5263      7.8646477e+08  0.5            13710700       0.12348863     5902.4738      11804.965      8.6972783    
  27011600   6185.0383     -1.4239245     -43266195       0.80657666     18417.988     -43247777       923.05255      923.05255      923.05255      2038.4737      2961.5263      2038.4737      2961.5263      2038.4737      2961.5263      7.8646477e+08  0.5            13710800       0.14115813     5659.4835      11318.95       8.6813583    
  27011800   7310.5687     -3.0362814     -43273918       0.80657666     21769.625     -43252148       923.05255      923.05255      923.05255      2038.4737      2961.5263      2038.4737      2961.5263      2038.4737      2961.5263      7.8646477e+08  0.5            13710900       0.159047       5590.0427      11180.064      8.6770188    
  27012000   7786.1822     -4.86816       -43274281       0.80657666     23185.921     -43251095       923.05255      923.05255      923.05255      2038.4737      2961.5263      2038.4737      2961.5263      2038.4737      2961.5263      7.8646477e+08  0.5            13711000       0.17629224     5798.709       11597.372      8.6384346    
  27012200   8108.9251     -6.6317009     -43274644       0.80657666     24146.994     -43250497       923.05255      923.05255      923.05255      2038.4737      2961.5263      2038.4737      2961.5263      2038.4737      2961.5263      7.8646477e+08  0.5            13711100       0.19438564     5526.8955      11053.867      8.6414149    
  27012400   8978.6174     -7.9882898     -43267636       0.80657666     26736.789     -43240899       923.05255      923.05255      923.05255      2038.4737      2961.5263      2038.4737      2961.5263      2038.4737      2961.5263      7.8646477e+08  0.5            13711200       0.21209377     5647.1119      11294.234      8.6252326    
  27012600   10153.694     -9.3013263     -43268027       0.80657666     30235.966     -43237791       923.05255      923.05255      923.05255      2038.4737      2961.5263      2038.4737      2961.5263      2038.4737      2961.5263      7.8646477e+08  0.5            13711300       0.22932421     5803.6874      11607.359      8.5909158    
  27012800   10912.572     -10.841473     -43275811       0.80657666     32495.775     -43243315       923.05255      923.05255      923.05255      2038.4737      2961.5263      2038.4737      2961.5263      2038.4737      2961.5263      7.8646477e+08  0.5            13711400       0.24781559     5407.927       10815.796      8.6028195    
  27013000   11235.36      -12.550908     -43276210       0.80657666     33456.983     -43242754       923.05255      923.05255      923.05255      2038.4737      2961.5263      2038.4737      2961.5263      2038.4737      2961.5263      7.8646477e+08  0.5            13711500       0.26547222     5663.6026      11327.221      8.5836721    
  27013200   11829.199     -14.085219     -43269236       0.80657666     35225.335     -43234010       923.05255      923.05255      923.05255      2038.4737      2961.5263      2038.4737      2961.5263      2038.4737      2961.5263      7.8646477e+08  0.5            13711600       0.28413527     5358.1684      10716.394      8.595157     
  27013400   12940.877     -16.202858     -43284763       0.80657666     38535.723     -43246227       923.05255      923.05255      923.05255      2038.4737      2961.5263      2038.4737      2961.5263      2038.4737      2961.5263      7.8646477e+08  0.5            13711700       0.30138017     5798.8277      11597.616      8.5628023    
  27013600   13942.586     -17.789651     -43285168       0.80657666     41518.641     -43243650       923.05255      923.05255      923.05255      2038.4737      2961.5263      2038.4737      2961.5263      2038.4737      2961.5263      7.8646477e+08  0.5            13711800       0.31928481     5585.1257      11170.272      8.5497953    
  27013800   14388.974     -19.730231     -43287457       0.80657666     42847.906     -43244609       923.05255      923.05255      923.05255      2038.4737      2961.5263      2038.4737      2961.5263      2038.4737      2961.5263      7.8646477e+08  0.5            13711900       0.33774658     5416.5905      10833.13       8.5503808    
  27014000   14770.539     -21.305435     -43287839       0.80657666     43984.143     -43243855       923.05255      923.05255      923.05255      2038.4737      2961.5263      2038.4737      2961.5263      2038.4737      2961.5263      7.8646477e+08  0.5            13712000       0.35531899     5690.764       11381.525      8.5277086    
  27014200   15694.97      -22.90125      -43288202       0.80657666     46736.941     -43241465       923.05255      923.05255      923.05255      2038.4737      2961.5263      2038.4737      2961.5263      2038.4737      2961.5263      7.8646477e+08  0.5            13712100       0.37320285     5591.6187      11183.242      8.512632     
  27014400   16858.917     -24.748249     -43295935       0.80657666     50202.977     -43245732       923.05255      923.05255      923.05255      2038.4737      2961.5263      2038.4737      2961.5263      2038.4737      2961.5263      7.8646477e+08  0.5            13712200       0.39079235     5685.2235      11370.479      8.4908976    
  27014600   17542.166     -26.19422      -43288898       0.80657666     52237.574     -43236661       923.05255      923.05255      923.05255      2038.4737      2961.5263      2038.4737      2961.5263      2038.4737      2961.5263      7.8646477e+08  0.5            13712300       0.40842091     5672.6089      11345.251      8.4703378    
  27014800   17827.223     -27.92514      -43289207       0.80657666     53086.427     -43236121       923.05255      923.05255      923.05255      2038.4737      2961.5263      2038.4737      2961.5263      2038.4737      2961.5263      7.8646477e+08  0.5            13712400       0.42626583     5603.842       11207.634      8.4543152    
  27015000   18479.832     -29.482491     -43282101       0.80657666     55029.783     -43227071       923.05255      923.05255      923.05255      2038.4737      2961.5263      2038.4737      2961.5263      2038.4737      2961.5263      7.8646477e+08  0.5            13712500       0.44389048     5673.8667      11347.766      8.43396      
  27015200   19659.94      -31.615328     -43297108       0.80657666     58543.945     -43238564       923.05255      923.05255      923.05255      2038.4737      2961.5263      2038.4737      2961.5263      2038.4737      2961.5263      7.8646477e+08  0.5            13712600       0.46153406     5667.7882      11335.564      8.4141594    
  27015400   20620.182     -32.811894     -43288043       0.80657666     61403.381     -43226640       923.05255      923.05255      923.05255      2038.4737      2961.5263      2038.4737      2961.5263      2038.4737      2961.5263      7.8646477e+08  0.5            13712700       0.47932967     5619.3584      11238.743      8.3971827    
  27015600   20981.626     -34.34388      -43273461       0.80657666     62479.701     -43210982       923.05255      923.05255      923.05255      2038.4737      2961.5263      2038.4737      2961.5263      2038.4737      2961.5263      7.8646477e+08  0.5            13712800       0.49697059     5668.6502      11337.304      8.3775388    
  27015800   21374.384     -35.889004     -43266206       0.80657666     63649.266     -43202557       923.05255      923.05255      923.05255      2038.4737      2961.5263      2038.4737      2961.5263      2038.4737      2961.5263      7.8646477e+08  0.5            13712900       0.51507175     5524.4865      11048.969      8.3655108    
  27016000   22389.612     -37.831747     -43266278       0.80657666     66672.443     -43199605       923.05255      923.05255      923.05255      2038.4737      2961.5263      2038.4737      2961.5263      2038.4737      2961.5263      7.8646477e+08  0.5            13713000       0.53281283     5636.645       11273.221      8.3474366    
  27016200   23570.845     -39.533901     -43268206       0.80657666     70189.95      -43198016       923.05255      923.05255      923.05255      2038.4737      2961.5263      2038.4737      2961.5263      2038.4737      2961.5263      7.8646477e+08  0.5            13713100       0.55028779     5722.4679      11445.021      8.3253532    
  27016400   24166.235     -41.167932     -43268187       0.80657666     71962.923     -43196224       923.05255      923.05255      923.05255      2038.4737      2961.5263      2038.4737      2961.5263      2038.4737      2961.5263      7.8646477e+08  0.5            13713200       0.5678236      5702.6152      11405.2        8.3044522    
  27016600   24414.747     -42.505128     -43270024       0.80657666     72702.947     -43197321       923.05255      923.05255      923.05255      2038.4737      2961.5263      2038.4737      2961.5263      2038.4737      2961.5263      7.8646477e+08  0.5            13713300       0.58575764     5575.995       11151.94       8.2893898    
  27016800   25148.004     -43.858522     -43269924       0.80657666     74886.461     -43195038       923.05255      923.05255      923.05255      2038.4737      2961.5263      2038.4737      2961.5263      2038.4737      2961.5263      7.8646477e+08  0.5            13713400       0.6032508      5716.5135      11433.108      8.2681129    
  27017000   26385.914     -44.634275     -43255039       0.80657666     78572.747     -43176466       923.05255      923.05255      923.05255      2038.4737      2961.5263      2038.4737      2961.5263      2038.4737      2961.5263      7.8646477e+08  0.5            13713500       0.620863       5677.8756      11355.73       8.2486378    
  27017200   27288.565     -46.078423     -43254884       0.80657666     81260.688     -43173623       923.05255      923.05255      923.05255      2038.4737      2961.5263      2038.4737      2961.5263      2038.4737      2961.5263      7.8646477e+08  0.5            13713600       0.63845555     5684.2437      11368.52       8.2290088    
  27017400   27579.223     -47.984585     -43254718       0.80657666     82126.215     -43172591       923.05255      923.05255      923.05255      2038.4737      2961.5263      2038.4737      2961.5263      2038.4737      2961.5263      7.8646477e+08  0.5            13713700       0.65641008     5569.6012      11139.163      8.2140235    
  27017600   28014.549     -49.62361      -43254545       0.80657666     83422.544     -43171123       923.05255      923.05255      923.05255      2038.4737      2961.5263      2038.4737      2961.5263      2038.4737      2961.5263      7.8646477e+08  0.5            13713800       0.67396105     5697.7187      11395.44       8.1939737    
  27017800   29122.48      -51.354287     -43261766       0.80657666     86721.774     -43175045       923.05255      923.05255      923.05255      2038.4737      2961.5263      2038.4737      2961.5263      2038.4737      2961.5263      7.8646477e+08  0.5            13713900       0.69154511     5686.9662      11373.961      8.174442     
  27018000   30283.053     -53.135596     -43254241       0.80657666     90177.761     -43164063       923.05255      923.05255      923.05255      2038.4737      2961.5263      2038.4737      2961.5263      2038.4737      2961.5263      7.8646477e+08  0.5            13714000       0.70953296     5559.2994      11118.557      8.1596539    
  27018200   30783.17      -55.145641     -43261484       0.80657666     91667.024     -43169817       923.05255      923.05255      923.05255      2038.4737      2961.5263      2038.4737      2961.5263      2038.4737      2961.5263      7.8646477e+08  0.5            13714100       0.72721885     5654.2368      11308.488      8.1413275    
  27018400   31020.019     -56.603855     -43263267       0.80657666     92372.32      -43170894       923.05255      923.05255      923.05255      2038.4737      2961.5263      2038.4737      2961.5263      2038.4737      2961.5263      7.8646477e+08  0.5            13714200       0.74480162     5687.3737      11374.778      8.1219068    
  27018600   31848.76      -57.58226      -43255801       0.80657666     94840.168     -43160960       923.05255      923.05255      923.05255      2038.4737      2961.5263      2038.4737      2961.5263      2038.4737      2961.5263      7.8646477e+08  0.5            13714300       0.76265855     5600.062       11200.1        8.1054874    
  27018800   33130.174     -59.211906     -43255730       0.80657666     98656.001     -43157074       923.05255      923.05255      923.05255      2038.4737      2961.5263      2038.4737      2961.5263      2038.4737      2961.5263      7.8646477e+08  0.5            13714400       0.77969382     5870.2071      11740.416      8.0804844    
  27019000   33946.627     -60.928758     -43257572       0.80657666     101087.26     -43156485       923.05255      923.05255      923.05255      2038.4737      2961.5263      2038.4737      2961.5263      2038.4737      2961.5263      7.8646477e+08  0.5            13714500       0.79746406     5627.3613      11254.726      8.0632692    
  27019200   34150.923     -62.610054     -43257517       0.80657666     101695.62     -43155822       923.05255      923.05255      923.05255      2038.4737      2961.5263      2038.4737      2961.5263      2038.4737      2961.5263      7.8646477e+08  0.5            13714600       0.81536002     5587.8377      11175.69       8.0472716    
  27019400   34643.059     -64.496385     -43257461       0.80657666     103161.11     -43154300       923.05255      923.05255      923.05255      2038.4737      2961.5263      2038.4737      2961.5263      2038.4737      2961.5263      7.8646477e+08  0.5            13714700       0.83356701     5492.4084      10984.814      8.0341876    
  27019600   35860.43      -66.151129     -43255512       0.80657666     106786.24     -43148726       923.05255      923.05255      923.05255      2038.4737      2961.5263      2038.4737      2961.5263      2038.4737      2961.5263      7.8646477e+08  0.5            13714800       0.85194464     5441.4049      10882.785      8.0225006    
  27019800   36993.023     -67.96989      -43255432       0.80657666     110158.91     -43145274       923.05255      923.05255      923.05255      2038.4737      2961.5263      2038.4737      2961.5263      2038.4737      2961.5263      7.8646477e+08  0.5            13714900       0.86962441     5656.1803      11312.35       8.0041145    
  27020000   37365.987     -69.436952     -43249834       0.80657666     111269.53     -43138565       923.05255      923.05255      923.05255      2038.4737      2961.5263      2038.4737      2961.5263      2038.4737      2961.5263      7.8646477e+08  0.5            13715000       0.88710233     5721.4889      11442.979      7.9839409    
  27020200   37583.769     -71.186783     -43257062       0.80657666     111918.04     -43145144       923.05255      923.05255      923.05255      2038.4737      2961.5263      2038.4737      2961.5263      2038.4737      2961.5263      7.8646477e+08  0.5            13715100       0.904492       5750.5364      11501.08       7.9630954    
  27020400   38548.263     -73.234934     -43264269       0.80657666     114790.14     -43149479       923.05255      923.05255      923.05255      2038.4737      2961.5263      2038.4737      2961.5263      2038.4737      2961.5263      7.8646477e+08  0.5            13715200       0.92230426     5614.1341      11228.271      7.9460248    
  27020600   39885.129     -74.490879     -43265941       0.80657666     118771.1      -43147170       923.05255      923.05255      923.05255      2038.4737      2961.5263      2038.4737      2961.5263      2038.4737      2961.5263      7.8646477e+08  0.5            13715300       0.93983763     5703.4108      11406.825      7.9265725    
  27020800   40582.92      -75.822477     -43250917       0.80657666     120849.01     -43130068       923.05255      923.05255      923.05255      2038.4737      2961.5263      2038.4737      2961.5263      2038.4737      2961.5263      7.8646477e+08  0.5            13715400       0.95759687     5630.8567      11261.709      7.9090599    
  27021000   40698.435     -78.119241     -43265359       0.80657666     121192.99     -43144166       923.05255      923.05255      923.05255      2038.4737      2961.5263      2038.4737      2961.5263      2038.4737      2961.5263      7.8646477e+08  0.5            13715500       0.97517529     5688.7882      11377.554      7.890073     
  27021200   41292.956     -79.472824     -43265004       0.80657666     122963.37     -43142041       923.05255      923.05255      923.05255      2038.4737      2961.5263      2038.4737      2961.5263      2038.4737      2961.5263      7.8646477e+08  0.5            13715600       0.99386314     5351.0749      10702.166      7.8799323    
  27021400   42638.666     -80.883693     -43264592       0.80657666     126970.67     -43137622       923.05255      923.05255      923.05255      2038.4737      2961.5263      2038.4737      2961.5263      2038.4737      2961.5263      7.8646477e+08  0.5            13715700       1.0113294      5725.3304      11450.662      7.8599978    
  27021600   43699.582     -82.728192     -43278888       0.80657666     130129.89     -43148759       923.05255      923.05255      923.05255      2038.4737      2961.5263      2038.4737      2961.5263      2038.4737      2961.5263      7.8646477e+08  0.5            13715800       1.0288735      5699.9541      11399.911      7.8407413    
  27021800   43945.675     -84.545055     -43280285       0.80657666     130862.72     -43149422       923.05255      923.05255      923.05255      2038.4737      2961.5263      2038.4737      2961.5263      2038.4737      2961.5263      7.8646477e+08  0.5            13715900       1.0468852      5551.9255      11103.855      7.8250393    
  27022000   44201.163     -86.387149     -43281644       0.80657666     131623.52     -43150021       923.05255      923.05255      923.05255      2038.4737      2961.5263      2038.4737      2961.5263      2038.4737      2961.5263      7.8646477e+08  0.5            13716000       1.0647714      5590.8222      11181.586      7.8083419    
  27022200   45369.97      -88.249991     -43281072       0.80657666     135104.02     -43145968       923.05255      923.05255      923.05255      2038.4737      2961.5263      2038.4737      2961.5263      2038.4737      2961.5263      7.8646477e+08  0.5            13716100       1.0826795      5584.1236      11168.3        7.7917598    
  27022400   46699.281     -90.052798     -43282328       0.80657666     139062.48     -43143266       923.05255      923.05255      923.05255      2038.4737      2961.5263      2038.4737      2961.5263      2038.4737      2961.5263      7.8646477e+08  0.5            13716200       1.1006378      5568.4524      11136.9        7.7754895    
  27022600   47207.571     -92.214029     -43296430       0.80657666     140576.08     -43155854       923.05255      923.05255      923.05255      2038.4737      2961.5263      2038.4737      2961.5263      2038.4737      2961.5263      7.8646477e+08  0.5            13716300       1.1181497      5710.4564      11420.917      7.7560681    
  27022800   47346.198     -94.13997      -43297626       0.80657666     140988.89     -43156637       923.05255      923.05255      923.05255      2038.4737      2961.5263      2038.4737      2961.5263      2038.4737      2961.5263      7.8646477e+08  0.5            13716400       1.1360588      5583.7055      11167.385      7.7394161    
  27023000   48660.633     -95.431338     -43304270       0.80657666     144903.06     -43159367       923.05255      923.05255      923.05255      2038.4737      2961.5263      2038.4737      2961.5263      2038.4737      2961.5263      7.8646477e+08  0.5            13716500       1.1537348      5657.3962      11314.787      7.7211634    
  27023200   50487.477     -96.478758     -43303491       0.80657666     150343.09     -43153148       923.05255      923.05255      923.05255      2038.4737      2961.5263      2038.4737      2961.5263      2038.4737      2961.5263      7.8646477e+08  0.5            13716600       1.1714252      5652.7949      11305.666      7.7030218    
  27023400   50025.46      -98.05098      -43297212       0.80657666     148967.28     -43148245       923.05255      923.05255      923.05255      2038.4737      2961.5263      2038.4737      2961.5263      2038.4737      2961.5263      7.8646477e+08  0.5            13716700       1.1893782      5570.1081      11140.165      7.686593     
  27023600   47487.187     -100.12448     -43303812       0.80657666     141408.73     -43162403       923.05255      923.05255      923.05255      2038.4737      2961.5263      2038.4737      2961.5263      2038.4737      2961.5263      7.8646477e+08  0.5            13716800       1.2070088      5671.9429      11343.911      7.6680695    
  27023800   48870.244     -101.1906      -43303054       0.80657666     145527.24     -43157527       923.05255      923.05255      923.05255      2038.4737      2961.5263      2038.4737      2961.5263      2038.4737      2961.5263      7.8646477e+08  0.5            13716900       1.2247714      5629.8261      11259.655      7.6503974    
  27024000   51701.315     -102.70299     -43300391       0.80657666     153957.69     -43146434       923.05255      923.05255      923.05255      2038.4737      2961.5263      2038.4737      2961.5263      2038.4737      2961.5263      7.8646477e+08  0.5            13717000       1.2426474      5594.0851      11188.161      7.6334183    
  27024200   53039.051     -105.12781     -43305106       0.80657666     157941.24     -43147165       923.05255      923.05255      923.05255      2038.4737      2961.5263      2038.4737      2961.5263      2038.4737      2961.5263      7.8646477e+08  0.5            13717100       1.2603484      5649.3798      11298.777      7.6153574    
  27024400   53995.825     -106.25106     -43304342       0.80657666     160790.35     -43143552       923.05255      923.05255      923.05255      2038.4737      2961.5263      2038.4737      2961.5263      2038.4737      2961.5263      7.8646477e+08  0.5            13717200       1.2777287      5753.6582      11507.308      7.5953996    
  27024600   54561.692     -107.97888     -43320246       0.80657666     162475.4      -43157771       923.05255      923.05255      923.05255      2038.4737      2961.5263      2038.4737      2961.5263      2038.4737      2961.5263      7.8646477e+08  0.5            13717300       1.2954912      5629.8391      11259.684      7.5777483    
  27024800   55506.229     -109.82546     -43312122       0.80657666     165288.07     -43146834       923.05255      923.05255      923.05255      2038.4737      2961.5263      2038.4737      2961.5263      2038.4737      2961.5263      7.8646477e+08  0.5            13717400       1.3136071      5519.9826      11039.95       7.5621291    
  27025000   57128.735     -111.37565     -43313279       0.80657666     170119.62     -43143159       923.05255      923.05255      923.05255      2038.4737      2961.5263      2038.4737      2961.5263      2038.4737      2961.5263      7.8646477e+08  0.5            13717500       1.3311561      5698.3648      11396.743      7.5432298    
  27025200   57280.024     -113.68617     -43327305       0.80657666     170570.13     -43156735       923.05255      923.05255      923.05255      2038.4737      2961.5263      2038.4737      2961.5263      2038.4737      2961.5263      7.8646477e+08  0.5            13717600       1.3488441      5653.5488      11307.101      7.5251415    
  27025400   55352.584     -115.8852      -43319210       0.80657666     164830.54     -43154379       923.05255      923.05255      923.05255      2038.4737      2961.5263      2038.4737      2961.5263      2038.4737      2961.5263      7.8646477e+08  0.5            13717700       1.3669541      5521.8169      11043.611      7.5093824    
  27025600   55682.779     -117.80835     -43318519       0.80657666     165813.81     -43152705       923.05255      923.05255      923.05255      2038.4737      2961.5263      2038.4737      2961.5263      2038.4737      2961.5263      7.8646477e+08  0.5            13717800       1.3845024      5698.5415      11397.078      7.4905246    
  27025800   59318.147     -118.39408     -43304963       0.80657666     176639.31     -43128324       923.05255      923.05255      923.05255      2038.4737      2961.5263      2038.4737      2961.5263      2038.4737      2961.5263      7.8646477e+08  0.5            13717900       1.4024007      5587.1125      11174.249      7.4735651    
  27026000   59749.993     -120.25357     -43304251       0.80657666     177925.28     -43126326       923.05255      923.05255      923.05255      2038.4737      2961.5263      2038.4737      2961.5263      2038.4737      2961.5263      7.8646477e+08  0.5            13718000       1.4201893      5621.5854      11243.157      7.4560053    
  27026200   59560.724     -121.26839     -43275917       0.80657666     177361.67     -43098555       923.05255      923.05255      923.05255      2038.4737      2961.5263      2038.4737      2961.5263      2038.4737      2961.5263      7.8646477e+08  0.5            13718100       1.4382282      5543.5873      11087.159      7.4397346    
  27026400   61228.118     -122.20208     -43260409       0.80657666     182326.88     -43078083       923.05255      923.05255      923.05255      2038.4737      2961.5263      2038.4737      2961.5263      2038.4737      2961.5263      7.8646477e+08  0.5            13718200       1.4558422      5677.2957      11354.633      7.4212553    
  27026600   63967.063     -123.52312     -43252235       0.80657666     190482.99     -43061752       923.05255      923.05255      923.05255      2038.4737      2961.5263      2038.4737      2961.5263      2038.4737      2961.5263      7.8646477e+08  0.5            13718300       1.473709       5596.9522      11193.87       7.4040675    
  27026800   62547.972     -125.6283      -43258752       0.80657666     186257.18     -43072494       923.05255      923.05255      923.05255      2038.4737      2961.5263      2038.4737      2961.5263      2038.4737      2961.5263      7.8646477e+08  0.5            13718400       1.4910055      5781.5372      11563.124      7.3840375    
  27027000   59455.803     -127.5303      -43248598       0.80657666     177049.23     -43071549       923.05255      923.05255      923.05255      2038.4737      2961.5263      2038.4737      2961.5263      2038.4737      2961.5263      7.8646477e+08  0.5            13718500       1.5093451      5452.6688      10905.299      7.3691663    
  27027200   62138.412     -128.23441     -43232920       0.80657666     185037.58     -43047882       923.05255      923.05255      923.05255      2038.4737      2961.5263      2038.4737      2961.5263      2038.4737      2961.5263      7.8646477e+08  0.5            13718600       1.5269653      5675.3196      11350.667      7.3507498    
  27027400   65471.198     -128.53938     -43233807       0.80657666     194962.05     -43038845       923.05255      923.05255      923.05255      2038.4737      2961.5263      2038.4737      2961.5263      2038.4737      2961.5263      7.8646477e+08  0.5            13718700       1.5448722      5584.4473      11168.876      7.3337135    
  27027600   65722.239     -129.69188     -43216059       0.80657666     195709.61     -43020349       923.05255      923.05255      923.05255      2038.4737      2961.5263      2038.4737      2961.5263      2038.4737      2961.5263      7.8646477e+08  0.5            13718800       1.5618783      5880.2637      11760.538      7.3124398    
  27027800   65361.809     -130.97522     -43214895       0.80657666     194636.31     -43020258       923.05255      923.05255      923.05255      2038.4737      2961.5263      2038.4737      2961.5263      2038.4737      2961.5263      7.8646477e+08  0.5            13718900       1.579761       5591.9598      11183.89       7.2953112    
  27028000   66669.881     -132.26913     -43206285       0.80657666     198531.52     -43007754       923.05255      923.05255      923.05255      2038.4737      2961.5263      2038.4737      2961.5263      2038.4737      2961.5263      7.8646477e+08  0.5            13719000       1.5974237      5661.6476      11323.314      7.2771624    
  27028200   69206.589     -133.20586     -43212356       0.80657666     206085.4      -43006270       923.05255      923.05255      923.05255      2038.4737      2961.5263      2038.4737      2961.5263      2038.4737      2961.5263      7.8646477e+08  0.5            13719100       1.6153667      5573.2059      11146.401      7.2602843    
  27028400   69072.263     -134.30059     -43210972       0.80657666     205685.41     -43005286       923.05255      923.05255      923.05255      2038.4737      2961.5263      2038.4737      2961.5263      2038.4737      2961.5263      7.8646477e+08  0.5            13719200       1.6329358      5691.8135      11383.619      7.241725     
  27028600   65738.162     -135.86472     -43207675       0.80657666     195757.02     -43011918       923.05255      923.05255      923.05255      2038.4737      2961.5263      2038.4737      2961.5263      2038.4737      2961.5263      7.8646477e+08  0.5            13719300       1.6507906      5600.7263      11201.495      7.2244369    
  27028800   65329.047     -136.54961     -43191499       0.80657666     194538.75     -42996961       923.05255      923.05255      923.05255      2038.4737      2961.5263      2038.4737      2961.5263      2038.4737      2961.5263      7.8646477e+08  0.5            13719400       1.6677526      5895.5583      11791.119      7.2032806    
  27029000   69812.067     -137.27987     -43190024       0.80657666     207888.41     -42982136       923.05255      923.05255      923.05255      2038.4737      2961.5263      2038.4737      2961.5263      2038.4737      2961.5263      7.8646477e+08  0.5            13719500       1.6847282      5890.8219      11781.624      7.182271     
  27029200   71522.876     -137.76267     -43190375       0.80657666     212982.91     -42977392       923.05255      923.05255      923.05255      2038.4737      2961.5263      2038.4737      2961.5263      2038.4737      2961.5263      7.8646477e+08  0.5            13719600       1.7028141      5529.1581      11058.309      7.1660189    
  27029400   72626.744     -138.43708     -43188805       0.80657666     216270.04     -42972535       923.05255      923.05255      923.05255      2038.4737      2961.5263      2038.4737      2961.5263      2038.4737      2961.5263      7.8646477e+08  0.5            13719700       1.7200332      5807.4994      11615.006      7.1461259    
  27029600   73132.292     -139.64258     -43194586       0.80657666     217775.48     -42976810       923.05255      923.05255      923.05255      2038.4737      2961.5263      2038.4737      2961.5263      2038.4737      2961.5263      7.8646477e+08  0.5            13719800       1.7377934      5630.5593      11261.091      7.1285084    
  27029800   73962.894     -140.29739     -43185615       0.80657666     220248.87     -42965366       923.05255      923.05255      923.05255      2038.4737      2961.5263      2038.4737      2961.5263      2038.4737      2961.5263      7.8646477e+08  0.5            13719900       1.7554384      5667.3327      11334.703      7.1104206    
  27030000   75895.934     -140.83127     -43178536       0.80657666     226005.13     -42952531       923.05255      923.05255      923.05255      2038.4737      2961.5263      2038.4737      2961.5263      2038.4737      2961.5263      7.8646477e+08  0.5            13720000       1.7731636      5641.6859      11283.328      7.0926629    
  27030200   76372.623     -140.92156     -43147818       0.80657666     227424.63     -42920393       923.05255      923.05255      923.05255      2038.4737      2961.5263      2038.4737      2961.5263      2038.4737      2961.5263      7.8646477e+08  0.5            13720100       1.7911955      5545.7224      11091.481      7.0761172    
  27030400   73855.122     -142.58862     -43148178       0.80657666     219927.94     -42928250       923.05255      923.05255      923.05255      2038.4737      2961.5263      2038.4737      2961.5263      2038.4737      2961.5263      7.8646477e+08  0.5            13720200       1.8088153      5675.4375      11350.864      7.0579344    
  27030600   72930.484     -143.32223     -43139328       0.80657666     217174.53     -42922154       923.05255      923.05255      923.05255      2038.4737      2961.5263      2038.4737      2961.5263      2038.4737      2961.5263      7.8646477e+08  0.5            13720300       1.826293       5721.5727      11443.155      7.0392154    
  27030800   77760.749     -143.07787     -43135991       0.80657666     231558.23     -42904433       923.05255      923.05255      923.05255      2038.4737      2961.5263      2038.4737      2961.5263      2038.4737      2961.5263      7.8646477e+08  0.5            13720400       1.8439055      5677.7828      11355.577      7.0210328    
  27031000   78591.558     -143.67229     -43151197       0.80657666     234032.24     -42917165       923.05255      923.05255      923.05255      2038.4737      2961.5263      2038.4737      2961.5263      2038.4737      2961.5263      7.8646477e+08  0.5            13720500       1.8615393      5670.9493      11341.885      7.0029413    
  27031200   77969.129     -144.54698     -43146001       0.80657666     232178.75     -42913822       923.05255      923.05255      923.05255      2038.4737      2961.5263      2038.4737      2961.5263      2038.4737      2961.5263      7.8646477e+08  0.5            13720600       1.8798047      5474.8178      10949.616      6.9872066    
  27031400   79062.954     -144.95594     -43129887       0.80657666     235435.98     -42894451       923.05255      923.05255      923.05255      2038.4737      2961.5263      2038.4737      2961.5263      2038.4737      2961.5263      7.8646477e+08  0.5            13720700       1.8971424      5767.7804      11535.567      6.9680168    
  27031600   83057.336     -144.34651     -43113752       0.80657666     247330.56     -42866422       923.05255      923.05255      923.05255      2038.4737      2961.5263      2038.4737      2961.5263      2038.4737      2961.5263      7.8646477e+08  0.5            13720800       1.915088       5572.3904      11144.781      6.9510678    
  27031800   82149.102     -145.15297     -43104603       0.80657666     244626        -42859977       923.05255      923.05255      923.05255      2038.4737      2961.5263      2038.4737      2961.5263      2038.4737      2961.5263      7.8646477e+08  0.5            13720900       1.9328037      5644.7135      11289.468      6.9332757    
  27032000   78004.42      -146.8538      -43116097       0.80657666     232283.84     -42883814       923.05255      923.05255      923.05255      2038.4737      2961.5263      2038.4737      2961.5263      2038.4737      2961.5263      7.8646477e+08  0.5            13721000       1.950252       5731.2167      11462.376      6.9145376    
  27032200   79539.592     -147.10069     -43103791       0.80657666     236855.32     -42866936       923.05255      923.05255      923.05255      2038.4737      2961.5263      2038.4737      2961.5263      2038.4737      2961.5263      7.8646477e+08  0.5            13721100       1.9680081      5631.8648      11263.751      6.896901     
  27032400   84910.375     -146.45804     -43102382       0.80657666     252848.6      -42849534       923.05255      923.05255      923.05255      2038.4737      2961.5263      2038.4737      2961.5263      2038.4737      2961.5263      7.8646477e+08  0.5            13721200       1.9864627      5418.7044      10837.382      6.8816823    
  27032600   84139.254     -146.86852     -43086192       0.80657666     250552.33     -42835640       923.05255      923.05255      923.05255      2038.4737      2961.5263      2038.4737      2961.5263      2038.4737      2961.5263      7.8646477e+08  0.5            13721300       2.0037279      5792.0152      11584.032      6.862332     
  27032800   82573.825     -147.81052     -43082855       0.80657666     245890.75     -42836964       923.05255      923.05255      923.05255      2038.4737      2961.5263      2038.4737      2961.5263      2038.4737      2961.5263      7.8646477e+08  0.5            13721400       2.0212657      5701.9552      11403.908      6.8439421    
  27033000   84730.865     -148.23317     -43088769       0.80657666     252314.05     -42836455       923.05255      923.05255      923.05255      2038.4737      2961.5263      2038.4737      2961.5263      2038.4737      2961.5263      7.8646477e+08  0.5            13721500       2.0391365      5595.7213      11191.453      6.8266816    
  27033200   88163.165     -148.02297     -43085311       0.80657666     262534.85     -42822777       923.05255      923.05255      923.05255      2038.4737      2961.5263      2038.4737      2961.5263      2038.4737      2961.5263      7.8646477e+08  0.5            13721600       2.0567092      5690.6536      11381.332      6.8084234    
  27033400   87208.475     -148.01689     -43083336       0.80657666     259691.95     -42823644       923.05255      923.05255      923.05255      2038.4737      2961.5263      2038.4737      2961.5263      2038.4737      2961.5263      7.8646477e+08  0.5            13721700       2.0742653      5696.0346      11392.068      6.7901229    
  27033600   85202.519     -148.38516     -43079781       0.80657666     253718.55     -42826062       923.05255      923.05255      923.05255      2038.4737      2961.5263      2038.4737      2961.5263      2038.4737      2961.5263      7.8646477e+08  0.5            13721800       2.0921263      5598.7593      11197.518      6.7728226    
  27033800   87630.945     -148.6509      -43079963       0.80657666     260949.99     -42819013       923.05255      923.05255      923.05255      2038.4737      2961.5263      2038.4737      2961.5263      2038.4737      2961.5263      7.8646477e+08  0.5            13721900       2.1101413      5550.9396      11101.873      6.7560053    
  27034000   91693.174     -147.65934     -43070762       0.80657666     273046.61     -42797715       923.05255      923.05255      923.05255      2038.4737      2961.5263      2038.4737      2961.5263      2038.4737      2961.5263      7.8646477e+08  0.5            13722000       2.1279658      5610.2533      11220.507      6.7385652    
  27034200   90033.215     -148.2344      -43076218       0.80657666     268103.54     -42808114       923.05255      923.05255      923.05255      2038.4737      2961.5263      2038.4737      2961.5263      2038.4737      2961.5263      7.8646477e+08  0.5            13722100       2.1451891      5806.1068      11612.226      6.7192355    
  27034400   87255.189     -149.06763     -43066874       0.80657666     259831.05     -42807042       923.05255      923.05255      923.05255      2038.4737      2961.5263      2038.4737      2961.5263      2038.4737      2961.5263      7.8646477e+08  0.5            13722200       2.1630984      5583.6933      11167.384      6.7020657    
  27034600   90573.116     -148.6241      -43064849       0.80657666     269711.27     -42795137       923.05255      923.05255      923.05255      2038.4737      2961.5263      2038.4737      2961.5263      2038.4737      2961.5263      7.8646477e+08  0.5            13722300       2.1807074      5678.8997      11357.792      6.6839634    
  27034800   93902.062     -147.58953     -43068171       0.80657666     279624.31     -42788547       923.05255      923.05255      923.05255      2038.4737      2961.5263      2038.4737      2961.5263      2038.4737      2961.5263      7.8646477e+08  0.5            13722400       2.1980785      5756.6868      11513.382      6.6651476    
  27035000   92313.888     -147.67692     -43051196       0.80657666     274895        -42776301       923.05255      923.05255      923.05255      2038.4737      2961.5263      2038.4737      2961.5263      2038.4737      2961.5263      7.8646477e+08  0.5            13722500       2.2154148      5768.2505      11536.438      6.6462511    
  27035200   91436.931     -146.91221     -43048909       0.80657666     272283.57     -42776625       923.05255      923.05255      923.05255      2038.4737      2961.5263      2038.4737      2961.5263      2038.4737      2961.5263      7.8646477e+08  0.5            13722600       2.2337523      5453.2847      10906.607      6.6303511    
  27035400   96394.903     -146.75722     -43057736       0.80657666     287047.56     -42770689       923.05255      923.05255      923.05255      2038.4737      2961.5263      2038.4737      2961.5263      2038.4737      2961.5263      7.8646477e+08  0.5            13722700       2.2514031      5665.4717      11330.956      6.6123951    
  27035600   97592.361     -146.21556     -43071588       0.80657666     290613.39     -42780974       923.05255      923.05255      923.05255      2038.4737      2961.5263      2038.4737      2961.5263      2038.4737      2961.5263      7.8646477e+08  0.5            13722800       2.2692074      5616.6314      11233.239      6.5948908    
  27035800   94480.188     -146.7244      -43071078       0.80657666     281345.87     -42789732       923.05255      923.05255      923.05255      2038.4737      2961.5263      2038.4737      2961.5263      2038.4737      2961.5263      7.8646477e+08  0.5            13722900       2.2864376      5803.7756      11607.602      6.5757295    
  27036000   94048.115     -146.27101     -43068686       0.80657666     280059.23     -42788627       923.05255      923.05255      923.05255      2038.4737      2961.5263      2038.4737      2961.5263      2038.4737      2961.5263      7.8646477e+08  0.5            13723000       2.3041353      5650.4189      11300.801      6.5579297    
  27036200   97973.311     -145.24462     -43051573       0.80657666     291747.79     -42759825       923.05255      923.05255      923.05255      2038.4737      2961.5263      2038.4737      2961.5263      2038.4737      2961.5263      7.8646477e+08  0.5            13723100       2.3222134      5531.5679      11063.125      6.5412027    
  27036400   99001.613     -144.57745     -43051104       0.80657666     294809.9      -42756295       923.05255      923.05255      923.05255      2038.4737      2961.5263      2038.4737      2961.5263      2038.4737      2961.5263      7.8646477e+08  0.5            13723200       2.3398956      5655.4161      11310.835      6.5233512    
  27036600   97717.989     -144.21113     -43041439       0.80657666     290987.48     -42750451       923.05255      923.05255      923.05255      2038.4737      2961.5263      2038.4737      2961.5263      2038.4737      2961.5263      7.8646477e+08  0.5            13723300       2.3579885      5526.9973      11053.963      6.5066363    
  27036800   98264.219     -143.52751     -43048531       0.80657666     292614.06     -42755917       923.05255      923.05255      923.05255      2038.4737      2961.5263      2038.4737      2961.5263      2038.4737      2961.5263      7.8646477e+08  0.5            13723400       2.3755313      5700.381       11400.814      6.4883973    
  27037000   101768.77     -142.81055     -43039089       0.80657666     303050.01     -42736039       923.05255      923.05255      923.05255      2038.4737      2961.5263      2038.4737      2961.5263      2038.4737      2961.5263      7.8646477e+08  0.5            13723500       2.3931037      5690.7238      11381.415      6.4702495    
  27037200   103129.25     -142.26546     -43029767       0.80657666     307101.28     -42722665       923.05255      923.05255      923.05255      2038.4737      2961.5263      2038.4737      2961.5263      2038.4737      2961.5263      7.8646477e+08  0.5            13723600       2.4110961      5557.905       11115.792      6.4532338    
  27037400   99030.568     -142.90503     -43027959       0.80657666     294896.12     -42733062       923.05255      923.05255      923.05255      2038.4737      2961.5263      2038.4737      2961.5263      2038.4737      2961.5263      7.8646477e+08  0.5            13723700       2.4288307      5638.6762      11277.41       6.435521     
  27037600   95042.644     -143.31733     -43031836       0.80657666     283020.76     -42748815       923.05255      923.05255      923.05255      2038.4737      2961.5263      2038.4737      2961.5263      2038.4737      2961.5263      7.8646477e+08  0.5            13723800       2.4471073      5471.4937      10942.973      6.4192293    
  27037800   101372.19     -141.33685     -43015637       0.80657666     301869.08     -42713768       923.05255      923.05255      923.05255      2038.4737      2961.5263      2038.4737      2961.5263      2038.4737      2961.5263      7.8646477e+08  0.5            13723900       2.4646631      5696.1268      11392.249      6.4010372    
  27038000   103976.57     -140.55769     -43014290       0.80657666     309624.47     -42704666       923.05255      923.05255      923.05255      2038.4737      2961.5263      2038.4737      2961.5263      2038.4737      2961.5263      7.8646477e+08  0.5            13724000       2.4826323      5565.0653      11130.118      6.3839175    
  27038200   105379.48     -140.43478     -43003720       0.80657666     313802.11     -42689918       923.05255      923.05255      923.05255      2038.4737      2961.5263      2038.4737      2961.5263      2038.4737      2961.5263      7.8646477e+08  0.5            13724100       2.5002892      5663.5138      11327.043      6.3659903    
  27038400   105818.23     -139.75301     -43002471       0.80657666     315108.63     -42687362       923.05255      923.05255      923.05255      2038.4737      2961.5263      2038.4737      2961.5263      2038.4737      2961.5263      7.8646477e+08  0.5            13724200       2.5172221      5905.6797      11811.371      6.3462415    
  27038600   105782.01     -140.2962      -43028853       0.80657666     315000.77     -42713852       923.05255      923.05255      923.05255      2038.4737      2961.5263      2038.4737      2961.5263      2038.4737      2961.5263      7.8646477e+08  0.5            13724300       2.5353008      5531.3657      11062.731      6.3293926    
  27038800   107045.28     -139.98292     -43042368       0.80657666     318762.57     -42723605       923.05255      923.05255      923.05255      2038.4737      2961.5263      2038.4737      2961.5263      2038.4737      2961.5263      7.8646477e+08  0.5            13724400       2.5530532      5633.0472      11266.082      6.3117202    
  27039000   109667.96     -139.72167     -43048437       0.80657666     326572.47     -42721865       923.05255      923.05255      923.05255      2038.4737      2961.5263      2038.4737      2961.5263      2038.4737      2961.5263      7.8646477e+08  0.5            13724500       2.5708281      5625.8756      11251.713      6.2941022    
  27039200   109762.34     -139.81787     -43047010       0.80657666     326853.51     -42720157       923.05255      923.05255      923.05255      2038.4737      2961.5263      2038.4737      2961.5263      2038.4737      2961.5263      7.8646477e+08  0.5            13724600       2.5885427      5645.0752      11290.178      6.2763356    
  27039400   105764.29     -140.0972      -43036194       0.80657666     314947.99     -42721246       923.05255      923.05255      923.05255      2038.4737      2961.5263      2038.4737      2961.5263      2038.4737      2961.5263      7.8646477e+08  0.5            13724700       2.6060817      5701.5852      11403.165      6.2581472    
  27039600   105099.08     -139.66852     -43029081       0.80657666     312967.1      -42716114       923.05255      923.05255      923.05255      2038.4737      2961.5263      2038.4737      2961.5263      2038.4737      2961.5263      7.8646477e+08  0.5            13724800       2.624013       5576.8368      11153.707      6.240901     
  27039800   112027.45     -138.2559      -43027285       0.80657666     333598.61     -42693686       923.05255      923.05255      923.05255      2038.4737      2961.5263      2038.4737      2961.5263      2038.4737      2961.5263      7.8646477e+08  0.5            13724900       2.6419343      5579.9511      11159.872      6.2236223    
  27040000   112336.5      -136.80451     -43017908       0.80657666     334518.92     -42683389       923.05255      923.05255      923.05255      2038.4737      2961.5263      2038.4737      2961.5263      2038.4737      2961.5263      7.8646477e+08  0.5            13725000       2.6596605      5641.3696      11282.761      6.2058796    
  27040200   110347.59     -136.57319     -43017674       0.80657666     328596.27     -42689078       923.05255      923.05255      923.05255      2038.4737      2961.5263      2038.4737      2961.5263      2038.4737      2961.5263      7.8646477e+08  0.5            13725100       2.6771994      5701.6252      11403.25       6.1877042    
  27040400   111254.63     -135.90071     -43015413       0.80657666     331297.28     -42684116       923.05255      923.05255      923.05255      2038.4737      2961.5263      2038.4737      2961.5263      2038.4737      2961.5263      7.8646477e+08  0.5            13725200       2.6947956      5683.0429      11366.083      6.1696685    
  27040600   117511.77     -133.76887     -43013001       0.80657666     349929.99     -42663071       923.05255      923.05255      923.05255      2038.4737      2961.5263      2038.4737      2961.5263      2038.4737      2961.5263      7.8646477e+08  0.5            13725300       2.7126478      5601.5505      11203.107      6.1522192    
  27040800   115904.39     -133.47229     -43003031       0.80657666     345143.48     -42657887       923.05255      923.05255      923.05255      2038.4737      2961.5263      2038.4737      2961.5263      2038.4737      2961.5263      7.8646477e+08  0.5            13725400       2.7298329      5819.0062      11637.991      6.1332658    
  27041000   111641.77     -133.43952     -42993026       0.80657666     332450.13     -42660576       923.05255      923.05255      923.05255      2038.4737      2961.5263      2038.4737      2961.5263      2038.4737      2961.5263      7.8646477e+08  0.5            13725500       2.7482104      5441.4037      10882.772      6.1169898    
  27041200   113956.49     -132.08776     -42979420       0.80657666     339342.96     -42640078       923.05255      923.05255      923.05255      2038.4737      2961.5263      2038.4737      2961.5263      2038.4737      2961.5263      7.8646477e+08  0.5            13725600       2.765988       5625.0692      11250.167      6.0993631    
  27041400   121083.33     -130.36055     -42976685       0.80657666     360565.47     -42616120       923.05255      923.05255      923.05255      2038.4737      2961.5263      2038.4737      2961.5263      2038.4737      2961.5263      7.8646477e+08  0.5            13725700       2.7844869      5405.7233      10811.447      6.0833107    
  27041600   117152.7      -130.79555     -42981292       0.80657666     348860.72     -42632432       923.05255      923.05255      923.05255      2038.4737      2961.5263      2038.4737      2961.5263      2038.4737      2961.5263      7.8646477e+08  0.5            13725800       2.8021574      5659.1344      11318.293      6.0654343    
  27041800   113919.56     -129.54902     -42963863       0.80657666     339233.01     -42624630       923.05255      923.05255      923.05255      2038.4737      2961.5263      2038.4737      2961.5263      2038.4737      2961.5263      7.8646477e+08  0.5            13725900       2.8203207      5505.6169      11011.215      6.0486172    
  27042000   118036.39     -127.21348     -42953879       0.80657666     351492.22     -42602387       923.05255      923.05255      923.05255      2038.4737      2961.5263      2038.4737      2961.5263      2038.4737      2961.5263      7.8646477e+08  0.5            13726000       2.8381716      5601.9578      11203.921      6.0311195    
  27042200   121706.24     -125.91905     -42936533       0.80657666     362420.39     -42574113       923.05255      923.05255      923.05255      2038.4737      2961.5263      2038.4737      2961.5263      2038.4737      2961.5263      7.8646477e+08  0.5            13726100       2.8563561      5499.1925      10998.402      6.0143197    
  27042400   119944.33     -124.63451     -42911874       0.80657666     357173.74     -42554701       923.05255      923.05255      923.05255      2038.4737      2961.5263      2038.4737      2961.5263      2038.4737      2961.5263      7.8646477e+08  0.5            13726200       2.8734213      5859.8693      11719.767      5.9951676    
  27042600   118840.52     -123.37492     -42907550       0.80657666     353886.77     -42553663       923.05255      923.05255      923.05255      2038.4737      2961.5263      2038.4737      2961.5263      2038.4737      2961.5263      7.8646477e+08  0.5            13726300       2.8926559      5198.98        10397.883      5.9805265    
  27042800   123941.14     -121.74178     -42910717       0.80657666     369075.54     -42541641       923.05255      923.05255      923.05255      2038.4737      2961.5263      2038.4737      2961.5263      2038.4737      2961.5263      7.8646477e+08  0.5            13726400       2.9102356      5688.3802      11376.793      5.9624385    
  27043000   128600.72     -120.02939     -42909978       0.80657666     382951        -42527027       923.05255      923.05255      923.05255      2038.4737      2961.5263      2038.4737      2961.5263      2038.4737      2961.5263      7.8646477e+08  0.5            13726500       2.9282383      5554.7223      11109.456      5.9452157    
  27043200   123392.08     -119.39175     -42885667       0.80657666     367440.55     -42518226       923.05255      923.05255      923.05255      2038.4737      2961.5263      2038.4737      2961.5263      2038.4737      2961.5263      7.8646477e+08  0.5            13726600       2.9459624      5642.0532      11284.117      5.9274227    
  27043400   121128.41     -119.33622     -42898379       0.80657666     360699.72     -42537679       923.05255      923.05255      923.05255      2038.4737      2961.5263      2038.4737      2961.5263      2038.4737      2961.5263      7.8646477e+08  0.5            13726700       2.9638313      5596.2781      11192.539      5.9099199    
  27043600   123671.95     -118.67816     -42874321       0.80657666     368273.95     -42506047       923.05255      923.05255      923.05255      2038.4737      2961.5263      2038.4737      2961.5263      2038.4737      2961.5263      7.8646477e+08  0.5            13726800       2.981884       5539.3539      11078.756      5.892775     
  27043800   127738.3      -116.61646     -42889133       0.80657666     380382.85     -42508750       923.05255      923.05255      923.05255      2038.4737      2961.5263      2038.4737      2961.5263      2038.4737      2961.5263      7.8646477e+08  0.5            13726900       3.0014231      5117.9383      10235.837      5.8785316    
  27044000   127268.95     -116.35688     -42885471       0.80657666     378985.19     -42506486       923.05255      923.05255      923.05255      2038.4737      2961.5263      2038.4737      2961.5263      2038.4737      2961.5263      7.8646477e+08  0.5            13727000       3.0192357      5614.0165      11228.008      5.8608738    
  27044200   117677.5      -116.82817     -42876406       0.80657666     350423.5      -42525983       923.05255      923.05255      923.05255      2038.4737      2961.5263      2038.4737      2961.5263      2038.4737      2961.5263      7.8646477e+08  0.5            13727100       3.0372471      5552.022       11104.035      5.8435968    
  27044400   119532.74     -115.37817     -42880334       0.80657666     355948.09     -42524386       923.05255      923.05255      923.05255      2038.4737      2961.5263      2038.4737      2961.5263      2038.4737      2961.5263      7.8646477e+08  0.5            13727200       3.0549156      5659.7942      11319.649      5.8256573    
  27044600   127063.76     -113.23728     -42895428       0.80657666     378374.17     -42517054       923.05255      923.05255      923.05255      2038.4737      2961.5263      2038.4737      2961.5263      2038.4737      2961.5263      7.8646477e+08  0.5            13727300       3.0728141      5587.0588      11174.071      5.8081558    
  27044800   130825.79     -112.5354      -42891964       0.80657666     389576.88     -42502387       923.05255      923.05255      923.05255      2038.4737      2961.5263      2038.4737      2961.5263      2038.4737      2961.5263      7.8646477e+08  0.5            13727400       3.0904721      5663.1706      11326.358      5.7901991    
  27045000   131012.78     -110.98782     -42903193       0.80657666     390133.68     -42513060       923.05255      923.05255      923.05255      2038.4737      2961.5263      2038.4737      2961.5263      2038.4737      2961.5263      7.8646477e+08  0.5            13727500       3.1083416      5596.1074      11192.171      5.7726388    
  27045200   128223.91     -111.32847     -42920042       0.80657666     381828.91     -42538213       923.05255      923.05255      923.05255      2038.4737      2961.5263      2038.4737      2961.5263      2038.4737      2961.5263      7.8646477e+08  0.5            13727600       3.1259996      5663.1918      11326.443      5.7546851    
  27045400   127808.8      -110.58742     -42903542       0.80657666     380592.77     -42522949       923.05255      923.05255      923.05255      2038.4737      2961.5263      2038.4737      2961.5263      2038.4737      2961.5263      7.8646477e+08  0.5            13727700       3.1439844      5560.249       11120.492      5.7373313    
  27045600   135029.55     -108.57226     -42916414       0.80657666     402094.93     -42514319       923.05255      923.05255      923.05255      2038.4737      2961.5263      2038.4737      2961.5263      2038.4737      2961.5263      7.8646477e+08  0.5            13727800       3.16195        5566.1712      11132.337      5.7199361    
  27045800   135627.7      -106.69274     -42921717       0.80657666     403876.14     -42517840       923.05255      923.05255      923.05255      2038.4737      2961.5263      2038.4737      2961.5263      2038.4737      2961.5263      7.8646477e+08  0.5            13727900       3.1795215      5691.048       11382.086      5.7018274    
  27046000   130836.1      -106.18161     -42919481       0.80657666     389607.58     -42529873       923.05255      923.05255      923.05255      2038.4737      2961.5263      2038.4737      2961.5263      2038.4737      2961.5263      7.8646477e+08  0.5            13728000       3.1974682      5572.046       11144.068      5.6843919    
  27046200   129854.48     -104.69633     -42917090       0.80657666     386684.48     -42530405       923.05255      923.05255      923.05255      2038.4737      2961.5263      2038.4737      2961.5263      2038.4737      2961.5263      7.8646477e+08  0.5            13728100       3.2151138      5667.1393      11334.33       5.6664199    
  27046400   140001.71     -101.84692     -42916753       0.80657666     416901.2      -42499851       923.05255      923.05255      923.05255      2038.4737      2961.5263      2038.4737      2961.5263      2038.4737      2961.5263      7.8646477e+08  0.5            13728200       3.2331307      5550.3157      11100.591      5.6491005    
  27046600   137794.7      -100.59348     -42919381       0.80657666     410329.09     -42509052       923.05255      923.05255      923.05255      2038.4737      2961.5263      2038.4737      2961.5263      2038.4737      2961.5263      7.8646477e+08  0.5            13728300       3.2507334      5680.9641      11361.959      5.6310559    
  27046800   132175.93     -99.250917     -42886908       0.80657666     393597.35     -42493311       923.05255      923.05255      923.05255      2038.4737      2961.5263      2038.4737      2961.5263      2038.4737      2961.5263      7.8646477e+08  0.5            13728400       3.2683474      5677.3199      11354.643      5.6130352    
  27047000   134092.38     -96.303558     -42865338       0.80657666     399304.22     -42466034       923.05255      923.05255      923.05255      2038.4737      2961.5263      2038.4737      2961.5263      2038.4737      2961.5263      7.8646477e+08  0.5            13728500       3.2858983      5697.7041      11395.404      5.5949117    
  27047200   140789.52     -94.343199     -42878837       0.80657666     419247.15     -42459590       923.05255      923.05255      923.05255      2038.4737      2961.5263      2038.4737      2961.5263      2038.4737      2961.5263      7.8646477e+08  0.5            13728600       3.3036889      5620.9228      11241.86       5.5771992    
  27047400   139203.89     -92.403798     -42875990       0.80657666     414525.42     -42461465       923.05255      923.05255      923.05255      2038.4737      2961.5263      2038.4737      2961.5263      2038.4737      2961.5263      7.8646477e+08  0.5            13728700       3.3221147      5427.1875      10854.364      5.5605487    
  27047600   137046.84     -90.488632     -42848793       0.80657666     408102.1      -42440691       923.05255      923.05255      923.05255      2038.4737      2961.5263      2038.4737      2961.5263      2038.4737      2961.5263      7.8646477e+08  0.5            13728800       3.3400469      5576.5482      11153.077      5.5430604    
  27047800   140042.27     -88.571589     -42840228       0.80657666     417021.96     -42423206       923.05255      923.05255      923.05255      2038.4737      2961.5263      2038.4737      2961.5263      2038.4737      2961.5263      7.8646477e+08  0.5            13728900       3.3577074      5662.3865      11324.802      5.52512      
  27048000   147214.67     -86.03678      -42844941       0.80657666     438380.16     -42406561       923.05255      923.05255      923.05255      2038.4737      2961.5263      2038.4737      2961.5263      2038.4737      2961.5263      7.8646477e+08  0.5            13729000       3.3748885      5820.3508      11640.701      5.5064005    
  27048200   143262.62     -85.310695     -42849379       0.80657666     426611.63     -42422768       923.05255      923.05255      923.05255      2038.4737      2961.5263      2038.4737      2961.5263      2038.4737      2961.5263      7.8646477e+08  0.5            13729100       3.3927449      5600.222       11200.423      5.4887898    
  27048400   139845.81     -84.607676     -42854065       0.80657666     416436.94     -42437628       923.05255      923.05255      923.05255      2038.4737      2961.5263      2038.4737      2961.5263      2038.4737      2961.5263      7.8646477e+08  0.5            13729200       3.4100959      5763.3519      11526.76       5.4703657    
  27048600   141074.81     -83.365413     -42851649       0.80657666     420096.7      -42431553       923.05255      923.05255      923.05255      2038.4737      2961.5263      2038.4737      2961.5263      2038.4737      2961.5263      7.8646477e+08  0.5            13729300       3.4277612      5660.8252      11321.647      5.4524526    
  27048800   144357.19     -80.576789     -42845692       0.80657666     429871.07     -42415821       923.05255      923.05255      923.05255      2038.4737      2961.5263      2038.4737      2961.5263      2038.4737      2961.5263      7.8646477e+08  0.5            13729400       3.4453713      5678.5772      11357.123      5.434455     
  27049000   146297.09     -78.91183      -42841866       0.80657666     435647.74     -42406218       923.05255      923.05255      923.05255      2038.4737      2961.5263      2038.4737      2961.5263      2038.4737      2961.5263      7.8646477e+08  0.5            13729500       3.4625127      5833.8003      11667.586      5.4157286    
  27049200   145684.13     -77.365971     -42840150       0.80657666     433822.47     -42406327       923.05255      923.05255      923.05255      2038.4737      2961.5263      2038.4737      2961.5263      2038.4737      2961.5263      7.8646477e+08  0.5            13729600       3.4800903      5689.0724      11378.164      5.3976945    
  27049400   142687.73     -77.115831     -42838667       0.80657666     424899.69     -42413767       923.05255      923.05255      923.05255      2038.4737      2961.5263      2038.4737      2961.5263      2038.4737      2961.5263      7.8646477e+08  0.5            13729700       3.4975257      5735.4801      11470.985      5.3794462    
  27049600   144711.35     -75.470389     -42837412       0.80657666     430925.7      -42406486       923.05255      923.05255      923.05255      2038.4737      2961.5263      2038.4737      2961.5263      2038.4737      2961.5263      7.8646477e+08  0.5            13729800       3.5152212      5651.1306      11302.252      5.3616033    
  27049800   150817.05     -73.625517     -42836294       0.80657666     449107.43     -42387187       923.05255      923.05255      923.05255      2038.4737      2961.5263      2038.4737      2961.5263      2038.4737      2961.5263      7.8646477e+08  0.5            13729900       3.5328894      5659.8836      11319.782      5.3437204    
  27050000   150765.28     -72.39088      -42840733       0.80657666     448953.26     -42391779       923.05255      923.05255      923.05255      2038.4737      2961.5263      2038.4737      2961.5263      2038.4737      2961.5263      7.8646477e+08  0.5            13730000       3.5539293      4752.8619      9505.7197      5.3308973    
  27050200   143881.75     -73.053896     -42834232       0.80657666     428455.28     -42405776       923.05255      923.05255      923.05255      2038.4737      2961.5263      2038.4737      2961.5263      2038.4737      2961.5263      7.8646477e+08  0.5            13730100       3.5714971      5692.2178      11384.404      5.3128275    
  27050400   141967.23     -72.791983     -42832922       0.80657666     422754.17     -42410168       923.05255      923.05255      923.05255      2038.4737      2961.5263      2038.4737      2961.5263      2038.4737      2961.5263      7.8646477e+08  0.5            13730200       3.5890358      5701.7139      11403.427      5.2947194    
  27050600   153730.16     -69.36198      -42824572       0.80657666     457782.16     -42366790       923.05255      923.05255      923.05255      2038.4737      2961.5263      2038.4737      2961.5263      2038.4737      2961.5263      7.8646477e+08  0.5            13730300       3.6070123      5562.8098      11125.59       5.2772578    
  27050800   153286.29     -69.077208     -42816096       0.80657666     456460.4      -42359636       923.05255      923.05255      923.05255      2038.4737      2961.5263      2038.4737      2961.5263      2038.4737      2961.5263      7.8646477e+08  0.5            13730400       3.6246451      5671.2561      11342.577      5.2592921    
  27051000   148747.04     -68.390301     -42800128       0.80657666     442943.27     -42357185       923.05255      923.05255      923.05255      2038.4737      2961.5263      2038.4737      2961.5263      2038.4737      2961.5263      7.8646477e+08  0.5            13730500       3.6425072      5598.4462      11196.891      5.2416598    
  27051200   149021.1      -67.393031     -42798789       0.80657666     443759.39     -42355030       923.05255      923.05255      923.05255      2038.4737      2961.5263      2038.4737      2961.5263      2038.4737      2961.5263      7.8646477e+08  0.5            13730600       3.659768       5793.4672      11586.935      5.2231671    
  27051400   157875.98     -65.776223     -42821297       0.80657666     470127.7      -42351170       923.05255      923.05255      923.05255      2038.4737      2961.5263      2038.4737      2961.5263      2038.4737      2961.5263      7.8646477e+08  0.5            13730700       3.6775935      5609.9374      11219.825      5.2054857    
  27051600   157601.35     -64.967373     -42814090       0.80657666     469309.9      -42344780       923.05255      923.05255      923.05255      2038.4737      2961.5263      2038.4737      2961.5263      2038.4737      2961.5263      7.8646477e+08  0.5            13730800       3.6950865      5716.5792      11433.205      5.187336     
  27051800   153132.6      -64.43045      -42806667       0.80657666     456002.74     -42350664       923.05255      923.05255      923.05255      2038.4737      2961.5263      2038.4737      2961.5263      2038.4737      2961.5263      7.8646477e+08  0.5            13730900       3.7130735      5559.5683      11119.135      5.1698804    
  27052000   152925.68     -62.071765     -42806461       0.80657666     455386.56     -42351075       923.05255      923.05255      923.05255      2038.4737      2961.5263      2038.4737      2961.5263      2038.4737      2961.5263      7.8646477e+08  0.5            13731000       3.7309023      5608.8776      11217.692      5.1522017    
  27052200   155206.89     -60.51438      -42804185       0.80657666     462179.62     -42342006       923.05255      923.05255      923.05255      2038.4737      2961.5263      2038.4737      2961.5263      2038.4737      2961.5263      7.8646477e+08  0.5            13731100       3.7485088      5679.7389      11359.533      5.1342165    
  27052400   156603.51     -58.885148     -42809089       0.80657666     466338.52     -42342751       923.05255      923.05255      923.05255      2038.4737      2961.5263      2038.4737      2961.5263      2038.4737      2961.5263      7.8646477e+08  0.5            13731200       3.7663826      5594.7784      11189.524      5.1165983    
  27052600   157324.53     -56.595429     -42789458       0.80657666     468485.58     -42320972       923.05255      923.05255      923.05255      2038.4737      2961.5263      2038.4737      2961.5263      2038.4737      2961.5263      7.8646477e+08  0.5            13731300       3.7839189      5702.4783      11405.008      5.0985227    
  27052800   158433.2      -54.400855     -42794088       0.80657666     471787.01     -42322301       923.05255      923.05255      923.05255      2038.4737      2961.5263      2038.4737      2961.5263      2038.4737      2961.5263      7.8646477e+08  0.5            13731400       3.801553       5670.803       11341.568      5.0805832    
  27053000   163969.38     -51.770312     -42783453       0.80657666     488272.81     -42295180       923.05255      923.05255      923.05255      2038.4737      2961.5263      2038.4737      2961.5263      2038.4737      2961.5263      7.8646477e+08  0.5            13731500       3.8193927      5605.4861      11210.966      5.0629189    
  27053200   170304.59     -47.611655     -42785501       0.80657666     507137.98     -42278363       923.05255      923.05255      923.05255      2038.4737      2961.5263      2038.4737      2961.5263      2038.4737      2961.5263      7.8646477e+08  0.5            13731600       3.8369426      5698.0684      11396.128      5.0448718    
  27053400   160043        -47.064927     -42773065       0.80657666     476580.73     -42296485       923.05255      923.05255      923.05255      2038.4737      2961.5263      2038.4737      2961.5263      2038.4737      2961.5263      7.8646477e+08  0.5            13731700       3.8547508      5615.3626      11230.74       5.0271664    
  27053600   157045.37     -45.368669     -42784723       0.80657666     467654.29     -42317069       923.05255      923.05255      923.05255      2038.4737      2961.5263      2038.4737      2961.5263      2038.4737      2961.5263      7.8646477e+08  0.5            13731800       3.8722252      5722.6748      11445.375      5.0090281    
  27053800   161426.51     -42.726899     -42785431       0.80657666     480700.57     -42304731       923.05255      923.05255      923.05255      2038.4737      2961.5263      2038.4737      2961.5263      2038.4737      2961.5263      7.8646477e+08  0.5            13731900       3.8896278      5746.2457      11492.509      4.9908038    
  27054000   165226.46     -38.716283     -42789351       0.80657666     492016.18     -42297335       923.05255      923.05255      923.05255      2038.4737      2961.5263      2038.4737      2961.5263      2038.4737      2961.5263      7.8646477e+08  0.5            13732000       3.9075562      5577.7311      11155.42       4.9732563    
  27054200   164068.19     -36.616215     -42786246       0.80657666     488567.05     -42297679       923.05255      923.05255      923.05255      2038.4737      2961.5263      2038.4737      2961.5263      2038.4737      2961.5263      7.8646477e+08  0.5            13732100       3.9250444      5718.1646      11436.346      4.9551493    
  27054400   162464.36     -34.363171     -42777720       0.80657666     483791.13     -42293929       923.05255      923.05255      923.05255      2038.4737      2961.5263      2038.4737      2961.5263      2038.4737      2961.5263      7.8646477e+08  0.5            13732200       3.9428536      5615.0842      11230.172      4.93745      
  27054600   170180.31     -29.717356     -42767375       0.80657666     506767.89     -42260607       923.05255      923.05255      923.05255      2038.4737      2961.5263      2038.4737      2961.5263      2038.4737      2961.5263      7.8646477e+08  0.5            13732300       3.9603745      5707.4609      11414.935      4.9193916    
  27054800   174802.3      -26.341745     -42756621       0.80657666     520531.4      -42236089       923.05255      923.05255      923.05255      2038.4737      2961.5263      2038.4737      2961.5263      2038.4737      2961.5263      7.8646477e+08  0.5            13732400       3.9778656      5717.2097      11434.413      4.9013013    
[...]
  27699400   306.76353     -0.18528228    -43396827       0.84277159     913.4894      -43395913       909.64446      909.64446      909.64446      2045.1778      2954.8222      2045.1778      2954.8222      2045.1778      2954.8222      7.5268808e+08  0.5            14054700       29.848423      4931.3555      9862.7164      1.0932733    
  27699600   306.76193      2.9995336     -43396906       0.84287479     913.48466     -43395993       909.60734      909.60734      909.60734      2045.1963      2954.8037      2045.1963      2954.8037      2045.1963      2954.8037      7.5259593e+08  0.5            14054800       29.868739      4922.0548      9844.1029      1.0726344    
  27699800   306.76496      3.9748932     -43396986       0.84291566     913.49368     -43396073       909.59264      909.59264      909.59264      2045.2037      2954.7963      2045.2037      2954.7963      2045.2037      2954.7963      7.5255944e+08  0.5            14054900       29.888747      4998.1749      9996.3598      1.051985     
  27700000   306.27319      3.1413614     -43397069       0.84290424     912.02925     -43396157       909.59674      909.59674      909.59674      2045.2016      2954.7984      2045.2016      2954.7984      2045.2016      2954.7984      7.5256963e+08  0.5            14055000       29.910962      4501.4046      9002.7955      1.0314126    
  27700200   306.61999      1.2964969     -43397153       0.84286311     913.06198     -43396240       909.61154      909.61154      909.61154      2045.1942      2954.8058      2045.1942      2954.8058      2045.1942      2954.8058      7.5260636e+08  0.5            14055100       29.931464      4877.6476      9755.2753      1.01078      
  27700400   306.84962     -0.33249129    -43397234       0.84282747     913.74577     -43396321       909.62436      909.62436      909.62436      2045.1878      2954.8122      2045.1878      2954.8122      2045.1878      2954.8122      7.5263818e+08  0.5            14055200       29.9517        4941.5313      9883.0714      0.99013893   
  27700600   306.64331     -0.69064579    -43397315       0.84282771     913.13141     -43396402       909.62427      909.62427      909.62427      2045.1879      2954.8121      2045.1879      2954.8121      2045.1879      2954.8121      7.5263796e+08  0.5            14055300       29.971971      4933.1455      9866.3052      0.96949949   
  27700800   306.48552     -0.091644002   -43397396       0.84285588     912.66153     -43396484       909.61414      909.61414      909.61414      2045.1929      2954.8071      2045.1929      2954.8071      2045.1929      2954.8071      7.5261281e+08  0.5            14055400       29.992189      4946.2124      9892.4351      0.94885887   
  27701000   306.03855      0.35652272    -43397477       0.84288062     911.33053     -43396565       909.60524      909.60524      909.60524      2045.1974      2954.8026      2045.1974      2954.8026      2045.1974      2954.8026      7.5259072e+08  0.5            14055500       30.012561      4908.5469      9817.0707      0.92822363   
  27701200   306.50218      0.2461753     -43397556       0.8428896      912.71115     -43396644       909.60201      909.60201      909.60201      2045.199       2954.801       2045.199       2954.801       2045.199       2954.801       7.5258271e+08  0.5            14055600       30.032986      4896.1272      9792.2601      0.9075903    
  27701400   306.79027     -0.3746331     -43397636       0.84288399     913.56905     -43396723       909.60403      909.60403      909.60403      2045.198       2954.802       2045.198       2954.802       2045.198       2954.802       7.5258771e+08  0.5            14055700       30.053116      4967.6837      9935.3749      0.88694858   
  27701600   306.62067     -0.53141745    -43397716       0.84289194     913.064       -43396803       909.60117      909.60117      909.60117      2045.1994      2954.8006      2045.1994      2954.8006      2045.1994      2954.8006      7.5258061e+08  0.5            14055800       30.074308      4718.766       9437.5285      0.86633816   
  27701800   306.53322      1.620345      -43397795       0.84296698     912.8036      -43396883       909.57418      909.57418      909.57418      2045.2129      2954.7871      2045.2129      2954.7871      2045.2129      2954.7871      7.5251362e+08  0.5            14055900       30.094648      4916.4107      9832.8335      0.84570299   
  27702000   306.11252      2.2502002     -43397875       0.84299853     911.55082     -43396964       909.56283      909.56283      909.56283      2045.2186      2954.7814      2045.2186      2954.7814      2045.2186      2954.7814      7.5248546e+08  0.5            14056000       30.115042      4903.4544      9806.9083      0.8250697    
  27702200   306.59047     -0.86596958    -43397956       0.84292152     912.97405     -43397043       909.59053      909.59053      909.59053      2045.2047      2954.7953      2045.2047      2954.7953      2045.2047      2954.7953      7.5255421e+08  0.5            14056100       30.135357      4922.4393      9844.8908      0.80443464   
  27702400   306.98039      2.4256852     -43398037       0.84303004     914.13519     -43397122       909.55149      909.55149      909.55149      2045.2243      2954.7757      2045.2243      2954.7757      2045.2243      2954.7757      7.5245733e+08  0.5            14056200       30.156047      4833.217       9666.4014      0.78380977   
  27702600   306.82877      1.2823801     -43398119       0.84300877     913.68369     -43397206       909.55914      909.55914      909.55914      2045.2204      2954.7796      2045.2204      2954.7796      2045.2204      2954.7796      7.5247631e+08  0.5            14056300       30.176332      4929.8602      9859.7422      0.76317454   
  27702800   306.66927     -1.2304511     -43398201       0.84294724     913.20873     -43397288       909.58128      909.58128      909.58128      2045.2094      2954.7906      2045.2094      2954.7906      2045.2094      2954.7906      7.5253124e+08  0.5            14056400       30.196461      4967.7326      9935.444       0.742536     
  27703000   306.25385      1.96197       -43398283       0.84305039     911.97168     -43397371       909.54418      909.54418      909.54418      2045.2279      2954.7721      2045.2279      2954.7721      2045.2279      2954.7721      7.5243917e+08  0.5            14056500       30.217066      4853.2812      9706.5487      0.72190949   
  27703200   306.70019      3.7077546     -43398364       0.84311074     913.3008      -43397450       909.52248      909.52248      909.52248      2045.2388      2954.7612      2045.2388      2954.7612      2045.2388      2954.7612      7.5238531e+08  0.5            14056600       30.237379      4922.8796      9845.801       0.70127625   
  27703400   306.94805      1.7732478     -43398448       0.84306433     914.03887     -43397534       909.53917      909.53917      909.53917      2045.2304      2954.7696      2045.2304      2954.7696      2045.2304      2954.7696      7.5242673e+08  0.5            14056700       30.257646      4934.2409      9868.4852      0.68064239   
  27703600   306.71595     -0.84102541    -43398530       0.84299791     913.34771     -43397617       909.56305      909.56305      909.56305      2045.2185      2954.7815      2045.2185      2954.7815      2045.2185      2954.7815      7.5248601e+08  0.5            14056800       30.277944      4926.6561      9853.3118      0.66000972   
  27703800   306.4771      -2.4315003     -43398610       0.84296073     912.63648     -43397698       909.57642      909.57642      909.57642      2045.2118      2954.7882      2045.2118      2954.7882      2045.2118      2954.7882      7.525192e+08   0.5            14056900       30.298255      4923.3843      9846.7598      0.63937779   
  27704000   305.95161     -2.4802441     -43398691       0.84296851     911.07164     -43397780       909.57363      909.57363      909.57363      2045.2132      2954.7868      2045.2132      2954.7868      2045.2132      2954.7868      7.5251226e+08  0.5            14057000       30.318644      4904.5106      9809.0213      0.61874789   
  27704200   306.42359     -0.12312798    -43398771       0.84304696     912.47712     -43397859       909.54541      909.54541      909.54541      2045.2273      2954.7727      2045.2273      2954.7727      2045.2273      2954.7727      7.5244222e+08  0.5            14057100       30.339065      4896.9306      9793.8589      0.59811894   
  27704400   306.86112      3.4783387     -43398849       0.84316277     913.78002     -43397935       909.50377      909.50377      909.50377      2045.2481      2954.7519      2045.2481      2954.7519      2045.2481      2954.7519      7.5233888e+08  0.5            14057200       30.359387      4920.7966      9841.5849      0.57748839   
  27704600   306.79207      4.7020295     -43398928       0.84321077     913.57439     -43398014       909.48651      909.48651      909.48651      2045.2567      2954.7433      2045.2567      2954.7433      2045.2567      2954.7433      7.5229605e+08  0.5            14057300       30.379682      4927.3786      9854.7712      0.55685776   
  27704800   306.65314      3.0986844     -43399011       0.84317739     913.16068     -43398098       909.49851      909.49851      909.49851      2045.2507      2954.7493      2045.2507      2954.7493      2045.2507      2954.7493      7.5232583e+08  0.5            14057400       30.40003       4914.4802      9828.9488      0.53622852   
  27705000   306.15742      0.87796639    -43399094       0.8431262      911.68453     -43398182       909.51692      909.51692      909.51692      2045.2415      2954.7585      2045.2415      2954.7585      2045.2415      2954.7585      7.5237151e+08  0.5            14057500       30.420408      4907.2373      9814.4519      0.51560018   
  27705200   306.50031     -0.51949758    -43399175       0.8430985      912.7056      -43398262       909.52688      909.52688      909.52688      2045.2366      2954.7634      2045.2366      2954.7634      2045.2366      2954.7634      7.5239623e+08  0.5            14057600       30.440651      4939.9785      9879.9717      0.49496997   
  27705400   306.74939     -0.83457289    -43399255       0.84310202     913.4473      -43398341       909.52561      909.52561      909.52561      2045.2372      2954.7628      2045.2372      2954.7628      2045.2372      2954.7628      7.5239309e+08  0.5            14057700       30.46107       4897.3772      9794.7313      0.47434304   
  27705600   306.62921     -0.054818879   -43399335       0.84313762     913.08942     -43398422       909.51281      909.51281      909.51281      2045.2436      2954.7564      2045.2436      2954.7564      2045.2436      2954.7564      7.5236132e+08  0.5            14057800       30.481326      4936.7243      9873.4861      0.45371396   
  27705800   306.57639      1.3795125     -43399415       0.84319244     912.93213     -43398502       909.4931       909.4931       909.4931       2045.2535      2954.7465      2045.2535      2954.7465      2045.2535      2954.7465      7.5231241e+08  0.5            14057900       30.501714      4904.9389      9809.8623      0.43308725   
  27706000   306.19116      2.1421706     -43399495       0.84322743     911.785       -43398584       909.48052      909.48052      909.48052      2045.2597      2954.7403      2045.2597      2954.7403      2045.2597      2954.7403      7.5228119e+08  0.5            14058000       30.521876      4959.8237      9919.6375      0.41245782   
  27706200   306.58172      1.8242167     -43399576       0.84323047     912.948       -43398663       909.47943      909.47943      909.47943      2045.2603      2954.7397      2045.2603      2954.7397      2045.2603      2954.7397      7.5227848e+08  0.5            14058100       30.542484      4852.5907      9705.1865      0.39183473   
  27706400   306.85088      1.0646588     -43399657       0.84321996     913.74952     -43398744       909.48321      909.48321      909.48321      2045.2584      2954.7416      2045.2584      2954.7416      2045.2584      2954.7416      7.5228786e+08  0.5            14058200       30.562825      4915.9846      9831.9769      0.37120844   
  27706600   306.69768      0.47492999    -43399738       0.8432133      913.29332     -43398825       909.4856       909.4856       909.4856       2045.2572      2954.7428      2045.2572      2954.7428      2045.2572      2954.7428      7.5229379e+08  0.5            14058300       30.583241      4898.3195      9796.6399      0.35058337   
  27706800   306.54582      0.16750744    -43399819       0.84321407     912.84111     -43398907       909.48532      909.48532      909.48532      2045.2573      2954.7427      2045.2573      2954.7427      2045.2573      2954.7427      7.5229311e+08  0.5            14058400       30.60352       4931.017       9862.0448      0.32995712   
  27707000   306.13019      0.019433459   -43399900       0.84321928     911.60342     -43398989       909.48345      909.48345      909.48345      2045.2583      2954.7417      2045.2583      2954.7417      2045.2583      2954.7417      7.5228846e+08  0.5            14058500       30.623921      4901.69        9803.3487      0.30933257   
  27707200   306.54983     -0.058436666   -43399980       0.84322671     912.85306     -43399068       909.48078      909.48078      909.48078      2045.2596      2954.7404      2045.2596      2954.7404      2045.2596      2954.7404      7.5228184e+08  0.5            14058600       30.644357      4893.4426      9786.8914      0.28870864   
  27707400   306.99916      2.1985301     -43392683       0.84329616     914.19109     -43391769       909.45581      909.45581      909.45581      2045.2721      2954.7279      2045.2721      2954.7279      2045.2721      2954.7279      7.5221988e+08  0.5            14058700       30.664934      4859.8256      9719.6512      0.2680862    
  27707600   306.87116      2.2182609     -43392765       0.84330671     913.8099      -43391851       909.45202      909.45202      909.45202      2045.274       2954.726       2045.274       2954.726       2045.274       2954.726       7.5221047e+08  0.5            14058800       30.685205      4933.0915      9866.1567      0.24746135   
  27707800   306.67856      2.0945511     -43392847       0.843313       913.23638     -43391934       909.44976      909.44976      909.44976      2045.2751      2954.7249      2045.2751      2954.7249      2045.2751      2954.7249      7.5220486e+08  0.5            14058900       30.705832      4848.1438      9696.319       0.22683961   
  27708000   306.24974      1.6833041     -43392930       0.84331101     911.95944     -43392018       909.45047      909.45047      909.45047      2045.2748      2954.7252      2045.2748      2954.7252      2045.2748      2954.7252      7.5220663e+08  0.5            14059000       30.726175      4915.5368      9831.062       0.20621596   
  27708200   306.6058       0.98716486    -43393011       0.84330098     913.01971     -43392098       909.45408      909.45408      909.45408      2045.273       2954.727       2045.273       2954.727       2045.273       2954.727       7.5221557e+08  0.5            14059100       30.746511      4917.3947      9834.8091      0.18559264   
  27708400   306.80912      0.12035783    -43393093       0.84328615     913.62518     -43392179       909.45941      909.45941      909.45941      2045.2703      2954.7297      2045.2703      2954.7297      2045.2703      2954.7297      7.5222881e+08  0.5            14059200       30.766794      4930.1997      9860.4048      0.16496942   
  27708600   306.64184     -0.63596343    -43393173       0.84327501     913.12705     -43392260       909.46341      909.46341      909.46341      2045.2683      2954.7317      2045.2683      2954.7317      2045.2683      2954.7317      7.5223874e+08  0.5            14059300       30.787075      4930.7151      9861.4151      0.14434665   
  27708800   306.60402     -1.1559531     -43393254       0.84327149     913.01441     -43392341       909.46468      909.46468      909.46468      2045.2677      2954.7323      2045.2677      2954.7323      2045.2677      2954.7323      7.5224189e+08  0.5            14059400       30.807362      4929.4164      9858.8644      0.12372435   
  27709000   306.30194     -1.5183307     -43393335       0.84327265     912.11487     -43392423       909.46426      909.46426      909.46426      2045.2679      2954.7321      2045.2679      2954.7321      2045.2679      2954.7321      7.5224085e+08  0.5            14059500       30.827712      4913.9255      9827.8176      0.10310272   
  27709200   306.62466     -1.7612221     -43393416       0.84327683     913.07589     -43392503       909.46276      909.46276      909.46276      2045.2686      2954.7314      2045.2686      2954.7314      2045.2686      2954.7314      7.5223712e+08  0.5            14059600       30.84858       4792.0187      9584.043       0.082482841  
  27709400   306.73516     -1.8406313     -43393497       0.8432851      913.40494     -43392584       909.45979      909.45979      909.45979      2045.2701      2954.7299      2045.2701      2954.7299      2045.2701      2954.7299      7.5222974e+08  0.5            14059700       30.868966      4905.2901      9810.6139      0.061861661  
  27709600   306.55338     -1.1977389     -43393578       0.84331483     912.86361     -43392665       909.4491       909.4491       909.4491       2045.2755      2954.7245      2045.2755      2954.7245      2045.2755      2954.7245      7.5220322e+08  0.5            14059800       30.889265      4926.3261      9852.6303      0.041240678  
  27709800   306.60074      0.60726327    -43393659       0.8433795      913.00466     -43392746       909.42585      909.42585      909.42585      2045.2871      2954.7129      2045.2871      2954.7129      2045.2871      2954.7129      7.5214554e+08  0.5            14059900       30.909608      4915.7149      9831.4385      0.020620154  
  27710000   306.41548      2.8653456     -43393739       0.84345799     912.45299     -43392827       909.39764      909.39764      909.39764      2045.3012      2954.6988      2045.3012      2954.6988      2045.3012      2954.6988      7.5207555e+08  0.5            14060000       30.929928      4921.418       9842.7871      0            
Loop time of 30.93 on 4 procs for 300000 steps with 1000 atoms

Performance: 419.011 ns/day, 0.057 hours/ns, 9699.320 timesteps/s
99.0% CPU use with 4 MPI tasks x no OpenMP threads

MPI task timing breakdown:
Section |  min time  |  avg time  |  max time  |%varavg| %total
---------------------------------------------------------------
Pair    | 3.6047     | 10.998     | 17.677     | 150.8 | 35.56
Neigh   | 0.0053749  | 0.014794   | 0.023013   |   5.2 |  0.05
Comm    | 5.7584     | 12.295     | 19.54      | 139.6 | 39.75
Output  | 0.081855   | 0.099325   | 0.14605    |   8.6 |  0.32
Modify  | 5.2047     | 5.8286     | 6.3449     |  16.9 | 18.84
Other   |            | 1.695      |            |       |  5.48

Nlocal:            250 ave         367 max         120 min
Histogram: 1 0 0 0 0 2 0 0 0 1
Nghost:         401.75 ave         429 max         381 min
Histogram: 1 0 1 0 1 0 0 0 0 1
Neighs:           1353 ave        2210 max         385 min
Histogram: 1 0 0 0 0 1 1 0 0 1

Total # of neighbors = 5412
Ave neighs/atom = 5.412
Neighbor list builds = 90
Dangerous builds = 16

# run_style
run_style verlet

# write restart
write_restart ${write_res}
write_restart ./pgnpmf/28/equpmf39.res
System init for write_restart ...
Generated 0 of 1 mixed pair_coeff terms from geometric mixing rule

Total wall time: 0:01:05
