LAMMPS (23 Jun 2022 - Update 1)
OMP_NUM_THREADS environment is not set. Defaulting to 1 thread. (src/comm.cpp:98)
  using 1 OpenMP thread(s) per MPI task
# Read restart
read_restart ${read_res}
read_restart ./pgnpmf/trial2/28/equpmf71.res
Reading restart file ...
  restart file = 23 Jun 2022, LAMMPS = 23 Jun 2022
  restoring atom style atomic from restart
  orthogonal box = (2139.8667 2139.8667 2139.8667) to (2860.1333 2860.1333 2860.1333)
  1 by 2 by 2 MPI processor grid
  restoring pair style table from restart
  1000 atoms
  read_restart CPU = 0.025 seconds

# Settings

pair_style table spline 9941

pair_coeff 1 1 ./pgnpmf/N20.txt DE_GNP 75.6
pair_coeff 2 2 ./pgnpmf/N100.txt DE_GNP 115.92
WARNING: 3 of 9941 force values in table DE_GNP are inconsistent with -dE/dr.
WARNING:  Should only be flagged at inflection points (src/pair_table.cpp:463)
pair_coeff 1 2 ./pgnpmf/mixed_potential.txt DE_GNP 95.66
WARNING: 1562 of 9941 force values in table DE_GNP are inconsistent with -dE/dr.
WARNING:  Should only be flagged at inflection points (src/pair_table.cpp:463)

#Neigh_list Calc Frequency

neigh_modify delay 0 every 1 check yes

# computes
compute vor all voronoi/atom

# Saving Frequency (50 frames)
variable ts_save equal ${steps_equ}
variable ts_save equal 5000

# Dump
dump 1 all custom 100000 ./pgnpmf/${folder}/voronoi/voronoi_${usic}_${trial}.custom type x y z ix iy iz c_vor[1] c_vor[2]
dump 1 all custom 100000 ./pgnpmf/trial2/28/voronoi/voronoi_${usic}_${trial}.custom type x y z ix iy iz c_vor[1] c_vor[2]
dump 1 all custom 100000 ./pgnpmf/trial2/28/voronoi/voronoi_1_${trial}.custom type x y z ix iy iz c_vor[1] c_vor[2]
dump 1 all custom 100000 ./pgnpmf/trial2/28/voronoi/voronoi_1_1.custom type x y z ix iy iz c_vor[1] c_vor[2]
dump_modify 1 first no sort id
#dump 2 all cfg 50000 ./pgnpmf/${folder}/equilibration/trajectory/dumpgen.tens_*.cfg mass type xs ys zs fx fy fz
#dump_modify 2 element N20 N100

# thermo_style
thermo_style custom step temp press pe density ke etotal lx ly lz xlo xhi ylo yhi zlo zhi vol dt time cpu tpcpu spcpu cpuremain

# run info
timestep ${ts}
timestep 0.5
thermo 200

# fix

fix 1 all momentum 1000 linear 1 1 1 angular
variable T equal ${temp}
variable T equal 300
fix 2 all nvt temp ${T} ${T} 100.0
fix 2 all nvt temp 300 ${T} 100.0
fix 2 all nvt temp 300 300 100.0

run 100000
Generated 0 of 1 mixed pair_coeff terms from geometric mixing rule
Unused restart file global fix info:
  fix style: npt, fix ID: 5
Neighbor list info ...
  update every 1 steps, delay 0 steps, check yes
  max neighbors/atom: 2000, page size: 100000
  master list distance cutoff = 117.92
  ghost atom cutoff = 117.92
  binsize = 58.96, bins = 13 13 13
  1 neighbor lists, perpetual/occasional/extra = 1 0 0
  (1) pair table, perpetual
      attributes: half, newton on
      pair build: half/bin/atomonly/newton
      stencil: half/bin/3d
      bin: standard
Per MPI rank memory allocation (min/avg/max) = 3.099 | 3.099 | 3.1 Mbytes
   Step          Temp          Press          PotEng        Density         KinEng         TotEng           Lx             Ly             Lz            Xlo            Xhi            Ylo            Yhi            Zlo            Zhi           Volume           Dt            Time           CPU           T/CPU          S/CPU         CPULeft    
  50110000   303.04254      6.8871497     -50716020       1.6976382      902.40894     -50715118       720.26658      720.26658      720.26658      2139.8667      2860.1333      2139.8667      2860.1333      2139.8667      2860.1333      3.7366275e+08  0.5            25260000       0              0              0              0            
  50110200   301.49043      7.0236166     -50716027       1.6976382      897.78701     -50715130       720.26658      720.26658      720.26658      2139.8667      2860.1333      2139.8667      2860.1333      2139.8667      2860.1333      3.7366275e+08  0.5            25260100       0.014532206    6880.8946      13761.03       7.2528213    
  50110400   289.04393      7.1655773     -50716034       1.6976382      860.72345     -50715174       720.26658      720.26658      720.26658      2139.8667      2860.1333      2139.8667      2860.1333      2139.8667      2860.1333      3.7366275e+08  0.5            25260200       0.028758399    7029.3739      14058.753      7.1613854    
  50110600   286.40163      7.3764202     -50715673       1.6976382      852.85516     -50714821       720.26658      720.26658      720.26658      2139.8667      2860.1333      2139.8667      2860.1333      2139.8667      2860.1333      3.7366275e+08  0.5            25260300       0.042903852    7069.419       14138.813      7.1081021    
  50110800   311.40651      7.37002       -50715682       1.6976382      927.31541     -50714755       720.26658      720.26658      720.26658      2139.8667      2860.1333      2139.8667      2860.1333      2139.8667      2860.1333      3.7366275e+08  0.5            25260400       0.057043954    7072.0743      14144.22       7.0737194    
  50111000   310.64803      7.2613364     -50715690       1.6976382      925.05679     -50714765       720.26658      720.26658      720.26658      2139.8667      2860.1333      2139.8667      2860.1333      2139.8667      2860.1333      3.7366275e+08  0.5            25260500       0.071230467    7048.9684      14097.947      7.0520221    
  50111200   298.91948      7.0958827     -50715698       1.6976382      890.13116     -50714808       720.26658      720.26658      720.26658      2139.8667      2860.1333      2139.8667      2860.1333      2139.8667      2860.1333      3.7366275e+08  0.5            25260600       0.085349358    7082.7098      14165.378      7.0272733    
  50111400   295.93359      6.8964059     -50715705       1.6976382      881.23971     -50714824       720.26658      720.26658      720.26658      2139.8667      2860.1333      2139.8667      2860.1333      2139.8667      2860.1333      3.7366275e+08  0.5            25260700       0.099472436    7080.6451      14161.315      7.0058447    
  50111600   300.98074      6.6973032     -50715712       1.6976382      896.26924     -50714816       720.26658      720.26658      720.26658      2139.8667      2860.1333      2139.8667      2860.1333      2139.8667      2860.1333      3.7366275e+08  0.5            25260800       0.11358758     7084.5503      14169.089      6.9857672    
  50111800   311.37661      6.4866644     -50715719       1.6976382      927.22637     -50714791       720.26658      720.26658      720.26658      2139.8667      2860.1333      2139.8667      2860.1333      2139.8667      2860.1333      3.7366275e+08  0.5            25260900       0.12769868     7086.6539      14173.378      6.9667806    
  50112000   308.33018      6.2622452     -50715725       1.6976382      918.15462     -50714806       720.26658      720.26658      720.26658      2139.8667      2860.1333      2139.8667      2860.1333      2139.8667      2860.1333      3.7366275e+08  0.5            25261000       0.14181857     7082.2307      14164.409      6.9492074    
  50112200   292.53683      6.0537424     -50715729       1.6976382      871.12474     -50714858       720.26658      720.26658      720.26658      2139.8667      2860.1333      2139.8667      2860.1333      2139.8667      2860.1333      3.7366275e+08  0.5            25261100       0.155922       7090.4612      14180.946      6.9315297    
  50112400   295.1856       5.9197042     -50715734       1.6976382      879.01231     -50714855       720.26658      720.26658      720.26658      2139.8667      2860.1333      2139.8667      2860.1333      2139.8667      2860.1333      3.7366275e+08  0.5            25261200       0.17005046     7077.9142      14155.752      6.9154683    
  50112600   307.49212      5.8603351     -50715738       1.6976382      915.65903     -50714823       720.26658      720.26658      720.26658      2139.8667      2860.1333      2139.8667      2860.1333      2139.8667      2860.1333      3.7366275e+08  0.5            25261300       0.18415098     7091.9436      14183.921      6.8986541    
  50112800   308.65411      5.829067      -50715744       1.6976382      919.11924     -50714825       720.26658      720.26658      720.26658      2139.8667      2860.1333      2139.8667      2860.1333      2139.8667      2860.1333      3.7366275e+08  0.5            25261400       0.19825198     7091.7142      14183.422      6.8822443    
  50113000   287.45112      5.838264      -50715749       1.6976382      855.98034     -50714893       720.26658      720.26658      720.26658      2139.8667      2860.1333      2139.8667      2860.1333      2139.8667      2860.1333      3.7366275e+08  0.5            25261500       0.21306172     6752.2838      13504.559      6.8890636    
  50113200   293.58255      5.89923       -50715754       1.6976382      874.2387      -50714880       720.26658      720.26658      720.26658      2139.8667      2860.1333      2139.8667      2860.1333      2139.8667      2860.1333      3.7366275e+08  0.5            25261600       0.22717961     7083.2405      14166.515      6.8722434    
  50113400   306.4127       5.9490608     -50715758       1.6976382      912.44469     -50714846       720.26658      720.26658      720.26658      2139.8667      2860.1333      2139.8667      2860.1333      2139.8667      2860.1333      3.7366275e+08  0.5            25261700       0.24130614     7078.8802      14157.756      6.8559883    
  50113600   305.42028      5.9470887     -50715761       1.6976382      909.48943     -50714852       720.26658      720.26658      720.26658      2139.8667      2860.1333      2139.8667      2860.1333      2139.8667      2860.1333      3.7366275e+08  0.5            25261800       0.25542279     7083.8166      14167.624      6.8397082    
  50113800   292.1087       5.923577      -50715764       1.6976382      869.84983     -50714894       720.26658      720.26658      720.26658      2139.8667      2860.1333      2139.8667      2860.1333      2139.8667      2860.1333      3.7366275e+08  0.5            25261900       0.26956185     7072.594       14145.114      6.8242238    
  50114000   287.87375      5.9047012     -50715766       1.6976382      857.23886     -50714909       720.26658      720.26658      720.26658      2139.8667      2860.1333      2139.8667      2860.1333      2139.8667      2860.1333      3.7366275e+08  0.5            25262000       0.28370291     7071.6177      14143.296      6.8089177    
  50114200   314.2573       5.9082154     -50715768       1.6976382      935.80459     -50714832       720.26658      720.26658      720.26658      2139.8667      2860.1333      2139.8667      2860.1333      2139.8667      2860.1333      3.7366275e+08  0.5            25262100       0.29785003     7068.5755      14137.209      6.7938619    
  50114400   309.85876      5.9156258     -50715770       1.6976382      922.70648     -50714847       720.26658      720.26658      720.26658      2139.8667      2860.1333      2139.8667      2860.1333      2139.8667      2860.1333      3.7366275e+08  0.5            25262200       0.31196651     7083.934       14167.764      6.7782266    
  50114600   294.34162      5.9143153     -50715772       1.6976382      876.49909     -50714895       720.26658      720.26658      720.26658      2139.8667      2860.1333      2139.8667      2860.1333      2139.8667      2860.1333      3.7366275e+08  0.5            25262300       0.32610745     7071.6657      14143.386      6.7632254    
  50114800   293.99883      5.8482002     -50715773       1.6976382      875.47833     -50714898       720.26658      720.26658      720.26658      2139.8667      2860.1333      2139.8667      2860.1333      2139.8667      2860.1333      3.7366275e+08  0.5            25262400       0.3402528      7069.4275      14138.925      6.7483856    
  50115000   305.81397      5.7302357     -50715774       1.6976382      910.66179     -50714864       720.26658      720.26658      720.26658      2139.8667      2860.1333      2139.8667      2860.1333      2139.8667      2860.1333      3.7366275e+08  0.5            25262500       0.35437691     7080.1402      14160.239      6.733197     
  50115200   311.04761      5.6170402     -50715776       1.6976382      926.24666     -50714849       720.26658      720.26658      720.26658      2139.8667      2860.1333      2139.8667      2860.1333      2139.8667      2860.1333      3.7366275e+08  0.5            25262600       0.36875797     6953.5202      13906.949      6.7227821    
  50115400   289.02854      5.4919089     -50715777       1.6976382      860.67765     -50714916       720.26658      720.26658      720.26658      2139.8667      2860.1333      2139.8667      2860.1333      2139.8667      2860.1333      3.7366275e+08  0.5            25262700       0.38288036     7080.9775      14162.011      6.7075323    
  50115600   289.4443       5.4071192     -50715779       1.6976382      861.91569     -50714917       720.26658      720.26658      720.26658      2139.8667      2860.1333      2139.8667      2860.1333      2139.8667      2860.1333      3.7366275e+08  0.5            25262800       0.39700012     7082.3055      14164.596      6.6923223    
  50115800   303.20663      5.3555449     -50715781       1.6976382      902.89756     -50714878       720.26658      720.26658      720.26658      2139.8667      2860.1333      2139.8667      2860.1333      2139.8667      2860.1333      3.7366275e+08  0.5            25262900       0.41111777     7083.3263      14166.641      6.6771523    
  50116000   306.47515      5.3093618     -50715784       1.6976382      912.63066     -50714871       720.26658      720.26658      720.26658      2139.8667      2860.1333      2139.8667      2860.1333      2139.8667      2860.1333      3.7366275e+08  0.5            25263000       0.42526099     7070.5232      14141.136      6.6624525    
  50116200   297.43364      5.2332575     -50715787       1.6976382      885.70659     -50714901       720.26658      720.26658      720.26658      2139.8667      2860.1333      2139.8667      2860.1333      2139.8667      2860.1333      3.7366275e+08  0.5            25263100       0.43937746     7083.936       14167.704      6.6473875    
  50116400   287.50667      5.4677061     -50708413       1.6976382      856.14577     -50707557       720.26658      720.26658      720.26658      2139.8667      2860.1333      2139.8667      2860.1333      2139.8667      2860.1333      3.7366275e+08  0.5            25263200       0.4534901      7085.8113      14171.755      6.6323219    
  50116600   292.75834      5.3204965     -50708417       1.6976382      871.78436     -50707545       720.26658      720.26658      720.26658      2139.8667      2860.1333      2139.8667      2860.1333      2139.8667      2860.1333      3.7366275e+08  0.5            25263300       0.46763806     7068.1758      14136.39       6.6178153    
  50116800   312.06423      5.1940684     -50708421       1.6976382      929.27399     -50707492       720.26658      720.26658      720.26658      2139.8667      2860.1333      2139.8667      2860.1333      2139.8667      2860.1333      3.7366275e+08  0.5            25263400       0.48179011     7066.1126      14132.151      6.6033862    
  50117000   306.45005      5.2196235     -50708057       1.6976382      912.55591     -50707144       720.26658      720.26658      720.26658      2139.8667      2860.1333      2139.8667      2860.1333      2139.8667      2860.1333      3.7366275e+08  0.5            25263500       0.49594667     7063.8774      14127.754      6.5890324    
  50117200   293.67815      5.1905653     -50708062       1.6976382      874.5234      -50707187       720.26658      720.26658      720.26658      2139.8667      2860.1333      2139.8667      2860.1333      2139.8667      2860.1333      3.7366275e+08  0.5            25263600       0.51008519     7072.8666      14145.747      6.5744571    
  50117400   296.00394      5.1996613     -50708066       1.6976382      881.44919     -50707185       720.26658      720.26658      720.26658      2139.8667      2860.1333      2139.8667      2860.1333      2139.8667      2860.1333      3.7366275e+08  0.5            25263700       0.52421763     7075.938       14151.851      6.5598289    
  50117600   307.41859      5.2210645     -50708072       1.6976382      915.44008     -50707157       720.26658      720.26658      720.26658      2139.8667      2860.1333      2139.8667      2860.1333      2139.8667      2860.1333      3.7366275e+08  0.5            25263800       0.53834875     7076.5849      14153.186      6.5452109    
  50117800   314.34794      5.231662      -50708078       1.6976382      936.0745      -50707142       720.26658      720.26658      720.26658      2139.8667      2860.1333      2139.8667      2860.1333      2139.8667      2860.1333      3.7366275e+08  0.5            25263900       0.55246116     7085.9594      14171.93       6.5303985    
  50118000   295.23336      5.2121099     -50708084       1.6976382      879.15453     -50707205       720.26658      720.26658      720.26658      2139.8667      2860.1333      2139.8667      2860.1333      2139.8667      2860.1333      3.7366275e+08  0.5            25264000       0.56658956     7077.9478      14155.863      6.5158027    
  50118200   291.92164      5.1944677     -50708091       1.6976382      869.29281     -50707221       720.26658      720.26658      720.26658      2139.8667      2860.1333      2139.8667      2860.1333      2139.8667      2860.1333      3.7366275e+08  0.5            25264100       0.58068299     7095.4851      14191.001      6.5008395    
  50118400   303.82681      5.1921236     -50708097       1.6976382      904.74437     -50707192       720.26658      720.26658      720.26658      2139.8667      2860.1333      2139.8667      2860.1333      2139.8667      2860.1333      3.7366275e+08  0.5            25264200       0.59477397     7096.7576      14193.494      6.4858899    
  50118600   310.52496      5.0708836     -50709997       1.6976382      924.6903      -50709072       720.26658      720.26658      720.26658      2139.8667      2860.1333      2139.8667      2860.1333      2139.8667      2860.1333      3.7366275e+08  0.5            25264300       0.60887061     7093.877       14187.77       6.4710414    
  50118800   293.6661       5.1263034     -50710002       1.6976382      874.4875      -50709127       720.26658      720.26658      720.26658      2139.8667      2860.1333      2139.8667      2860.1333      2139.8667      2860.1333      3.7366275e+08  0.5            25264400       0.62298486     7085.0467      14170.144      6.4564085    
  50119000   289.86299      5.1874522     -50710006       1.6976382      863.16248     -50709143       720.26658      720.26658      720.26658      2139.8667      2860.1333      2139.8667      2860.1333      2139.8667      2860.1333      3.7366275e+08  0.5            25264500       0.63710086     7084.1302      14168.253      6.4418177    
  50119200   300.00765      5.2362806     -50710010       1.6976382      893.37156     -50709116       720.26658      720.26658      720.26658      2139.8667      2860.1333      2139.8667      2860.1333      2139.8667      2860.1333      3.7366275e+08  0.5            25264600       0.65120909     7088.0684      14176.115      6.42717      
  50119400   305.51499      5.26792       -50710013       1.6976382      909.77147     -50709103       720.26658      720.26658      720.26658      2139.8667      2860.1333      2139.8667      2860.1333      2139.8667      2860.1333      3.7366275e+08  0.5            25264700       0.66532481     7084.3164      14168.648      6.4126176    
  50119600   299.61319      5.2860202     -50710016       1.6976382      892.19692     -50709123       720.26658      720.26658      720.26658      2139.8667      2860.1333      2139.8667      2860.1333      2139.8667      2860.1333      3.7366275e+08  0.5            25264800       0.6794291      7090.0183      14180.039      6.3979761    
  50119800   282.55779      5.2790494     -50710018       1.6976382      841.40886     -50709177       720.26658      720.26658      720.26658      2139.8667      2860.1333      2139.8667      2860.1333      2139.8667      2860.1333      3.7366275e+08  0.5            25264900       0.69354012     7086.6765      14173.399      6.3834179    
  50120000   289.17517      5.2506339     -50710020       1.6976382      861.11429     -50709159       720.26658      720.26658      720.26658      2139.8667      2860.1333      2139.8667      2860.1333      2139.8667      2860.1333      3.7366275e+08  0.5            25265000       0.70769123     7066.573       14133.068      6.3692387    
  50120200   307.97119      5.2149754     -50710022       1.6976382      917.0856      -50709105       720.26658      720.26658      720.26658      2139.8667      2860.1333      2139.8667      2860.1333      2139.8667      2860.1333      3.7366275e+08  0.5            25265100       0.72180894     7083.3043      14166.661      6.3547665    
  50120400   302.60437      5.1803185     -50710025       1.6976382      901.10413     -50709124       720.26658      720.26658      720.26658      2139.8667      2860.1333      2139.8667      2860.1333      2139.8667      2860.1333      3.7366275e+08  0.5            25265200       0.73590782     7092.766       14185.478      6.3401462    
  50120600   293.1773       5.1626864     -50710027       1.6976382      873.03193     -50709154       720.26658      720.26658      720.26658      2139.8667      2860.1333      2139.8667      2860.1333      2139.8667      2860.1333      3.7366275e+08  0.5            25265300       0.74999275     7099.7848      14199.578      6.3254277    
  50120800   295.29854      5.1749156     -50710029       1.6976382      879.34863     -50709149       720.26658      720.26658      720.26658      2139.8667      2860.1333      2139.8667      2860.1333      2139.8667      2860.1333      3.7366275e+08  0.5            25265400       0.76412249     7077.2751      14154.572      6.3111019    
  50121000   310.96652      5.1921634     -50710030       1.6976382      926.00519     -50709104       720.26658      720.26658      720.26658      2139.8667      2860.1333      2139.8667      2860.1333      2139.8667      2860.1333      3.7366275e+08  0.5            25265500       0.77822573     7090.5708      14181.182      6.2965692    
  50121200   310.39306      5.1761152     -50710031       1.6976382      924.29753     -50709107       720.26658      720.26658      720.26658      2139.8667      2860.1333      2139.8667      2860.1333      2139.8667      2860.1333      3.7366275e+08  0.5            25265600       0.7922996      7105.343       14210.61       6.28182      
  50121400   289.62866      5.1266313     -50710031       1.6976382      862.46469     -50709169       720.26658      720.26658      720.26658      2139.8667      2860.1333      2139.8667      2860.1333      2139.8667      2860.1333      3.7366275e+08  0.5            25265700       0.80636158     7111.3948      14222.835      6.2670006    
  50121600   293.72378      5.0825894     -50710031       1.6976382      874.65926     -50709156       720.26658      720.26658      720.26658      2139.8667      2860.1333      2139.8667      2860.1333      2139.8667      2860.1333      3.7366275e+08  0.5            25265800       0.82044437     7100.8717      14201.731      6.2523667    
  50121800   304.44384      5.0574294     -50710030       1.6976382      906.58178     -50709123       720.26658      720.26658      720.26658      2139.8667      2860.1333      2139.8667      2860.1333      2139.8667      2860.1333      3.7366275e+08  0.5            25265900       0.83452964     7099.6225      14199.199      6.2377703    
  50122000   305.91038      5.0592375     -50710029       1.6976382      910.94889     -50709118       720.26658      720.26658      720.26658      2139.8667      2860.1333      2139.8667      2860.1333      2139.8667      2860.1333      3.7366275e+08  0.5            25266000       0.84863111     7091.4638      14182.926      6.2233093    
  50122200   292.17322      5.0699487     -50710027       1.6976382      870.04197     -50709157       720.26658      720.26658      720.26658      2139.8667      2860.1333      2139.8667      2860.1333      2139.8667      2860.1333      3.7366275e+08  0.5            25266100       0.8637625      6608.7323      13217.446      6.2162734    
  50122400   283.54437      5.0758064     -50710026       1.6976382      844.34671     -50709182       720.26658      720.26658      720.26658      2139.8667      2860.1333      2139.8667      2860.1333      2139.8667      2860.1333      3.7366275e+08  0.5            25266200       0.87787029     7088.2849      14176.566      6.201744     
  50122600   305.71322      4.9202707     -50711919       1.6976382      910.36176     -50711009       720.26658      720.26658      720.26658      2139.8667      2860.1333      2139.8667      2860.1333      2139.8667      2860.1333      3.7366275e+08  0.5            25266300       0.89196215     7096.3296      14192.651      6.1871167    
  50122800   306.70133      5.2584127     -50704540       1.6976382      913.30419     -50703627       720.26658      720.26658      720.26658      2139.8667      2860.1333      2139.8667      2860.1333      2139.8667      2860.1333      3.7366275e+08  0.5            25266400       0.90636972     6940.7798      13881.675      6.1746572    
  50123000   296.17921      5.2467195     -50704540       1.6976382      881.97112     -50703658       720.26658      720.26658      720.26658      2139.8667      2860.1333      2139.8667      2860.1333      2139.8667      2860.1333      3.7366275e+08  0.5            25266500       0.92046549     7094.3339      14188.596      6.1600519    
  50123200   292.35853      5.2573936     -50704539       1.6976382      870.59378     -50703668       720.26658      720.26658      720.26658      2139.8667      2860.1333      2139.8667      2860.1333      2139.8667      2860.1333      3.7366275e+08  0.5            25266600       0.93455399     7098.0169      14196.007      6.1454135    
  50123400   305.44294      5.2860968     -50704539       1.6976382      909.55693     -50703630       720.26658      720.26658      720.26658      2139.8667      2860.1333      2139.8667      2860.1333      2139.8667      2860.1333      3.7366275e+08  0.5            25266700       0.94862972     7104.4293      14208.914      6.1307088    
  50123600   314.29647      5.3115317     -50704540       1.6976382      935.92123     -50703604       720.26658      720.26658      720.26658      2139.8667      2860.1333      2139.8667      2860.1333      2139.8667      2860.1333      3.7366275e+08  0.5            25266800       0.96275337     7080.3142      14160.653      6.1163276    
  50123800   297.83537      5.3117358     -50704541       1.6976382      886.90288     -50703654       720.26658      720.26658      720.26658      2139.8667      2860.1333      2139.8667      2860.1333      2139.8667      2860.1333      3.7366275e+08  0.5            25266900       0.97685584     7090.9584      14181.899      6.1018218    
  50124000   294.4574       5.3014451     -50704542       1.6976382      876.84385     -50703665       720.26658      720.26658      720.26658      2139.8667      2860.1333      2139.8667      2860.1333      2139.8667      2860.1333      3.7366275e+08  0.5            25267000       0.99096416     7087.9945      14175.925      6.0873638    
  50124200   301.00413      5.2840392     -50704544       1.6976382      896.33889     -50703647       720.26658      720.26658      720.26658      2139.8667      2860.1333      2139.8667      2860.1333      2139.8667      2860.1333      3.7366275e+08  0.5            25267100       1.0050525      7098.0965      14196.245      6.0727937    
  50124400   306.38317      5.2537034     -50704546       1.6976382      912.35677     -50703633       720.26658      720.26658      720.26658      2139.8667      2860.1333      2139.8667      2860.1333      2139.8667      2860.1333      3.7366275e+08  0.5            25267200       1.0191351      7100.9428      14201.883      6.0582038    
  50124600   299.02456      5.1980539     -50704547       1.6976382      890.44408     -50703657       720.26658      720.26658      720.26658      2139.8667      2860.1333      2139.8667      2860.1333      2139.8667      2860.1333      3.7366275e+08  0.5            25267300       1.033235       7092.2172      14184.422      6.0437291    
  50124800   286.14122      5.1125026     -50704549       1.6976382      852.0797      -50703697       720.26658      720.26658      720.26658      2139.8667      2860.1333      2139.8667      2860.1333      2139.8667      2860.1333      3.7366275e+08  0.5            25267400       1.0473149      7102.3529      14204.726      6.0291482    
  50125000   297.05123      4.9912002     -50704551       1.6976382      884.56785     -50703667       720.26658      720.26658      720.26658      2139.8667      2860.1333      2139.8667      2860.1333      2139.8667      2860.1333      3.7366275e+08  0.5            25267500       1.0614309      7084.1663      14168.311      6.0147864    
  50125200   310.24302      5.1669361     -50697176       1.6976382      923.85074     -50696252       720.26658      720.26658      720.26658      2139.8667      2860.1333      2139.8667      2860.1333      2139.8667      2860.1333      3.7366275e+08  0.5            25267600       1.075544       7085.5994      14171.222      6.0004146    
  50125400   303.70341      4.9304915     -50697178       1.6976382      904.3769      -50696273       720.26658      720.26658      720.26658      2139.8667      2860.1333      2139.8667      2860.1333      2139.8667      2860.1333      3.7366275e+08  0.5            25267700       1.0896338      7097.355       14194.627      5.9859215    
  50125600   295.46864      4.6765934     -50697180       1.6976382      879.85516     -50696300       720.26658      720.26658      720.26658      2139.8667      2860.1333      2139.8667      2860.1333      2139.8667      2860.1333      3.7366275e+08  0.5            25267800       1.1037497      7084.21        14168.496      5.9715794    
  50125800   295.9393       4.4259817     -50697182       1.6976382      881.2567      -50696301       720.26658      720.26658      720.26658      2139.8667      2860.1333      2139.8667      2860.1333      2139.8667      2860.1333      3.7366275e+08  0.5            25267900       1.1178319      7101.1879      14202.371      5.9570637    
  50126000   311.25738      4.1869003     -50697185       1.6976382      926.87132     -50696258       720.26658      720.26658      720.26658      2139.8667      2860.1333      2139.8667      2860.1333      2139.8667      2860.1333      3.7366275e+08  0.5            25268000       1.1319007      7107.9252      14215.818      5.9424886    
  50126200   317.20111      3.953087      -50697187       1.6976382      944.57075     -50696242       720.26658      720.26658      720.26658      2139.8667      2860.1333      2139.8667      2860.1333      2139.8667      2860.1333      3.7366275e+08  0.5            25268100       1.1459614      7112.0199      14224.056      5.9278842    
  50126400   296.98937      3.7413443     -50697189       1.6976382      884.38363     -50696305       720.26658      720.26658      720.26658      2139.8667      2860.1333      2139.8667      2860.1333      2139.8667      2860.1333      3.7366275e+08  0.5            25268200       1.1600593      7093.2319      14186.463      5.9134831    
  50126600   296.46726      3.5669333     -50697192       1.6976382      882.82886     -50696309       720.26658      720.26658      720.26658      2139.8667      2860.1333      2139.8667      2860.1333      2139.8667      2860.1333      3.7366275e+08  0.5            25268300       1.1741529      7095.4303      14190.863      5.8990671    
  50126800   302.88775      3.4127773     -50697195       1.6976382      901.948       -50696293       720.26658      720.26658      720.26658      2139.8667      2860.1333      2139.8667      2860.1333      2139.8667      2860.1333      3.7366275e+08  0.5            25268400       1.1882363      7100.5783      14201.206      5.8846079    
  50127000   306.16622      3.2686344     -50697198       1.6976382      911.71073     -50696287       720.26658      720.26658      720.26658      2139.8667      2860.1333      2139.8667      2860.1333      2139.8667      2860.1333      3.7366275e+08  0.5            25268500       1.2023385      7091.056       14182.088      5.8702504    
  50127200   294.31339      3.1314992     -50697201       1.6976382      876.415       -50696325       720.26658      720.26658      720.26658      2139.8667      2860.1333      2139.8667      2860.1333      2139.8667      2860.1333      3.7366275e+08  0.5            25268600       1.2164444      7089.2447      14178.45       5.8559164    
  50127400   287.23994      3.0118691     -50697204       1.6976382      855.35151     -50696349       720.26658      720.26658      720.26658      2139.8667      2860.1333      2139.8667      2860.1333      2139.8667      2860.1333      3.7366275e+08  0.5            25268700       1.2305594      7084.6853      14169.405      5.8416301    
  50127600   303.0688       2.9129709     -50697207       1.6976382      902.48713     -50696305       720.26658      720.26658      720.26658      2139.8667      2860.1333      2139.8667      2860.1333      2139.8667      2860.1333      3.7366275e+08  0.5            25268800       1.2446553      7094.2725      14188.535      5.8272586    
  50127800   309.40268      2.4553475     -50704588       1.6976382      921.34835     -50703667       720.26658      720.26658      720.26658      2139.8667      2860.1333      2139.8667      2860.1333      2139.8667      2860.1333      3.7366275e+08  0.5            25268900       1.2587704      7084.5744      14169.121      5.8129825    
  50128000   302.40459      2.3674277     -50704592       1.6976382      900.50922     -50703691       720.26658      720.26658      720.26658      2139.8667      2860.1333      2139.8667      2860.1333      2139.8667      2860.1333      3.7366275e+08  0.5            25269000       1.2728849      7084.9383      14169.891      5.7987066    
  50128200   296.47985      2.3102226     -50704595       1.6976382      882.86636     -50703712       720.26658      720.26658      720.26658      2139.8667      2860.1333      2139.8667      2860.1333      2139.8667      2860.1333      3.7366275e+08  0.5            25269100       1.2869803      7094.5066      14189.044      5.7843485    
  50128400   297.44198      2.2805154     -50704598       1.6976382      885.73141     -50703713       720.26658      720.26658      720.26658      2139.8667      2860.1333      2139.8667      2860.1333      2139.8667      2860.1333      3.7366275e+08  0.5            25269200       1.3010754      7094.6571      14189.279      5.7699952    
  50128600   310.36987      2.2615085     -50704602       1.6976382      924.22847     -50703678       720.26658      720.26658      720.26658      2139.8667      2860.1333      2139.8667      2860.1333      2139.8667      2860.1333      3.7366275e+08  0.5            25269300       1.3151525      7103.7591      14207.516      5.7555682    
  50128800   316.7871       2.2200398     -50704607       1.6976382      943.33789     -50703663       720.26658      720.26658      720.26658      2139.8667      2860.1333      2139.8667      2860.1333      2139.8667      2860.1333      3.7366275e+08  0.5            25269400       1.3292374      7099.7762      14199.599      5.7411825    
  50129000   297.2185       2.1376945     -50704611       1.6976382      885.06595     -50703726       720.26658      720.26658      720.26658      2139.8667      2860.1333      2139.8667      2860.1333      2139.8667      2860.1333      3.7366275e+08  0.5            25269500       1.3433422      7089.8283      14179.618      5.7268878    
  50129200   295.43638      2.0293237     -50704616       1.6976382      879.75908     -50703736       720.26658      720.26658      720.26658      2139.8667      2860.1333      2139.8667      2860.1333      2139.8667      2860.1333      3.7366275e+08  0.5            25269600       1.3574166      7105.0537      14210.13       5.7124698    
  50129400   302.68394      1.9080693     -50704620       1.6976382      901.3411      -50703719       720.26658      720.26658      720.26658      2139.8667      2860.1333      2139.8667      2860.1333      2139.8667      2860.1333      3.7366275e+08  0.5            25269700       1.3715054      7097.8371      14195.668      5.6981181    
  50129600   308.30205      1.7942206     -50704625       1.6976382      918.07087     -50703707       720.26658      720.26658      720.26658      2139.8667      2860.1333      2139.8667      2860.1333      2139.8667      2860.1333      3.7366275e+08  0.5            25269800       1.3855823      7103.856       14207.623      5.6837232    
  50129800   295.1042       1.707902      -50704630       1.6976382      878.7699      -50703751       720.26658      720.26658      720.26658      2139.8667      2860.1333      2139.8667      2860.1333      2139.8667      2860.1333      3.7366275e+08  0.5            25269900       1.3996527      7107.071       14214.258      5.6693083    
  50130000   287.86974      1.6701759     -50704634       1.6976382      857.22692     -50703777       720.26658      720.26658      720.26658      2139.8667      2860.1333      2139.8667      2860.1333      2139.8667      2860.1333      3.7366275e+08  0.5            25270000       1.4137603      7088.4121      14176.81       5.6550488    
  50130200   301.2767       1.6534895     -50704638       1.6976382      897.15058     -50703741       720.26658      720.26658      720.26658      2139.8667      2860.1333      2139.8667      2860.1333      2139.8667      2860.1333      3.7366275e+08  0.5            25270100       1.4278501      7097.3117      14194.597      5.6407225    
  50130400   307.79762      1.6104725     -50704642       1.6976382      916.56875     -50703725       720.26658      720.26658      720.26658      2139.8667      2860.1333      2139.8667      2860.1333      2139.8667      2860.1333      3.7366275e+08  0.5            25270200       1.4419593      7087.5851      14175.162      5.6264762    
  50130600   302.8397       1.5299241     -50704646       1.6976382      901.80493     -50703744       720.26658      720.26658      720.26658      2139.8667      2860.1333      2139.8667      2860.1333      2139.8667      2860.1333      3.7366275e+08  0.5            25270300       1.4560629      7090.4169      14180.877      5.6122106    
  50130800   299.23188      1.4391184     -50704650       1.6976382      891.06145     -50703759       720.26658      720.26658      720.26658      2139.8667      2860.1333      2139.8667      2860.1333      2139.8667      2860.1333      3.7366275e+08  0.5            25270400       1.4701376      7104.9421      14209.835      5.5978389    
  50131000   298.71811      1.3664886     -50704654       1.6976382      889.53153     -50703765       720.26658      720.26658      720.26658      2139.8667      2860.1333      2139.8667      2860.1333      2139.8667      2860.1333      3.7366275e+08  0.5            25270500       1.484227       7097.5273      14195.088      5.5835278    
  50131200   300.62817      1.293845      -50704657       1.6976382      895.21937     -50703762       720.26658      720.26658      720.26658      2139.8667      2860.1333      2139.8667      2860.1333      2139.8667      2860.1333      3.7366275e+08  0.5            25270600       1.4983127      7099.3654      14198.681      5.5692076    
  50131400   305.85999      1.1944981     -50704660       1.6976382      910.79882     -50703749       720.26658      720.26658      720.26658      2139.8667      2860.1333      2139.8667      2860.1333      2139.8667      2860.1333      3.7366275e+08  0.5            25270700       1.5123922      7102.5416      14205.121      5.5548682    
  50131600   304.32684      1.0674904     -50704662       1.6976382      906.23336     -50703755       720.26658      720.26658      720.26658      2139.8667      2860.1333      2139.8667      2860.1333      2139.8667      2860.1333      3.7366275e+08  0.5            25270800       1.5264845      7096.0773      14192.181      5.5405803    
  50131800   293.45537      0.93812149    -50704663       1.6976382      873.85998     -50703789       720.26658      720.26658      720.26658      2139.8667      2860.1333      2139.8667      2860.1333      2139.8667      2860.1333      3.7366275e+08  0.5            25270900       1.5405728      7098.0426      14196.082      5.526282     
  50132000   292.51012      0.82882172    -50704665       1.6976382      871.04519     -50703794       720.26658      720.26658      720.26658      2139.8667      2860.1333      2139.8667      2860.1333      2139.8667      2860.1333      3.7366275e+08  0.5            25271000       1.554649       7104.2123      14208.398      5.5119444    
  50132200   308.34345      0.38992413    -50712044       1.6976382      918.19413     -50711126       720.26658      720.26658      720.26658      2139.8667      2860.1333      2139.8667      2860.1333      2139.8667      2860.1333      3.7366275e+08  0.5            25271100       1.5687655      7083.9184      14167.804      5.4977528    
  50132400   311.14152      0.33301223    -50712045       1.6976382      926.5263      -50711118       720.26658      720.26658      720.26658      2139.8667      2860.1333      2139.8667      2860.1333      2139.8667      2860.1333      3.7366275e+08  0.5            25271200       1.5828478      7101.1117      14202.273      5.4834439    
  50132600   297.04818      0.29544428    -50712046       1.6976382      884.55875     -50711161       720.26658      720.26658      720.26658      2139.8667      2860.1333      2139.8667      2860.1333      2139.8667      2860.1333      3.7366275e+08  0.5            25271300       1.5969347      7098.8065      14197.612      5.4691546    
  50132800   296.42149      0.2767271     -50712046       1.6976382      882.69258     -50711164       720.26658      720.26658      720.26658      2139.8667      2860.1333      2139.8667      2860.1333      2139.8667      2860.1333      3.7366275e+08  0.5            25271400       1.6110471      7085.9313      14171.908      5.4549556    
  50133000   301.14925      0.26655908    -50712047       1.6976382      896.77104     -50711151       720.26658      720.26658      720.26658      2139.8667      2860.1333      2139.8667      2860.1333      2139.8667      2860.1333      3.7366275e+08  0.5            25271500       1.6251487      7091.4341      14182.802      5.4407217    
  50133200   304.89607      0.26370749    -50712048       1.6976382      907.92844     -50711140       720.26658      720.26658      720.26658      2139.8667      2860.1333      2139.8667      2860.1333      2139.8667      2860.1333      3.7366275e+08  0.5            25271600       1.6392493      7091.8953      14183.799      5.4264869    
  50133400   298.57739      0.26682427    -50712049       1.6976382      889.11249     -50711160       720.26658      720.26658      720.26658      2139.8667      2860.1333      2139.8667      2860.1333      2139.8667      2860.1333      3.7366275e+08  0.5            25271700       1.6533497      7092.0235      14184.05       5.4122535    
  50133600   286.64285      0.27729049    -50712051       1.6976382      853.57347     -50711197       720.26658      720.26658      720.26658      2139.8667      2860.1333      2139.8667      2860.1333      2139.8667      2860.1333      3.7366275e+08  0.5            25271800       1.6674768      7078.5741      14157.147      5.3981091    
  50133800   297.07293      0.30219653    -50712053       1.6976382      884.63246     -50711168       720.26658      720.26658      720.26658      2139.8667      2860.1333      2139.8667      2860.1333      2139.8667      2860.1333      3.7366275e+08  0.5            25271900       1.681598       7081.5516      14163.087      5.383946     
  50134000   310.87719      0.32964603    -50712056       1.6976382      925.73919     -50711130       720.26658      720.26658      720.26658      2139.8667      2860.1333      2139.8667      2860.1333      2139.8667      2860.1333      3.7366275e+08  0.5            25272000       1.6957445      7068.9103      14137.839      5.3698635    
  50134200   304.34028      0.34370118    -50712058       1.6976382      906.2734      -50711152       720.26658      720.26658      720.26658      2139.8667      2860.1333      2139.8667      2860.1333      2139.8667      2860.1333      3.7366275e+08  0.5            25272100       1.7098478      7090.4878      14180.998      5.3556451    
  50134400   297.19683      0.3582744     -50712062       1.6976382      885.0014      -50711177       720.26658      720.26658      720.26658      2139.8667      2860.1333      2139.8667      2860.1333      2139.8667      2860.1333      3.7366275e+08  0.5            25272200       1.7239499      7091.1394      14182.216      5.3414248    
  50134600   297.50326      0.37945157    -50712065       1.6976382      885.91391     -50711180       720.26658      720.26658      720.26658      2139.8667      2860.1333      2139.8667      2860.1333      2139.8667      2860.1333      3.7366275e+08  0.5            25272300       1.7380659      7084.1824      14168.447      5.3272484    
  50134800   305.21027      0.4088349     -50712070       1.6976382      908.86408     -50711161       720.26658      720.26658      720.26658      2139.8667      2860.1333      2139.8667      2860.1333      2139.8667      2860.1333      3.7366275e+08  0.5            25272400       1.7521572      7096.5662      14193.067      5.3129987    
  50135000   319.4495       0.44304555    -50712075       1.6976382      951.26605     -50711123       720.26658      720.26658      720.26658      2139.8667      2860.1333      2139.8667      2860.1333      2139.8667      2860.1333      3.7366275e+08  0.5            25272500       1.7663031      7069.1921      14138.406      5.2989151    
  50135200   304.04327      0.45876909    -50712079       1.6976382      905.38894     -50711174       720.26658      720.26658      720.26658      2139.8667      2860.1333      2139.8667      2860.1333      2139.8667      2860.1333      3.7366275e+08  0.5            25272600       1.7804032      7092.1619      14184.333      5.2846945    
  50135400   294.45767      0.46785796    -50712083       1.6976382      876.84467     -50711206       720.26658      720.26658      720.26658      2139.8667      2860.1333      2139.8667      2860.1333      2139.8667      2860.1333      3.7366275e+08  0.5            25272700       1.7947443      6972.9264      13945.8        5.2711844    
  50135600   298.58463      0.46866647    -50712087       1.6976382      889.13404     -50711198       720.26658      720.26658      720.26658      2139.8667      2860.1333      2139.8667      2860.1333      2139.8667      2860.1333      3.7366275e+08  0.5            25272800       1.8088162      7106.3912      14212.819      5.2568779    
  50135800   307.80034      0.4610472     -50712092       1.6976382      916.57684     -50711175       720.26658      720.26658      720.26658      2139.8667      2860.1333      2139.8667      2860.1333      2139.8667      2860.1333      3.7366275e+08  0.5            25272900       1.822885       7107.899       14215.758      5.2425666    
  50136000   305.47233      0.45492184    -50712096       1.6976382      909.64444     -50711187       720.26658      720.26658      720.26658      2139.8667      2860.1333      2139.8667      2860.1333      2139.8667      2860.1333      3.7366275e+08  0.5            25273000       1.8369721      7098.7239      14197.489      5.2283107    
  50136200   288.47297      0.45786734    -50712100       1.6976382      859.02325     -50711241       720.26658      720.26658      720.26658      2139.8667      2860.1333      2139.8667      2860.1333      2139.8667      2860.1333      3.7366275e+08  0.5            25273100       1.851032       7112.3831      14224.733      5.2139815    
  50136400   294.06383      0.48772832    -50712105       1.6976382      875.67186     -50711229       720.26658      720.26658      720.26658      2139.8667      2860.1333      2139.8667      2860.1333      2139.8667      2860.1333      3.7366275e+08  0.5            25273200       1.8651056      7105.5293      14211.06       5.1996939    
  50136600   306.72124      0.53978864    -50712109       1.6976382      913.36349     -50711196       720.26658      720.26658      720.26658      2139.8667      2860.1333      2139.8667      2860.1333      2139.8667      2860.1333      3.7366275e+08  0.5            25273300       1.8791602      7115.1021      14230.246      5.1853572    
  50136800   305.56215      0.59306566    -50712114       1.6976382      909.91191     -50711204       720.26658      720.26658      720.26658      2139.8667      2860.1333      2139.8667      2860.1333      2139.8667      2860.1333      3.7366275e+08  0.5            25273400       1.8932015      7121.8482      14243.677      5.1709886    
  50137000   300.26738      0.62539161    -50712118       1.6976382      894.14498     -50711224       720.26658      720.26658      720.26658      2139.8667      2860.1333      2139.8667      2860.1333      2139.8667      2860.1333      3.7366275e+08  0.5            25273500       1.9072934      7096.2696      14192.541      5.1567617    
  50137200   299.33933      0.61599969    -50712121       1.6976382      891.38142     -50711230       720.26658      720.26658      720.26658      2139.8667      2860.1333      2139.8667      2860.1333      2139.8667      2860.1333      3.7366275e+08  0.5            25273600       1.9213388      7119.7738      14239.537      5.1424122    
  50137400   300.02828      0.56511046    -50712124       1.6976382      893.43298     -50711230       720.26658      720.26658      720.26658      2139.8667      2860.1333      2139.8667      2860.1333      2139.8667      2860.1333      3.7366275e+08  0.5            25273700       1.9353737      7125.1339      14250.277      5.128039     
  50137600   300.42019      0.49752823    -50712126       1.6976382      894.60001     -50711231       720.26658      720.26658      720.26658      2139.8667      2860.1333      2139.8667      2860.1333      2139.8667      2860.1333      3.7366275e+08  0.5            25273800       1.9494075      7125.6502      14251.286      5.1136681    
  50137800   297.98035      0.44523682    -50712127       1.6976382      887.33459     -50711240       720.26658      720.26658      720.26658      2139.8667      2860.1333      2139.8667      2860.1333      2139.8667      2860.1333      3.7366275e+08  0.5            25273900       1.9634871      7102.4604      14204.945      5.0994212    
  50138000   296.24052      0.41244745    -50712129       1.6976382      882.15367     -50711246       720.26658      720.26658      720.26658      2139.8667      2860.1333      2139.8667      2860.1333      2139.8667      2860.1333      3.7366275e+08  0.5            25274000       1.9775562      7107.7555      14215.513      5.0851496    
  50138200   301.56987      0.40127027    -50712130       1.6976382      898.02359     -50711232       720.26658      720.26658      720.26658      2139.8667      2860.1333      2139.8667      2860.1333      2139.8667      2860.1333      3.7366275e+08  0.5            25274100       1.9915994      7120.8912      14241.826      5.0708147    
  50138400   308.09832      0.40453642    -50712131       1.6976382      917.46419     -50711213       720.26658      720.26658      720.26658      2139.8667      2860.1333      2139.8667      2860.1333      2139.8667      2860.1333      3.7366275e+08  0.5            25274200       2.0056399      7122.2499      14244.432      5.0564775    
  50138600   299.98382      0.41511972    -50712132       1.6976382      893.30059     -50711238       720.26658      720.26658      720.26658      2139.8667      2860.1333      2139.8667      2860.1333      2139.8667      2860.1333      3.7366275e+08  0.5            25274300       2.0196971      7113.8034      14227.624      5.0421858    
  50138800   287.22047      0.43183375    -50712133       1.6976382      855.29352     -50711277       720.26658      720.26658      720.26658      2139.8667      2860.1333      2139.8667      2860.1333      2139.8667      2860.1333      3.7366275e+08  0.5            25274400       2.033751       7115.4388      14230.855      5.0278894    
  50139000   296.62889      0.46066414    -50712134       1.6976382      883.31019     -50711250       720.26658      720.26658      720.26658      2139.8667      2860.1333      2139.8667      2860.1333      2139.8667      2860.1333      3.7366275e+08  0.5            25274500       2.0478257      7104.9664      14209.944      5.013647     
  50139200   307.53602      0.4911686     -50712135       1.6976382      915.78976     -50711219       720.26658      720.26658      720.26658      2139.8667      2860.1333      2139.8667      2860.1333      2139.8667      2860.1333      3.7366275e+08  0.5            25274600       2.0618933      7108.5594      14217.148      4.9993897    
  50139400   303.41481      0.50394435    -50712135       1.6976382      903.51748     -50711232       720.26658      720.26658      720.26658      2139.8667      2860.1333      2139.8667      2860.1333      2139.8667      2860.1333      3.7366275e+08  0.5            25274700       2.0759466      7115.7451      14231.457      4.985101     
  50139600   297.02047      0.50197699    -50712136       1.6976382      884.47624     -50711252       720.26658      720.26658      720.26658      2139.8667      2860.1333      2139.8667      2860.1333      2139.8667      2860.1333      3.7366275e+08  0.5            25274800       2.090027       7102.0594      14204.163      4.9708796    
  50139800   295.85467      0.49635359    -50712137       1.6976382      881.00468     -50711256       720.26658      720.26658      720.26658      2139.8667      2860.1333      2139.8667      2860.1333      2139.8667      2860.1333      3.7366275e+08  0.5            25274900       2.1041066      7102.473       14204.862      4.9566586    
  50140000   308.25218      0.50354182    -50712138       1.6976382      917.92236     -50711220       720.26658      720.26658      720.26658      2139.8667      2860.1333      2139.8667      2860.1333      2139.8667      2860.1333      3.7366275e+08  0.5            25275000       2.1181843      7103.4714      14206.999      4.9424344    
  50140200   316.17582      0.52991173    -50712139       1.6976382      941.5176      -50711198       720.26658      720.26658      720.26658      2139.8667      2860.1333      2139.8667      2860.1333      2139.8667      2860.1333      3.7366275e+08  0.5            25275100       2.1322692      7099.7878      14199.625      4.9282292    
  50140400   297.58547      0.20348919    -50719519       1.6976382      886.15871     -50718632       720.26658      720.26658      720.26658      2139.8667      2860.1333      2139.8667      2860.1333      2139.8667      2860.1333      3.7366275e+08  0.5            25275200       2.1463537      7099.9859      14199.978      4.9140247    
  50140600   294.94767      0.25244092    -50719521       1.6976382      878.30378     -50718643       720.26658      720.26658      720.26658      2139.8667      2860.1333      2139.8667      2860.1333      2139.8667      2860.1333      3.7366275e+08  0.5            25275300       2.1604593      7089.388       14178.679      4.8998698    
  50140800   301.81068      0.30753606    -50719524       1.6976382      898.74066     -50718625       720.26658      720.26658      720.26658      2139.8667      2860.1333      2139.8667      2860.1333      2139.8667      2860.1333      3.7366275e+08  0.5            25275400       2.1745668      7088.4497      14176.921      4.8857194    
  50141000   306.92508      0.37082004    -50719528       1.6976382      913.97047     -50718614       720.26658      720.26658      720.26658      2139.8667      2860.1333      2139.8667      2860.1333      2139.8667      2860.1333      3.7366275e+08  0.5            25275500       2.1886769      7087.125       14174.273      4.8715754    
  50141200   295.50102      0.4511644     -50719532       1.6976382      879.95159     -50718652       720.26658      720.26658      720.26658      2139.8667      2860.1333      2139.8667      2860.1333      2139.8667      2860.1333      3.7366275e+08  0.5            25275600       2.202771       7095.1262      14190.297      4.8573967    
  50141400   286.45804      0.56498717    -50719536       1.6976382      853.02313     -50718682       720.26658      720.26658      720.26658      2139.8667      2860.1333      2139.8667      2860.1333      2139.8667      2860.1333      3.7366275e+08  0.5            25275700       2.216853       7101.2459      14202.442      4.8431929    
  50141600   300.60947      0.72146221    -50719540       1.6976382      895.16367     -50718645       720.26658      720.26658      720.26658      2139.8667      2860.1333      2139.8667      2860.1333      2139.8667      2860.1333      3.7366275e+08  0.5            25275800       2.2309449      7096.3265      14192.635      4.8290115    
  50141800   307.93192      0.90043763    -50719544       1.6976382      916.96868     -50718627       720.26658      720.26658      720.26658      2139.8667      2860.1333      2139.8667      2860.1333      2139.8667      2860.1333      3.7366275e+08  0.5            25275900       2.245031       7099.1563      14198.316      4.8148192    
  50142000   302.48062      1.0734306     -50719549       1.6976382      900.73563     -50718648       720.26658      720.26658      720.26658      2139.8667      2860.1333      2139.8667      2860.1333      2139.8667      2860.1333      3.7366275e+08  0.5            25276000       2.2591199      7097.7902      14195.574      4.8006341    
  50142200   298.29723      1.2188932     -50719554       1.6976382      888.27821     -50718665       720.26658      720.26658      720.26658      2139.8667      2860.1333      2139.8667      2860.1333      2139.8667      2860.1333      3.7366275e+08  0.5            25276100       2.273233       7085.6195      14171.329      4.7865009    
  50142400   299.14917      1.3255919     -50719559       1.6976382      890.81515     -50718668       720.26658      720.26658      720.26658      2139.8667      2860.1333      2139.8667      2860.1333      2139.8667      2860.1333      3.7366275e+08  0.5            25276200       2.2873591      7079.1088      14158.152      4.7723953    
  50142600   301.8167       1.3756116     -50719564       1.6976382      898.75861     -50718666       720.26658      720.26658      720.26658      2139.8667      2860.1333      2139.8667      2860.1333      2139.8667      2860.1333      3.7366275e+08  0.5            25276300       2.3014549      7094.2927      14188.569      4.7582269    
  50142800   299.59969      1.3628883     -50719570       1.6976382      892.15671     -50718678       720.26658      720.26658      720.26658      2139.8667      2860.1333      2139.8667      2860.1333      2139.8667      2860.1333      3.7366275e+08  0.5            25276400       2.3155671      7086.1121      14172.243      4.7440926    
  50143000   292.94542      1.2944159     -50719577       1.6976382      872.34142     -50718704       720.26658      720.26658      720.26658      2139.8667      2860.1333      2139.8667      2860.1333      2139.8667      2860.1333      3.7366275e+08  0.5            25276500       2.3296901      7080.6456      14161.34       4.7299807    
  50143200   297.34422      1.1894834     -50719582       1.6976382      885.44031     -50718697       720.26658      720.26658      720.26658      2139.8667      2860.1333      2139.8667      2860.1333      2139.8667      2860.1333      3.7366275e+08  0.5            25276600       2.3438075      7083.4327      14166.876      4.7158575    
  50143400   308.88647      1.05491       -50719588       1.6976382      919.81115     -50718668       720.26658      720.26658      720.26658      2139.8667      2860.1333      2139.8667      2860.1333      2139.8667      2860.1333      3.7366275e+08  0.5            25276700       2.3579336      7079.1002      14158.162      4.7017516    
  50143600   305.74613      0.89229821    -50719593       1.6976382      910.45976     -50718683       720.26658      720.26658      720.26658      2139.8667      2860.1333      2139.8667      2860.1333      2139.8667      2860.1333      3.7366275e+08  0.5            25276800       2.3720751      7071.3771      14142.725      4.6876761    
  50143800   290.0997       0.72767027    -50719598       1.6976382      863.86737     -50718734       720.26658      720.26658      720.26658      2139.8667      2860.1333      2139.8667      2860.1333      2139.8667      2860.1333      3.7366275e+08  0.5            25276900       2.3861879      7085.7952      14171.6        4.6735435    
  50144000   294.63887      0.5873176     -50719603       1.6976382      877.38424     -50718725       720.26658      720.26658      720.26658      2139.8667      2860.1333      2139.8667      2860.1333      2139.8667      2860.1333      3.7366275e+08  0.5            25277000       2.4003009      7085.6401      14171.322      4.6594113    
  50144200   303.44696      0.46430789    -50719607       1.6976382      903.61324     -50718703       720.26658      720.26658      720.26658      2139.8667      2860.1333      2139.8667      2860.1333      2139.8667      2860.1333      3.7366275e+08  0.5            25277100       2.4143896      7097.9036      14195.777      4.6452328    
  50144400   303.89634      0.36331183    -50719611       1.6976382      904.9514      -50718706       720.26658      720.26658      720.26658      2139.8667      2860.1333      2139.8667      2860.1333      2139.8667      2860.1333      3.7366275e+08  0.5            25277200       2.428484       7094.9842      14189.949      4.6310663    
  50144600   299.53272      0.28092707    -50719614       1.6976382      891.95729     -50718722       720.26658      720.26658      720.26658      2139.8667      2860.1333      2139.8667      2860.1333      2139.8667      2860.1333      3.7366275e+08  0.5            25277300       2.4425981      7085.1511      14170.306      4.6169375    
  50144800   298.80498      0.21516352    -50719618       1.6976382      889.79019     -50718728       720.26658      720.26658      720.26658      2139.8667      2860.1333      2139.8667      2860.1333      2139.8667      2860.1333      3.7366275e+08  0.5            25277400       2.4567017      7090.3943      14180.842      4.6027894    
  50145000   300.22895      0.16424161    -50719621       1.6976382      894.03056     -50718727       720.26658      720.26658      720.26658      2139.8667      2860.1333      2139.8667      2860.1333      2139.8667      2860.1333      3.7366275e+08  0.5            25277500       2.4711017      6944.4189      13888.747      4.5891926    
  50145200   300.94807      0.12599535    -50719624       1.6976382      896.17197     -50718728       720.26658      720.26658      720.26658      2139.8667      2860.1333      2139.8667      2860.1333      2139.8667      2860.1333      3.7366275e+08  0.5            25277600       2.4852434      7071.2886      14142.579      4.5751109    
  50145400   298.78248      0.10852818    -50719628       1.6976382      889.72321     -50718738       720.26658      720.26658      720.26658      2139.8667      2860.1333      2139.8667      2860.1333      2139.8667      2860.1333      3.7366275e+08  0.5            25277700       2.4993313      7098.287       14196.551      4.5609303    
  50145600   291.81773      0.1000275     -50719631       1.6976382      868.98336     -50718762       720.26658      720.26658      720.26658      2139.8667      2860.1333      2139.8667      2860.1333      2139.8667      2860.1333      3.7366275e+08  0.5            25277800       2.513442       7086.792       14173.609      4.546792     
  50145800   293.21931      0.091497056   -50719634       1.6976382      873.15704     -50718761       720.26658      720.26658      720.26658      2139.8667      2860.1333      2139.8667      2860.1333      2139.8667      2860.1333      3.7366275e+08  0.5            25277900       2.5275372      7094.648       14189.291      4.5326262    
  50146000   309.26423      0.084835368   -50719638       1.6976382      920.93607     -50718717       720.26658      720.26658      720.26658      2139.8667      2860.1333      2139.8667      2860.1333      2139.8667      2860.1333      3.7366275e+08  0.5            25278000       2.541647       7087.2521      14174.582      4.518487     
  50146200   309.22577      0.063723743   -50719642       1.6976382      920.82154     -50718721       720.26658      720.26658      720.26658      2139.8667      2860.1333      2139.8667      2860.1333      2139.8667      2860.1333      3.7366275e+08  0.5            25278100       2.5557445      7093.5071      14187.043      4.5043264    
  50146400   294.22551      0.039094811   -50719646       1.6976382      876.15331     -50718769       720.26658      720.26658      720.26658      2139.8667      2860.1333      2139.8667      2860.1333      2139.8667      2860.1333      3.7366275e+08  0.5            25278200       2.5698507      7089.0528      14178.048      4.4901821    
  50146600   295.45102      0.024705559   -50719650       1.6976382      879.80268     -50718770       720.26658      720.26658      720.26658      2139.8667      2860.1333      2139.8667      2860.1333      2139.8667      2860.1333      3.7366275e+08  0.5            25278300       2.5839467      7094.2101      14188.437      4.4760203    
  50146800   301.98996      0.019331354   -50719654       1.6976382      899.27454     -50718755       720.26658      720.26658      720.26658      2139.8667      2860.1333      2139.8667      2860.1333      2139.8667      2860.1333      3.7366275e+08  0.5            25278400       2.5980495      7090.703       14181.375      4.4618713    
  50147000   304.10926     -0.32092374    -50727037       1.6976382      905.58545     -50726131       720.26658      720.26658      720.26658      2139.8667      2860.1333      2139.8667      2860.1333      2139.8667      2860.1333      3.7366275e+08  0.5            25278500       2.6121495      7092.269       14184.554      4.4477173    
  50147200   292.40625     -0.29450794    -50727040       1.6976382      870.73587     -50726170       720.26658      720.26658      720.26658      2139.8667      2860.1333      2139.8667      2860.1333      2139.8667      2860.1333      3.7366275e+08  0.5            25278600       2.6262555      7089.1809      14178.382      4.4335744    
  50147400   284.16595     -0.27704538    -50727044       1.6976382      846.19768     -50726198       720.26658      720.26658      720.26658      2139.8667      2860.1333      2139.8667      2860.1333      2139.8667      2860.1333      3.7366275e+08  0.5            25278700       2.6403368      7101.6544      14203.268      4.4193905    
  50147600   301.84365     -0.26969896    -50727049       1.6976382      898.83886     -50726150       720.26658      720.26658      720.26658      2139.8667      2860.1333      2139.8667      2860.1333      2139.8667      2860.1333      3.7366275e+08  0.5            25278800       2.6544488      7086.1568      14172.313      4.4052587    
  50147800   307.0582      -0.28139988    -50727054       1.6976382      914.36689     -50726139       720.26658      720.26658      720.26658      2139.8667      2860.1333      2139.8667      2860.1333      2139.8667      2860.1333      3.7366275e+08  0.5            25278900       2.6685685      7082.2939      14164.586      4.3911398    
  50148000   300.4897      -0.29604727    -50727060       1.6976382      894.80701     -50726165       720.26658      720.26658      720.26658      2139.8667      2860.1333      2139.8667      2860.1333      2139.8667      2860.1333      3.7366275e+08  0.5            25279000       2.6826727      7090.0811      14180.208      4.3769954    
  50148200   294.80139     -0.27671953    -50727065       1.6976382      877.86819     -50726187       720.26658      720.26658      720.26658      2139.8667      2860.1333      2139.8667      2860.1333      2139.8667      2860.1333      3.7366275e+08  0.5            25279100       2.6967656      7095.7736      14191.496      4.3628334    
  50148400   298.24315     -0.18051151    -50727071       1.6976382      888.11718     -50726183       720.26658      720.26658      720.26658      2139.8667      2860.1333      2139.8667      2860.1333      2139.8667      2860.1333      3.7366275e+08  0.5            25279200       2.7108823      7083.8025      14167.634      4.3487101    
  50148600   316.8885      -0.027660765   -50727076       1.6976382      943.63983     -50726133       720.26658      720.26658      720.26658      2139.8667      2860.1333      2139.8667      2860.1333      2139.8667      2860.1333      3.7366275e+08  0.5            25279300       2.7249715      7097.6653      14195.335      4.3345432    
  50148800   311.08254      0.13085206    -50727081       1.6976382      926.35068     -50726155       720.26658      720.26658      720.26658      2139.8667      2860.1333      2139.8667      2860.1333      2139.8667      2860.1333      3.7366275e+08  0.5            25279400       2.7390694      7093.2203      14186.473      4.3203909    
  50149000   296.48073      0.29755142    -50727086       1.6976382      882.86898     -50726203       720.26658      720.26658      720.26658      2139.8667      2860.1333      2139.8667      2860.1333      2139.8667      2860.1333      3.7366275e+08  0.5            25279500       2.7531677      7093.0825      14186.121      4.3062397    
  50149200   297.44859      0.48194942    -50727090       1.6976382      885.75111     -50726205       720.26658      720.26658      720.26658      2139.8667      2860.1333      2139.8667      2860.1333      2139.8667      2860.1333      3.7366275e+08  0.5            25279600       2.7672899      7081.0492      14162.128      4.2921261    
  50149400   304.03308      0.68981446    -50727096       1.6976382      905.3586      -50726190       720.26658      720.26658      720.26658      2139.8667      2860.1333      2139.8667      2860.1333      2139.8667      2860.1333      3.7366275e+08  0.5            25279700       2.7813793      7097.5363      14195.023      4.277962     
  50149600   306.53676      0.91081605    -50727101       1.6976382      912.81414     -50726188       720.26658      720.26658      720.26658      2139.8667      2860.1333      2139.8667      2860.1333      2139.8667      2860.1333      3.7366275e+08  0.5            25279800       2.7954602      7101.7905      14203.613      4.2637857    
  50149800   292.23124      1.0942767     -50727107       1.6976382      870.21473     -50726236       720.26658      720.26658      720.26658      2139.8667      2860.1333      2139.8667      2860.1333      2139.8667      2860.1333      3.7366275e+08  0.5            25279900       2.8095355      7104.6801      14209.352      4.2496018    
  50150000   290.05196      1.2117679     -50727112       1.6976382      863.72522     -50726248       720.26658      720.26658      720.26658      2139.8667      2860.1333      2139.8667      2860.1333      2139.8667      2860.1333      3.7366275e+08  0.5            25280000       2.8236286      7095.6755      14191.361      4.2354457    
  50150200   305.59182      1.270414      -50727117       1.6976382      910.00027     -50726207       720.26658      720.26658      720.26658      2139.8667      2860.1333      2139.8667      2860.1333      2139.8667      2860.1333      3.7366275e+08  0.5            25280100       2.8377063      7103.4018      14206.836      4.2212674    
  50150400   309.68296      1.2858999     -50727122       1.6976382      922.18297     -50726200       720.26658      720.26658      720.26658      2139.8667      2860.1333      2139.8667      2860.1333      2139.8667      2860.1333      3.7366275e+08  0.5            25280200       2.8517922      7099.3054      14198.567      4.2071023    
  50150600   303.39385      1.4613735     -50725233       1.6976382      903.45508     -50724330       720.26658      720.26658      720.26658      2139.8667      2860.1333      2139.8667      2860.1333      2139.8667      2860.1333      3.7366275e+08  0.5            25280300       2.8661719      6954.2761      13908.532      4.1933675    
  50150800   300.10177      1.5165095     -50725239       1.6976382      893.65182     -50724345       720.26658      720.26658      720.26658      2139.8667      2860.1333      2139.8667      2860.1333      2139.8667      2860.1333      3.7366275e+08  0.5            25280400       2.8802763      7089.9534      14179.913      4.1792273    
  50151000   297.68003      1.5901924     -50725244       1.6976382      886.44031     -50724357       720.26658      720.26658      720.26658      2139.8667      2860.1333      2139.8667      2860.1333      2139.8667      2860.1333      3.7366275e+08  0.5            25280500       2.8943935      7083.5471      14167.153      4.1651056    
  50151200   297.79374      1.6244548     -50725248       1.6976382      886.77891     -50724361       720.26658      720.26658      720.26658      2139.8667      2860.1333      2139.8667      2860.1333      2139.8667      2860.1333      3.7366275e+08  0.5            25280600       2.908505       7086.3767      14172.732      4.1509761    
  50151400   303.2105       1.5890299     -50725253       1.6976382      902.90908     -50724350       720.26658      720.26658      720.26658      2139.8667      2860.1333      2139.8667      2860.1333      2139.8667      2860.1333      3.7366275e+08  0.5            25280700       2.9228446      6973.7186      13947.38       4.1371695    
  50151600   307.00926      1.5801702     -50725258       1.6976382      914.22116     -50724344       720.26658      720.26658      720.26658      2139.8667      2860.1333      2139.8667      2860.1333      2139.8667      2860.1333      3.7366275e+08  0.5            25280800       2.9369556      7086.687       14173.341      4.1230367    
  50151800   296.69003      1.6349638     -50725264       1.6976382      883.49226     -50724380       720.26658      720.26658      720.26658      2139.8667      2860.1333      2139.8667      2860.1333      2139.8667      2860.1333      3.7366275e+08  0.5            25280900       2.9510628      7088.594       14177.207      4.1088988    
  50152000   290.20145      1.7373296     -50725268       1.6976382      864.17036     -50724404       720.26658      720.26658      720.26658      2139.8667      2860.1333      2139.8667      2860.1333      2139.8667      2860.1333      3.7366275e+08  0.5            25281000       2.9651764      7085.3976      14170.868      4.09477      
  50152200   302.70153      1.7943936     -50725271       1.6976382      901.39347     -50724370       720.26658      720.26658      720.26658      2139.8667      2860.1333      2139.8667      2860.1333      2139.8667      2860.1333      3.7366275e+08  0.5            25281100       2.9792667      7097.0608      14194.101      4.0806096    
  50152400   315.45312      1.8255282     -50725274       1.6976382      939.36551     -50724335       720.26658      720.26658      720.26658      2139.8667      2860.1333      2139.8667      2860.1333      2139.8667      2860.1333      3.7366275e+08  0.5            25281200       2.9933474      7101.8964      14203.78       4.0664369    
  50152600   304.95686      1.878327      -50725277       1.6976382      908.10947     -50724369       720.26658      720.26658      720.26658      2139.8667      2860.1333      2139.8667      2860.1333      2139.8667      2860.1333      3.7366275e+08  0.5            25281300       3.0074566      7087.5585      14175.102      4.0523033    
  50152800   300.25548      1.9282322     -50725279       1.6976382      894.10953     -50724385       720.26658      720.26658      720.26658      2139.8667      2860.1333      2139.8667      2860.1333      2139.8667      2860.1333      3.7366275e+08  0.5            25281400       3.0215549      7093.0814      14186.172      4.0381554    
  50153000   297.5691       1.8924208     -50725281       1.6976382      886.10997     -50724395       720.26658      720.26658      720.26658      2139.8667      2860.1333      2139.8667      2860.1333      2139.8667      2860.1333      3.7366275e+08  0.5            25281500       3.0356623      7088.4678      14176.94       4.0240201    
  50153200   298.8333       1.7846246     -50725283       1.6976382      889.87453     -50724393       720.26658      720.26658      720.26658      2139.8667      2860.1333      2139.8667      2860.1333      2139.8667      2860.1333      3.7366275e+08  0.5            25281600       3.0497683      7089.207       14178.438      4.0098831    
  50153400   305.09101      1.7026244     -50725285       1.6976382      908.50893     -50724377       720.26658      720.26658      720.26658      2139.8667      2860.1333      2139.8667      2860.1333      2139.8667      2860.1333      3.7366275e+08  0.5            25281700       3.0638795      7086.551       14173.021      3.9957533    
  50153600   306.99071      1.6385395     -50725287       1.6976382      914.1659      -50724373       720.26658      720.26658      720.26658      2139.8667      2860.1333      2139.8667      2860.1333      2139.8667      2860.1333      3.7366275e+08  0.5            25281800       3.0779926      7085.6205      14171.317      3.981626     
  50153800   293.35948      1.5769173     -50725290       1.6976382      873.57443     -50724416       720.26658      720.26658      720.26658      2139.8667      2860.1333      2139.8667      2860.1333      2139.8667      2860.1333      3.7366275e+08  0.5            25281900       3.092092       7092.4893      14184.951      3.9674813    
  50154000   289.97769      1.5477199     -50725293       1.6976382      863.50404     -50724429       720.26658      720.26658      720.26658      2139.8667      2860.1333      2139.8667      2860.1333      2139.8667      2860.1333      3.7366275e+08  0.5            25282000       3.1062187      7078.7775      14157.559      3.9533718    
  50154200   305.83693      1.4071807     -50727190       1.6976382      910.73017     -50726280       720.26658      720.26658      720.26658      2139.8667      2860.1333      2139.8667      2860.1333      2139.8667      2860.1333      3.7366275e+08  0.5            25282100       3.1203196      7091.7716      14183.563      3.9392295    
  50154400   310.85001      1.3866768     -50727193       1.6976382      925.65825     -50726268       720.26658      720.26658      720.26658      2139.8667      2860.1333      2139.8667      2860.1333      2139.8667      2860.1333      3.7366275e+08  0.5            25282200       3.1344363      7083.8206      14167.654      3.9251073    
  50154600   304.0683       1.3358607     -50727197       1.6976382      905.46349     -50726291       720.26658      720.26658      720.26658      2139.8667      2860.1333      2139.8667      2860.1333      2139.8667      2860.1333      3.7366275e+08  0.5            25282300       3.1485466      7087.024       14174.06       3.9109772    
[...]
  50199200   298.08222      0.29878379    -50737643       1.6976382      887.63795     -50736756       720.26658      720.26658      720.26658      2139.8667      2860.1333      2139.8667      2860.1333      2139.8667      2860.1333      3.7366275e+08  0.5            25304600       6.3007609      7130.9281      14261.867      0.76287263   
  50199400   295.09478      0.22929116    -50737659       1.6976382      878.74185     -50736780       720.26658      720.26658      720.26658      2139.8667      2860.1333      2139.8667      2860.1333      2139.8667      2860.1333      3.7366275e+08  0.5            25304700       6.3148051      7120.3908      14240.801      0.7487355    
  50199600   295.61702      0.067616063   -50737673       1.6976382      880.29701     -50736793       720.26658      720.26658      720.26658      2139.8667      2860.1333      2139.8667      2860.1333      2139.8667      2860.1333      3.7366275e+08  0.5            25304800       6.3288368      7126.7212      14253.385      0.73459735   
  50199800   303.74616     -0.038027407   -50737689       1.6976382      904.5042      -50736785       720.26658      720.26658      720.26658      2139.8667      2860.1333      2139.8667      2860.1333      2139.8667      2860.1333      3.7366275e+08  0.5            25304900       6.3428589      7131.5989      14263.197      0.72045858   
  50200000   307.87683     -0.039823634   -50737705       1.6976382      916.80461     -50736788       720.26658      720.26658      720.26658      2139.8667      2860.1333      2139.8667      2860.1333      2139.8667      2860.1333      3.7366275e+08  0.5            25305000       6.3705865      3606.4974      7212.9859      0.70784318   
  50200200   294.42373     -0.15331426    -50737717       1.6976382      876.74361     -50736841       720.26658      720.26658      720.26658      2139.8667      2860.1333      2139.8667      2860.1333      2139.8667      2860.1333      3.7366275e+08  0.5            25305100       6.3849236      6974.9404      13949.838      0.6937059    
  50200400   294.15483     -0.39549643    -50737728       1.6976382      875.94285     -50736852       720.26658      720.26658      720.26658      2139.8667      2860.1333      2139.8667      2860.1333      2139.8667      2860.1333      3.7366275e+08  0.5            25305200       6.3989806      7113.8965      14227.81       0.67953799   
  50200600   305.6322      -0.6191218     -50737742       1.6976382      910.12051     -50736832       720.26658      720.26658      720.26658      2139.8667      2860.1333      2139.8667      2860.1333      2139.8667      2860.1333      3.7366275e+08  0.5            25305300       6.41305        7107.6322      14215.289      0.66537185   
  50200800   310.46747     -0.53513172    -50737754       1.6976382      924.51911     -50736830       720.26658      720.26658      720.26658      2139.8667      2860.1333      2139.8667      2860.1333      2139.8667      2860.1333      3.7366275e+08  0.5            25305400       6.4271005      7117.2093      14234.475      0.65120421   
  50201000   291.67481     -0.5008433     -50737764       1.6976382      868.55778     -50736896       720.26658      720.26658      720.26658      2139.8667      2860.1333      2139.8667      2860.1333      2139.8667      2860.1333      3.7366275e+08  0.5            25305500       6.441178       7103.4982      14207.012      0.63703978   
  50201200   294.20323     -0.60830619    -50737775       1.6976382      876.08698     -50736899       720.26658      720.26658      720.26658      2139.8667      2860.1333      2139.8667      2860.1333      2139.8667      2860.1333      3.7366275e+08  0.5            25305600       6.4552214      7120.8471      14241.703      0.62287242   
  50201400   307.77346     -0.51817011    -50737786       1.6976382      916.49681     -50736870       720.26658      720.26658      720.26658      2139.8667      2860.1333      2139.8667      2860.1333      2139.8667      2860.1333      3.7366275e+08  0.5            25305700       6.4692892      7108.3699      14216.676      0.60870793   
  50201600   308.47551     -0.37638102    -50737797       1.6976382      918.58741     -50736878       720.26658      720.26658      720.26658      2139.8667      2860.1333      2139.8667      2860.1333      2139.8667      2860.1333      3.7366275e+08  0.5            25305800       6.4833246      7124.876       14249.711      0.59454086   
  50201800   291.62912     -0.24463952    -50737808       1.6976382      868.42171     -50736940       720.26658      720.26658      720.26658      2139.8667      2860.1333      2139.8667      2860.1333      2139.8667      2860.1333      3.7366275e+08  0.5            25305900       6.4973301      7140.0695      14280.189      0.58037171   
  50202000   296.41881     -0.11443921    -50737819       1.6976382      882.6846      -50736936       720.26658      720.26658      720.26658      2139.8667      2860.1333      2139.8667      2860.1333      2139.8667      2860.1333      3.7366275e+08  0.5            25306000       6.5113552      7130.0353      14260.152      0.56620497   
  50202200   305.85129     -0.1178946     -50737829       1.6976382      910.77291     -50736918       720.26658      720.26658      720.26658      2139.8667      2860.1333      2139.8667      2860.1333      2139.8667      2860.1333      3.7366275e+08  0.5            25306100       6.5253876      7126.3718      14252.713      0.55203946   
  50202400   303.89043     -0.19352189    -50737839       1.6976382      904.9338      -50736934       720.26658      720.26658      720.26658      2139.8667      2860.1333      2139.8667      2860.1333      2139.8667      2860.1333      3.7366275e+08  0.5            25306200       6.5394551      7108.5937      14217.172      0.53787742   
  50202600   287.39146     -0.14893709    -50737848       1.6976382      855.8027      -50736992       720.26658      720.26658      720.26658      2139.8667      2860.1333      2139.8667      2860.1333      2139.8667      2860.1333      3.7366275e+08  0.5            25306300       6.5534874      7126.4592      14252.86       0.52371297   
  50202800   294.32271      0.11215063    -50737857       1.6976382      876.44278     -50736981       720.26658      720.26658      720.26658      2139.8667      2860.1333      2139.8667      2860.1333      2139.8667      2860.1333      3.7366275e+08  0.5            25306400       6.5677852      6994.0062      13987.996      0.5095697    
  50203000   304.26445      0.14897395    -50737865       1.6976382      906.04757     -50736959       720.26658      720.26658      720.26658      2139.8667      2860.1333      2139.8667      2860.1333      2139.8667      2860.1333      3.7366275e+08  0.5            25306500       6.5818441      7112.9629      14225.955      0.49540777   
  50203200   304.87063      0.05561072    -50737874       1.6976382      907.85266     -50736967       720.26658      720.26658      720.26658      2139.8667      2860.1333      2139.8667      2860.1333      2139.8667      2860.1333      3.7366275e+08  0.5            25306600       6.5958554      7137.0766      14274.138      0.48124282   
  50203400   298.17421     -0.077337812   -50737883       1.6976382      887.91187     -50736995       720.26658      720.26658      720.26658      2139.8667      2860.1333      2139.8667      2860.1333      2139.8667      2860.1333      3.7366275e+08  0.5            25306700       6.6098849      7127.8429      14255.699      0.46707981   
  50203600   295.73568     -0.22817094    -50737892       1.6976382      880.65037     -50737011       720.26658      720.26658      720.26658      2139.8667      2860.1333      2139.8667      2860.1333      2139.8667      2860.1333      3.7366275e+08  0.5            25306800       6.6239105      7129.8609      14259.746      0.45291709   
  50203800   304.0155      -0.18980483    -50737902       1.6976382      905.30625     -50736997       720.26658      720.26658      720.26658      2139.8667      2860.1333      2139.8667      2860.1333      2139.8667      2860.1333      3.7366275e+08  0.5            25306900       6.6379419      7126.8573      14253.703      0.43875535   
  50204000   323.65095     -0.29498906    -50737912       1.6976382      963.77725     -50736948       720.26658      720.26658      720.26658      2139.8667      2860.1333      2139.8667      2860.1333      2139.8667      2860.1333      3.7366275e+08  0.5            25307000       6.6519697      7128.7341      14257.521      0.42459393   
  50204200   306.47092     -0.45330972    -50737922       1.6976382      912.61806     -50737009       720.26658      720.26658      720.26658      2139.8667      2860.1333      2139.8667      2860.1333      2139.8667      2860.1333      3.7366275e+08  0.5            25307100       6.6660243      7115.0399      14230.051      0.41043474   
  50204400   296.28077     -0.63041287    -50737934       1.6976382      882.27355     -50737052       720.26658      720.26658      720.26658      2139.8667      2860.1333      2139.8667      2860.1333      2139.8667      2860.1333      3.7366275e+08  0.5            25307200       6.6800525      7128.542       14257.064      0.39627441   
  50204600   296.08475     -0.64332004    -50737944       1.6976382      881.68983     -50737063       720.26658      720.26658      720.26658      2139.8667      2860.1333      2139.8667      2860.1333      2139.8667      2860.1333      3.7366275e+08  0.5            25307300       6.6940822      7127.7077      14255.434      0.38211474   
  50204800   303.42514     -0.78326181    -50737956       1.6976382      903.54824     -50737052       720.26658      720.26658      720.26658      2139.8667      2860.1333      2139.8667      2860.1333      2139.8667      2860.1333      3.7366275e+08  0.5            25307400       6.7081246      7121.3233      14242.622      0.36795631   
  50205000   306.85398     -0.78913752    -50737967       1.6976382      913.75876     -50737053       720.26658      720.26658      720.26658      2139.8667      2860.1333      2139.8667      2860.1333      2139.8667      2860.1333      3.7366275e+08  0.5            25307500       6.7222106      7099.2188      14198.442      0.35380066   
  50205200   293.95219     -0.92770479    -50737979       1.6976382      875.33944     -50737104       720.26658      720.26658      720.26658      2139.8667      2860.1333      2139.8667      2860.1333      2139.8667      2860.1333      3.7366275e+08  0.5            25307600       6.7362693      7113.0398      14226.081      0.33964393   
  50205400   293.70161     -0.70919023    -50730615       1.6976382      874.59324     -50729741       720.26658      720.26658      720.26658      2139.8667      2860.1333      2139.8667      2860.1333      2139.8667      2860.1333      3.7366275e+08  0.5            25307700       6.7505653      6994.9705      13989.968      0.32549905   
  50205600   305.26122     -0.40916622    -50723252       1.6976382      909.01579     -50722343       720.26658      720.26658      720.26658      2139.8667      2860.1333      2139.8667      2860.1333      2139.8667      2860.1333      3.7366275e+08  0.5            25307800       6.7646496      7100.1003      14200.213      0.31134379   
  50205800   310.658       -0.3914853     -50723267       1.6976382      925.08647     -50722342       720.26658      720.26658      720.26658      2139.8667      2860.1333      2139.8667      2860.1333      2139.8667      2860.1333      3.7366275e+08  0.5            25307900       6.7786828      7125.9818      14251.935      0.2971866    
  50206000   293.32898     -0.36362878    -50723284       1.6976382      873.48361     -50722410       720.26658      720.26658      720.26658      2139.8667      2860.1333      2139.8667      2860.1333      2139.8667      2860.1333      3.7366275e+08  0.5            25308000       6.792753       7107.2124      14214.436      0.28303146   
  50206200   296.08268     -0.32898755    -50723302       1.6976382      881.68365     -50722421       720.26658      720.26658      720.26658      2139.8667      2860.1333      2139.8667      2860.1333      2139.8667      2860.1333      3.7366275e+08  0.5            25308100       6.8067877      7125.1775      14250.332      0.26887527   
  50206400   306.33891     -0.34692505    -50723319       1.6976382      912.22496     -50722407       720.26658      720.26658      720.26658      2139.8667      2860.1333      2139.8667      2860.1333      2139.8667      2860.1333      3.7366275e+08  0.5            25308200       6.8208304      7121.1306      14242.283      0.25471988   
  50206600   305.63764     -0.42273149    -50723337       1.6976382      910.1367      -50722427       720.26658      720.26658      720.26658      2139.8667      2860.1333      2139.8667      2860.1333      2139.8667      2860.1333      3.7366275e+08  0.5            25308300       6.8348653      7125.0948      14250.163      0.24056469   
  50206800   293.37937     -0.39403565    -50723354       1.6976382      873.63368     -50722480       720.26658      720.26658      720.26658      2139.8667      2860.1333      2139.8667      2860.1333      2139.8667      2860.1333      3.7366275e+08  0.5            25308400       6.8488801      7135.3177      14270.606      0.22640933   
  50207000   298.82934     -0.26829227    -50723371       1.6976382      889.86276     -50722481       720.26658      720.26658      720.26658      2139.8667      2860.1333      2139.8667      2860.1333      2139.8667      2860.1333      3.7366275e+08  0.5            25308500       6.8629178      7123.6782      14247.383      0.21225525   
  50207200   306.11682     -0.34872477    -50723388       1.6976382      911.56362     -50722476       720.26658      720.26658      720.26658      2139.8667      2860.1333      2139.8667      2860.1333      2139.8667      2860.1333      3.7366275e+08  0.5            25308600       6.8769721      7115.2879      14230.553      0.19810213   
  50207400   296.57496     -0.4190846     -50723408       1.6976382      883.14959     -50722525       720.26658      720.26658      720.26658      2139.8667      2860.1333      2139.8667      2860.1333      2139.8667      2860.1333      3.7366275e+08  0.5            25308700       6.8910079      7124.608       14249.228      0.18394893   
  50207600   291.43856     -0.49178088    -50723427       1.6976382      867.85427     -50722560       720.26658      720.26658      720.26658      2139.8667      2860.1333      2139.8667      2860.1333      2139.8667      2860.1333      3.7366275e+08  0.5            25308800       6.9050547      7119.0455      14238.14       0.16979648   
  50207800   303.13763     -0.68272402    -50723445       1.6976382      902.69209     -50722543       720.26658      720.26658      720.26658      2139.8667      2860.1333      2139.8667      2860.1333      2139.8667      2860.1333      3.7366275e+08  0.5            25308900       6.9193288      7005.7104      14011.36       0.15564957   
  50208000   308.83431     -0.75370573    -50723465       1.6976382      919.65584     -50722545       720.26658      720.26658      720.26658      2139.8667      2860.1333      2139.8667      2860.1333      2139.8667      2860.1333      3.7366275e+08  0.5            25309000       6.9333761      7118.7728      14237.61       0.14149751   
  50208200   293.42832     -0.79779626    -50723483       1.6976382      873.77943     -50722609       720.26658      720.26658      720.26658      2139.8667      2860.1333      2139.8667      2860.1333      2139.8667      2860.1333      3.7366275e+08  0.5            25309100       6.9474279      7116.567       14233.076      0.12734597   
  50208400   296.68225     -0.85901064    -50723500       1.6976382      883.46907     -50722617       720.26658      720.26658      720.26658      2139.8667      2860.1333      2139.8667      2860.1333      2139.8667      2860.1333      3.7366275e+08  0.5            25309200       6.96149        7111.2906      14222.615      0.11319499   
  50208600   305.56269     -0.81925364    -50723518       1.6976382      909.9135      -50722608       720.26658      720.26658      720.26658      2139.8667      2860.1333      2139.8667      2860.1333      2139.8667      2860.1333      3.7366275e+08  0.5            25309300       6.9755563      7109.2269      14218.45       0.099044438  
  50208800   302.61885     -0.57586051    -50723535       1.6976382      901.14725     -50722634       720.26658      720.26658      720.26658      2139.8667      2860.1333      2139.8667      2860.1333      2139.8667      2860.1333      3.7366275e+08  0.5            25309400       6.989581       7130.2448      14260.532      0.08489372   
  50209000   290.96549     -0.63091253    -50723550       1.6976382      866.44553     -50722683       720.26658      720.26658      720.26658      2139.8667      2860.1333      2139.8667      2860.1333      2139.8667      2860.1333      3.7366275e+08  0.5            25309500       7.0036207      7122.6674      14245.272      0.070743664  
  50209200   298.36414     -0.72677158    -50723567       1.6976382      888.47747     -50722679       720.26658      720.26658      720.26658      2139.8667      2860.1333      2139.8667      2860.1333      2139.8667      2860.1333      3.7366275e+08  0.5            25309600       7.0176373      7134.4029      14268.837      0.056593865  
  50209400   304.98731     -0.48700432    -50723582       1.6976382      908.20012     -50722673       720.26658      720.26658      720.26658      2139.8667      2860.1333      2139.8667      2860.1333      2139.8667      2860.1333      3.7366275e+08  0.5            25309700       7.0316542      7134.2344      14268.516      0.042444604  
  50209600   303.04754     -0.56319315    -50723594       1.6976382      902.42381     -50722691       720.26658      720.26658      720.26658      2139.8667      2860.1333      2139.8667      2860.1333      2139.8667      2860.1333      3.7366275e+08  0.5            25309800       7.0456643      7137.72        14275.374      0.028295848  
  50209800   299.30598     -0.45975515    -50723608       1.6976382      891.28209     -50722716       720.26658      720.26658      720.26658      2139.8667      2860.1333      2139.8667      2860.1333      2139.8667      2860.1333      3.7366275e+08  0.5            25309900       7.0599232      7013.1494      14026.274      0.014148147  
  50210000   300.62648     -0.42569679    -50723619       1.6976382      895.21433     -50722724       720.26658      720.26658      720.26658      2139.8667      2860.1333      2139.8667      2860.1333      2139.8667      2860.1333      3.7366275e+08  0.5            25310000       7.0740339      7086.792       14173.605      0            
Loop time of 7.07405 on 4 procs for 100000 steps with 1000 atoms

Performance: 610.683 ns/day, 0.039 hours/ns, 14136.179 timesteps/s
99.8% CPU use with 4 MPI tasks x 1 OpenMP threads

MPI task timing breakdown:
Section |  min time  |  avg time  |  max time  |%varavg| %total
---------------------------------------------------------------
Pair    | 3.9466     | 4.287      | 4.728      |  14.8 | 60.60
Neigh   | 0.0034181  | 0.0036679  | 0.0040598  |   0.4 |  0.05
Comm    | 1.4632     | 1.88       | 2.2031     |  21.2 | 26.58
Output  | 0.025088   | 0.02643    | 0.030199   |   1.3 |  0.37
Modify  | 0.58737    | 0.59973    | 0.61686    |   1.5 |  8.48
Other   |            | 0.2772     |            |       |  3.92

Nlocal:            250 ave         274 max         236 min
Histogram: 2 0 0 1 0 0 0 0 0 1
Nghost:          668.5 ave         674 max         656 min
Histogram: 1 0 0 0 0 0 0 0 1 2
Neighs:         1711.5 ave        1877 max        1611 min
Histogram: 1 1 0 1 0 0 0 0 0 1

Total # of neighbors = 6846
Ave neighs/atom = 6.846
Neighbor list builds = 20
Dangerous builds = 0

# run_style
run_style verlet


Total wall time: 0:00:07
