LAMMPS (23 Jun 2022 - Update 1)
OMP_NUM_THREADS environment is not set. Defaulting to 1 thread. (src/comm.cpp:98)
  using 1 OpenMP thread(s) per MPI task

# Init #
dimension   3
boundary    p p p
units       real
atom_style  atomic

# Atom Definition #
read_data ${input_data}
read_data ./pgnpmf/19/dat19.dat
Reading data file ...
  orthogonal box = (-100 -100 -100) to (5100 5100 5100)
  1 by 1 by 1 MPI processor grid
  reading atoms ...
  1000 atoms
  read_data CPU = 0.011 seconds

# Settings #
pair_style table spline 9941

pair_coeff 1 1 ./pgnpmf/N20.txt DE_GNP 75.6
pair_coeff 2 2 ./pgnpmf/N100.txt DE_GNP 115.92
WARNING: 3 of 9941 force values in table DE_GNP are inconsistent with -dE/dr.
WARNING:  Should only be flagged at inflection points (src/pair_table.cpp:463)
pair_coeff 1 2 ./pgnpmf/mixed_potential.txt DE_GNP 95.66
WARNING: 1562 of 9941 force values in table DE_GNP are inconsistent with -dE/dr.
WARNING:  Should only be flagged at inflection points (src/pair_table.cpp:463)

# Neighbor list calc frequency #
neigh_modify delay 0 every 1 check yes

# Saving frequency #
variable ts_save equal floor(${steps_gen}*0.01)
variable ts_save equal floor(5000*0.01)

# Dump #
dump 1 all custom 5000 ./pgnpmf/${folder}/generation/trajectory/trajectory_${usic}_${trial}.gen.custom type x y z ix iy iz
dump 1 all custom 5000 ./pgnpmf/19/generation/trajectory/trajectory_${usic}_${trial}.gen.custom type x y z ix iy iz
dump 1 all custom 5000 ./pgnpmf/19/generation/trajectory/trajectory_1_${trial}.gen.custom type x y z ix iy iz
dump 1 all custom 5000 ./pgnpmf/19/generation/trajectory/trajectory_1_1.gen.custom type x y z ix iy iz
dump_modify 1 first no sort id
dump 2 all cfg 5000 ./pgnpmf/${folder}/generation/trajectory/dumpgen.tens_*.cfg mass type xs ys zs fx fy fz
dump 2 all cfg 5000 ./pgnpmf/19/generation/trajectory/dumpgen.tens_*.cfg mass type xs ys zs fx fy fz
dump_modify 2 element N20 N100

# Fix #
fix 1 all momentum 1000 linear 1 1 1 angular

variable T equal ${Temp}
variable T equal 300

# Velocity #
velocity all create ${T} ${Vseed} mom yes rot yes dist gaussian
velocity all create 300 ${Vseed} mom yes rot yes dist gaussian
velocity all create 300 57138 mom yes rot yes dist gaussian

fix 2 all nvt temp ${T} 370000 100.0 #iso 1.0 1.0 1000.0
fix 2 all nvt temp 300 370000 100.0 
run ${steps_gen}
run 5000
Generated 0 of 1 mixed pair_coeff terms from geometric mixing rule
Neighbor list info ...
  update every 1 steps, delay 0 steps, check yes
  max neighbors/atom: 2000, page size: 100000
  master list distance cutoff = 117.92
  ghost atom cutoff = 117.92
  binsize = 58.96, bins = 89 89 89
  1 neighbor lists, perpetual/occasional/extra = 1 0 0
  (1) pair table, perpetual
      attributes: half, newton on
      pair build: half/bin/atomonly/newton
      stencil: half/bin/3d
      bin: standard
Per MPI rank memory allocation (min/avg/max) = 8.912 | 8.912 | 8.912 Mbytes
   Step          Temp          E_pair         E_mol          TotEng         Press     
         0   300            0              0              893.34877      0.0002904316 
      5000   357462.69     -231582.12      0              832880.75      0.31629363   
Loop time of 0.175777 on 1 procs for 5000 steps with 1000 atoms

Performance: 2457.659 ns/day, 0.010 hours/ns, 28445.125 timesteps/s
99.1% CPU use with 1 MPI tasks x 1 OpenMP threads

MPI task timing breakdown:
Section |  min time  |  avg time  |  max time  |%varavg| %total
---------------------------------------------------------------
Pair    | 0.025082   | 0.025082   | 0.025082   |   0.0 | 14.27
Neigh   | 0.0091711  | 0.0091711  | 0.0091711  |   0.0 |  5.22
Comm    | 0.0083628  | 0.0083628  | 0.0083628  |   0.0 |  4.76
Output  | 0.0059177  | 0.0059177  | 0.0059177  |   0.0 |  3.37
Modify  | 0.10538    | 0.10538    | 0.10538    |   0.0 | 59.95
Other   |            | 0.02186    |            |       | 12.44

Nlocal:           1000 ave        1000 max        1000 min
Histogram: 1 0 0 0 0 0 0 0 0 0
Nghost:             64 ave          64 max          64 min
Histogram: 1 0 0 0 0 0 0 0 0 0
Neighs:             74 ave          74 max          74 min
Histogram: 1 0 0 0 0 0 0 0 0 0

Total # of neighbors = 74
Ave neighs/atom = 0.074
Neighbor list builds = 12
Dangerous builds = 0

fix 3 all nvt temp 370000 370000 100.0
run 400000
Generated 0 of 1 mixed pair_coeff terms from geometric mixing rule
WARNING: One or more atoms are time integrated more than once (src/modify.cpp:292)
Per MPI rank memory allocation (min/avg/max) = 8.912 | 8.912 | 8.912 Mbytes
   Step          Temp          E_pair         E_mol          TotEng         Press     
      5000   357462.69     -231582.12      0              832880.75      0.31629363   
    405000   370530.38     -1576950.1      0             -473573.92      0.30062192   
Loop time of 25.1909 on 1 procs for 400000 steps with 1000 atoms

Performance: 1371.924 ns/day, 0.017 hours/ns, 15878.751 timesteps/s
98.1% CPU use with 1 MPI tasks x 1 OpenMP threads

MPI task timing breakdown:
Section |  min time  |  avg time  |  max time  |%varavg| %total
---------------------------------------------------------------
Pair    | 4.6361     | 4.6361     | 4.6361     |   0.0 | 18.40
Neigh   | 2.5899     | 2.5899     | 2.5899     |   0.0 | 10.28
Comm    | 0.79304    | 0.79304    | 0.79304    |   0.0 |  3.15
Output  | 0.81507    | 0.81507    | 0.81507    |   0.0 |  3.24
Modify  | 14.76      | 14.76      | 14.76      |   0.0 | 58.59
Other   |            | 1.597      |            |       |  6.34

Nlocal:           1000 ave        1000 max        1000 min
Histogram: 1 0 0 0 0 0 0 0 0 0
Nghost:            130 ave         130 max         130 min
Histogram: 1 0 0 0 0 0 0 0 0 0
Neighs:            187 ave         187 max         187 min
Histogram: 1 0 0 0 0 0 0 0 0 0

Total # of neighbors = 187
Ave neighs/atom = 0.187
Neighbor list builds = 3547
Dangerous builds = 0

fix 4 all nvt temp 370000 ${T} 100.0
fix 4 all nvt temp 370000 300 100.0
run ${steps_gen}
run 5000
Generated 0 of 1 mixed pair_coeff terms from geometric mixing rule
WARNING: One or more atoms are time integrated more than once (src/modify.cpp:292)
Per MPI rank memory allocation (min/avg/max) = 8.913 | 8.913 | 8.913 Mbytes
   Step          Temp          E_pair         E_mol          TotEng         Press     
    405000   370530.38     -1576950.1      0             -473573.92      0.30062192   
    410000   33159.198     -1583975.7      0             -1485233.3      0.086160985  
Loop time of 0.389365 on 1 procs for 5000 steps with 1000 atoms

Performance: 1109.499 ns/day, 0.022 hours/ns, 12841.424 timesteps/s
99.4% CPU use with 1 MPI tasks x 1 OpenMP threads

MPI task timing breakdown:
Section |  min time  |  avg time  |  max time  |%varavg| %total
---------------------------------------------------------------
Pair    | 0.050883   | 0.050883   | 0.050883   |   0.0 | 13.07
Neigh   | 0.043927   | 0.043927   | 0.043927   |   0.0 | 11.28
Comm    | 0.010241   | 0.010241   | 0.010241   |   0.0 |  2.63
Output  | 0.0062461  | 0.0062461  | 0.0062461  |   0.0 |  1.60
Modify  | 0.2589     | 0.2589     | 0.2589     |   0.0 | 66.49
Other   |            | 0.01917    |            |       |  4.92

Nlocal:           1000 ave        1000 max        1000 min
Histogram: 1 0 0 0 0 0 0 0 0 0
Nghost:            133 ave         133 max         133 min
Histogram: 1 0 0 0 0 0 0 0 0 0
Neighs:            184 ave         184 max         184 min
Histogram: 1 0 0 0 0 0 0 0 0 0

Total # of neighbors = 184
Ave neighs/atom = 0.184
Neighbor list builds = 64
Dangerous builds = 0


# Thermo #
thermo_style custom step temp press pe ke etotal epair lx ly lz xlo xhi ylo yhi zlo zhi vol density dt time

# Run stle #
run_style verlet

# Run #
timestep ${ts}
timestep 1
thermo ${ts_save}
thermo 50
# run ${steps_gen}

# write restart #
write_restart ${write_restart}
write_restart ./pgnpmf/19/genpmf.res
System init for write_restart ...
Generated 0 of 1 mixed pair_coeff terms from geometric mixing rule
WARNING: One or more atoms are time integrated more than once (src/modify.cpp:292)


Total wall time: 0:00:25
