LAMMPS (23 Jun 2022 - Update 1)
OMP_NUM_THREADS environment is not set. Defaulting to 1 thread. (src/comm.cpp:98)
  using 1 OpenMP thread(s) per MPI task
# Read restart
read_restart ${read_res}
read_restart ./pgnpmf/trial2/19/equpmf71.res
Reading restart file ...
  restart file = 23 Jun 2022, LAMMPS = 23 Jun 2022
  restoring atom style atomic from restart
  orthogonal box = (2129.2081 2129.2081 2129.2081) to (2870.7919 2870.7919 2870.7919)
  1 by 2 by 2 MPI processor grid
  restoring pair style table from restart
  1000 atoms
  read_restart CPU = 0.023 seconds

# Settings

pair_style table spline 9941

pair_coeff 1 1 ./pgnpmf/N20.txt DE_GNP 75.6
pair_coeff 2 2 ./pgnpmf/N100.txt DE_GNP 115.92
WARNING: 3 of 9941 force values in table DE_GNP are inconsistent with -dE/dr.
WARNING:  Should only be flagged at inflection points (src/pair_table.cpp:463)
pair_coeff 1 2 ./pgnpmf/mixed_potential.txt DE_GNP 95.66
WARNING: 1562 of 9941 force values in table DE_GNP are inconsistent with -dE/dr.
WARNING:  Should only be flagged at inflection points (src/pair_table.cpp:463)

#Neigh_list Calc Frequency

neigh_modify delay 0 every 1 check yes

# computes
compute vor all voronoi/atom

# Saving Frequency (50 frames)
variable ts_save equal ${steps_equ}
variable ts_save equal 5000

# Dump
dump 1 all custom 100000 ./pgnpmf/${folder}/voronoi/voronoi_${usic}_${trial}.custom type x y z ix iy iz c_vor[1] c_vor[2]
dump 1 all custom 100000 ./pgnpmf/trial2/19/voronoi/voronoi_${usic}_${trial}.custom type x y z ix iy iz c_vor[1] c_vor[2]
dump 1 all custom 100000 ./pgnpmf/trial2/19/voronoi/voronoi_1_${trial}.custom type x y z ix iy iz c_vor[1] c_vor[2]
dump 1 all custom 100000 ./pgnpmf/trial2/19/voronoi/voronoi_1_1.custom type x y z ix iy iz c_vor[1] c_vor[2]
dump_modify 1 first no sort id
#dump 2 all cfg 50000 ./pgnpmf/${folder}/equilibration/trajectory/dumpgen.tens_*.cfg mass type xs ys zs fx fy fz
#dump_modify 2 element N20 N100

# thermo_style
thermo_style custom step temp press pe density ke etotal lx ly lz xlo xhi ylo yhi zlo zhi vol dt time cpu tpcpu spcpu cpuremain

# run info
timestep ${ts}
timestep 0.5
thermo 200

# fix

fix 1 all momentum 1000 linear 1 1 1 angular
variable T equal ${temp}
variable T equal 300
fix 2 all nvt temp ${T} ${T} 100.0
fix 2 all nvt temp 300 ${T} 100.0
fix 2 all nvt temp 300 300 100.0

run 100000
Generated 0 of 1 mixed pair_coeff terms from geometric mixing rule
Unused restart file global fix info:
  fix style: npt, fix ID: 5
Neighbor list info ...
  update every 1 steps, delay 0 steps, check yes
  max neighbors/atom: 2000, page size: 100000
  master list distance cutoff = 117.92
  ghost atom cutoff = 117.92
  binsize = 58.96, bins = 13 13 13
  1 neighbor lists, perpetual/occasional/extra = 1 0 0
  (1) pair table, perpetual
      attributes: half, newton on
      pair build: half/bin/atomonly/newton
      stencil: half/bin/3d
      bin: standard
Per MPI rank memory allocation (min/avg/max) = 3.097 | 3.097 | 3.098 Mbytes
   Step          Temp          Press          PotEng        Density         KinEng         TotEng           Lx             Ly             Lz            Xlo            Xhi            Ylo            Yhi            Zlo            Zhi           Volume           Dt            Time           CPU           T/CPU          S/CPU         CPULeft    
  50110000   289.00144     -2.6991359     -56477006       1.6369211      860.59693     -56476145       741.58389      741.58389      741.58389      2129.2081      2870.7919      2129.2081      2870.7919      2129.2081      2870.7919      4.0783158e+08  0.5            25260000       0              0              0              0            
  50110200   299.80768     -2.6514454     -56477009       1.6369211      892.77608     -56476116       741.58389      741.58389      741.58389      2129.2081      2870.7919      2129.2081      2870.7919      2129.2081      2870.7919      4.0783158e+08  0.5            25260100       0.016130168    6199.1661      12397.474      8.0505781    
  50110400   311.13037     -2.5836923     -56477012       1.6369211      926.49311     -56476086       741.58389      741.58389      741.58389      2129.2081      2870.7919      2129.2081      2870.7919      2129.2081      2870.7919      4.0783158e+08  0.5            25260200       0.031322031    6582.6224      13165.363      7.7998428    
  50110600   304.81396     -2.5040818     -56477015       1.6369211      907.68391     -56476108       741.58389      741.58389      741.58389      2129.2081      2870.7919      2129.2081      2870.7919      2129.2081      2870.7919      4.0783158e+08  0.5            25260300       0.04481229     7412.7863      14825.767      7.4242673    
  50110800   300.69601     -2.4115411     -56477019       1.6369211      895.42136     -56476123       741.58389      741.58389      741.58389      2129.2081      2870.7919      2129.2081      2870.7919      2129.2081      2870.7919      4.0783158e+08  0.5            25260400       0.058216376    7460.4512      14920.948      7.2190897    
  50111000   298.51966     -2.3093351     -56477022       1.6369211      888.94056     -56476133       741.58389      741.58389      741.58389      2129.2081      2870.7919      2129.2081      2870.7919      2129.2081      2870.7919      4.0783158e+08  0.5            25260500       0.071684881    7424.7263      14849.386      7.0970167    
  50111200   298.4146      -2.1932854     -56477025       1.6369211      888.62774     -56476137       741.58389      741.58389      741.58389      2129.2081      2870.7919      2129.2081      2870.7919      2129.2081      2870.7919      4.0783158e+08  0.5            25260600       0.085119288    7443.5295      14887.092      7.0083358    
  50111400   301.78475     -2.0604636     -56477029       1.6369211      898.66346     -56476131       741.58389      741.58389      741.58389      2129.2081      2870.7919      2129.2081      2870.7919      2129.2081      2870.7919      4.0783158e+08  0.5            25260700       0.098543273    7449.3456      14898.68       6.9404198    
  50111600   305.30686     -1.9161995     -56477033       1.6369211      909.15169     -56476124       741.58389      741.58389      741.58389      2129.2081      2870.7919      2129.2081      2870.7919      2129.2081      2870.7919      4.0783158e+08  0.5            25260800       0.11196634     7449.8961      14899.791      6.8860597    
  50111800   298.52441     -1.7720282     -56477038       1.6369211      888.95473     -56476149       741.58389      741.58389      741.58389      2129.2081      2870.7919      2129.2081      2870.7919      2129.2081      2870.7919      4.0783158e+08  0.5            25260900       0.1254382      7422.9384      14845.882      6.8434626    
  50112000   290.40892     -1.6320382     -56477042       1.6369211      864.78819     -56476177       741.58389      741.58389      741.58389      2129.2081      2870.7919      2129.2081      2870.7919      2129.2081      2870.7919      4.0783158e+08  0.5            25261000       0.13888264     7438.0251      14876.084      6.8053475    
  50112200   299.32661     -1.491367      -56477046       1.6369211      891.34352     -56476155       741.58389      741.58389      741.58389      2129.2081      2870.7919      2129.2081      2870.7919      2129.2081      2870.7919      4.0783158e+08  0.5            25261100       0.15232086     7441.47        14882.816      6.7714492    
  50112400   316.06169     -1.3540326     -56477051       1.6369211      941.17774     -56476110       741.58389      741.58389      741.58389      2129.2081      2870.7919      2129.2081      2870.7919      2129.2081      2870.7919      4.0783158e+08  0.5            25261200       0.16574822     7447.4787      14895.067      6.7405084    
  50112600   306.06605     -1.2396331     -56477056       1.6369211      911.41244     -56476144       741.58389      741.58389      741.58389      2129.2081      2870.7919      2129.2081      2870.7919      2129.2081      2870.7919      4.0783158e+08  0.5            25261300       0.17916506     7453.3032      14906.573      6.7118742    
  50112800   299.70828     -1.1449743     -56477060       1.6369211      892.48009     -56476168       741.58389      741.58389      741.58389      2129.2081      2870.7919      2129.2081      2870.7919      2129.2081      2870.7919      4.0783158e+08  0.5            25261400       0.19260114     7442.673       14885.299      6.6860822    
  50113000   299.13207     -1.0667022     -56477065       1.6369211      890.76423     -56476174       741.58389      741.58389      741.58389      2129.2081      2870.7919      2129.2081      2870.7919      2129.2081      2870.7919      4.0783158e+08  0.5            25261500       0.2075067      6708.824       13417.616      6.7094603    
  50113200   299.91548     -1.0011156     -56477070       1.6369211      893.09707     -56476177       741.58389      741.58389      741.58389      2129.2081      2870.7919      2129.2081      2870.7919      2129.2081      2870.7919      4.0783158e+08  0.5            25261600       0.22098723     7418.1461      14836.325      6.6849307    
  50113400   299.99875     -0.62350726    -56469698       1.6369211      893.34504     -56468804       741.58389      741.58389      741.58389      2129.2081      2870.7919      2129.2081      2870.7919      2129.2081      2870.7919      4.0783158e+08  0.5            25261700       0.23441643     7446.5121      14893.073      6.660243     
  50113600   296.72388     -0.45900671    -56467809       1.6369211      883.59304     -56466925       741.58389      741.58389      741.58389      2129.2081      2870.7919      2129.2081      2870.7919      2129.2081      2870.7919      4.0783158e+08  0.5            25261800       0.24782075     7460.2703      14920.585      6.6361423    
  50113800   295.05944     -0.45639648    -56467816       1.6369211      878.63662     -56466937       741.58389      741.58389      741.58389      2129.2081      2870.7919      2129.2081      2870.7919      2129.2081      2870.7919      4.0783158e+08  0.5            25261900       0.26122283     7461.5362      14923.018      6.6131138    
  50114000   302.00497     -0.47826844    -56467823       1.6369211      899.31924     -56466923       741.58389      741.58389      741.58389      2129.2081      2870.7919      2129.2081      2870.7919      2129.2081      2870.7919      4.0783158e+08  0.5            25262000       0.27464546     7450.1281      14900.325      6.5915376    
  50114200   311.02833     -0.52522226    -56467830       1.6369211      926.18925     -56466903       741.58389      741.58389      741.58389      2129.2081      2870.7919      2129.2081      2870.7919      2129.2081      2870.7919      4.0783158e+08  0.5            25262100       0.28808359     7441.4966      14882.982      6.5710948    
  50114400   299.69934     -0.60252981    -56467837       1.6369211      892.45346     -56466944       741.58389      741.58389      741.58389      2129.2081      2870.7919      2129.2081      2870.7919      2129.2081      2870.7919      4.0783158e+08  0.5            25262200       0.3015282      7437.9072      14875.818      6.5514293    
  50114600   291.16587     -0.69662803    -56467844       1.6369211      867.04225     -56466977       741.58389      741.58389      741.58389      2129.2081      2870.7919      2129.2081      2870.7919      2129.2081      2870.7919      4.0783158e+08  0.5            25262300       0.31495736     7446.5099      14892.999      6.5319827    
  50114800   299.76388     -0.79873918    -56467851       1.6369211      892.64564     -56466958       741.58389      741.58389      741.58389      2129.2081      2870.7919      2129.2081      2870.7919      2129.2081      2870.7919      4.0783158e+08  0.5            25262400       0.32842403     7425.7391      14851.443      6.5137833    
  50115000   307.59503     -0.90766209    -56467858       1.6369211      915.96548     -56466942       741.58389      741.58389      741.58389      2129.2081      2870.7919      2129.2081      2870.7919      2129.2081      2870.7919      4.0783158e+08  0.5            25262500       0.34186441     7440.2708      14880.634      6.4954603    
  50115200   295.52771     -1.020157      -56467866       1.6369211      880.03105     -56466986       741.58389      741.58389      741.58389      2129.2081      2870.7919      2129.2081      2870.7919      2129.2081      2870.7919      4.0783158e+08  0.5            25262600       0.35528735     7449.9349      14899.814      6.4771977    
  50115400   284.99291     -1.1182934     -56467873       1.6369211      848.66023     -56467024       741.58389      741.58389      741.58389      2129.2081      2870.7919      2129.2081      2870.7919      2129.2081      2870.7919      4.0783158e+08  0.5            25262700       0.36872515     7441.6916      14883.384      6.459553     
  50115600   299.74932     -1.1895058     -56467880       1.6369211      892.60229     -56466988       741.58389      741.58389      741.58389      2129.2081      2870.7919      2129.2081      2870.7919      2129.2081      2870.7919      4.0783158e+08  0.5            25262800       0.38213966     7454.6072      14909.242      6.4418155    
  50115800   308.30944     -1.2329981     -56467888       1.6369211      918.09287     -56466970       741.58389      741.58389      741.58389      2129.2081      2870.7919      2129.2081      2870.7919      2129.2081      2870.7919      4.0783158e+08  0.5            25262900       0.39555741     7452.8183      14905.578      6.4244305    
  50116000   301.00563     -1.2435745     -56467896       1.6369211      896.34338     -56467000       741.58389      741.58389      741.58389      2129.2081      2870.7919      2129.2081      2870.7919      2129.2081      2870.7919      4.0783158e+08  0.5            25263000       0.40898647     7446.5287      14893.072      6.4074857    
  50116200   292.71929     -1.2134115     -56467904       1.6369211      871.66807     -56467032       741.58389      741.58389      741.58389      2129.2081      2870.7919      2129.2081      2870.7919      2129.2081      2870.7919      4.0783158e+08  0.5            25263100       0.42247145     7415.6778      14831.351      6.3916142    
  50116400   297.4837      -1.1366837     -56467911       1.6369211      885.85565     -56467025       741.58389      741.58389      741.58389      2129.2081      2870.7919      2129.2081      2870.7919      2129.2081      2870.7919      4.0783158e+08  0.5            25263200       0.43591495     7438.4943      14876.991      6.3752861    
  50116600   301.99034     -1.0246362     -56467918       1.6369211      899.27566     -56467019       741.58389      741.58389      741.58389      2129.2081      2870.7919      2129.2081      2870.7919      2129.2081      2870.7919      4.0783158e+08  0.5            25263300       0.44934402     7446.557       14893.059      6.3589279    
  50116800   302.13397     -0.9002738     -56467926       1.6369211      899.70337     -56467026       741.58389      741.58389      741.58389      2129.2081      2870.7919      2129.2081      2870.7919      2129.2081      2870.7919      4.0783158e+08  0.5            25263400       0.46277179     7447.2635      14894.572      6.3427232    
  50117000   296.21394     -0.78681989    -56467933       1.6369211      882.07452     -56467051       741.58389      741.58389      741.58389      2129.2081      2870.7919      2129.2081      2870.7919      2129.2081      2870.7919      4.0783158e+08  0.5            25263500       0.47621764     7437.2257      14874.491      6.3269177    
  50117200   288.35225     -0.68793381    -56467940       1.6369211      858.66376     -56467081       741.58389      741.58389      741.58389      2129.2081      2870.7919      2129.2081      2870.7919      2129.2081      2870.7919      4.0783158e+08  0.5            25263600       0.48965066     7444.3507      14888.664      6.3110789    
  50117400   294.69693     -0.58686036    -56467947       1.6369211      877.55715     -56467070       741.58389      741.58389      741.58389      2129.2081      2870.7919      2129.2081      2870.7919      2129.2081      2870.7919      4.0783158e+08  0.5            25263700       0.5030651      7454.6222      14909.292      6.2951371    
  50117600   314.08531     -0.47433641    -56467955       1.6369211      935.29241     -56467019       741.58389      741.58389      741.58389      2129.2081      2870.7919      2129.2081      2870.7919      2129.2081      2870.7919      4.0783158e+08  0.5            25263800       0.51649601     7445.5385      14891.019      6.2795286    
  50117800   307.01313     -0.3741307     -56467962       1.6369211      914.23269     -56467048       741.58389      741.58389      741.58389      2129.2081      2870.7919      2129.2081      2870.7919      2129.2081      2870.7919      4.0783158e+08  0.5            25263900       0.52993349     7441.8765      14883.803      6.2641092    
  50118000   297.17404     -0.29697306    -56467969       1.6369211      884.93355     -56467085       741.58389      741.58389      741.58389      2129.2081      2870.7919      2129.2081      2870.7919      2129.2081      2870.7919      4.0783158e+08  0.5            25264000       0.54336464     7445.3933      14890.777      6.248716     
  50118200   298.78172     -0.25477739    -56467977       1.6369211      889.72094     -56467087       741.58389      741.58389      741.58389      2129.2081      2870.7919      2129.2081      2870.7919      2129.2081      2870.7919      4.0783158e+08  0.5            25264100       0.55678454     7451.6331      14903.268      6.2332924    
  50118400   302.7484      -0.25187294    -56467983       1.6369211      901.53303     -56467082       741.58389      741.58389      741.58389      2129.2081      2870.7919      2129.2081      2870.7919      2129.2081      2870.7919      4.0783158e+08  0.5            25264200       0.57018839     7460.5074      14921.046      6.2177898    
  50118600   300.14088     -0.27157223    -56467990       1.6369211      893.76827     -56467096       741.58389      741.58389      741.58389      2129.2081      2870.7919      2129.2081      2870.7919      2129.2081      2870.7919      4.0783158e+08  0.5            25264300       0.58357023     7472.8245      14945.633      6.2021509    
  50118800   288.39754     -0.28543896    -56467997       1.6369211      858.79861     -56467138       741.58389      741.58389      741.58389      2129.2081      2870.7919      2129.2081      2870.7919      2129.2081      2870.7919      4.0783158e+08  0.5            25264400       0.59694006     7479.5065      14959.01       6.1864908    
  50119000   295.00206     -0.26762642    -56468003       1.6369211      878.46576     -56467125       741.58389      741.58389      741.58389      2129.2081      2870.7919      2129.2081      2870.7919      2129.2081      2870.7919      4.0783158e+08  0.5            25264500       0.61033754     7464.107       14928.134      6.1712115    
  50119200   311.66277     -0.37284706    -56469905       1.6369211      928.0785      -56468977       741.58389      741.58389      741.58389      2129.2081      2870.7919      2129.2081      2870.7919      2129.2081      2870.7919      4.0783158e+08  0.5            25264600       0.62375543     7452.7544      14905.531      6.1562142    
  50119400   307.40616     -0.36896132    -56469913       1.6369211      915.40304     -56468998       741.58389      741.58389      741.58389      2129.2081      2870.7919      2129.2081      2870.7919      2129.2081      2870.7919      4.0783158e+08  0.5            25264700       0.63715256     7464.2903      14928.614      6.141085     
  50119600   300.54213     -0.40020582    -56469921       1.6369211      894.96314     -56469026       741.58389      741.58389      741.58389      2129.2081      2870.7919      2129.2081      2870.7919      2129.2081      2870.7919      4.0783158e+08  0.5            25264800       0.65052817     7476.2582      14952.502      6.1258259    
  50119800   300.40621     -0.44573044    -56469928       1.6369211      894.5584      -56469034       741.58389      741.58389      741.58389      2129.2081      2870.7919      2129.2081      2870.7919      2129.2081      2870.7919      4.0783158e+08  0.5            25264900       0.66391312     7471.0748      14942.164      6.1107292    
  50120000   299.66454     -0.48137909    -56469936       1.6369211      892.34983     -56469044       741.58389      741.58389      741.58389      2129.2081      2870.7919      2129.2081      2870.7919      2129.2081      2870.7919      4.0783158e+08  0.5            25265000       0.67732122     7458.2133      14916.441      6.0959083    
  50120200   295.7528      -0.49546529    -56469944       1.6369211      880.70132     -56469063       741.58389      741.58389      741.58389      2129.2081      2870.7919      2129.2081      2870.7919      2129.2081      2870.7919      4.0783158e+08  0.5            25265100       0.69074227     7450.9769      14902.006      6.0812572    
  50120400   290.36254     -0.49062798    -56469951       1.6369211      864.65007     -56469086       741.58389      741.58389      741.58389      2129.2081      2870.7919      2129.2081      2870.7919      2129.2081      2870.7919      4.0783158e+08  0.5            25265200       0.70414744     7459.8179      14919.538      6.0665184    
  50120600   298.66528     -0.48318531    -56469959       1.6369211      889.37419     -56469070       741.58389      741.58389      741.58389      2129.2081      2870.7919      2129.2081      2870.7919      2129.2081      2870.7919      4.0783158e+08  0.5            25265300       0.71783838     7304.062       14608.087      6.0542397    
  50120800   314.06325     -0.50025597    -56469967       1.6369211      935.22673     -56469032       741.58389      741.58389      741.58389      2129.2081      2870.7919      2129.2081      2870.7919      2129.2081      2870.7919      4.0783158e+08  0.5            25265400       0.7312698      7445.2137      14890.434      6.0397643    
  50121000   304.23919     -0.56821942    -56469976       1.6369211      905.97235     -56469070       741.58389      741.58389      741.58389      2129.2081      2870.7919      2129.2081      2870.7919      2129.2081      2870.7919      4.0783158e+08  0.5            25265500       0.74470128     7445.1981      14890.438      6.0253268    
  50121200   295.72781     -0.6638991     -56469984       1.6369211      880.62692     -56469104       741.58389      741.58389      741.58389      2129.2081      2870.7919      2129.2081      2870.7919      2129.2081      2870.7919      4.0783158e+08  0.5            25265600       0.75811973     7452.4272      14904.85       6.0108228    
  50121400   300.36121     -0.77004403    -56469994       1.6369211      894.42439     -56469099       741.58389      741.58389      741.58389      2129.2081      2870.7919      2129.2081      2870.7919      2129.2081      2870.7919      4.0783158e+08  0.5            25265700       0.77153176     7456.0134      14912.082      5.9963058    
  50121600   304.42815     -0.86188764    -56470003       1.6369211      906.53503     -56469097       741.58389      741.58389      741.58389      2129.2081      2870.7919      2129.2081      2870.7919      2129.2081      2870.7919      4.0783158e+08  0.5            25265800       0.78493323     7461.8819      14923.715      5.9817478    
  50121800   295.99395     -0.91827195    -56470013       1.6369211      881.41944     -56469131       741.58389      741.58389      741.58389      2129.2081      2870.7919      2129.2081      2870.7919      2129.2081      2870.7919      4.0783158e+08  0.5            25265900       0.79832687     7466.2314      14932.479      5.96717      
  50122000   287.25491     -0.91260249    -56470023       1.6369211      855.39608     -56469167       741.58389      741.58389      741.58389      2129.2081      2870.7919      2129.2081      2870.7919      2129.2081      2870.7919      4.0783158e+08  0.5            25266000       0.81176108     7443.668       14887.271      5.9529299    
  50122200   301.12753     -0.86200024    -56470033       1.6369211      896.70636     -56469136       741.58389      741.58389      741.58389      2129.2081      2870.7919      2129.2081      2870.7919      2129.2081      2870.7919      4.0783158e+08  0.5            25266100       0.82587775     7083.8432      14167.737      5.9436265    
  50122400   312.80386     -0.99889261    -56471938       1.6369211      931.47648     -56471007       741.58389      741.58389      741.58389      2129.2081      2870.7919      2129.2081      2870.7919      2129.2081      2870.7919      4.0783158e+08  0.5            25266200       0.83932363     7437.1975      14874.391      5.9294296    
  50122600   308.2035      -1.1005716     -56471950       1.6369211      917.77738     -56471032       741.58389      741.58389      741.58389      2129.2081      2870.7919      2129.2081      2870.7919      2129.2081      2870.7919      4.0783158e+08  0.5            25266300       0.8527581      7443.5356      14887.053      5.9151776    
  50122800   301.63036     -1.2473355     -56471961       1.6369211      898.20371     -56471063       741.58389      741.58389      741.58389      2129.2081      2870.7919      2129.2081      2870.7919      2129.2081      2870.7919      4.0783158e+08  0.5            25266400       0.86617985     7450.6255      14901.301      5.9008633    
  50123000   295.98787     -1.3790699     -56471972       1.6369211      881.40134     -56471090       741.58389      741.58389      741.58389      2129.2081      2870.7919      2129.2081      2870.7919      2129.2081      2870.7919      4.0783158e+08  0.5            25266500       0.87995302     7260.4347      14520.887      5.8889304    
  50123200   297.12015     -1.457126      -56471982       1.6369211      884.77307     -56471097       741.58389      741.58389      741.58389      2129.2081      2870.7919      2129.2081      2870.7919      2129.2081      2870.7919      4.0783158e+08  0.5            25266600       0.89340152     7435.7918      14871.539      5.8748052    
  50123400   305.62221     -1.4926775     -56471993       1.6369211      910.09076     -56471083       741.58389      741.58389      741.58389      2129.2081      2870.7919      2129.2081      2870.7919      2129.2081      2870.7919      4.0783158e+08  0.5            25266700       0.90682131     7451.6992      14903.432      5.8605146    
  50123600   311.19329     -1.5243426     -56472004       1.6369211      926.68049     -56471077       741.58389      741.58389      741.58389      2129.2081      2870.7919      2129.2081      2870.7919      2129.2081      2870.7919      4.0783158e+08  0.5            25266800       0.92031007     7413.5557      14827.094      5.8466887    
  50123800   296.88626     -1.5798808     -56472015       1.6369211      884.07657     -56471131       741.58389      741.58389      741.58389      2129.2081      2870.7919      2129.2081      2870.7919      2129.2081      2870.7919      4.0783158e+08  0.5            25266900       0.9337538      7438.419       14876.786      5.8325911    
  50124000   294.4342      -1.6572368     -56472027       1.6369211      876.77478     -56471150       741.58389      741.58389      741.58389      2129.2081      2870.7919      2129.2081      2870.7919      2129.2081      2870.7919      4.0783158e+08  0.5            25267000       0.94722998     7420.5175      14841.14       5.8187107    
  50124200   302.80173     -1.7216103     -56472037       1.6369211      901.69183     -56471135       741.58389      741.58389      741.58389      2129.2081      2870.7919      2129.2081      2870.7919      2129.2081      2870.7919      4.0783158e+08  0.5            25267100       0.9606806      7434.5971      14869.135      5.804688     
  50124400   310.33712     -1.7524384     -56472047       1.6369211      924.13094     -56471122       741.58389      741.58389      741.58389      2129.2081      2870.7919      2129.2081      2870.7919      2129.2081      2870.7919      4.0783158e+08  0.5            25267200       0.97412974     7435.4163      14870.868      5.7906718    
  50124600   296.67251     -1.7482714     -56472056       1.6369211      883.44006     -56471173       741.58389      741.58389      741.58389      2129.2081      2870.7919      2129.2081      2870.7919      2129.2081      2870.7919      4.0783158e+08  0.5            25267300       0.98754552     7453.9104      14907.821      5.7764764    
  50124800   291.67224     -1.7700295     -56472067       1.6369211      868.55011     -56471198       741.58389      741.58389      741.58389      2129.2081      2870.7919      2129.2081      2870.7919      2129.2081      2870.7919      4.0783158e+08  0.5            25267400       1.0009605      7454.3844      14908.723      5.7622976    
  50125000   302.91558     -1.8468972     -56472078       1.6369211      902.03088     -56471176       741.58389      741.58389      741.58389      2129.2081      2870.7919      2129.2081      2870.7919      2129.2081      2870.7919      4.0783158e+08  0.5            25267500       1.0143938      7444.2         14888.307      5.7482816    
  50125200   311.73743     -2.2766423     -56479467       1.6369211      928.30082     -56478539       741.58389      741.58389      741.58389      2129.2081      2870.7919      2129.2081      2870.7919      2129.2081      2870.7919      4.0783158e+08  0.5            25267600       1.0278694      7420.7879      14841.76       5.7344404    
  50125400   293.82174     -2.4169816     -56479477       1.6369211      874.95098     -56478602       741.58389      741.58389      741.58389      2129.2081      2870.7919      2129.2081      2870.7919      2129.2081      2870.7919      4.0783158e+08  0.5            25267700       1.0413043      7443.32        14886.545      5.7204228    
  50125600   292.59748     -2.5898627     -56479487       1.6369211      871.30533     -56478616       741.58389      741.58389      741.58389      2129.2081      2870.7919      2129.2081      2870.7919      2129.2081      2870.7919      4.0783158e+08  0.5            25267800       1.0547341      7446.0979      14892.204      5.7063929    
  50125800   304.54143     -2.739196      -56479498       1.6369211      906.87238     -56478591       741.58389      741.58389      741.58389      2129.2081      2870.7919      2129.2081      2870.7919      2129.2081      2870.7919      4.0783158e+08  0.5            25267900       1.0681584      7449.193       14898.327      5.6923486    
  50126000   308.64897     -2.8341785     -56479509       1.6369211      919.10392     -56478590       741.58389      741.58389      741.58389      2129.2081      2870.7919      2129.2081      2870.7919      2129.2081      2870.7919      4.0783158e+08  0.5            25268000       1.0816116      7433.1846      14866.421      5.6784713    
  50126200   291.71266     -2.8671939     -56479519       1.6369211      868.6705      -56478651       741.58389      741.58389      741.58389      2129.2081      2870.7919      2129.2081      2870.7919      2129.2081      2870.7919      4.0783158e+08  0.5            25268100       1.0950551      7438.559       14877.042      5.6645547    
  50126400   293.50519     -2.862559      -56479531       1.6369211      874.00832     -56478657       741.58389      741.58389      741.58389      2129.2081      2870.7919      2129.2081      2870.7919      2129.2081      2870.7919      4.0783158e+08  0.5            25268200       1.108496       7439.9326      14879.916      5.6506363    
  50126600   304.16061     -2.9105202     -56479543       1.6369211      905.73835     -56478637       741.58389      741.58389      741.58389      2129.2081      2870.7919      2129.2081      2870.7919      2129.2081      2870.7919      4.0783158e+08  0.5            25268300       1.1219608      7426.8046      14853.654      5.6368491    
  50126800   306.20199     -3.0140095     -56479556       1.6369211      911.81723     -56478644       741.58389      741.58389      741.58389      2129.2081      2870.7919      2129.2081      2870.7919      2129.2081      2870.7919      4.0783158e+08  0.5            25268400       1.1356403      7310.2039      14620.424      5.6241332    
  50127000   291.39809     -3.0816524     -56479568       1.6369211      867.73376     -56478701       741.58389      741.58389      741.58389      2129.2081      2870.7919      2129.2081      2870.7919      2129.2081      2870.7919      4.0783158e+08  0.5            25268500       1.1491142      7421.7743      14843.562      5.6103906    
  50127200   292.42531     -2.7056481     -56472203       1.6369211      870.79265     -56471332       741.58389      741.58389      741.58389      2129.2081      2870.7919      2129.2081      2870.7919      2129.2081      2870.7919      4.0783158e+08  0.5            25268600       1.162557       7438.8893      14877.73       5.5965053    
  50127400   302.38842     -2.6332794     -56472217       1.6369211      900.46109     -56471316       741.58389      741.58389      741.58389      2129.2081      2870.7919      2129.2081      2870.7919      2129.2081      2870.7919      4.0783158e+08  0.5            25268700       1.1760232      7426.0556      14852.129      5.58274      
  50127600   305.87773     -2.6348238     -56472231       1.6369211      910.85164     -56471320       741.58389      741.58389      741.58389      2129.2081      2870.7919      2129.2081      2870.7919      2129.2081      2870.7919      4.0783158e+08  0.5            25268800       1.1894838      7429.096       14858.149      5.568956     
  50127800   296.14518     -2.6434015     -56472244       1.6369211      881.86979     -56471362       741.58389      741.58389      741.58389      2129.2081      2870.7919      2129.2081      2870.7919      2129.2081      2870.7919      4.0783158e+08  0.5            25268900       1.2029301      7436.9696      14873.99       5.5551132    
  50128000   291.72996     -2.5895225     -56472256       1.6369211      868.722       -56471388       741.58389      741.58389      741.58389      2129.2081      2870.7919      2129.2081      2870.7919      2129.2081      2870.7919      4.0783158e+08  0.5            25269000       1.2163714      7439.74        14879.38       5.5412568    
  50128200   300.30357     -2.4355604     -56472268       1.6369211      894.25275     -56471374       741.58389      741.58389      741.58389      2129.2081      2870.7919      2129.2081      2870.7919      2129.2081      2870.7919      4.0783158e+08  0.5            25269100       1.229823       7434.0339      14868.177      5.5274552    
  50128400   304.5866      -2.3034074     -56472281       1.6369211      907.00689     -56471374       741.58389      741.58389      741.58389      2129.2081      2870.7919      2129.2081      2870.7919      2129.2081      2870.7919      4.0783158e+08  0.5            25269200       1.2432587      7442.8796      14885.706      5.5135908    
  50128600   302.29168     -2.2337706     -56472294       1.6369211      900.173       -56471394       741.58389      741.58389      741.58389      2129.2081      2870.7919      2129.2081      2870.7919      2129.2081      2870.7919      4.0783158e+08  0.5            25269300       1.2566913      7444.5846      14889.186      5.4997221    
  50128800   296.2922      -2.1916018     -56472308       1.6369211      882.30759     -56471425       741.58389      741.58389      741.58389      2129.2081      2870.7919      2129.2081      2870.7919      2129.2081      2870.7919      4.0783158e+08  0.5            25269400       1.2701072      7453.816       14907.582      5.485791     
  50129000   295.03979     -2.1028682     -56472320       1.6369211      878.57812     -56471442       741.58389      741.58389      741.58389      2129.2081      2870.7919      2129.2081      2870.7919      2129.2081      2870.7919      4.0783158e+08  0.5            25269500       1.2835488      7439.5938      14879.209      5.4719798    
  50129200   301.56436     -1.9336747     -56472332       1.6369211      898.00718     -56471434       741.58389      741.58389      741.58389      2129.2081      2870.7919      2129.2081      2870.7919      2129.2081      2870.7919      4.0783158e+08  0.5            25269600       1.296968       7452.0341      14904.131      5.4580818    
  50129400   311.09404     -1.7098594     -56472344       1.6369211      926.38492     -56471418       741.58389      741.58389      741.58389      2129.2081      2870.7919      2129.2081      2870.7919      2129.2081      2870.7919      4.0783158e+08  0.5            25269700       1.3104177      7435.0869      14870.157      5.4443208    
  50129600   301.51504     -1.6183602     -56472724       1.6369211      897.8603      -56471826       741.58389      741.58389      741.58389      2129.2081      2870.7919      2129.2081      2870.7919      2129.2081      2870.7919      4.0783158e+08  0.5            25269800       1.3238711      7433.084       14866.178      5.4305812    
  50129800   294.00662     -1.485249      -56472736       1.6369211      875.5015      -56471861       741.58389      741.58389      741.58389      2129.2081      2870.7919      2129.2081      2870.7919      2129.2081      2870.7919      4.0783158e+08  0.5            25269900       1.3373203      7435.3953      14870.784      5.4168301    
  50130000   299.46656     -1.3965906     -56472748       1.6369211      891.76027     -56471856       741.58389      741.58389      741.58389      2129.2081      2870.7919      2129.2081      2870.7919      2129.2081      2870.7919      4.0783158e+08  0.5            25270000       1.3507749      7432.3857      14864.791      5.4031073    
  50130200   308.99169     -1.335536      -56472759       1.6369211      920.12447     -56471839       741.58389      741.58389      741.58389      2129.2081      2870.7919      2129.2081      2870.7919      2129.2081      2870.7919      4.0783158e+08  0.5            25270100       1.3642197      7437.8248      14875.626      5.3893509    
  50130400   304.33632     -1.280021      -56472770       1.6369211      906.26159     -56471864       741.58389      741.58389      741.58389      2129.2081      2870.7919      2129.2081      2870.7919      2129.2081      2870.7919      4.0783158e+08  0.5            25270200       1.377685       7426.4946      14852.943      5.3756806    
  50130600   291.51188     -1.5391042     -56480158       1.6369211      868.07261     -56479290       741.58389      741.58389      741.58389      2129.2081      2870.7919      2129.2081      2870.7919      2129.2081      2870.7919      4.0783158e+08  0.5            25270300       1.3911068      7450.5594      14901.198      5.3618463    
  50130800   297.14549     -1.4456215     -56480167       1.6369211      884.84854     -56479282       741.58389      741.58389      741.58389      2129.2081      2870.7919      2129.2081      2870.7919      2129.2081      2870.7919      4.0783158e+08  0.5            25270400       1.4045329      7448.1921      14896.355      5.3480365    
  50131000   309.76506     -1.3602128     -56480176       1.6369211      922.42746     -56479253       741.58389      741.58389      741.58389      2129.2081      2870.7919      2129.2081      2870.7919      2129.2081      2870.7919      4.0783158e+08  0.5            25270500       1.417998       7426.6038      14853.255      5.3343804    
  50131200   305.33233     -1.3204352     -56480184       1.6369211      909.22755     -56479275       741.58389      741.58389      741.58389      2129.2081      2870.7919      2129.2081      2870.7919      2129.2081      2870.7919      4.0783158e+08  0.5            25270600       1.4314486      7434.6391      14869.256      5.3206744    
  50131400   289.2392      -1.3169097     -56480192       1.6369211      861.30495     -56479330       741.58389      741.58389      741.58389      2129.2081      2870.7919      2129.2081      2870.7919      2129.2081      2870.7919      4.0783158e+08  0.5            25270700       1.4448831      7443.5284      14886.995      5.3069142    
  50131600   297.65175     -1.2952402     -56480199       1.6369211      886.35609     -56479313       741.58389      741.58389      741.58389      2129.2081      2870.7919      2129.2081      2870.7919      2129.2081      2870.7919      4.0783158e+08  0.5            25270800       1.4583222      7440.9518      14881.963      5.2931764    
  50131800   308.45259     -1.2602249     -56480206       1.6369211      918.51914     -56479288       741.58389      741.58389      741.58389      2129.2081      2870.7919      2129.2081      2870.7919      2129.2081      2870.7919      4.0783158e+08  0.5            25270900       1.4717559      7443.945       14887.849      5.279425     
  50132000   302.38408     -1.2364788     -56480214       1.6369211      900.44815     -56479313       741.58389      741.58389      741.58389      2129.2081      2870.7919      2129.2081      2870.7919      2129.2081      2870.7919      4.0783158e+08  0.5            25271000       1.4852087      7433.373       14866.754      5.2657471    
  50132200   287.40174     -1.2206186     -56480221       1.6369211      855.83329     -56479365       741.58389      741.58389      741.58389      2129.2081      2870.7919      2129.2081      2870.7919      2129.2081      2870.7919      4.0783158e+08  0.5            25271100       1.498659       7434.7939      14869.558      5.2520642    
  50132400   295.17027     -1.168835      -56480228       1.6369211      878.96665     -56479349       741.58389      741.58389      741.58389      2129.2081      2870.7919      2129.2081      2870.7919      2129.2081      2870.7919      4.0783158e+08  0.5            25271200       1.5123072      7326.9778      14653.993      5.2390713    
  50132600   304.47732     -0.74987474    -56472858       1.6369211      906.68147     -56471951       741.58389      741.58389      741.58389      2129.2081      2870.7919      2129.2081      2870.7919      2129.2081      2870.7919      4.0783158e+08  0.5            25271300       1.5257665      7429.8284      14859.613      5.2254195    
  50132800   304.27665     -0.6542371     -56472865       1.6369211      906.08389     -56471959       741.58389      741.58389      741.58389      2129.2081      2870.7919      2129.2081      2870.7919      2129.2081      2870.7919      4.0783158e+08  0.5            25271400       1.5391904      7449.3789      14898.741      5.2116515    
  50133000   290.38891     -0.58799859    -56472872       1.6369211      864.7286      -56472007       741.58389      741.58389      741.58389      2129.2081      2870.7919      2129.2081      2870.7919      2129.2081      2870.7919      4.0783158e+08  0.5            25271500       1.5526271      7442.3157      14884.697      5.1979321    
  50133200   287.85944     -0.5821157     -56472878       1.6369211      857.19626     -56472021       741.58389      741.58389      741.58389      2129.2081      2870.7919      2129.2081      2870.7919      2129.2081      2870.7919      4.0783158e+08  0.5            25271600       1.5660371      7457.1221      14914.225      5.1841293    
  50133400   313.79022     -0.58697242    -56472886       1.6369211      934.41368     -56471952       741.58389      741.58389      741.58389      2129.2081      2870.7919      2129.2081      2870.7919      2129.2081      2870.7919      4.0783158e+08  0.5            25271700       1.5794561      7452.1085      14904.242      5.1703626    
  50133600   313.17509     -0.58533979    -56472895       1.6369211      932.58193     -56471962       741.58389      741.58389      741.58389      2129.2081      2870.7919      2129.2081      2870.7919      2129.2081      2870.7919      4.0783158e+08  0.5            25271800       1.5928808      7448.9771      14897.942      5.1566203    
  50133800   299.50101     -0.5760466     -56472903       1.6369211      891.86285     -56472011       741.58389      741.58389      741.58389      2129.2081      2870.7919      2129.2081      2870.7919      2129.2081      2870.7919      4.0783158e+08  0.5            25271900       1.6062886      7458.354       14916.68       5.1428294    
  50134000   294.23106     -0.5871186     -56472910       1.6369211      876.16985     -56472034       741.58389      741.58389      741.58389      2129.2081      2870.7919      2129.2081      2870.7919      2129.2081      2870.7919      4.0783158e+08  0.5            25272000       1.6197472      7430.158       14860.355      5.1292057    
  50134200   299.84557     -0.66745507    -56472917       1.6369211      892.88891     -56472024       741.58389      741.58389      741.58389      2129.2081      2870.7919      2129.2081      2870.7919      2129.2081      2870.7919      4.0783158e+08  0.5            25272100       1.6331884      7439.8579      14879.675      5.1155301    
  50134400   311.32902     -0.7423095     -56472924       1.6369211      927.08466     -56471997       741.58389      741.58389      741.58389      2129.2081      2870.7919      2129.2081      2870.7919      2129.2081      2870.7919      4.0783158e+08  0.5            25272200       1.6466289      7440.1916      14880.486      5.1018558    
  50134600   305.97778     -0.75136576    -56472931       1.6369211      911.14958     -56472020       741.58389      741.58389      741.58389      2129.2081      2870.7919      2129.2081      2870.7919      2129.2081      2870.7919      4.0783158e+08  0.5            25272300       1.6600519      7449.8706      14899.655      5.0881327    
  50134800   291.22847     -0.70502332    -56472938       1.6369211      867.22867     -56472071       741.58389      741.58389      741.58389      2129.2081      2870.7919      2129.2081      2870.7919      2129.2081      2870.7919      4.0783158e+08  0.5            25272400       1.6734712      7451.9691      14903.947      5.0744023    
  50135000   297.26584     -0.66466172    -56472945       1.6369211      885.20691     -56472060       741.58389      741.58389      741.58389      2129.2081      2870.7919      2129.2081      2870.7919      2129.2081      2870.7919      4.0783158e+08  0.5            25272500       1.6868899      7452.299       14904.512      5.0606755    
  50135200   308.50214     -0.6632395     -56472953       1.6369211      918.66669     -56472034       741.58389      741.58389      741.58389      2129.2081      2870.7919      2129.2081      2870.7919      2129.2081      2870.7919      4.0783158e+08  0.5            25272600       1.7003009      7456.5666      14913.231      5.0469304    
  50135400   303.46252     -0.65284173    -56472960       1.6369211      903.65956     -56472057       741.58389      741.58389      741.58389      2129.2081      2870.7919      2129.2081      2870.7919      2129.2081      2870.7919      4.0783158e+08  0.5            25272700       1.7137215      7451.205       14902.435      5.0332192    
  50135600   287.12841     -0.61685889    -56472967       1.6369211      855.01938     -56472112       741.58389      741.58389      741.58389      2129.2081      2870.7919      2129.2081      2870.7919      2129.2081      2870.7919      4.0783158e+08  0.5            25272800       1.7271512      7446.1988      14892.352      5.0195389    
  50135800   296.84667     -0.57565019    -56472974       1.6369211      883.95869     -56472090       741.58389      741.58389      741.58389      2129.2081      2870.7919      2129.2081      2870.7919      2129.2081      2870.7919      4.0783158e+08  0.5            25272900       1.7405818      7445.6555      14891.32       5.0058651    
  50136000   307.304       -0.55080913    -56472981       1.6369211      915.09882     -56472066       741.58389      741.58389      741.58389      2129.2081      2870.7919      2129.2081      2870.7919      2129.2081      2870.7919      4.0783158e+08  0.5            25273000       1.7540146      7444.5014      14889.059      4.9922007    
  50136200   303.39652     -0.53920367    -56472988       1.6369211      903.46304     -56472084       741.58389      741.58389      741.58389      2129.2081      2870.7919      2129.2081      2870.7919      2129.2081      2870.7919      4.0783158e+08  0.5            25273100       1.7674546      7440.4862      14880.972      4.9785604    
  50136400   289.94328     -0.52674595    -56472994       1.6369211      863.40158     -56472130       741.58389      741.58389      741.58389      2129.2081      2870.7919      2129.2081      2870.7919      2129.2081      2870.7919      4.0783158e+08  0.5            25273200       1.7808914      7442.2415      14884.428      4.9649147    
  50136600   292.69974     -0.51736702    -56473000       1.6369211      871.60984     -56472128       741.58389      741.58389      741.58389      2129.2081      2870.7919      2129.2081      2870.7919      2129.2081      2870.7919      4.0783158e+08  0.5            25273300       1.7943379      7436.8795      14873.715      4.9512987    
  50136800   322.75924     -0.54345795    -56473006       1.6369211      961.1219      -56472045       741.58389      741.58389      741.58389      2129.2081      2870.7919      2129.2081      2870.7919      2129.2081      2870.7919      4.0783158e+08  0.5            25273400       1.8077864      7435.7514      14871.526      4.9376906    
  50137000   313.09082     -0.62692434    -56473013       1.6369211      932.331       -56472080       741.58389      741.58389      741.58389      2129.2081      2870.7919      2129.2081      2870.7919      2129.2081      2870.7919      4.0783158e+08  0.5            25273500       1.8212738      7414.339       14828.645      4.9241901    
  50137200   296.92503     -0.72186018    -56473019       1.6369211      884.19205     -56472134       741.58389      741.58389      741.58389      2129.2081      2870.7919      2129.2081      2870.7919      2129.2081      2870.7919      4.0783158e+08  0.5            25273600       1.8347071      7444.1761      14888.418      4.9105448    
  50137400   293.46882     -0.82437167    -56473024       1.6369211      873.90004     -56472150       741.58389      741.58389      741.58389      2129.2081      2870.7919      2129.2081      2870.7919      2129.2081      2870.7919      4.0783158e+08  0.5            25273700       1.8481338      7447.8487      14895.656      4.8968853    
  50137600   302.1379      -0.96091984    -56473029       1.6369211      899.71508     -56472129       741.58389      741.58389      741.58389      2129.2081      2870.7919      2129.2081      2870.7919      2129.2081      2870.7919      4.0783158e+08  0.5            25273800       1.8615516      7452.8071      14905.663      4.8832055    
  50137800   310.67746     -1.1494572     -56473033       1.6369211      925.14442     -56472108       741.58389      741.58389      741.58389      2129.2081      2870.7919      2129.2081      2870.7919      2129.2081      2870.7919      4.0783158e+08  0.5            25273900       1.874968       7453.481       14906.932      4.8695266    
  50138000   297.38132     -1.379188      -56473037       1.6369211      885.55079     -56472151       741.58389      741.58389      741.58389      2129.2081      2870.7919      2129.2081      2870.7919      2129.2081      2870.7919      4.0783158e+08  0.5            25274000       1.888403       7443.2735      14886.546      4.8558986    
  50138200   288.78679     -1.5926593     -56473041       1.6369211      859.95774     -56472181       741.58389      741.58389      741.58389      2129.2081      2870.7919      2129.2081      2870.7919      2129.2081      2870.7919      4.0783158e+08  0.5            25274100       1.9018219      7452.2084      14904.487      4.8422322    
  50138400   298.96911     -1.7608747     -56473045       1.6369211      890.27896     -56472155       741.58389      741.58389      741.58389      2129.2081      2870.7919      2129.2081      2870.7919      2129.2081      2870.7919      4.0783158e+08  0.5            25274200       1.9152508      7446.6474      14893.208      4.8285949    
  50138600   305.51279     -1.899017      -56473050       1.6369211      909.76493     -56472140       741.58389      741.58389      741.58389      2129.2081      2870.7919      2129.2081      2870.7919      2129.2081      2870.7919      4.0783158e+08  0.5            25274300       1.9287165      7426.2663      14852.544      4.8150524    
  50138800   302.18916     -2.0186639     -56473054       1.6369211      899.86771     -56472154       741.58389      741.58389      741.58389      2129.2081      2870.7919      2129.2081      2870.7919      2129.2081      2870.7919      4.0783158e+08  0.5            25274400       1.9421576      7439.8745      14879.746      4.80145      
  50139000   297.38396     -2.1123109     -56473059       1.6369211      885.55864     -56472173       741.58389      741.58389      741.58389      2129.2081      2870.7919      2129.2081      2870.7919      2129.2081      2870.7919      4.0783158e+08  0.5            25274500       1.9558359      7310.8105      14621.655      4.7884308    
  50139200   298.55404     -2.1762508     -56473063       1.6369211      889.04295     -56472174       741.58389      741.58389      741.58389      2129.2081      2870.7919      2129.2081      2870.7919      2129.2081      2870.7919      4.0783158e+08  0.5            25274600       1.9692465      7456.8068      14913.597      4.7747532    
  50139400   300.82035     -2.2188576     -56473067       1.6369211      895.79164     -56472171       741.58389      741.58389      741.58389      2129.2081      2870.7919      2129.2081      2870.7919      2129.2081      2870.7919      4.0783158e+08  0.5            25274700       1.9826661      7451.7975      14903.577      4.7611008    
  50139600   301.2261      -2.2489505     -56473071       1.6369211      896.99989     -56472174       741.58389      741.58389      741.58389      2129.2081      2870.7919      2129.2081      2870.7919      2129.2081      2870.7919      4.0783158e+08  0.5            25274800       1.9960778      7456.1763      14912.392      4.7474329    
  50139800   297.52131     -2.263527      -56473075       1.6369211      885.96766     -56472189       741.58389      741.58389      741.58389      2129.2081      2870.7919      2129.2081      2870.7919      2129.2081      2870.7919      4.0783158e+08  0.5            25274900       2.009477       7463.0826      14926.146      4.7337391    
  50140000   290.92907     -2.257106      -56473079       1.6369211      866.33709     -56472212       741.58389      741.58389      741.58389      2129.2081      2870.7919      2129.2081      2870.7919      2129.2081      2870.7919      4.0783158e+08  0.5            25275000       2.0229322      7432.0985      14864.196      4.7201798    
  50140200   296.12318     -2.2364984     -56473082       1.6369211      881.80426     -56472200       741.58389      741.58389      741.58389      2129.2081      2870.7919      2129.2081      2870.7919      2129.2081      2870.7919      4.0783158e+08  0.5            25275100       2.0363361      7460.5514      14921.191      4.7065029    
  50140400   312.24711     -2.2158213     -56473086       1.6369211      929.81858     -56472156       741.58389      741.58389      741.58389      2129.2081      2870.7919      2129.2081      2870.7919      2129.2081      2870.7919      4.0783158e+08  0.5            25275200       2.049756       7451.5698      14903.074      4.6928668    
  50140600   306.28177     -2.2069555     -56473089       1.6369211      912.05482     -56472177       741.58389      741.58389      741.58389      2129.2081      2870.7919      2129.2081      2870.7919      2129.2081      2870.7919      4.0783158e+08  0.5            25275300       2.0631488      7466.7565      14933.525      4.6791717    
  50140800   294.1428      -2.1922692     -56473093       1.6369211      875.90703     -56472217       741.58389      741.58389      741.58389      2129.2081      2870.7919      2129.2081      2870.7919      2129.2081      2870.7919      4.0783158e+08  0.5            25275400       2.0765612      7455.7605      14911.43       4.6655251    
  50141000   297.26258     -2.1643573     -56473097       1.6369211      885.19721     -56472211       741.58389      741.58389      741.58389      2129.2081      2870.7919      2129.2081      2870.7919      2129.2081      2870.7919      4.0783158e+08  0.5            25275500       2.0899956      7443.5677      14887.241      4.65193      
  50141200   303.20056     -2.1340389     -56473100       1.6369211      902.8795      -56472197       741.58389      741.58389      741.58389      2129.2081      2870.7919      2129.2081      2870.7919      2129.2081      2870.7919      4.0783158e+08  0.5            25275600       2.1034402      7437.9023      14875.785      4.6383597    
  50141400   303.29912     -2.1072879     -56473104       1.6369211      903.17298     -56472201       741.58389      741.58389      741.58389      2129.2081      2870.7919      2129.2081      2870.7919      2129.2081      2870.7919      4.0783158e+08  0.5            25275700       2.1168662      7448.2986      14896.534      4.6247502    
  50141600   287.42636     -2.087137      -56473107       1.6369211      855.90661     -56472251       741.58389      741.58389      741.58389      2129.2081      2870.7919      2129.2081      2870.7919      2129.2081      2870.7919      4.0783158e+08  0.5            25275800       2.1303224      7431.4733      14862.955      4.6112085    
  50141800   287.86275     -2.0534078     -56473110       1.6369211      857.20612     -56472253       741.58389      741.58389      741.58389      2129.2081      2870.7919      2129.2081      2870.7919      2129.2081      2870.7919      4.0783158e+08  0.5            25275900       2.143759       7442.3418      14884.722      4.5976258    
  50142000   304.82697     -1.9956782     -56473114       1.6369211      907.72267     -56472206       741.58389      741.58389      741.58389      2129.2081      2870.7919      2129.2081      2870.7919      2129.2081      2870.7919      4.0783158e+08  0.5            25276000       2.1571857      7447.8648      14895.683      4.5840239    
  50142200   305.44619     -1.9212451     -56473117       1.6369211      909.5666      -56472207       741.58389      741.58389      741.58389      2129.2081      2870.7919      2129.2081      2870.7919      2129.2081      2870.7919      4.0783158e+08  0.5            25276100       2.1706078      7450.3934      14900.885      4.5704142    
  50142400   298.4382      -1.8274644     -56473119       1.6369211      888.69801     -56472231       741.58389      741.58389      741.58389      2129.2081      2870.7919      2129.2081      2870.7919      2129.2081      2870.7919      4.0783158e+08  0.5            25276200       2.1840389      7445.4576      14890.841      4.5568258    
  50142600   294.51878     -1.7266397     -56473122       1.6369211      877.02664     -56472245       741.58389      741.58389      741.58389      2129.2081      2870.7919      2129.2081      2870.7919      2129.2081      2870.7919      4.0783158e+08  0.5            25276300       2.1975079      7424.4418      14848.89       4.5433179    
  50142800   303.64277     -1.6302649     -56473124       1.6369211      904.19631     -56472220       741.58389      741.58389      741.58389      2129.2081      2870.7919      2129.2081      2870.7919      2129.2081      2870.7919      4.0783158e+08  0.5            25276400       2.2109616      7432.8813      14865.733      4.529779     
  50143000   318.11407     -1.52091       -56473126       1.6369211      947.28939     -56472179       741.58389      741.58389      741.58389      2129.2081      2870.7919      2129.2081      2870.7919      2129.2081      2870.7919      4.0783158e+08  0.5            25276500       2.2244661      7404.949       14809.884      4.5163443    
  50143200   302.23929     -1.4033514     -56473128       1.6369211      900.01701     -56472228       741.58389      741.58389      741.58389      2129.2081      2870.7919      2129.2081      2870.7919      2129.2081      2870.7919      4.0783158e+08  0.5            25276600       2.2379136      7436.3309      14872.687      4.5027939    
  50143400   295.09734     -1.2632433     -56473131       1.6369211      878.7495      -56472252       741.58389      741.58389      741.58389      2129.2081      2870.7919      2129.2081      2870.7919      2129.2081      2870.7919      4.0783158e+08  0.5            25276700       2.2513576      7438.284       14876.548      4.4892378    
  50143600   299.37825     -1.1056144     -56473134       1.6369211      891.49731     -56472242       741.58389      741.58389      741.58389      2129.2081      2870.7919      2129.2081      2870.7919      2129.2081      2870.7919      4.0783158e+08  0.5            25276800       2.2648197      7428.2621      14856.569      4.4757188    
  50143800   306.97638     -0.9772133     -56473136       1.6369211      914.12323     -56472222       741.58389      741.58389      741.58389      2129.2081      2870.7919      2129.2081      2870.7919      2129.2081      2870.7919      4.0783158e+08  0.5            25276900       2.2782612      7439.6038      14879.264      4.4621602    
  50144000   305.70407     -0.91012499    -56473138       1.6369211      910.33453     -56472228       741.58389      741.58389      741.58389      2129.2081      2870.7919      2129.2081      2870.7919      2129.2081      2870.7919      4.0783158e+08  0.5            25277000       2.2917166      7431.9637      14863.884      4.4486301    
  50144200   289.3608      -0.90420395    -56473140       1.6369211      861.66706     -56472278       741.58389      741.58389      741.58389      2129.2081      2870.7919      2129.2081      2870.7919      2129.2081      2870.7919      4.0783158e+08  0.5            25277100       2.305184       7425.3515      14850.701      4.4351238    
  50144400   292.4003      -0.8993682     -56473141       1.6369211      870.71815     -56472271       741.58389      741.58389      741.58389      2129.2081      2870.7919      2129.2081      2870.7919      2129.2081      2870.7919      4.0783158e+08  0.5            25277200       2.318677       7411.2646      14822.518      4.4216667    
  50144600   307.43502     -0.82366793    -56473143       1.6369211      915.489       -56472228       741.58389      741.58389      741.58389      2129.2081      2870.7919      2129.2081      2870.7919      2129.2081      2870.7919      4.0783158e+08  0.5            25277300       2.332153       7420.6134      14841.232      4.4081771    
  50144800   306.53882     -0.72063098    -56473146       1.6369211      912.82026     -56472233       741.58389      741.58389      741.58389      2129.2081      2870.7919      2129.2081      2870.7919      2129.2081      2870.7919      4.0783158e+08  0.5            25277400       2.345647       7410.6467      14821.307      4.3947216    
  50145000   299.86178     -0.6799797     -56473148       1.6369211      892.93719     -56472255       741.58389      741.58389      741.58389      2129.2081      2870.7919      2129.2081      2870.7919      2129.2081      2870.7919      4.0783158e+08  0.5            25277500       2.3591355      7413.7695      14827.52       4.3812552    
  50145200   298.64102     -0.70680193    -56473150       1.6369211      889.30196     -56472261       741.58389      741.58389      741.58389      2129.2081      2870.7919      2129.2081      2870.7919      2129.2081      2870.7919      4.0783158e+08  0.5            25277600       2.3728236      7305.5571      14611.124      4.3681563    
  50145400   300.29822     -0.76668689    -56473153       1.6369211      894.23683     -56472258       741.58389      741.58389      741.58389      2129.2081      2870.7919      2129.2081      2870.7919      2129.2081      2870.7919      4.0783158e+08  0.5            25277700       2.386279       7431.9814      14863.929      4.3546258    
  50145600   301.82157     -0.79218022    -56473155       1.6369211      898.77309     -56472256       741.58389      741.58389      741.58389      2129.2081      2870.7919      2129.2081      2870.7919      2129.2081      2870.7919      4.0783158e+08  0.5            25277800       2.3997431      7427.167       14854.282      4.341112     
  50145800   297.89095     -0.74754546    -56473158       1.6369211      887.06837     -56472271       741.58389      741.58389      741.58389      2129.2081      2870.7919      2129.2081      2870.7919      2129.2081      2870.7919      4.0783158e+08  0.5            25277900       2.4131868      7438.466       14876.951      4.327562     
  50146000   292.93088     -0.64994634    -56473162       1.6369211      872.29813     -56472289       741.58389      741.58389      741.58389      2129.2081      2870.7919      2129.2081      2870.7919      2129.2081      2870.7919      4.0783158e+08  0.5            25278000       2.4266769      7412.8473      14825.729      4.3140957    
  50146200   299.86244     -0.5486413     -56473165       1.6369211      892.93916     -56472272       741.58389      741.58389      741.58389      2129.2081      2870.7919      2129.2081      2870.7919      2129.2081      2870.7919      4.0783158e+08  0.5            25278100       2.4401103      7444.0985      14888.21       4.3005293    
  50146400   310.75502     -0.46489024    -56473169       1.6369211      925.37538     -56472243       741.58389      741.58389      741.58389      2129.2081      2870.7919      2129.2081      2870.7919      2129.2081      2870.7919      4.0783158e+08  0.5            25278200       2.4535715      7428.7726      14857.564      4.2870129    
  50146600   301.96579     -0.41114128    -56473172       1.6369211      899.20255     -56472273       741.58389      741.58389      741.58389      2129.2081      2870.7919      2129.2081      2870.7919      2129.2081      2870.7919      4.0783158e+08  0.5            25278300       2.4669982      7447.8387      14895.625      4.2734375    
  50146800   288.80659     -0.362221      -56473175       1.6369211      860.01672     -56472315       741.58389      741.58389      741.58389      2129.2081      2870.7919      2129.2081      2870.7919      2129.2081      2870.7919      4.0783158e+08  0.5            25278400       2.4804256      7447.4665      14894.973      4.2598646    
  50147000   296.32098     -0.30234534    -56473179       1.6369211      882.39328     -56472296       741.58389      741.58389      741.58389      2129.2081      2870.7919      2129.2081      2870.7919      2129.2081      2870.7919      4.0783158e+08  0.5            25278500       2.4938687      7438.7621      14877.522      4.2463202    
  50147200   304.11693     -0.27194777    -56473182       1.6369211      905.6083      -56472276       741.58389      741.58389      741.58389      2129.2081      2870.7919      2129.2081      2870.7919      2129.2081      2870.7919      4.0783158e+08  0.5            25278600       2.5072873      7452.3245      14904.602      4.2327356    
  50147400   303.08146     -0.28106332    -56473185       1.6369211      902.52485     -56472283       741.58389      741.58389      741.58389      2129.2081      2870.7919      2129.2081      2870.7919      2129.2081      2870.7919      4.0783158e+08  0.5            25278700       2.5207196      7444.7486      14889.549      4.2191756    
  50147600   295.22123     -0.28831856    -56473189       1.6369211      879.11841     -56472310       741.58389      741.58389      741.58389      2129.2081      2870.7919      2129.2081      2870.7919      2129.2081      2870.7919      4.0783158e+08  0.5            25278800       2.5341534      7443.9179      14887.828      4.2056194    
  50147800   277.69715     -0.30752913    -56473193       1.6369211      826.93468     -56472366       741.58389      741.58389      741.58389      2129.2081      2870.7919      2129.2081      2870.7919      2129.2081      2870.7919      4.0783158e+08  0.5            25278900       2.5475927      7440.8372      14881.732      4.1920737    
  50148000   286.05008     -0.36386514    -56473197       1.6369211      851.80828     -56472346       741.58389      741.58389      741.58389      2129.2081      2870.7919      2129.2081      2870.7919      2129.2081      2870.7919      4.0783158e+08  0.5            25279000       2.5610221      7446.3197      14892.561      4.178513     
  50148200   302.92171     -0.46712403    -56473202       1.6369211      902.04911     -56472300       741.58389      741.58389      741.58389      2129.2081      2870.7919      2129.2081      2870.7919      2129.2081      2870.7919      4.0783158e+08  0.5            25279100       2.5744518      7446.2071      14892.456      4.164954     
  50148400   304.44461     -0.59316457    -56473206       1.6369211      906.58407     -56472300       741.58389      741.58389      741.58389      2129.2081      2870.7919      2129.2081      2870.7919      2129.2081      2870.7919      4.0783158e+08  0.5            25279200       2.5878563      7460.1551      14920.369      4.1513559    
  50148600   296.94674     -0.66653267    -56473211       1.6369211      884.25668     -56472327       741.58389      741.58389      741.58389      2129.2081      2870.7919      2129.2081      2870.7919      2129.2081      2870.7919      4.0783158e+08  0.5            25279300       2.6012798      7449.6414      14899.196      4.1377902    
  50148800   291.97952     -0.7005485     -56473215       1.6369211      869.46515     -56472346       741.58389      741.58389      741.58389      2129.2081      2870.7919      2129.2081      2870.7919      2129.2081      2870.7919      4.0783158e+08  0.5            25279400       2.6147131      7444.2448      14888.502      4.1242411    
  50149000   302.81796     -0.72373479    -56473220       1.6369211      901.74019     -56472318       741.58389      741.58389      741.58389      2129.2081      2870.7919      2129.2081      2870.7919      2129.2081      2870.7919      4.0783158e+08  0.5            25279500       2.6281716      7430.2281      14860.534      4.1107329    
  50149200   316.97339     -0.73533195    -56473223       1.6369211      943.89263     -56472279       741.58389      741.58389      741.58389      2129.2081      2870.7919      2129.2081      2870.7919      2129.2081      2870.7919      4.0783158e+08  0.5            25279600       2.6416178      7437.0194      14873.985      4.0972062    
  50149400   302.38149     -0.90030429    -56475121       1.6369211      900.44045     -56474220       741.58389      741.58389      741.58389      2129.2081      2870.7919      2129.2081      2870.7919      2129.2081      2870.7919      4.0783158e+08  0.5            25279700       2.6550656      7436.1407      14872.26       4.0836827    
  50149600   296.73535     -0.94508091    -56475123       1.6369211      883.62719     -56474240       741.58389      741.58389      741.58389      2129.2081      2870.7919      2129.2081      2870.7919      2129.2081      2870.7919      4.0783158e+08  0.5            25279800       2.6685146      7435.5336      14871.074      4.0701615    
  50149800   299.98903     -0.9822612     -56475127       1.6369211      893.31611     -56474233       741.58389      741.58389      741.58389      2129.2081      2870.7919      2129.2081      2870.7919      2129.2081      2870.7919      4.0783158e+08  0.5            25279900       2.6819458      7445.3655      14890.749      4.0566143    
  50150000   304.21339     -0.95635996    -56475130       1.6369211      905.89553     -56474224       741.58389      741.58389      741.58389      2129.2081      2870.7919      2129.2081      2870.7919      2129.2081      2870.7919      4.0783158e+08  0.5            25280000       2.6956121      7317.2368      14634.46       4.0434212    
  50150200   300.52564     -0.90674244    -56475133       1.6369211      894.91404     -56474238       741.58389      741.58389      741.58389      2129.2081      2870.7919      2129.2081      2870.7919      2129.2081      2870.7919      4.0783158e+08  0.5            25280100       2.7090446      7444.6084      14889.219      4.0298753    
  50150400   288.42448     -0.87736576    -56475137       1.6369211      858.87884     -56474278       741.58389      741.58389      741.58389      2129.2081      2870.7919      2129.2081      2870.7919      2129.2081      2870.7919      4.0783158e+08  0.5            25280200       2.7224903      7437.3369      14874.654      4.0163499    
  50150600   294.58121     -0.86880428    -56475141       1.6369211      877.21253     -56474263       741.58389      741.58389      741.58389      2129.2081      2870.7919      2129.2081      2870.7919      2129.2081      2870.7919      4.0783158e+08  0.5            25280300       2.7359372      7436.6953      14873.387      4.0028272    
  50150800   311.61083     -0.87778076    -56475145       1.6369211      927.92383     -56474217       741.58389      741.58389      741.58389      2129.2081      2870.7919      2129.2081      2870.7919      2129.2081      2870.7919      4.0783158e+08  0.5            25280400       2.7494041      7425.5935      14851.195      3.9893342    
  50151000   307.11517     -0.88499535    -56475149       1.6369211      914.53652     -56474235       741.58389      741.58389      741.58389      2129.2081      2870.7919      2129.2081      2870.7919      2129.2081      2870.7919      4.0783158e+08  0.5            25280500       2.7628549      7434.5286      14869.049      3.9758183    
  50151200   300.08221     -0.86599893    -56475154       1.6369211      893.59358     -56474260       741.58389      741.58389      741.58389      2129.2081      2870.7919      2129.2081      2870.7919      2129.2081      2870.7919      4.0783158e+08  0.5            25280600       2.7762978      7438.8445      14877.72       3.9622919    
  50151400   298.40379     -0.81194614    -56475158       1.6369211      888.59552     -56474270       741.58389      741.58389      741.58389      2129.2081      2870.7919      2129.2081      2870.7919      2129.2081      2870.7919      4.0783158e+08  0.5            25280700       2.7897552      7430.841       14861.628      3.9487868    
  50151600   299.88361     -0.74892145    -56475162       1.6369211      893.00219     -56474269       741.58389      741.58389      741.58389      2129.2081      2870.7919      2129.2081      2870.7919      2129.2081      2870.7919      4.0783158e+08  0.5            25280800       2.8031974      7439.2695      14878.599      3.9352606    
  50151800   303.39108     -0.79762588    -56475166       1.6369211      903.44683     -56474263       741.58389      741.58389      741.58389      2129.2081      2870.7919      2129.2081      2870.7919      2129.2081      2870.7919      4.0783158e+08  0.5            25280900       2.8166313      7443.9002      14887.788      3.9217237    
  50152000   303.40446     -1.0034977     -56475170       1.6369211      903.48666     -56474267       741.58389      741.58389      741.58389      2129.2081      2870.7919      2129.2081      2870.7919      2129.2081      2870.7919      4.0783158e+08  0.5            25281000       2.8304212      7251.6542      14503.306      3.9086796    
  50152200   295.37707     -1.2409328     -56475175       1.6369211      879.58246     -56474295       741.58389      741.58389      741.58389      2129.2081      2870.7919      2129.2081      2870.7919      2129.2081      2870.7919      4.0783158e+08  0.5            25281100       2.8438655      7438.1324      14876.283      3.8951549    
  50152400   293.05393     -1.075596      -56467802       1.6369211      872.66456     -56466929       741.58389      741.58389      741.58389      2129.2081      2870.7919      2129.2081      2870.7919      2129.2081      2870.7919      4.0783158e+08  0.5            25281200       2.8572915      7448.1843      14896.34       3.8816063    
  50152600   305.49475     -1.1385206     -56467807       1.6369211      909.71121     -56466897       741.58389      741.58389      741.58389      2129.2081      2870.7919      2129.2081      2870.7919      2129.2081      2870.7919      4.0783158e+08  0.5            25281300       2.8707474      7431.6842      14863.372      3.8680989    
  50152800   315.28946     -1.2121899     -56467811       1.6369211      938.87819     -56466872       741.58389      741.58389      741.58389      2129.2081      2870.7919      2129.2081      2870.7919      2129.2081      2870.7919      4.0783158e+08  0.5            25281400       2.8841919      7438.0229      14876.02       3.8545768    
  50153000   295.6732      -1.3785311     -56467814       1.6369211      880.46431     -56466934       741.58389      741.58389      741.58389      2129.2081      2870.7919      2129.2081      2870.7919      2129.2081      2870.7919      4.0783158e+08  0.5            25281500       2.8976435      7434.0113      14868.02       3.8410649    
  50153200   293.49995     -1.2464634     -56460441       1.6369211      873.99274     -56459567       741.58389      741.58389      741.58389      2129.2081      2870.7919      2129.2081      2870.7919      2129.2081      2870.7919      4.0783158e+08  0.5            25281600       2.9110697      7448.166       14896.296      3.8275202    
  50153400   302.98689     -1.3607242     -56460446       1.6369211      902.24321     -56459544       741.58389      741.58389      741.58389      2129.2081      2870.7919      2129.2081      2870.7919      2129.2081      2870.7919      4.0783158e+08  0.5            25281700       2.9245346      7426.7351      14853.531      3.8140268    
  50153600   307.6981      -1.3795194     -56460452       1.6369211      916.27239     -56459536       741.58389      741.58389      741.58389      2129.2081      2870.7919      2129.2081      2870.7919      2129.2081      2870.7919      4.0783158e+08  0.5            25281800       2.9379546      7451.5421      14903.102      3.8004758    
  50153800   293.29077     -1.4171487     -56460458       1.6369211      873.36982     -56459585       741.58389      741.58389      741.58389      2129.2081      2870.7919      2129.2081      2870.7919      2129.2081      2870.7919      4.0783158e+08  0.5            25281900       2.9513932      7441.2641      14882.555      3.7869498    
  50154000   288.13396     -1.5431368     -56460464       1.6369211      858.01372     -56459606       741.58389      741.58389      741.58389      2129.2081      2870.7919      2129.2081      2870.7919      2129.2081      2870.7919      4.0783158e+08  0.5            25282000       2.9648261      7444.369       14888.65       3.7734176    
  50154200   299.6825      -1.6858182     -56460469       1.6369211      892.40331     -56459577       741.58389      741.58389      741.58389      2129.2081      2870.7919      2129.2081      2870.7919      2129.2081      2870.7919      4.0783158e+08  0.5            25282100       2.9782652      7440.9927      14882.082      3.7598937    
  50154400   304.41316     -1.7604802     -56460475       1.6369211      906.49042     -56459568       741.58389      741.58389      741.58389      2129.2081      2870.7919      2129.2081      2870.7919      2129.2081      2870.7919      4.0783158e+08  0.5            25282200       2.9917079      7438.995       14877.89       3.7463754    
  50154600   301.55357     -1.8148782     -56460480       1.6369211      897.97505     -56459582       741.58389      741.58389      741.58389      2129.2081      2870.7919      2129.2081      2870.7919      2129.2081      2870.7919      4.0783158e+08  0.5            25282300       3.0051432      7443.0259      14886.095      3.7328485    
[...]
  50199200   298.65204      4.1469243     -56420912       1.6369211      889.33477     -56420023       741.58389      741.58389      741.58389      2129.2081      2870.7919      2129.2081      2870.7919      2129.2081      2870.7919      4.0783158e+08  0.5            25304600       5.9908784      7514.5205      15028.97       0.72535323   
  50199400   317.30209      4.1498512     -56420914       1.6369211      944.87143     -56419970       741.58389      741.58389      741.58389      2129.2081      2870.7919      2129.2081      2870.7919      2129.2081      2870.7919      4.0783158e+08  0.5            25304700       6.004185       7515.0508      15030.132      0.71190583   
  50199600   307.77852      4.1434091     -56420916       1.6369211      916.51188     -56420000       741.58389      741.58389      741.58389      2129.2081      2870.7919      2129.2081      2870.7919      2129.2081      2870.7919      4.0783158e+08  0.5            25304800       6.0175077      7505.9911      15011.984      0.69846094   
  50199800   296.92075      3.823519      -56428296       1.6369211      884.1793      -56427412       741.58389      741.58389      741.58389      2129.2081      2870.7919      2129.2081      2870.7919      2129.2081      2870.7919      4.0783158e+08  0.5            25304900       6.030877       7479.8226      14959.649      0.68502189   
  50200000   298.64912      3.8589515     -56428298       1.6369211      889.32608     -56427409       741.58389      741.58389      741.58389      2129.2081      2870.7919      2129.2081      2870.7919      2129.2081      2870.7919      4.0783158e+08  0.5            25305000       6.0575597      3747.7186      7495.4048      0.67306245   
  50200200   303.46218      3.916216      -56428300       1.6369211      903.65854     -56427396       741.58389      741.58389      741.58389      2129.2081      2870.7919      2129.2081      2870.7919      2129.2081      2870.7919      4.0783158e+08  0.5            25305100       6.0709426      7472.2929      14944.618      0.65959267   
  50200400   303.76921      3.9854313     -56428302       1.6369211      904.57282     -56427397       741.58389      741.58389      741.58389      2129.2081      2870.7919      2129.2081      2870.7919      2129.2081      2870.7919      4.0783158e+08  0.5            25305200       6.0843034      7484.5868      14969.212      0.64612094   
  50200600   292.1013       4.0587386     -56428303       1.6369211      869.82779     -56427433       741.58389      741.58389      741.58389      2129.2081      2870.7919      2129.2081      2870.7919      2129.2081      2870.7919      4.0783158e+08  0.5            25305300       6.0976513      7491.8775      14983.73       0.63264836   
  50200800   288.68937      4.1351648     -56428305       1.6369211      859.66766     -56427445       741.58389      741.58389      741.58389      2129.2081      2870.7919      2129.2081      2870.7919      2129.2081      2870.7919      4.0783158e+08  0.5            25305400       6.1109894      7497.2776      14994.638      0.61917534   
  50201000   307.23532      4.2071446     -56428306       1.6369211      914.89433     -56427391       741.58389      741.58389      741.58389      2129.2081      2870.7919      2129.2081      2870.7919      2129.2081      2870.7919      4.0783158e+08  0.5            25305500       6.1243634      7477.2477      14954.457      0.60570646   
  50201200   309.27751      4.2544218     -56428307       1.6369211      920.97562     -56427386       741.58389      741.58389      741.58389      2129.2081      2870.7919      2129.2081      2870.7919      2129.2081      2870.7919      4.0783158e+08  0.5            25305600       6.1377034      7496.2316      14992.477      0.59223473   
  50201400   299.90233      4.275921      -56428308       1.6369211      893.05793     -56427414       741.58389      741.58389      741.58389      2129.2081      2870.7919      2129.2081      2870.7919      2129.2081      2870.7919      4.0783158e+08  0.5            25305700       6.1510391      7498.6437      14997.266      0.57876317   
  50201600   296.10976      4.2869261     -56428308       1.6369211      881.76429     -56427426       741.58389      741.58389      741.58389      2129.2081      2870.7919      2129.2081      2870.7919      2129.2081      2870.7919      4.0783158e+08  0.5            25305800       6.164601       7373.5579      14747.115      0.56531295   
  50201800   299.78052      4.3021884     -56428307       1.6369211      892.69521     -56427415       741.58389      741.58389      741.58389      2129.2081      2870.7919      2129.2081      2870.7919      2129.2081      2870.7919      4.0783158e+08  0.5            25305900       6.1779183      7509.0781      15018.201      0.55184037   
  50202000   313.1068       4.3251047     -56428307       1.6369211      932.3786      -56427375       741.58389      741.58389      741.58389      2129.2081      2870.7919      2129.2081      2870.7919      2129.2081      2870.7919      4.0783158e+08  0.5            25306000       6.1912643      7492.9188      14985.813      0.53837098   
  50202200   320.83508      4.3440163     -56428307       1.6369211      955.39208     -56427351       741.58389      741.58389      741.58389      2129.2081      2870.7919      2129.2081      2870.7919      2129.2081      2870.7919      4.0783158e+08  0.5            25306100       6.204592       7503.1099      15006.27       0.52490058   
  50202400   298.5449       4.3403787     -56428306       1.6369211      889.01573     -56427417       741.58389      741.58389      741.58389      2129.2081      2870.7919      2129.2081      2870.7919      2129.2081      2870.7919      4.0783158e+08  0.5            25306200       6.2179207      7502.6297      15005.224      0.51143087   
  50202600   294.93925      4.3159116     -56428306       1.6369211      878.27873     -56427427       741.58389      741.58389      741.58389      2129.2081      2870.7919      2129.2081      2870.7919      2129.2081      2870.7919      4.0783158e+08  0.5            25306300       6.231635       7291.6569      14583.283      0.49799259   
  50202800   301.3737       4.2542173     -56428305       1.6369211      897.43941     -56427408       741.58389      741.58389      741.58389      2129.2081      2870.7919      2129.2081      2870.7919      2129.2081      2870.7919      4.0783158e+08  0.5            25306400       6.2449845      7490.9122      14981.931      0.48452481   
  50203000   308.41627      4.1452646     -56428305       1.6369211      918.41099     -56427386       741.58389      741.58389      741.58389      2129.2081      2870.7919      2129.2081      2870.7919      2129.2081      2870.7919      4.0783158e+08  0.5            25306500       6.2583246      7496.203       14992.282      0.47105684   
  50203200   299.8202       3.9834622     -56428304       1.6369211      892.81335     -56427411       741.58389      741.58389      741.58389      2129.2081      2870.7919      2129.2081      2870.7919      2129.2081      2870.7919      4.0783158e+08  0.5            25306600       6.2716515      7503.6633      15007.383      0.45758844   
  50203400   285.16846      3.787343      -56428303       1.6369211      849.18298     -56427454       741.58389      741.58389      741.58389      2129.2081      2870.7919      2129.2081      2870.7919      2129.2081      2870.7919      4.0783158e+08  0.5            25306700       6.2849699      7508.3824      15016.776      0.44412006   
  50203600   295.63494      3.5811683     -56428302       1.6369211      880.35036     -56427422       741.58389      741.58389      741.58389      2129.2081      2870.7919      2129.2081      2870.7919      2129.2081      2870.7919      4.0783158e+08  0.5            25306800       6.2982677      7520.0562      15040.136      0.43065091   
  50203800   304.06493      3.3681387     -56428301       1.6369211      905.45342     -56427396       741.58389      741.58389      741.58389      2129.2081      2870.7919      2129.2081      2870.7919      2129.2081      2870.7919      4.0783158e+08  0.5            25306900       6.3115807      7511.4606      15022.888      0.4171835    
  50204000   301.41476      3.1653662     -56428300       1.6369211      897.56168     -56427403       741.58389      741.58389      741.58389      2129.2081      2870.7919      2129.2081      2870.7919      2129.2081      2870.7919      4.0783158e+08  0.5            25307000       6.3249054      7504.8526      15009.731      0.40371748   
  50204200   296.48463      2.9918704     -56428300       1.6369211      882.88061     -56427417       741.58389      741.58389      741.58389      2129.2081      2870.7919      2129.2081      2870.7919      2129.2081      2870.7919      4.0783158e+08  0.5            25307100       6.338215       7513.3461      15026.664      0.39025115   
  50204400   295.51378      2.8559576     -56428300       1.6369211      879.98957     -56427420       741.58389      741.58389      741.58389      2129.2081      2870.7919      2129.2081      2870.7919      2129.2081      2870.7919      4.0783158e+08  0.5            25307200       6.3515431      7502.9792      15005.995      0.37678656   
  50204600   307.2766       2.7570097     -56428300       1.6369211      915.01723     -56427385       741.58389      741.58389      741.58389      2129.2081      2870.7919      2129.2081      2870.7919      2129.2081      2870.7919      4.0783158e+08  0.5            25307300       6.3648753      7500.5959      15001.215      0.3633228    
  50204800   310.76865      2.6860365     -56428300       1.6369211      925.41598     -56427375       741.58389      741.58389      741.58389      2129.2081      2870.7919      2129.2081      2870.7919      2129.2081      2870.7919      4.0783158e+08  0.5            25307400       6.3782087      7500.0019      14999.968      0.34985965   
  50205000   294.4834       2.6403278     -56428301       1.6369211      876.92129     -56427424       741.58389      741.58389      741.58389      2129.2081      2870.7919      2129.2081      2870.7919      2129.2081      2870.7919      4.0783158e+08  0.5            25307500       6.3915897      7473.2746      14946.528      0.33639956   
  50205200   291.76145      2.6257962     -56428302       1.6369211      868.81577     -56427433       741.58389      741.58389      741.58389      2129.2081      2870.7919      2129.2081      2870.7919      2129.2081      2870.7919      4.0783158e+08  0.5            25307600       6.4049453      7487.4953      14974.995      0.32293852   
  50205400   300.94391      2.6377687     -56428302       1.6369211      896.15956     -56427406       741.58389      741.58389      741.58389      2129.2081      2870.7919      2129.2081      2870.7919      2129.2081      2870.7919      4.0783158e+08  0.5            25307700       6.4182856      7496.0704      14992.103      0.30947718   
  50205600   304.08355      2.9810488     -56420925       1.6369211      905.50889     -56420020       741.58389      741.58389      741.58389      2129.2081      2870.7919      2129.2081      2870.7919      2129.2081      2870.7919      4.0783158e+08  0.5            25307800       6.4316597      7477.17        14954.25       0.2960179    
  50205800   301.42045      2.9750204     -56420927       1.6369211      897.57864     -56420029       741.58389      741.58389      741.58389      2129.2081      2870.7919      2129.2081      2870.7919      2129.2081      2870.7919      4.0783158e+08  0.5            25307900       6.4450201      7484.7717      14969.617      0.28255838   
  50206000   298.88478      2.9473625     -56420928       1.6369211      890.02783     -56420038       741.58389      741.58389      741.58389      2129.2081      2870.7919      2129.2081      2870.7919      2129.2081      2870.7919      4.0783158e+08  0.5            25308000       6.4583856      7482.0002      14964.028      0.26909948   
  50206200   298.83378      2.9024615     -56420929       1.6369211      889.87597     -56420040       741.58389      741.58389      741.58389      2129.2081      2870.7919      2129.2081      2870.7919      2129.2081      2870.7919      4.0783158e+08  0.5            25308100       6.4717261      7495.9215      14991.758      0.25563999   
  50206400   303.95549      2.8532148     -56420931       1.6369211      905.12754     -56420026       741.58389      741.58389      741.58389      2129.2081      2870.7919      2129.2081      2870.7919      2129.2081      2870.7919      4.0783158e+08  0.5            25308200       6.4850649      7496.915       14993.883      0.24218092   
  50206600   310.95707      2.8075026     -56420932       1.6369211      925.97706     -56420006       741.58389      741.58389      741.58389      2129.2081      2870.7919      2129.2081      2870.7919      2129.2081      2870.7919      4.0783158e+08  0.5            25308300       6.4983883      7505.6069      15011.262      0.22872181   
  50206800   299.25784      2.7664841     -56420934       1.6369211      891.13876     -56420042       741.58389      741.58389      741.58389      2129.2081      2870.7919      2129.2081      2870.7919      2129.2081      2870.7919      4.0783158e+08  0.5            25308400       6.5117136      7504.5524      15009.145      0.21526332   
  50207000   290.36717      2.7435159     -56420935       1.6369211      864.66384     -56420070       741.58389      741.58389      741.58389      2129.2081      2870.7919      2129.2081      2870.7919      2129.2081      2870.7919      4.0783158e+08  0.5            25308500       6.5250633      7490.7815      14981.546      0.20180614   
  50207200   299.51736      2.7454586     -56420936       1.6369211      891.91155     -56420044       741.58389      741.58389      741.58389      2129.2081      2870.7919      2129.2081      2870.7919      2129.2081      2870.7919      4.0783158e+08  0.5            25308600       6.5383915      7502.87        15005.694      0.18834878   
  50207400   311.28461      2.7707889     -56420937       1.6369211      926.9524      -56420010       741.58389      741.58389      741.58389      2129.2081      2870.7919      2129.2081      2870.7919      2129.2081      2870.7919      4.0783158e+08  0.5            25308700       6.5517153      7505.3759      15010.825      0.17489183   
  50207600   301.7679       2.7940034     -56420938       1.6369211      898.61327     -56420039       741.58389      741.58389      741.58389      2129.2081      2870.7919      2129.2081      2870.7919      2129.2081      2870.7919      4.0783158e+08  0.5            25308800       6.5650402      7504.7237      15009.377      0.16143546   
  50207800   285.57351      2.7964735     -56420939       1.6369211      850.38913     -56420088       741.58389      741.58389      741.58389      2129.2081      2870.7919      2129.2081      2870.7919      2129.2081      2870.7919      4.0783158e+08  0.5            25308900       6.578371       7501.432       15002.884      0.14797976   
  50208000   292.26265      2.7741621     -56420939       1.6369211      870.30828     -56420069       741.58389      741.58389      741.58389      2129.2081      2870.7919      2129.2081      2870.7919      2129.2081      2870.7919      4.0783158e+08  0.5            25309000       6.5917237      7489.1675      14978.277      0.13452501   
  50208200   305.15327      2.720499      -56420940       1.6369211      908.69433     -56420031       741.58389      741.58389      741.58389      2129.2081      2870.7919      2129.2081      2870.7919      2129.2081      2870.7919      4.0783158e+08  0.5            25309100       6.6050386      7510.3188      15020.758      0.12106999   
  50208400   307.53959      2.6298418     -56420941       1.6369211      915.80037     -56420025       741.58389      741.58389      741.58389      2129.2081      2870.7919      2129.2081      2870.7919      2129.2081      2870.7919      4.0783158e+08  0.5            25309200       6.6183689      7501.7258      15003.385      0.10761579   
  50208600   294.96508      2.5016037     -56420941       1.6369211      878.35564     -56420063       741.58389      741.58389      741.58389      2129.2081      2870.7919      2129.2081      2870.7919      2129.2081      2870.7919      4.0783158e+08  0.5            25309300       6.6317165      7491.9954      14983.967      0.094162332  
  50208800   290.0788       2.3558358     -56420942       1.6369211      863.80512     -56420078       741.58389      741.58389      741.58389      2129.2081      2870.7919      2129.2081      2870.7919      2129.2081      2870.7919      4.0783158e+08  0.5            25309400       6.6450592      7494.7299      14989.48       0.080709246  
  50209000   306.98382      2.2140493     -56420943       1.6369211      914.14538     -56420029       741.58389      741.58389      741.58389      2129.2081      2870.7919      2129.2081      2870.7919      2129.2081      2870.7919      4.0783158e+08  0.5            25309500       6.6584054      7492.751       14985.437      0.067256641  
  50209200   313.97252      1.7578925     -56428322       1.6369211      934.95656     -56427387       741.58389      741.58389      741.58389      2129.2081      2870.7919      2129.2081      2870.7919      2129.2081      2870.7919      4.0783158e+08  0.5            25309600       6.6717205      7510.3278      15020.798      0.053804212  
  50209400   303.95182      1.6525479     -56428323       1.6369211      905.11661     -56427418       741.58389      741.58389      741.58389      2129.2081      2870.7919      2129.2081      2870.7919      2129.2081      2870.7919      4.0783158e+08  0.5            25309700       6.6850403      7507.5706      15015.101      0.040352367  
  50209600   295.88945      1.5655533     -56428324       1.6369211      881.10827     -56427443       741.58389      741.58389      741.58389      2129.2081      2870.7919      2129.2081      2870.7919      2129.2081      2870.7919      4.0783158e+08  0.5            25309800       6.698369       7502.6302      15005.262      0.026901088  
  50209800   296.05457      1.489066      -56428324       1.6369211      881.59996     -56427443       741.58389      741.58389      741.58389      2129.2081      2870.7919      2129.2081      2870.7919      2129.2081      2870.7919      4.0783158e+08  0.5            25309900       6.7117076      7496.9948      14993.959      0.01345032   
  50210000   308.50759      1.4272024     -56428325       1.6369211      918.68291     -56427406       741.58389      741.58389      741.58389      2129.2081      2870.7919      2129.2081      2870.7919      2129.2081      2870.7919      4.0783158e+08  0.5            25310000       6.7250692      7484.1577      14968.304      0            
Loop time of 6.72511 on 4 procs for 100000 steps with 1000 atoms

Performance: 642.368 ns/day, 0.037 hours/ns, 14869.641 timesteps/s
99.9% CPU use with 4 MPI tasks x 1 OpenMP threads

MPI task timing breakdown:
Section |  min time  |  avg time  |  max time  |%varavg| %total
---------------------------------------------------------------
Pair    | 4.0387     | 4.2246     | 4.4965     |   8.5 | 62.82
Neigh   | 0.0024694  | 0.0025702  | 0.0026889  |   0.2 |  0.04
Comm    | 1.3632     | 1.6197     | 1.7976     |  12.9 | 24.08
Output  | 0.024685   | 0.029574   | 0.04415    |   4.9 |  0.44
Modify  | 0.57502    | 0.58277    | 0.59013    |   0.7 |  8.67
Other   |            | 0.2659     |            |       |  3.95

Nlocal:            250 ave         261 max         239 min
Histogram: 1 0 0 1 0 0 1 0 0 1
Nghost:         636.25 ave         641 max         629 min
Histogram: 1 0 0 0 0 0 1 1 0 1
Neighs:        1714.75 ave        1780 max        1655 min
Histogram: 1 0 1 0 0 0 1 0 0 1

Total # of neighbors = 6859
Ave neighs/atom = 6.859
Neighbor list builds = 14
Dangerous builds = 0

# run_style
run_style verlet


Total wall time: 0:00:06
