ITEM: TIMESTEP
0
ITEM: NUMBER OF ATOMS
1000
ITEM: BOX BOUNDS pp pp pp
-1.0000000000000000e+02 5.1000000000000000e+03
-1.0000000000000000e+02 5.1000000000000000e+03
-1.0000000000000000e+02 5.1000000000000000e+03
ITEM: ATOMS type x y z ix iy iz
1 2602.79 1499.8 4495.42 0 0 0
1 3272.3 2476.38 4459.99 0 0 0
1 1.894 1321.78 2756.28 0 0 0
1 4286.7 4307.08 3490.49 0 0 0
1 1146.11 4576.23 1225.82 0 0 0
1 643.018 3044.15 2682.15 0 0 0
1 2394 1474.14 954.372 0 0 0
1 4787.68 3024.97 1785.06 0 0 0
1 1337.2 2984.85 597.02 0 0 0
1 917.49 329.495 886.469 0 0 0
1 1468.93 2021.53 2007.59 0 0 0
1 757.753 4229.71 1464.17 0 0 0
1 2486.19 2113.26 3106.45 0 0 0
1 3864.15 1029.23 628.618 0 0 0
1 2660.77 1104.62 1812.61 0 0 0
1 2130.35 811.346 3940.61 0 0 0
1 3508.04 2067.63 3865.88 0 0 0
1 844.051 1139.93 1694.52 0 0 0
1 1616.49 902.802 2718.45 0 0 0
1 1816.13 459.783 672.222 0 0 0
1 657.968 1199.42 2105.18 0 0 0
1 924.036 439.443 209.857 0 0 0
1 3647.26 1850.17 4440.01 0 0 0
1 260.799 995.071 769.411 0 0 0
1 174.114 268.873 512.458 0 0 0
1 703.282 360.6 1157.26 0 0 0
1 1970.76 3464.26 1286.15 0 0 0
1 395.599 755.134 856.206 0 0 0
1 538.913 769.906 180.304 0 0 0
1 974.979 560.553 22.705 0 0 0
1 358.027 1023.16 999.082 0 0 0
1 658.295 587.502 449.963 0 0 0
1 2230.41 2782.41 2052.73 0 0 0
1 0.002 1162.49 282.626 0 0 0
1 596.24 109.31 1088.41 0 0 0
1 34.308 842.389 73.352 0 0 0
1 629.171 809.432 230.607 0 0 0
1 345.482 103.454 83.423 0 0 0
1 542.644 853.598 2101.6 0 0 0
1 10.685 921.405 153.663 0 0 0
1 1251.75 1812.04 1633.39 0 0 0
1 484.121 398.421 30.014 0 0 0
1 627.159 196.904 844.23 0 0 0
1 290.493 717.55 887.228 0 0 0
1 643.356 968.679 42.847 0 0 0
1 924.274 265.423 120.32 0 0 0
1 851.773 48.872 71.068 0 0 0
1 511.348 600.767 836.218 0 0 0
1 3303.49 2273.44 3603.74 0 0 0
1 988.755 1920.59 3803.26 0 0 0
1 0.597 933.826 932.092 0 0 0
1 1199.29 554.056 856.999 0 0 0
1 316.37 189.457 164.594 0 0 0
1 73.52 783.028 868.89 0 0 0
1 115.919 804.843 450.899 0 0 0
1 1247.24 2200.15 2037 0 0 0
1 693.529 38.753 313.131 0 0 0
1 1633.93 3314.42 1460 0 0 0
1 3079.86 4767.81 4384.43 0 0 0
1 690.829 401.751 647.663 0 0 0
1 154.098 434.514 1121.17 0 0 0
1 2.456 911.061 273.938 0 0 0
1 436.704 333.87 761.502 0 0 0
1 1075.79 572.596 986.838 0 0 0
1 2220.74 858.367 2396.88 0 0 0
1 1412.01 1214.79 110.789 0 0 0
1 814.097 269.523 126.368 0 0 0
1 335.947 1322.66 491.606 0 0 0
1 0 469.743 933.392 0 0 0
1 1415.2 1049.46 965.065 0 0 0
1 2791.75 2721.64 3099.27 0 0 0
1 293.689 157.924 599.757 0 0 0
1 524.594 1102.67 960.693 0 0 0
1 49.071 630.913 18.17 0 0 0
1 905.637 496.606 79.961 0 0 0
1 192.957 669.984 943.034 0 0 0
1 1010.33 386.762 856.725 0 0 0
1 1535.19 937.074 1527.24 0 0 0
1 557.375 211.722 213.496 0 0 0
1 229.665 971.816 626.529 0 0 0
1 2322.83 1045.65 105.003 0 0 0
1 888.658 371.369 38.415 0 0 0
1 503.073 522.577 23.394 0 0 0
1 2617.79 3967.69 2746.96 0 0 0
1 425.073 819.006 676.15 0 0 0
1 565.781 678.616 747.5 0 0 0
1 2671.45 4722.87 527.036 0 0 0
1 774.396 476.604 489.775 0 0 0
1 386.823 1651.48 604.839 0 0 0
1 403.975 536.33 959.981 0 0 0
1 542.502 56.733 245.064 0 0 0
1 314.126 823.053 44.999 0 0 0
1 12.208 790.168 628.322 0 0 0
1 1003.47 353.623 77.557 0 0 0
1 2.257 252.095 96.566 0 0 0
1 88.818 700.754 658.581 0 0 0
1 264.245 153.745 28.637 0 0 0
1 440.886 433.855 985.384 0 0 0
1 243.955 1016.75 219.283 0 0 0
1 586.41 209.453 95.86 0 0 0
1 127.588 548.277 594.388 0 0 0
1 194.05 48.03 978.115 0 0 0
1 3041.63 2309.57 2274.33 0 0 0
1 1142.86 332.51 410.865 0 0 0
1 1955.56 787.217 558.981 0 0 0
1 840.762 0 807.118 0 0 0
1 192.851 858.478 513.152 0 0 0
1 760.535 788.915 419.573 0 0 0
1 236.165 470.333 144.066 0 0 0
1 538.252 405.832 420.961 0 0 0
1 1216.33 78.251 511.438 0 0 0
1 664.949 455.885 416.036 0 0 0
1 905.448 791.015 52.596 0 0 0
1 660.469 1672.01 376.046 0 0 0
1 1362.6 1769.65 2238.07 0 0 0
1 1129.39 567.737 1173.16 0 0 0
1 386.338 137.428 1055.93 0 0 0
1 745.35 821.567 67.837 0 0 0
1 75.733 705.241 410.933 0 0 0
1 0 268.988 353.856 0 0 0
1 379.665 919.484 930.603 0 0 0
1 944.188 382.056 401.448 0 0 0
1 0 915.276 651.495 0 0 0
1 1487.15 2800.59 2210.29 0 0 0
1 1402.64 774.288 1376.79 0 0 0
1 1486.32 2489.29 3169.3 0 0 0
1 19.758 489.666 426.258 0 0 0
1 685.315 776.859 736.852 0 0 0
1 294.483 159.53 477.238 0 0 0
1 255.359 481.914 2.252 0 0 0
1 228.863 3287.01 3485.31 0 0 0
1 166.074 976.018 523.553 0 0 0
1 411.326 1081.63 251.955 0 0 0
1 155.874 141.184 12.319 0 0 0
1 970.818 787.826 862.356 0 0 0
1 242.562 1087.28 331.639 0 0 0
1 69.972 108.826 755.807 0 0 0
1 1009.85 123.743 797.389 0 0 0
1 104.91 1198.77 793.592 0 0 0
1 140.7 1295.21 546.374 0 0 0
1 1037.22 1048.72 285.781 0 0 0
1 121.571 784.321 576.876 0 0 0
1 750.108 215.753 1026.6 0 0 0
1 549.196 853.954 1032.88 0 0 0
1 3056.36 60.873 74.179 0 0 0
1 147.892 525.854 37.326 0 0 0
1 220.086 1815.82 1348.63 0 0 0
1 987.108 755.355 983.776 0 0 0
1 918.221 698.753 905.109 0 0 0
1 836.799 248.398 914.421 0 0 0
1 924.77 682.05 54.363 0 0 0
1 408.745 1538.55 2249.16 0 0 0
1 540.166 496.631 903.747 0 0 0
1 337.631 1008.69 288.75 0 0 0
1 447.429 621.128 46.445 0 0 0
1 1326.08 0.75 938.855 0 0 0
1 987.466 430.638 0 0 0 0
1 290.015 250.492 931.729 0 0 0
1 241.177 608.538 718.311 0 0 0
1 3448.59 2183.76 240.27 0 0 0
1 72.35 821.716 329.565 0 0 0
1 641.172 235.653 557.854 0 0 0
1 583.393 3889.36 433.73 0 0 0
1 1361.58 552.508 837.108 0 0 0
1 1018.1 1052.82 496.016 0 0 0
1 258.839 39.945 0.098 0 0 0
1 1005.66 184.913 638.737 0 0 0
1 849.028 1106.03 663.527 0 0 0
1 249.112 745.957 0 0 0 0
1 2237.03 2244.98 938.579 0 0 0
1 620.173 457.898 102.793 0 0 0
1 3401.25 1689.32 1588.89 0 0 0
1 3811.56 1561.02 444.682 0 0 0
1 1.084 1040.06 175.39 0 0 0
1 774.427 599.571 287.189 0 0 0
1 875.324 803.008 980.207 0 0 0
1 929.561 71.131 875.313 0 0 0
1 456.297 1080.54 606.012 0 0 0
1 875.172 3165.43 2367.43 0 0 0
1 13.414 2723.98 2663.68 0 0 0
1 1215.43 399.044 265.627 0 0 0
1 1055.73 319.368 741.748 0 0 0
1 2333.56 2116.36 3442.12 0 0 0
1 86.132 331.964 426.501 0 0 0
1 572.799 604.47 927.67 0 0 0
1 4086.37 838.33 4306.31 0 0 0
1 565.462 650.385 0 0 0 0
1 2936.21 2830.22 2632.5 0 0 0
1 621.606 1390.6 1029.35 0 0 0
1 983.096 1066.09 871.296 0 0 0
1 928.544 828.181 481.606 0 0 0
1 539.076 1093.46 833.589 0 0 0
1 1351.81 2980.11 737.886 0 0 0
1 2035.22 3738 2859.46 0 0 0
1 306.272 885.662 476.078 0 0 0
1 817.307 84.947 975.119 0 0 0
1 131.197 1083.81 379.006 0 0 0
1 45.579 221.733 0 0 0 0
1 631.73 1015.42 819.926 0 0 0
1 0 1279.39 418.404 0 0 0
1 626.309 630.728 832.091 0 0 0
1 2512.22 1227.29 475.945 0 0 0
1 207.415 312.102 1031 0 0 0
1 260.43 821.216 212.547 0 0 0
1 345.861 460.819 409.711 0 0 0
1 103.944 1059.02 980.367 0 0 0
1 331.773 1150.45 796.461 0 0 0
1 670.366 1157.93 257.112 0 0 0
1 452.457 425.217 1798.97 0 0 0
1 852.923 802.464 560.843 0 0 0
1 931.802 489.459 371.966 0 0 0
1 2747.4 3819 3253.78 0 0 0
1 836.451 867.358 435.626 0 0 0
1 592.652 555.471 1037.31 0 0 0
1 897.8 519.485 499.276 0 0 0
1 2586.01 2511.49 2770.6 0 0 0
1 27.87 2028.02 12.161 0 0 0
1 1181.54 4011.52 1659.11 0 0 0
1 921.486 100.456 1043.36 0 0 0
1 251.529 724.503 760.05 0 0 0
1 840.673 981.185 667.26 0 0 0
1 432.515 963.818 6.737 0 0 0
1 1020.93 287.371 934.784 0 0 0
1 798.686 174.558 219.838 0 0 0
1 788.804 23.075 210.29 0 0 0
1 783.231 482.055 600.197 0 0 0
1 292.579 374.132 272.076 0 0 0
1 385.234 444.309 0 0 0 0
1 849.59 1777.8 1266.99 0 0 0
1 39.499 533.606 527.698 0 0 0
1 1488.82 1167.93 625.486 0 0 0
1 621.684 238.275 950.862 0 0 0
1 209.585 156.276 883.871 0 0 0
1 819.987 869.928 651.889 0 0 0
1 519.81 1117.09 220.406 0 0 0
1 800.695 713.694 27.021 0 0 0
1 2907.42 2700.07 3472.61 0 0 0
1 297.734 639.368 995.788 0 0 0
1 535.409 1524.75 635.187 0 0 0
1 761.029 560.978 420.297 0 0 0
1 483.144 4.641 1052.47 0 0 0
1 1028.94 608.834 473.77 0 0 0
1 1900.77 3295.43 704.143 0 0 0
1 1047.2 985.506 661.892 0 0 0
1 718.925 803.062 1028.99 0 0 0
1 933.703 0 977.873 0 0 0
1 684.327 985.819 421.418 0 0 0
1 678.018 545.648 335.956 0 0 0
1 531.405 1210.56 778.301 0 0 0
1 129.048 1479.97 101.486 0 0 0
1 426.218 247.294 70.772 0 0 0
1 167.596 843.452 874.996 0 0 0
1 392.429 1370.13 0 0 0 0
1 936.257 835.799 643.042 0 0 0
1 446.629 1921.05 2843.77 0 0 0
1 0 571.547 1316.09 0 0 0
1 1351.45 4782.26 3537.23 0 0 0
1 790.887 966.631 449.808 0 0 0
1 1106.2 229.868 580.749 0 0 0
1 675.257 1180.83 575.486 0 0 0
1 345.012 375.357 1140.29 0 0 0
1 982.404 487.909 944.459 0 0 0
1 932.854 810.748 750.353 0 0 0
1 869.676 539.904 257.377 0 0 0
1 843.036 388.438 444.247 0 0 0
1 1694.02 0.03 1160.93 0 0 0
1 881.194 910.975 920.506 0 0 0
1 2471.3 3714.01 1203.05 0 0 0
1 1334.74 1853.48 472.501 0 0 0
1 1579.09 287.968 643.92 0 0 0
1 903.167 105.54 740.746 0 0 0
1 540.39 372.186 796.145 0 0 0
1 1687.96 864.316 694.846 0 0 0
1 0 250.927 223.511 0 0 0
1 8.974 336 718.256 0 0 0
1 2194.84 117.68 3515.42 0 0 0
1 326.23 528.598 1095.52 0 0 0
1 1075.37 719.941 692.698 0 0 0
1 3209.35 4424.72 4500.62 0 0 0
1 1807.36 2903.42 224.873 0 0 0
1 554.646 230.947 340.549 0 0 0
1 1369.84 371.362 0 0 0 0
1 248.034 288.521 218.784 0 0 0
1 3398.45 1913.19 2824.78 0 0 0
1 649.549 691.052 81.25 0 0 0
1 705.999 338.018 559.295 0 0 0
1 856.895 264.492 0 0 0 0
1 1011.33 876.423 926.623 0 0 0
1 0 260.849 904.2 0 0 0
1 684.489 905.701 1050.71 0 0 0
1 1401.38 828.008 1124.5 0 0 0
1 850.504 3439.42 1985.2 0 0 0
1 1472.58 362.048 4607.08 0 0 0
1 2026.01 188.241 262.36 0 0 0
1 673.011 443.684 1803.77 0 0 0
1 822.388 1366.69 315.829 0 0 0
1 93.36 1985.24 1894.18 0 0 0
1 3341.77 4998.75 4043.17 0 0 0
1 1957.44 3199.69 3111.24 0 0 0
1 0.009 1094.88 1824.64 0 0 0
2 4998.11 8.057 175.783 0 0 0
2 1494.34 80.417 4996.21 0 0 0
2 4994.34 1618.15 4720.57 0 0 0
2 270.882 1428.32 1258.74 0 0 0
2 5000 698.857 3687.66 0 0 0
2 6.53 288.783 4996.88 0 0 0
2 666.328 4996.48 4730.96 0 0 0
2 2695.39 2922.61 341.29 0 0 0
2 2357.24 4999.81 1435.78 0 0 0
2 3776.52 4999.96 4792.81 0 0 0
2 2903.65 648.713 4990.84 0 0 0
2 4908.03 1323.77 4294.33 0 0 0
2 1502.37 2712.08 0.518 0 0 0
2 3641.57 1901.89 4999.9 0 0 0
2 2873.48 5000 1819.81 0 0 0
2 4998.06 4138.91 3543.74 0 0 0
2 4998.29 7.402 4990.59 0 0 0
2 14.554 1.129 4982.39 0 0 0
2 3600.57 32.888 4283.49 0 0 0
2 0 3518.29 2506.91 0 0 0
2 4746.47 4599.03 1217.64 0 0 0
2 4993.57 1.631 5.851 0 0 0
2 4995.56 172.713 11.404 0 0 0
2 1339.47 1.88 4999.22 0 0 0
2 10.463 16.467 523.462 0 0 0
2 2.8 24.9 -0 0 0 0
2 4984.83 4541.65 2811.19 0 0 0
2 4.274 0.121 3887.23 0 0 0
2 151.464 0.21 80.997 0 0 0
2 3453.54 4.255 0.246 0 0 0
2 0.877 5000 126.236 0 0 0
2 367.303 33.191 356.808 0 0 0
2 4473.74 3638.19 0.017 0 0 0
2 4995.04 2239.52 2098.29 0 0 0
2 4999.09 349.438 3322.16 0 0 0
2 1076.96 0.013 3627.64 0 0 0
2 4032.51 17.446 4724.03 0 0 0
2 5000 0 3120.63 0 0 0
2 4360.01 4997.5 0.986 0 0 0
2 32.17 4888.18 0.842 0 0 0
2 472.65 3.331 4996.73 0 0 0
2 1273.52 2271.43 1263.91 0 0 0
2 2020.23 2224.37 2758.42 0 0 0
2 4997.11 1251.19 2909.87 0 0 0
2 422.272 764.826 2721.37 0 0 0
2 4999.98 4555.48 439.275 0 0 0
2 2606.32 800.654 2162.48 0 0 0
2 3239.47 3239.24 1430.28 0 0 0
2 1442.5 2209.55 2567.08 0 0 0
2 0.014 680.873 4999.99 0 0 0
2 4985.51 1042.66 0.521 0 0 0
2 1239.47 2755.68 4999.98 0 0 0
2 1822.52 4994.49 849.151 0 0 0
2 506.108 1205.8 1767.23 0 0 0
2 1471.98 0.004 0.004 0 0 0
2 3491.86 412.313 0 0 0 0
2 806.07 3420.9 1681.58 0 0 0
2 3342.58 2141.43 1176.2 0 0 0
2 4183.67 1126.34 4934.25 0 0 0
2 1189.06 4996.24 2213.98 0 0 0
2 3535.8 5000 151.564 0 0 0
2 3710.67 715.273 5000 0 0 0
2 4418.84 4288.72 3821.14 0 0 0
2 473.368 3087.41 4931.3 0 0 0
2 795.535 204.035 3248.58 0 0 0
2 1.185 915.462 1117.68 0 0 0
2 1304.72 3574.39 2133.33 0 0 0
2 1246.61 1083.53 4875.73 0 0 0
2 3328.94 0 2149.22 0 0 0
2 2910.86 51.113 4166.7 0 0 0
2 14.307 1405.89 508.196 0 0 0
2 2777.17 564.036 783.782 0 0 0
2 0 1177.02 2171.6 0 0 0
2 0 3011.04 3751.15 0 0 0
2 0 3775.22 3055.8 0 0 0
2 6.741 3180.21 2533.81 0 0 0
2 3264.66 1678.67 4040.89 0 0 0
2 2489.99 929.315 1955 0 0 0
2 4856.8 1829.68 17.047 0 0 0
2 3733.14 1452.51 1742.62 0 0 0
2 1496.33 589.74 6.968 0 0 0
2 1579.24 658.034 2789.42 0 0 0
2 3.031 2076.65 2696.91 0 0 0
2 23.821 1662.18 3488.76 0 0 0
2 799.705 3737.6 2597.17 0 0 0
2 1367.27 3071.76 1973.71 0 0 0
2 2888.69 384.029 0 0 0 0
2 2770.03 6.414 864.612 0 0 0
2 1490.9 1563.7 2423.73 0 0 0
2 5000 841.961 4426.79 0 0 0
2 1304.05 2670.48 867.251 0 0 0
2 3814.68 3700.68 3593.52 0 0 0
2 135.154 373.913 96.501 0 0 0
2 717.235 2660.88 5000 0 0 0
2 902.304 1946.37 24.094 0 0 0
2 715.052 455.597 3905.45 0 0 0
2 1385.64 2349.57 3313.48 0 0 0
2 0 2836.21 1047.95 0 0 0
2 889.795 883.628 1262.9 0 0 0
2 772.761 2431.97 624.138 0 0 0
2 281.398 1606.41 213.753 0 0 0
2 1250.39 4979.34 1937.07 0 0 0
2 1516.9 1929.45 2460.51 0 0 0
2 467.222 1221.86 615.855 0 0 0
2 208.13 1461.32 837.916 0 0 0
2 841.376 1190.28 534.844 0 0 0
2 0 798.526 990.212 0 0 0
2 44.366 710.044 2417.51 0 0 0
2 884.685 111.64 1205.43 0 0 0
2 1179.76 523.455 154.685 0 0 0
2 782.924 445.254 313.208 0 0 0
2 1563.75 1021.65 594.729 0 0 0
2 0 4082.2 5000 0 0 0
2 495.836 2.373 1246.48 0 0 0
2 1221.5 1087.18 355.236 0 0 0
2 432.165 465.697 813.158 0 0 0
2 551.328 691.039 461.758 0 0 0
2 173.605 215.389 660.914 0 0 0
2 1015.6 1149.4 996.669 0 0 0
2 958.387 945.183 780.446 0 0 0
2 722.382 499.122 1083.35 0 0 0
2 375.495 466.572 4101.4 0 0 0
2 978.515 531.881 1122.05 0 0 0
2 4646.14 1488.21 0 0 0 0
2 1109.02 834.194 790.366 0 0 0
2 1056.99 573.279 261.8 0 0 0
2 417.258 681.615 734.094 0 0 0
2 2968.73 1187.16 2738.84 0 0 0
2 1113.2 1118.06 183.01 0 0 0
2 1401.54 3844.49 1523.39 0 0 0
2 738.242 293.228 427.741 0 0 0
2 553.826 134.429 1414.51 0 0 0
2 1457.67 115.056 124.619 0 0 0
2 700.825 318.236 1477.76 0 0 0
2 2577.03 0 2573.34 0 0 0
2 1823 2170.04 2695.5 0 0 0
2 0 2457.06 2524.77 0 0 0
2 104.028 0 860.863 0 0 0
2 168.668 1405.25 223.358 0 0 0
2 707.927 112.94 465.468 0 0 0
2 586.601 12.821 1631.18 0 0 0
2 736.958 661.034 1031.1 0 0 0
2 1057.66 514.496 824.381 0 0 0
2 554.37 676.835 1098.2 0 0 0
2 122.177 312.208 818.484 0 0 0
2 1313.58 555.511 282.484 0 0 0
2 1796.83 863.849 2473.8 0 0 0
2 696.739 292.019 39.089 0 0 0
2 1393.91 72.848 783.709 0 0 0
2 355.598 1524.1 524.125 0 0 0
2 1463.47 474.365 669.071 0 0 0
2 516.006 1537.55 3960.88 0 0 0
2 1877.52 4061.55 2660.06 0 0 0
2 598.499 1325.43 856.182 0 0 0
2 1347.96 1705.92 677.86 0 0 0
2 1203.89 173.69 855.613 0 0 0
2 3337.47 2341.86 0 0 0 0
2 1280.71 5000 3759.81 0 0 0
2 4096.02 0 2877.19 0 0 0
2 1057.12 832.156 1328.66 0 0 0
2 1410.1 1597.01 0 0 0 0
2 2279.32 1795.98 115.571 0 0 0
2 2319.67 513.992 3240.26 0 0 0
2 2057.64 1117.34 2218.27 0 0 0
2 4834.29 3128.42 2426.95 0 0 0
2 2502.78 1548.67 1559.26 0 0 0
2 1521.93 193.209 1636.39 0 0 0
2 1148.16 686.851 547.193 0 0 0
2 2674.24 580.568 1231.63 0 0 0
2 337.951 358.725 1430.96 0 0 0
2 4191.65 4987.57 3854.03 0 0 0
2 678.558 189.427 290.199 0 0 0
2 1099.96 677.396 895.439 0 0 0
2 3350.55 1625.14 4684.88 0 0 0
2 2519.55 694.169 1247.96 0 0 0
2 691.516 1315.18 52.57 0 0 0
2 541.869 3161.05 2673.86 0 0 0
2 140.346 585.596 444.451 0 0 0
2 1089.85 959.221 409.65 0 0 0
2 871.502 255.283 1745.71 0 0 0
2 60.595 4751.51 98.705 0 0 0
2 1353.07 4750.41 2373.56 0 0 0
2 599.309 491.4 1219.51 0 0 0
2 192.315 1127.44 513.582 0 0 0
2 964.306 2700.58 409.127 0 0 0
2 360.025 960.43 126.47 0 0 0
2 2303.74 1900.4 3041.55 0 0 0
2 316.282 1076.71 669.502 0 0 0
2 306.403 1529.89 18.937 0 0 0
2 751.43 1918.19 1768.08 0 0 0
2 3033.45 2201.31 1801.81 0 0 0
2 765.802 1067.43 206.443 0 0 0
2 3762.29 2101.45 2671.83 0 0 0
2 1344.68 616.305 642.189 0 0 0
2 563.232 1112.59 1182.4 0 0 0
2 582.495 1418.31 285.917 0 0 0
2 2312.69 0 3458.29 0 0 0
2 882.274 1431.77 141.963 0 0 0
2 397.768 2897.96 1821.07 0 0 0
2 1368 533.779 115.787 0 0 0
2 589.008 280.828 1092.9 0 0 0
2 56.4 61.02 1367.63 0 0 0
2 2708.42 1389.55 4661.23 0 0 0
2 1838.62 4061.4 832.972 0 0 0
2 523.047 960.38 942.005 0 0 0
2 398.692 1191.02 955.161 0 0 0
2 1299.84 665.609 916.581 0 0 0
2 65.063 359.005 1001.84 0 0 0
2 0 3655.64 2874.99 0 0 0
2 0 0 1219.14 0 0 0
2 917.745 794.285 1502.32 0 0 0
2 1446.92 361.388 304.822 0 0 0
2 3040.61 3889.91 3271.14 0 0 0
2 319.234 318.651 509.594 0 0 0
2 458.987 812.527 0 0 0 0
2 1808.32 844.563 1008.92 0 0 0
2 1518.88 390.73 511.227 0 0 0
2 241.048 542.929 1224.18 0 0 0
2 569.122 783.286 603.667 0 0 0
2 572.719 298.769 678.546 0 0 0
2 758.344 833.765 286.916 0 0 0
2 451.244 1334.95 389.802 0 0 0
2 837.293 618.145 143.187 0 0 0
2 165.07 1013.88 1856.57 0 0 0
2 813.567 820.048 823.579 0 0 0
2 0 1672.56 2329.17 0 0 0
2 1434.66 96.312 2309.34 0 0 0
2 4277.81 3274.61 1386.99 0 0 0
2 384.999 176.648 1329.67 0 0 0
2 978.121 1799.35 559.834 0 0 0
2 224.151 1251.22 0 0 0 0
2 2648.31 1749.15 4509 0 0 0
2 272.621 3268.67 468.147 0 0 0
2 713.708 857.006 538.221 0 0 0
2 1070.13 220.095 312.515 0 0 0
2 37.894 1044 597.238 0 0 0
2 714.723 199.376 1626.24 0 0 0
2 602.186 860.82 380.017 0 0 0
2 1104.34 709.944 0 0 0 0
2 871.89 1275.61 1227.63 0 0 0
2 795.548 3732.68 1954.9 0 0 0
2 1328.77 1094.09 508.249 0 0 0
2 940.863 1513.33 0 0 0 0
2 1350.27 1123.67 0 0 0 0
2 1168.48 349.01 830.383 0 0 0
2 1389.82 562.225 1051.05 0 0 0
2 1670.06 0 570.529 0 0 0
2 1360.33 811.27 816.121 0 0 0
2 1336.3 1131.13 758.964 0 0 0
2 1083.03 846.724 605.575 0 0 0
2 1249.94 271.125 316.838 0 0 0
2 2200.82 1240.55 2203.49 0 0 0
2 4507.98 1770.01 0 0 0 0
2 531.932 1269.32 1060.45 0 0 0
2 378.383 578.611 1435.46 0 0 0
2 1125.27 1205.83 11.711 0 0 0
2 1118.57 314.296 163.548 0 0 0
2 905.454 772.492 227.327 0 0 0
2 1339.53 2372.06 3496.64 0 0 0
2 335.451 1100.98 0 0 0 0
2 3983.39 3057.76 1342.69 0 0 0
2 893.774 1300.31 931.625 0 0 0
2 60.331 21.185 1998.6 0 0 0
2 280.64 822.84 983.82 0 0 0
2 2719.61 724.774 1711.62 0 0 0
2 15.474 2988.47 1565.79 0 0 0
2 369.283 11.267 1416.33 0 0 0
2 2397.53 2491.19 2437.98 0 0 0
2 3737.88 205.489 1715.75 0 0 0
2 879.947 705.411 1122.5 0 0 0
2 817.965 483.693 1972.01 0 0 0
2 1040.71 3525.67 2771.45 0 0 0
2 3170.36 1265.9 1227.1 0 0 0
2 525.801 1487.52 797.778 0 0 0
2 1391.04 1285.66 596.309 0 0 0
2 1101.46 214.505 1090.58 0 0 0
2 438.679 958.799 673.537 0 0 0
2 640.305 99.393 950.513 0 0 0
2 480.634 212.755 834.387 0 0 0
2 1391.34 265.79 455.623 0 0 0
2 1701.02 3451.36 0 0 0 0
2 1431.78 994.384 1104.35 0 0 0
2 1214.21 426.642 1160.92 0 0 0
2 641.409 1061.57 1026 0 0 0
2 882.165 402.701 1001.01 0 0 0
2 145.717 1418.61 666.602 0 0 0
2 647.83 474.254 790.116 0 0 0
2 885.279 1305.28 675.929 0 0 0
2 753.696 1040.56 1188.34 0 0 0
2 2153.64 3299.68 0 0 0 0
2 206.764 697.189 250.867 0 0 0
2 1212.29 536.195 1012.16 0 0 0
2 1700.82 3958.35 566.337 0 0 0
2 610.781 738.768 945.201 0 0 0
2 524.566 455.002 1413.38 0 0 0
2 1186.28 1216.27 597.429 0 0 0
2 0 227.459 2019.45 0 0 0
2 243.865 3134.31 1844.75 0 0 0
2 1466.31 65.547 620.261 0 0 0
2 2184.64 2970.43 1443.93 0 0 0
2 2550.47 1952.58 2440.19 0 0 0
2 1347.89 1730.84 4280.9 0 0 0
2 222.101 4144.95 1463.59 0 0 0
2 1166.73 930.822 1151.86 0 0 0
2 1383.27 542.55 474.738 0 0 0
2 2275.56 2356.92 2919.09 0 0 0
2 302.311 415.096 1012.68 0 0 0
2 998.786 375.123 2070.28 0 0 0
2 295.408 2816.76 941.2 0 0 0
2 1732.14 275.57 409.018 0 0 0
2 3001.05 871.631 3876.44 0 0 0
2 240.136 815.046 1411.9 0 0 0
2 833.817 435.584 1195.44 0 0 0
2 1053.13 715.683 165.101 0 0 0
2 154.658 1243.07 346.202 0 0 0
2 133.917 650.561 805.709 0 0 0
2 171.617 4972.72 116.031 0 0 0
2 427.627 393.053 634.609 0 0 0
2 2490.91 4839.07 3482.82 0 0 0
2 1005.53 153.432 2998.38 0 0 0
2 1172.26 601.945 713.138 0 0 0
2 1163.54 1010.78 564.213 0 0 0
2 596.155 437.189 550.545 0 0 0
2 3372.09 3685.72 932.025 0 0 0
2 518.012 5000 444.538 0 0 0
2 1732.7 3032.72 1557.78 0 0 0
2 413.338 721.302 568.819 0 0 0
2 1285.14 915.411 2330.39 0 0 0
2 196.1 1226.69 672.677 0 0 0
2 111.132 166.553 1237.75 0 0 0
2 0 1127.8 906.813 0 0 0
2 958.887 659.973 773.638 0 0 0
2 756.599 568.955 881.115 0 0 0
2 5000 3500.47 2007.55 0 0 0
2 68.923 1907.48 1079.74 0 0 0
2 2307.41 3922.83 3877.05 0 0 0
2 664.968 1497.64 490.399 0 0 0
2 2015.2 3788.79 5000 0 0 0
2 1022.66 1131.17 612.055 0 0 0
2 503.234 283.7 509.059 0 0 0
2 1233.26 328.983 38.629 0 0 0
2 1802.75 0 4693.83 0 0 0
2 411.951 284.558 1022.4 0 0 0
2 969.864 700.821 582.38 0 0 0
2 222.943 669.119 589.839 0 0 0
2 0 3234.15 3141.69 0 0 0
2 1284.49 1638.11 2455.27 0 0 0
2 917.049 1084.74 129.847 0 0 0
2 5000 3400.76 3366.72 0 0 0
2 289.671 347.072 806.723 0 0 0
2 588.96 4652.74 757.354 0 0 0
2 1203.61 3841.98 0 0 0 0
2 4093.44 3361.21 1102.02 0 0 0
2 306.857 337.362 45.161 0 0 0
2 256.091 242.401 369.782 0 0 0
2 434.442 849.42 1393.18 0 0 0
2 135.668 1002.34 110.738 0 0 0
2 1080.01 2772.47 538.536 0 0 0
2 2410.57 2095.01 2845.57 0 0 0
2 785.54 0.115 1811.59 0 0 0
2 924.968 238.934 777.245 0 0 0
2 918.214 1254.75 371.129 0 0 0
2 595.408 160.148 1233.78 0 0 0
2 257.504 749.194 423.983 0 0 0
2 488.073 990.162 384.143 0 0 0
2 1007.03 1420.81 285.231 0 0 0
2 1053.97 862.676 5000 0 0 0
2 286.336 0 1215.31 0 0 0
2 596.253 1260.29 190.973 0 0 0
2 467.845 520.412 174.575 0 0 0
2 215.754 1197.79 983.372 0 0 0
2 421.261 1510.67 333.327 0 0 0
2 312.26 583.035 1617.18 0 0 0
2 99.701 1344.61 980.225 0 0 0
2 3465.71 1197.48 241.325 0 0 0
2 1321.72 364.561 181.263 0 0 0
2 503.779 1396.07 558.538 0 0 0
2 1875.53 687.706 3302.95 0 0 0
2 0 1108.12 4767.85 0 0 0
2 1281.97 951.816 720.859 0 0 0
2 1209.92 743.123 225.986 0 0 0
2 398.796 227.44 660.751 0 0 0
2 578.447 935.687 1147.44 0 0 0
2 1673.9 547.458 0.005 0 0 0
2 814.749 890.131 1105.21 0 0 0
2 686.417 1135.25 0 0 0 0
2 1841.43 1058.16 0 0 0 0
2 324.816 693.446 1297.83 0 0 0
2 1517.95 327.816 1179.41 0 0 0
2 1630.03 3342.73 4655.47 0 0 0
2 464.456 515.408 1114.62 0 0 0
2 463.009 869.408 501.636 0 0 0
2 618.401 1479.59 3217.31 0 0 0
2 777.717 175.978 617.884 0 0 0
2 1170.49 120.774 653.022 0 0 0
2 354.935 1425.83 704.197 0 0 0
2 723.41 1235.03 727.073 0 0 0
2 174.748 472.8 721.798 0 0 0
2 1021.61 273.796 466.699 0 0 0
2 575.06 1082.71 507.008 0 0 0
2 270.552 178.86 1148.63 0 0 0
2 1340.77 271.267 1165.77 0 0 0
2 715.329 1329.54 571.941 0 0 0
2 336.06 1189.19 411.143 0 0 0
2 3295.3 4071.25 3096.37 0 0 0
2 566.743 1605.83 2090.64 0 0 0
2 1038.77 380.425 1234.11 0 0 0
2 785.216 134.806 848.243 0 0 0
2 897.588 316.939 276.586 0 0 0
2 4556.22 4294.27 2638.67 0 0 0
2 299.771 1730.77 460.734 0 0 0
2 4797.28 2256.28 1160.98 0 0 0
2 675.283 690.692 336.017 0 0 0
2 1326.19 4225.58 1000.39 0 0 0
2 2162.45 4030.91 3781.02 0 0 0
2 646.879 587.583 187.246 0 0 0
2 1290.07 886.741 331.93 0 0 0
2 324.415 970.39 1268.62 0 0 0
2 4249.42 4997.53 130.709 0 0 0
2 552.599 1073.12 85.102 0 0 0
2 4978.74 2045.46 3197.3 0 0 0
2 2406.34 1498.46 2245.04 0 0 0
2 921.739 952.287 549.867 0 0 0
2 731.923 1130.01 395.716 0 0 0
2 250.514 617.532 106.468 0 0 0
2 808.844 710.788 666.716 0 0 0
2 1227.87 852.369 486.606 0 0 0
2 1462.5 692.632 343.945 0 0 0
2 2980.18 2103.01 2459.55 0 0 0
2 922.339 1.861 1418.21 0 0 0
2 1071.96 398.656 303.678 0 0 0
2 1862.42 4224.6 2707.49 0 0 0
2 1225.06 4569.84 2315.07 0 0 0
2 2924.89 0 4491.08 0 0 0
2 416.971 887.261 1081.22 0 0 0
2 604.151 1002.25 249.133 0 0 0
2 9.214 559.232 693.098 0 0 0
2 1043.24 1456.11 447.972 0 0 0
2 311.29 861.23 797.922 0 0 0
2 523.393 114.076 434.016 0 0 0
2 2013.92 2931.83 2638.15 0 0 0
2 578.602 12.403 580.778 0 0 0
2 731.059 1143.72 1421.29 0 0 0
2 1899.14 2001.74 645.167 0 0 0
2 1006.39 1285.77 515.365 0 0 0
2 701.227 968.122 1371.11 0 0 0
2 1252.71 419.38 407.767 0 0 0
2 1176.43 593.854 407.077 0 0 0
2 1056.08 780.1 415.451 0 0 0
2 722.892 628.522 1210.24 0 0 0
2 1189.09 4609.43 1354.87 0 0 0
2 1146.92 1390.24 780.158 0 0 0
2 3031.56 385.11 475.322 0 0 0
2 10.47 911.542 1760.34 0 0 0
2 1233.63 822.941 4906.21 0 0 0
2 445.713 669.961 959.204 0 0 0
2 768.321 440.285 140.962 0 0 0
2 332.654 294.405 1718.56 0 0 0
2 870.415 369.399 614.652 0 0 0
2 1016.71 1742.04 2457.41 0 0 0
2 390.357 735.726 142.129 0 0 0
2 1362.35 2119.76 2063.58 0 0 0
2 1283.11 1134.97 179.993 0 0 0
2 1534.47 2421.34 1272.79 0 0 0
2 28.787 919.092 1384.6 0 0 0
2 108.03 1130.3 1101.36 0 0 0
2 856.914 424.043 802.856 0 0 0
2 1008.97 659.987 1273.81 0 0 0
2 11.601 1410.96 796.521 0 0 0
2 2610.6 2016.02 545.299 0 0 0
2 889.528 1185.11 805.539 0 0 0
2 431.731 1350.73 149.595 0 0 0
2 163.061 788.653 102.218 0 0 0
2 816.28 673.735 483.812 0 0 0
2 441.94 1655.12 154.193 0 0 0
2 1801.51 837.369 2087.67 0 0 0
2 403.798 1673.87 789.443 0 0 0
2 1602.24 609.706 651.693 0 0 0
2 3581.05 2996.65 1662.5 0 0 0
2 119.804 349.403 266.857 0 0 0
2 818.635 978.438 3549.53 0 0 0
2 899.582 556.563 638.538 0 0 0
2 527.885 338.034 149.633 0 0 0
2 420.083 337.376 349.787 0 0 0
2 391.579 1031.52 847.05 0 0 0
2 243.268 953.676 1100.97 0 0 0
2 2923.98 4733.81 0.002 0 0 0
2 1315.06 933.381 950.32 0 0 0
2 2475.41 221.439 72.316 0 0 0
2 996.803 1807.99 1519.75 0 0 0
2 1154.33 1090.2 733.264 0 0 0
2 3199.21 4986.57 0.201 0 0 0
2 411.708 63.991 574.873 0 0 0
2 342.837 110.171 907.333 0 0 0
2 4049.35 576.132 1404.69 0 0 0
2 921.175 1052.42 368.217 0 0 0
2 1087.1 864.233 265.273 0 0 0
2 2948.18 2948.13 1747.25 0 0 0
2 1078.89 1209.52 322.94 0 0 0
2 1044.87 99.086 535.306 0 0 0
2 883.293 560.757 1370.39 0 0 0
2 156.684 753.546 1077.85 0 0 0
2 1556.58 540.242 404.544 0 0 0
2 4442.02 261.009 1006.21 0 0 0
2 1158.2 311.876 1334.87 0 0 0
2 593.833 1103.64 686.713 0 0 0
2 887.11 590.277 989.117 0 0 0
2 512.165 699.905 1585.38 0 0 0
2 1524.64 853.065 1286.1 0 0 0
2 1737.18 1913.99 271.238 0 0 0
2 5000 4074.51 3079.7 0 0 0
2 1402.32 742.729 174.129 0 0 0
2 116.711 1045.72 768.544 0 0 0
2 845.787 913.709 125.358 0 0 0
2 1038.19 433.197 641.002 0 0 0
2 4993.19 4991.88 34.696 0 0 0
2 2833.73 2812.82 1313.51 0 0 0
2 4674.28 4711.3 107.296 0 0 0
2 2550.16 2701.52 1078.38 0 0 0
2 1407.37 2361.59 328.944 0 0 0
2 13.815 273.426 2918.46 0 0 0
2 1292.73 716.648 375.034 0 0 0
2 3517.12 1909.67 1880.21 0 0 0
2 691.761 592.899 599.899 0 0 0
2 0 4552.91 5000 0 0 0
2 833.023 1096.99 982.437 0 0 0
2 3288.1 2217.06 2442.04 0 0 0
2 1293.38 4085.52 3374.54 0 0 0
2 4106.77 1484.81 595.023 0 0 0
2 1467.33 955.347 0.114 0 0 0
2 1042.94 1240.14 755.844 0 0 0
2 1721.91 2738.06 3481.72 0 0 0
2 668.683 79.573 731.664 0 0 0
2 558.409 3543.54 813.784 0 0 0
2 573.549 1967.38 812.328 0 0 0
2 363.28 711.075 1115.68 0 0 0
2 145.482 535.073 256.211 0 0 0
2 1129.42 606.36 1758.76 0 0 0
2 1548.63 519.271 189.893 0 0 0
2 1461.07 654.033 783.608 0 0 0
2 1201.46 158.04 1218.01 0 0 0
2 3475.54 518.645 2526.24 0 0 0
2 1411.4 812.924 3251.09 0 0 0
2 452.932 297.504 1213.93 0 0 0
2 1197.88 45.198 1528.56 0 0 0
2 744.213 1050.61 568.482 0 0 0
2 3186.99 934.348 4153.53 0 0 0
2 3048.61 4902.73 1409.77 0 0 0
2 1097.63 688.51 1083.04 0 0 0
2 403.306 908.997 2389.3 0 0 0
2 494.775 56.183 723.168 0 0 0
2 1389.58 910.761 560.554 0 0 0
2 19.254 2907.59 2597.23 0 0 0
2 671.538 936.368 687.345 0 0 0
2 1471.37 697.664 530.845 0 0 0
2 3333.63 0 866.349 0 0 0
2 1269.55 327.496 1021.23 0 0 0
2 543.06 1249.55 0.618 0 0 0
2 295.117 834.591 626.101 0 0 0
2 1240.44 771.57 672.997 0 0 0
2 450.616 538.639 531.223 0 0 0
2 601.158 1168.72 3034.37 0 0 0
2 527.412 551.185 682.739 0 0 0
2 621.893 363.55 298.763 0 0 0
2 43.172 1233.88 55.908 0 0 0
2 76.469 417.899 1760.92 0 0 0
2 287.373 2065.95 2686.51 0 0 0
2 4999.77 560.437 2202.85 0 0 0
2 738.118 1260.32 1027.79 0 0 0
2 1221.09 234.476 500.076 0 0 0
2 89.127 534.137 1025.16 0 0 0
2 887.665 4630.53 5000 0 0 0
2 0.112 81.221 1563.56 0 0 0
2 484.121 790.47 1223.31 0 0 0
2 988.787 1264.18 148.553 0 0 0
2 2115.78 602.871 75.774 0 0 0
2 726.339 1639.06 706.815 0 0 0
2 61.074 736.345 1361.52 0 0 0
2 2883.16 4137.02 2232.36 0 0 0
2 2618.46 1182.2 3509.32 0 0 0
2 2127.32 0 723.846 0 0 0
2 1190.53 699.073 1251.99 0 0 0
2 484.279 2935.26 2575.74 0 0 0
2 118.023 73.779 3171.77 0 0 0
2 928.964 1674.46 83.068 0 0 0
2 1079.17 408.122 1057.04 0 0 0
2 2528.88 3272.9 781.613 0 0 0
2 109.903 555.178 2198.9 0 0 0
2 1416.45 986.014 260.466 0 0 0
2 1159.46 833.375 977.891 0 0 0
2 1181.86 64.134 238.499 0 0 0
2 909.221 146.739 312.264 0 0 0
2 2908.08 3294.59 1124.93 0 0 0
2 111.549 161.817 433.718 0 0 0
2 211.874 1413.59 478.29 0 0 0
2 766.193 3048.14 2996.95 0 0 0
2 774.18 999.899 827.134 0 0 0
2 248.635 36.412 533.885 0 0 0
2 2461.32 1176.84 0.004 0 0 0
2 4566.85 1827.2 3552.77 0 0 0
2 2365.87 3571.99 4869.51 0 0 0
2 735.364 810.941 1313.63 0 0 0
2 1097.55 84.689 980.822 0 0 0
2 4724.51 4105.08 1554.06 0 0 0
2 120.227 263.07 1396.11 0 0 0
2 165.442 2446.12 933.726 0 0 0
2 829.708 2398.38 897.415 0 0 0
2 1584.84 1307.64 640.209 0 0 0
2 546.279 1182.04 341.659 0 0 0
2 718.854 289.712 792.701 0 0 0
2 1915.55 726.065 0 0 0 0
2 11.491 1575.76 277.645 0 0 0
2 392.78 864.888 278.054 0 0 0
2 1057.81 462.578 460.572 0 0 0
2 797.614 278.966 1304.94 0 0 0
2 933.018 6.02 2346.43 0 0 0
2 240.054 969.58 908.027 0 0 0
2 2225.82 524.644 903.198 0 0 0
2 727.875 340.481 956.373 0 0 0
2 1159.61 4832.22 2392.27 0 0 0
2 365.705 1398.93 3630.12 0 0 0
2 3704.76 1872.59 2632.4 0 0 0
2 667.982 2419.14 1082.49 0 0 0
2 1968.85 1222.3 1610.11 0 0 0
2 1363.66 239.015 703.439 0 0 0
2 140.838 1094.05 1286.96 0 0 0
2 871.119 3759.88 1212.87 0 0 0
2 358.49 1027.97 503.21 0 0 0
2 1240.57 162.642 0 0 0 0
2 1791.34 379.182 1643.4 0 0 0
2 704.158 1314.64 385.187 0 0 0
2 3258.72 0 4685.61 0 0 0
2 2922.11 1002.32 15.989 0 0 0
2 283.984 1304.31 837.529 0 0 0
2 1240.24 898.574 161.491 0 0 0
2 144.432 829.197 722.823 0 0 0
2 1733.79 401.602 3080.42 0 0 0
2 741.288 1500.97 231.869 0 0 0
2 1117.66 992.957 888.833 0 0 0
2 1412.73 2449.95 178.485 0 0 0
2 1235.26 121.354 3261.35 0 0 0
2 617.562 329.156 1310.68 0 0 0
2 3281.15 1335.4 3866.39 0 0 0
2 450.028 1110.79 1513.69 0 0 0
2 3112.89 3074.63 2508.95 0 0 0
2 322.039 1273.55 254.335 0 0 0
2 58.653 951.7 411.439 0 0 0
2 1673.18 847.965 1138.13 0 0 0
2 394.216 474.759 1280.76 0 0 0
2 952.516 381.339 1381.41 0 0 0
2 234.11 934.479 349.092 0 0 0
2 880.958 179.685 482.874 0 0 0
2 996.616 867.571 1066.94 0 0 0
2 1199.48 1055.73 1343.92 0 0 0
2 424.068 171.057 274.725 0 0 0
2 861.713 2935.24 0 0 0 0
2 362.467 2217.14 399.014 0 0 0
2 3.868 1749.87 1695.61 0 0 0
2 931.84 643.678 358.315 0 0 0
2 0 2242.62 2733.99 0 0 0