ITEM: TIMESTEP
0
ITEM: NUMBER OF ATOMS
1000
ITEM: BOX BOUNDS pp pp pp
-1.0000000000000000e+02 4.1000000000000000e+03
-1.0000000000000000e+02 4.1000000000000000e+03
-1.0000000000000000e+02 4.1000000000000000e+03
ITEM: ATOMS type x y z ix iy iz
1 0.083 165.76 117.309 0 0 0
1 1874.09 0.647 171.197 0 0 0
1 3.232 1354.74 488.563 0 0 0
1 753.137 143.576 579.958 0 0 0
1 577.322 1252.35 728.684 0 0 0
1 1919.44 372.278 143.173 0 0 0
1 1695.3 1656.8 1868.49 0 0 0
1 14.412 196.818 1795.29 0 0 0
1 1972.77 1949.04 1545.61 0 0 0
1 0.002 1730.91 67.773 0 0 0
1 620.095 1943.52 26.889 0 0 0
1 1196.93 2000 1104.27 0 0 0
1 910.92 775.461 774.522 0 0 0
1 0 0 1641.59 0 0 0
1 790.522 295.648 958.372 0 0 0
1 625.071 847.111 6.55 0 0 0
1 342.929 589.763 70.462 0 0 0
1 80.675 443.825 9.624 0 0 0
1 681.072 88.461 432.418 0 0 0
1 312.321 940.389 53.967 0 0 0
1 497.824 334.342 172.703 0 0 0
1 98.786 104.36 500.206 0 0 0
1 820.424 802.528 569.417 0 0 0
1 329.414 948.262 372.827 0 0 0
1 242.859 856.493 699.247 0 0 0
1 15.72 1929.06 252.307 0 0 0
1 770.249 635.684 582.623 0 0 0
1 2000 1606.54 0 0 0 0
1 602.966 43.837 702.701 0 0 0
1 673.391 810.619 765.278 0 0 0
1 427.721 426.416 625.291 0 0 0
1 593.708 450.782 386.662 0 0 0
1 63.362 427.166 332.595 0 0 0
1 835.338 299.798 253.008 0 0 0
1 1.102 304.982 360.338 0 0 0
1 877.661 177.494 960.527 0 0 0
1 906.485 961.25 446.573 0 0 0
1 737.672 647.215 123.937 0 0 0
1 781.743 235.084 745.411 0 0 0
1 6.96 920.685 609.615 0 0 0
1 367.768 478.221 414.475 0 0 0
1 504.71 471.27 229.21 0 0 0
1 790.486 819.947 286.889 0 0 0
1 444.092 101.745 640.541 0 0 0
1 473.639 402.199 351.004 0 0 0
1 216.927 780.516 791.259 0 0 0
1 130.115 923.681 362.208 0 0 0
1 302.261 499.825 956.091 0 0 0
1 303.643 277.438 674.058 0 0 0
1 798.816 792.006 408.807 0 0 0
1 355.522 366.524 205.314 0 0 0
1 586.766 663.175 789.82 0 0 0
1 744.189 925.842 864.526 0 0 0
1 376.855 750.377 124.481 0 0 0
1 537.227 393.937 476.387 0 0 0
1 602.888 353.053 775.358 0 0 0
1 587.781 302.696 408.651 0 0 0
1 396.176 527.147 758.48 0 0 0
1 197.206 499.703 523.959 0 0 0
1 0 637.818 0 0 0 0
1 1999.93 1258.42 464.359 0 0 0
1 54.408 0.011 517.008 0 0 0
1 909.804 347.236 441.175 0 0 0
1 3928.88 0 792.767 0 0 0
1 3999.75 1178.28 1986.66 0 0 0
1 3316.38 1757.58 1908.99 0 0 0
1 2127.36 145.145 1747.11 0 0 0
1 3663.92 1145.38 1617.9 0 0 0
1 3999.99 1999.96 585.813 0 0 0
1 2820.84 0 2000 0 0 0
1 2225.93 195.573 589.065 0 0 0
1 2622.73 0 0 0 0 0
1 3433.55 1434.94 1628.71 0 0 0
1 3998.91 0 892.117 0 0 0
1 3900.2 1968.96 47.886 0 0 0
1 3385.54 648.583 1369.97 0 0 0
1 2114.21 976.407 480.664 0 0 0
1 2052.84 856.733 242.228 0 0 0
1 2000 524.662 148.198 0 0 0
1 2193.89 406.769 140.382 0 0 0
1 2090.88 107.61 391.303 0 0 0
1 2000 442.078 397.755 0 0 0
1 2188.15 701.779 162.591 0 0 0
1 2076.24 606.114 863.511 0 0 0
1 2006.32 853.293 348.577 0 0 0
1 2000 724.867 321.134 0 0 0
1 2039.6 995.984 357.624 0 0 0
1 2241.36 590.563 244.61 0 0 0
1 2000 672.195 80.546 0 0 0
1 2043.14 494.616 830.052 0 0 0
1 2484.31 70.886 1803.59 0 0 0
1 2178.36 406.956 891.759 0 0 0
1 2232.09 911.916 104.984 0 0 0
1 3555.47 45.201 60.615 0 0 0
1 2040.22 695.735 506.6 0 0 0
1 2120.28 777.09 546.842 0 0 0
1 2179.72 587.6 119.362 0 0 0
1 2692.41 0 200.527 0 0 0
1 2127.38 869.99 399.53 0 0 0
1 2037.1 1.391 11.631 0 0 0
1 2116.8 418.1 224.63 0 0 0
1 2001.83 249.577 538.211 0 0 0
1 2196.28 768.194 38.164 0 0 0
1 2013.99 456.504 630.592 0 0 0
1 2108.03 337.456 591.199 0 0 0
1 2721.87 1010.52 0 0 0 0
1 2036.38 495.856 308.722 0 0 0
1 2228.28 918.113 291.319 0 0 0
1 2169.91 371.154 462.27 0 0 0
1 2343.4 731.1 271.715 0 0 0
1 3981.76 1547.8 912.325 0 0 0
1 2000 396.42 522.217 0 0 0
1 2034.28 1035.68 201.373 0 0 0
1 2138.76 322.317 976.865 0 0 0
1 2077.87 381.014 347.895 0 0 0
1 2214.95 739.044 759.233 0 0 0
1 3994.77 1998.84 0.133 0 0 0
1 2016.9 366.193 197.851 0 0 0
1 2049.24 389.064 741.337 0 0 0
1 4000 1881.51 1795.25 0 0 0
1 2000 813.495 45.406 0 0 0
1 2000.08 820.602 1058.61 0 0 0
1 3846.45 228.97 237.933 0 0 0
1 2763.07 948.17 120.795 0 0 0
1 2084.85 886.512 660.421 0 0 0
1 1040.13 3192.02 1738.72 0 0 0
1 1.811 3999.25 1999.57 0 0 0
1 0.121 2001.5 3.749 0 0 0
1 881.836 2000 2000 0 0 0
1 1786.52 3704.47 1999.97 0 0 0
1 0.006 3999.97 330.57 0 0 0
1 500.906 2735.23 1911.75 0 0 0
1 1685.37 2288.13 1899.43 0 0 0
1 1638.59 2001.59 1436.86 0 0 0
1 386.105 2000.01 97.579 0 0 0
1 624.145 3049.98 2.267 0 0 0
1 1539.81 3987.32 495.468 0 0 0
1 750.934 2285.33 992.059 0 0 0
1 964.394 2070.73 642.286 0 0 0
1 551.5 2143.52 770.977 0 0 0
1 146.092 2147.62 281.24 0 0 0
1 305.101 2136.26 64.299 0 0 0
1 957.166 2169.25 836.623 0 0 0
1 867.855 2268.98 845.758 0 0 0
1 204.584 2171.58 162.194 0 0 0
1 608.199 2201.42 503.623 0 0 0
1 785.767 2000 936.116 0 0 0
1 876.856 2132.23 585.752 0 0 0
1 213.75 2036.38 917.379 0 0 0
1 924.524 2164.67 445.38 0 0 0
1 67.582 2404.19 153.231 0 0 0
1 651.157 2225.96 893.242 0 0 0
1 966.952 2195.63 108.768 0 0 0
1 844.618 2103.69 282.64 0 0 0
1 186.612 2251.88 2.606 0 0 0
1 837.451 2084.23 774.156 0 0 0
1 602.086 2055.85 271.001 0 0 0
1 985.754 2174.94 299.651 0 0 0
1 2.691 2792.5 642.04 0 0 0
1 533.854 2198.43 874.464 0 0 0
1 162.25 2003.04 552.154 0 0 0
1 40.81 2205.78 343.429 0 0 0
1 459.271 2140.2 939.755 0 0 0
1 462.494 2096.84 92.03 0 0 0
1 771.823 2107.84 559.348 0 0 0
1 32.138 2622.69 1899.14 0 0 0
1 1038.87 2265.09 867.321 0 0 0
1 796.743 2096.76 883.78 0 0 0
1 172.6 2000 291.241 0 0 0
1 595.397 2079.01 89.411 0 0 0
1 253.2 2274.98 134.39 0 0 0
1 140.646 3899.32 0 0 0 0
1 510.991 2000 717.106 0 0 0
1 815.749 2290.65 56.043 0 0 0
1 17.96 2203.7 498.161 0 0 0
1 126.605 2228.72 670.529 0 0 0
1 847.913 2193.73 116.016 0 0 0
1 166.472 2138.57 907.837 0 0 0
1 425.144 2195.91 482.463 0 0 0
1 691.477 2182.07 761.055 0 0 0
1 675.026 3108.74 793.337 0 0 0
1 77.769 2226.39 902.519 0 0 0
1 98.504 3946.07 162.425 0 0 0
1 0.146 2080.42 80.968 0 0 0
1 336.995 3331.31 1535.08 0 0 0
1 90.93 2072.47 344.846 0 0 0
1 908.629 2399.48 1667.79 0 0 0
1 408.752 2225.3 662.339 0 0 0
1 1898.22 415.407 2360.66 0 0 0
1 364.908 1493.46 3802.95 0 0 0
1 20.155 1136.15 3914.2 0 0 0
1 832.238 1506.18 3898.57 0 0 0
1 1636.07 584.435 2410.63 0 0 0
1 649.973 749.722 2875.82 0 0 0
1 1155.42 991.656 3609.16 0 0 0
1 0 1526.2 4000 0 0 0
1 104.266 507.877 2000 0 0 0
1 2000 0 2270.87 0 0 0
1 0.001 0.007 2922.66 0 0 0
1 10.862 10.885 4000 0 0 0
1 606.027 620.129 2255.85 0 0 0
1 108.014 0 2105.97 0 0 0
1 444.989 322.868 2138.74 0 0 0
1 729.52 673.871 2098.86 0 0 0
1 586.571 746.068 2087.84 0 0 0
1 639.896 856.637 2134.29 0 0 0
1 762.902 499.769 2000 0 0 0
1 878.087 821.735 2170.64 0 0 0
1 384.206 950.439 2153.82 0 0 0
1 1598.35 1440.68 2198.79 0 0 0
1 570.705 975.885 2188.12 0 0 0
1 874.3 141.352 2216.29 0 0 0
1 993.194 772.227 2001.07 0 0 0
1 196.903 281.344 2093.05 0 0 0
1 532.854 52.176 2267.75 0 0 0
1 5.707 1007.96 2185.27 0 0 0
1 188.513 562.033 2194.98 0 0 0
1 820.906 537.49 2127.93 0 0 0
1 321.594 269.645 2135.2 0 0 0
1 310.562 606.166 2094.95 0 0 0
1 678.87 740.268 2177.11 0 0 0
1 286.056 985.861 2088.33 0 0 0
1 397.061 594.733 2210.87 0 0 0
1 465.93 1001.28 2000 0 0 0
1 172.832 585.813 2080.95 0 0 0
1 111.793 341.026 2184.75 0 0 0
1 184.236 123.087 2117.52 0 0 0
1 395.325 496.5 2126.98 0 0 0
1 665.02 690.454 2000.64 0 0 0
1 584.277 137.275 2111.64 0 0 0
1 490.711 895.866 2040 0 0 0
1 726.745 790.562 2052.11 0 0 0
1 426.795 754.583 2219.98 0 0 0
1 723.594 595.467 2207.27 0 0 0
1 1942.65 173.805 2066.01 0 0 0
1 684.945 967.442 2111.54 0 0 0
1 243.466 828.547 2047.23 0 0 0
1 326.892 110.515 2075.64 0 0 0
1 952.107 681.465 2113.07 0 0 0
1 738.894 204.399 2147.86 0 0 0
1 614.873 555.946 2153.63 0 0 0
1 784.598 1322.36 3530.13 0 0 0
1 291.59 879.507 2214.05 0 0 0
1 131.656 813.665 2131.1 0 0 0
1 949.886 657.739 3999.9 0 0 0
1 1993.33 251.773 3980.32 0 0 0
1 0.002 0.005 3381.09 0 0 0
1 1180.89 17.465 3999.82 0 0 0
1 583.923 78.77 2000.02 0 0 0
1 276.608 462.89 2056.68 0 0 0
1 2137.03 2044.57 1883.68 0 0 0
1 3118.62 2908.51 3.462 0 0 0
1 3179.8 2765.08 1358.49 0 0 0
1 3999.87 2000.06 1038.96 0 0 0
1 2097.07 2330.12 2.62 0 0 0
1 3637.1 3866.67 484.092 0 0 0
1 3670.56 2002.72 0.246 0 0 0
1 2000 3398.23 897.008 0 0 0
1 2859.33 2081.55 1150.15 0 0 0
1 4000 3694.59 0 0 0 0
1 2343.08 2081.09 1997.14 0 0 0
1 2026.76 2000.58 1260.46 0 0 0
1 3601.75 2006.47 434.032 0 0 0
1 2025.4 2000.54 1861.2 0 0 0
1 2114.06 2279.16 703.016 0 0 0
1 2000 2463.17 229.142 0 0 0
1 2286.62 2124.29 332.053 0 0 0
1 2103.58 2026.67 1768.22 0 0 0
1 2449.45 2000 866.371 0 0 0
1 2027.32 3060.35 1132.65 0 0 0
1 2336.96 2168.49 453.886 0 0 0
1 3435.56 2031.03 1843.54 0 0 0
1 2585.12 2589.23 617.904 0 0 0
1 2000 2000 814.299 0 0 0
1 3742.4 3984.53 260.579 0 0 0
1 2309.89 2000 435.455 0 0 0
1 2175.18 2221.4 969.343 0 0 0
1 2020.34 3128.97 1.691 0 0 0
1 2155.68 2215.81 359.293 0 0 0
1 2252.17 2243.65 306.073 0 0 0
1 2332.95 2203.67 211.202 0 0 0
1 3127.23 2000 1018.48 0 0 0
1 2160.59 2226.22 1.74 0 0 0
1 3986.93 3639.43 1925.2 0 0 0
1 2270.3 2341.57 555.28 0 0 0
1 2012.06 2208.18 948.563 0 0 0
1 2269.65 2044.15 961.952 0 0 0
1 2000.92 2255.59 530.865 0 0 0
1 2149.49 2132.01 681.273 0 0 0
1 2002.59 2092.79 219.193 0 0 0
1 2341.21 2000 178.173 0 0 0
1 2000 2224.07 738.072 0 0 0
1 2000.13 3616.15 1990.19 0 0 0
1 2937.74 2541.19 850.395 0 0 0
1 2161.96 2000 805.989 0 0 0
1 2231.13 2209.82 667.566 0 0 0
1 2003.17 2333.86 731.653 0 0 0
1 3751.09 2650.01 164.017 0 0 0
1 2001.42 3895.97 1999.74 0 0 0
1 2302.57 2217.72 800.102 0 0 0
1 2190.89 2228.42 1973.76 0 0 0
1 2317.9 2000 654.49 0 0 0
1 3481.24 3288 720.862 0 0 0
1 2000 2378.85 611.849 0 0 0
1 2787.04 2297.38 229.576 0 0 0
1 3174.61 2000 472.301 0 0 0
1 2178.18 2138.34 840.115 0 0 0
1 2278.27 2457.9 461.835 0 0 0
1 2000.02 2000.09 451.185 0 0 0
1 3581.85 2200.31 747.83 0 0 0
1 4000 2638.11 2000 0 0 0
1 3687.4 3559.45 1042.92 0 0 0
1 3798.06 2003.5 79.254 0 0 0
1 4000 1042.79 2000 0 0 0
1 3736.14 1280.59 2000.24 0 0 0
1 3999.87 1.945 2077.03 0 0 0
1 2839.04 547.929 2283.02 0 0 0
1 2170.15 1914.87 3397.66 0 0 0
1 2000.05 1999.97 3302.85 0 0 0
1 2000 0 3179.07 0 0 0
1 3970.94 548.632 2000.03 0 0 0
1 2251.91 1997.22 3999.97 0 0 0
1 2000 0.016 3067.6 0 0 0
1 2460.75 1070.9 3520.32 0 0 0
1 3999.93 272.368 3999.93 0 0 0
1 2000 1800.01 2876.94 0 0 0
1 2755.78 120.687 3383.65 0 0 0
1 3967.66 1781.97 2145.97 0 0 0
1 2003.9 1367.5 2782.33 0 0 0
1 3109.13 192.366 2000 0 0 0
1 2000 360.961 2760.37 0 0 0
1 2131.19 452.213 2206.63 0 0 0
1 2006.1 631.402 2416.66 0 0 0
1 2086.17 92.991 2328.36 0 0 0
1 2378.16 142.045 3529.65 0 0 0
1 2214.83 11.529 2193.76 0 0 0
1 2461.21 319.631 2000.14 0 0 0
1 2014.92 1860.79 2718.91 0 0 0
1 3334.96 1999.44 2474.85 0 0 0
1 3882.49 614.15 2681.92 0 0 0
1 2138.47 171.303 2200.52 0 0 0
1 2716.16 998.725 2000.04 0 0 0
1 2000.69 105.66 3099.44 0 0 0
1 2449.2 1005.48 2000.12 0 0 0
1 2056.63 1415.04 3893.29 0 0 0
1 2319.45 253.517 2000 0 0 0
1 3705.36 0.081 2815.45 0 0 0
1 2000.15 876.259 2646.14 0 0 0
1 3224.82 279.131 2006.15 0 0 0
1 3457.59 67.607 2139.33 0 0 0
1 2978.62 96.151 2129.95 0 0 0
1 2374.11 1842.14 2000 0 0 0
1 2004.21 844.608 2019.97 0 0 0
1 3999.99 830.584 2000.07 0 0 0
1 2000 823.706 2201.09 0 0 0
1 2579.14 1897.95 2128.7 0 0 0
1 3823.31 1015.77 2033.6 0 0 0
1 2964.77 977.566 2000 0 0 0
1 2000 1268.45 2716.03 0 0 0
1 3098.95 273.691 3652.07 0 0 0
1 3722.18 0 2000 0 0 0
1 2075.14 1429.93 2693.05 0 0 0
1 3638 42.444 2056.68 0 0 0
1 3445.6 1910.07 3336.08 0 0 0
1 2009.77 1072.11 2827.39 0 0 0
1 2185.69 126.322 2000 0 0 0
1 2000.18 176.133 2915.37 0 0 0
1 3039.43 1003.73 2545.89 0 0 0
1 3381.17 289.428 2000 0 0 0
1 2081.22 22.186 2716.89 0 0 0
1 3260.84 881.615 2000.11 0 0 0
1 3601.03 39.28 2880.61 0 0 0
1 3671.14 1999.98 2582.7 0 0 0
1 3344.2 680.126 3158.48 0 0 0
1 2584.62 946.009 3506.47 0 0 0
1 844.583 4000 2000 0 0 0
1 10.806 3889.5 3979.95 0 0 0
1 514.365 2061.18 3939.35 0 0 0
1 774.938 3088.75 2016.64 0 0 0
1 1999.69 3997.14 3997.72 0 0 0
1 995.997 3763.04 2064.95 0 0 0
1 1857.79 2909.88 3837.33 0 0 0
1 1160.92 2321.14 2050.09 0 0 0
1 705.941 2284.86 3004.11 0 0 0
1 651.243 4000 3847.67 0 0 0
1 0.012 3179.66 4000 0 0 0
1 330.749 3883.73 4000 0 0 0
1 40.521 2956.96 3995.69 0 0 0
1 0.645 2075.99 2457.4 0 0 0
1 869.029 2306.17 2058.9 0 0 0
1 0 3221.17 2524.52 0 0 0
1 24.043 2313.89 2000 0 0 0
1 424.889 2145.64 2346.84 0 0 0
1 345.728 2053.18 2565.39 0 0 0
1 870.902 2090.9 2259.95 0 0 0
1 1999.06 3704.74 3495.19 0 0 0
1 682.251 2100.6 2263.83 0 0 0
1 684.701 2000.79 2210.79 0 0 0
1 305.499 2345.1 2108.93 0 0 0
1 744.736 2087.03 2382.86 0 0 0
1 614.207 2249.8 2189.61 0 0 0
1 499.799 2024.52 2322.62 0 0 0
1 995.041 2095.32 2215.52 0 0 0
1 816.792 2202.82 2104.9 0 0 0
1 1567.43 2262.43 3178.69 0 0 0
1 262.962 2088.68 2432.11 0 0 0
1 136.256 2180.41 2000 0 0 0
1 239.769 2648.91 2356.84 0 0 0
1 656.415 2082.36 2099.76 0 0 0
1 584.248 2086.32 2185.99 0 0 0
1 55.859 2225.21 2065.35 0 0 0
1 374.058 2120.71 2098.38 0 0 0
1 304.706 2109.27 2190.94 0 0 0
1 1775.63 2237.38 3144.2 0 0 0
1 280.554 2193.84 2065.68 0 0 0
1 970.923 2225.85 2044.87 0 0 0
1 242.143 2246.4 2343.32 0 0 0
1 418.221 2009.7 2007.58 0 0 0
1 61.376 2123.27 2140.19 0 0 0
1 791.165 2265.3 2275.07 0 0 0
1 418.062 2315.6 2175.15 0 0 0
1 948.975 2199.88 2161.44 0 0 0
1 478.495 2000 2162.81 0 0 0
1 0 2533.15 3750.13 0 0 0
1 37.977 2229.97 2241.99 0 0 0
1 918.589 2000 2975.41 0 0 0
1 188.893 2146.25 2272.55 0 0 0
1 902.158 2115.57 2020.16 0 0 0
1 413.002 2063.13 2228.4 0 0 0
1 999.582 2270.97 2310.98 0 0 0
1 492.16 2130.06 2010.42 0 0 0
1 314.56 2201.9 2265.71 0 0 0
1 137.758 3996.12 2250.81 0 0 0
1 456.745 3837.15 3806.93 0 0 0
1 26.692 2001.14 2362.27 0 0 0
1 1774.88 2134.41 3486.6 0 0 0
1 0.092 2792.36 2000.03 0 0 0
1 1981.84 3600.06 2097.46 0 0 0
1 2681.37 3202.89 3502.42 0 0 0
1 2020.26 3999.88 3518.74 0 0 0
1 3955.32 3999.93 3282.87 0 0 0
1 2841.44 3003.18 2000 0 0 0
1 3519.32 2596.99 2430.1 0 0 0
1 2346.78 3963.77 2180.61 0 0 0
1 2017.09 3384.12 3961.55 0 0 0
1 3145.18 2711.03 2749.7 0 0 0
1 2232.14 4000 2381.52 0 0 0
1 3516.42 3597.14 2001.46 0 0 0
1 3407.18 3720.53 3460.66 0 0 0
1 4000 2000 2985.34 0 0 0
1 2914.47 3796.5 3999.95 0 0 0
1 2075.05 2124.18 3900.71 0 0 0
1 2200.5 3369.61 2000 0 0 0
1 2047.1 2000 2586.1 0 0 0
1 3836.5 2170.46 2000 0 0 0
1 2000 2649.47 3193.25 0 0 0
1 2139.63 2690.17 2253.76 0 0 0
1 3899.75 2103.98 2217.59 0 0 0
1 2575.48 2107.59 2070.82 0 0 0
1 2057.36 2009.25 3569.53 0 0 0
1 2664.74 2000 2743.24 0 0 0
1 2804.34 2003.63 3974.96 0 0 0
1 3999.86 3761.18 2000.17 0 0 0
1 2119.78 3245.44 2000 0 0 0
1 3351.47 2000 2920.78 0 0 0
1 3487.73 3074.75 3041.03 0 0 0
1 2063.93 2391.18 2409.94 0 0 0
1 2000 2295.63 3678.45 0 0 0
1 2034.58 2124.43 3693.45 0 0 0
1 3356.16 3961.39 3959.1 0 0 0
1 2011.19 3312.83 2005.94 0 0 0
1 3294.61 3084.89 2000 0 0 0
1 2923.15 3182.82 2000 0 0 0
1 2296.67 3887.11 2012.35 0 0 0
1 2604.61 3755.03 2007.69 0 0 0
1 2088.58 3951.14 2568.88 0 0 0
1 2003.43 3801.52 3812.39 0 0 0
1 3384.98 2000 2253.13 0 0 0
1 3587.75 4000 4000 0 0 0
1 2728.17 2151.46 2653.33 0 0 0
1 3047.78 3590.57 2016.94 0 0 0
1 2320.21 3975.74 2291.02 0 0 0
1 2013.91 3737.95 2395.19 0 0 0
1 2416.32 2179.12 2383.36 0 0 0
1 3971.44 2258.49 3998.53 0 0 0
1 2064.23 2675.84 2105.53 0 0 0
1 2000 2747.05 2552.94 0 0 0
1 3214.39 2126.97 2126.09 0 0 0
1 2342.33 2000 3593.2 0 0 0
1 2000 2771 3540.12 0 0 0
1 2422.87 2149.82 2054.89 0 0 0
1 2319.28 2251.61 2005.59 0 0 0
1 3817.01 2086.11 3783.29 0 0 0
1 3630.62 2076.06 2077.45 0 0 0
1 4000 2731.51 4000 0 0 0
1 2234.63 3432.45 2507.38 0 0 0
1 3800.74 3999.69 2268.7 0 0 0
1 3509.8 3383.64 3997.24 0 0 0
1 2816.13 3873.78 3985.38 0 0 0
1 3436.65 3863 3812.39 0 0 0
2 1552.08 806.512 159.691 0 0 0
2 1983 1994.12 17.278 0 0 0
2 1021.82 1182.35 1514.12 0 0 0
2 0 106.293 0 0 0 0
2 1999.97 594.494 0.013 0 0 0
2 1194.27 1661.48 0.107 0 0 0
2 427.896 1912.67 1933.26 0 0 0
2 1291.91 1698.15 284.828 0 0 0
2 35.387 1810.73 2000 0 0 0
2 3.088 1372.21 2000 0 0 0
2 1721.65 1482.42 139.105 0 0 0
2 211.953 1901.65 0.001 0 0 0
2 2.211 314.897 246.53 0 0 0
2 80.575 1802.49 1604.16 0 0 0
2 485.34 554.457 382.332 0 0 0
2 70.766 422.347 898.05 0 0 0
2 331.651 735.326 658.293 0 0 0
2 1320.24 737.851 1754.13 0 0 0
2 771.617 662.152 993.127 0 0 0
2 636.695 203.324 268.942 0 0 0
2 338.789 867.178 894.124 0 0 0
2 670.294 719.553 379.532 0 0 0
2 251.336 15.055 387.163 0 0 0
2 13.781 77.65 1055.85 0 0 0
2 612.625 0.825 911.803 0 0 0
2 693.562 1244.9 776.385 0 0 0
2 238.689 532.891 754.429 0 0 0
2 278.427 869.586 260.481 0 0 0
2 0 762.174 962.349 0 0 0
2 798.56 622.884 877.684 0 0 0
2 13.506 176.138 1945.37 0 0 0
2 2000 1439.81 2.849 0 0 0
2 631.728 289.814 556.669 0 0 0
2 102.275 1739.12 556.46 0 0 0
2 343.305 696.122 2.465 0 0 0
2 115.005 438.843 461.295 0 0 0
2 844.122 545.71 778.894 0 0 0
2 167.566 317.096 266.307 0 0 0
2 677.037 638.091 669.263 0 0 0
2 390.445 469.556 131.86 0 0 0
2 428.104 1062.9 527.785 0 0 0
2 483.434 768.223 336.945 0 0 0
2 695.591 0 38.323 0 0 0
2 414.107 524.324 910.901 0 0 0
2 29.305 297.491 657.381 0 0 0
2 773.095 57.568 822.591 0 0 0
2 857.82 529.527 649.272 0 0 0
2 124.517 544.778 651.833 0 0 0
2 214.54 950.004 455.919 0 0 0
2 518.319 443.336 95.775 0 0 0
2 768.289 912.304 68.922 0 0 0
2 692.832 305.985 848.921 0 0 0
2 674.121 424.24 637.166 0 0 0
2 224.694 13.134 813.369 0 0 0
2 349.114 395.106 339.52 0 0 0
2 209.505 150.043 471.281 0 0 0
2 730.049 459.652 449.766 0 0 0
2 1139.62 2000 109.865 0 0 0
2 427.43 256.432 1371.61 0 0 0
2 0.204 0.265 1991.91 0 0 0
2 1845.21 244.526 625.34 0 0 0
2 567.924 1294.01 1522.42 0 0 0
2 1822.04 34.896 75.029 0 0 0
2 2000.71 1790.89 1016.88 0 0 0
2 3996.71 1283.42 175.029 0 0 0
2 4000 1859.71 1490.4 0 0 0
2 3186.53 211.384 21.452 0 0 0
2 2826.25 1213.32 701.952 0 0 0
2 3977.67 1388.66 1233.56 0 0 0
2 2000.66 193.751 38.369 0 0 0
2 4000 945.609 862.087 0 0 0
2 3091.43 2000 830.235 0 0 0
2 2036.46 46.388 1127.21 0 0 0
2 3187.08 8.345 12.355 0 0 0
2 3993.62 22.877 14.213 0 0 0
2 3979.99 1954.56 1971.13 0 0 0
2 2000 0 271.221 0 0 0
2 2000 1266.2 17.773 0 0 0
2 2224.6 362.544 570.589 0 0 0
2 2127.51 837.774 763.362 0 0 0
2 2198.84 17.245 697.796 0 0 0
2 2084.1 257.872 687.784 0 0 0
2 2023.82 732.651 213.25 0 0 0
2 2105.03 592.908 992.106 0 0 0
2 2065.03 199.162 210.714 0 0 0
2 2220.8 514.086 460.186 0 0 0
2 2184.22 651.388 350.072 0 0 0
2 2142.15 525.172 220.977 0 0 0
2 2113.69 307.079 164.787 0 0 0
2 2111.03 830.451 0.001 0 0 0
2 2228.92 124.403 389.821 0 0 0
2 2039.96 236.639 986.662 0 0 0
2 2002.62 872.701 961.74 0 0 0
2 2137.97 725.062 945.47 0 0 0
2 2134.36 530.257 362.816 0 0 0
2 2194.41 609.242 765.757 0 0 0
2 2273.21 290.822 484.03 0 0 0
2 2025.22 777.281 891.116 0 0 0
2 2090.2 463.389 457.632 0 0 0
2 2110.02 113.656 776.426 0 0 0
2 2189.97 766.189 418.374 0 0 0
2 2150.02 148.808 490.837 0 0 0
2 2015.1 573.748 731 0 0 0
2 2171.71 801.403 655.93 0 0 0
2 2205.84 811.558 238.522 0 0 0
2 3828.95 58.094 2000 0 0 0
2 2085.04 581.973 512.089 0 0 0
2 2127.01 938.268 17.522 0 0 0
2 2120.6 629.444 248.878 0 0 0
2 2204.38 939.244 752.846 0 0 0
2 2031.44 839.712 468.506 0 0 0
2 2254.14 650.04 647.959 0 0 0
2 2207.67 878.187 566.664 0 0 0
2 2000 1736.63 1285.67 0 0 0
2 2050.72 606.119 410.231 0 0 0
2 2128.17 506.356 723.602 0 0 0
2 2075.83 785.576 123.387 0 0 0
2 2133.45 486.388 64.803 0 0 0
2 2053.98 741.307 757.034 0 0 0
2 4000 299.664 244.029 0 0 0
2 2057.18 0 744.328 0 0 0
2 3900.43 171.207 377.272 0 0 0
2 3926.69 2000 1438.06 0 0 0
2 3032.86 1999.99 1075.09 0 0 0
2 2000 1803.16 0 0 0 0
2 11.991 2345.5 14.415 0 0 0
2 1998.88 4000.04 1964.2 0 0 0
2 1912.58 3998.78 55.57 0 0 0
2 1627.63 3516.77 1750.64 0 0 0
2 1590.13 3439.06 980.416 0 0 0
2 1824.83 2000 1472.02 0 0 0
2 700.428 2107.75 419.437 0 0 0
2 841.07 2282.67 299.172 0 0 0
2 1581.78 2003.95 2000 0 0 0
2 1973.37 3965.41 1855.51 0 0 0
2 1938.48 3160.29 1295.3 0 0 0
2 934.533 4000 463.39 0 0 0
2 1095.05 4000 646.602 0 0 0
2 1049.01 2004.48 827.863 0 0 0
2 820.285 2031.76 416.641 0 0 0
2 841.237 2000 532.393 0 0 0
2 690.041 2004.19 882.064 0 0 0
2 400.305 2090.09 182.864 0 0 0
2 680.563 2000 196.47 0 0 0
2 799.61 2159.56 465.099 0 0 0
2 76.244 2206.64 777.728 0 0 0
2 276.948 2073.37 170.563 0 0 0
2 581.775 2086.71 375.292 0 0 0
2 0.255 2000 478.191 0 0 0
2 2000 3761.86 282.176 0 0 0
2 524.131 2129.9 237.051 0 0 0
2 218.36 2123.99 528.781 0 0 0
2 642.091 2169.3 277.281 0 0 0
2 274.933 2000 603.18 0 0 0
2 123.891 2022.59 1021.34 0 0 0
2 6.826 2105.06 446.22 0 0 0
2 816.236 2198.18 739.045 0 0 0
2 117.337 2000 874.801 0 0 0
2 467.868 2000 180.388 0 0 0
2 325.993 2181.17 257.009 0 0 0
2 332.717 2148.43 734.834 0 0 0
2 673.38 2000.01 485.711 0 0 0
2 515.144 2102.88 462.454 0 0 0
2 696.545 2008.16 317.105 0 0 0
2 236.745 2515.05 0 0 0 0
2 583.231 2102.08 936.629 0 0 0
2 221.129 2000 453.061 0 0 0
2 314.98 2047.21 964.815 0 0 0
2 107.482 2127.3 2.14 0 0 0
2 249.882 2174.26 644.989 0 0 0
2 878.334 2018.64 1115.93 0 0 0
2 574.789 2068.84 632.14 0 0 0
2 14.284 2103.15 223.601 0 0 0
2 392.739 2000 435.857 0 0 0
2 23.364 2000 982.317 0 0 0
2 284.406 2017 740.857 0 0 0
2 1544.97 2125.54 2000 0 0 0
2 381.745 2133.86 604.18 0 0 0
2 2000 2970.1 1677.59 0 0 0
2 591.861 2002.68 808.039 0 0 0
2 434.913 2034.63 911.104 0 0 0
2 535.605 2141.57 0 0 0 0
2 1642.61 2188.1 376.431 0 0 0
2 107.727 2127.88 1442.53 0 0 0
2 1811.79 3889.91 1307.41 0 0 0
2 1545.6 3625.95 1795.71 0 0 0
2 1757.14 3111.57 1999.94 0 0 0
2 529 2002 5.79 0 0 0
2 760.841 160.951 3296.67 0 0 0
2 1876.12 1493.38 2497.73 0 0 0
2 1876.08 233.876 3195.49 0 0 0
2 1809.55 1474 3800.42 0 0 0
2 2000 1569.15 3994.88 0 0 0
2 7.224 80.596 2847.89 0 0 0
2 284.553 0 2000 0 0 0
2 63.627 90.246 2004.78 0 0 0
2 0.139 1227.19 2240 0 0 0
2 1999.95 1788.15 3999.98 0 0 0
2 767.587 1999.95 2000.06 0 0 0
2 1453.63 47.124 2149.89 0 0 0
2 364.302 804.202 2034.57 0 0 0
2 678.435 0.119 2308.9 0 0 0
2 417.367 0 2128.44 0 0 0
2 458.02 129.143 2215.37 0 0 0
2 2.226 453.828 2000 0 0 0
2 474.88 1580.56 2017.04 0 0 0
2 126.984 0 2765.55 0 0 0
2 1774.1 1275.32 2013.67 0 0 0
2 1927.88 1999.92 3560.94 0 0 0
2 172.312 1866.07 2442.85 0 0 0
2 161.939 743.312 2000.59 0 0 0
2 212.347 105.064 2003.07 0 0 0
2 640.538 1.272 2065.86 0 0 0
2 272.452 1627.19 2000 0 0 0
2 839.583 431.277 2090.14 0 0 0
2 970.284 919.581 2004.42 0 0 0
2 2000 910.616 2128.88 0 0 0
2 95.993 1662.06 2000 0 0 0
2 1105.43 1981.75 2039.11 0 0 0
2 267.574 689.954 2027.03 0 0 0
2 2.09 1783.52 2297.77 0 0 0
2 12.589 983.37 2685.87 0 0 0
2 1669.5 769.154 2092.57 0 0 0
2 1.52 222.756 2058.84 0 0 0
2 422.208 97.774 2000 0 0 0
2 10.241 0.008 2624.08 0 0 0
2 506.782 0.001 2000.27 0 0 0
2 15.037 1676.57 2275.49 0 0 0
2 16.651 35.912 3483.73 0 0 0
2 145.635 377.667 2066.82 0 0 0
2 68.365 330.782 2002.48 0 0 0
2 1560.03 249.308 4000 0 0 0
2 1257.37 2000 2386.57 0 0 0
2 1846.31 749.887 3467.55 0 0 0
2 1170.85 0.002 2393.99 0 0 0
2 857.994 911.352 2049.18 0 0 0
2 769.407 0 2039.95 0 0 0
2 101.377 299.913 2564.37 0 0 0
2 32.016 54.169 3626.5 0 0 0
2 354.156 909.758 2000 0 0 0
2 706.65 259.713 3318.43 0 0 0
2 583.961 1720.61 2150.79 0 0 0
2 67.737 530.622 2101.24 0 0 0
2 1205.04 706.057 2000 0 0 0
2 0 0 2499.02 0 0 0
2 1999.76 1550.25 3867.95 0 0 0
2 0.001 2000 3120.66 0 0 0
2 11.592 2000 3984.06 0 0 0
2 1226.84 1416.8 2447.14 0 0 0
2 1745.61 807.779 2000 0 0 0
2 2577.21 2031.36 1840.39 0 0 0
2 3999.47 4000 7.482 0 0 0
2 4000 2000.03 472.369 0 0 0
2 2000.09 2000 938.173 0 0 0
2 3997.51 3998.75 1998.67 0 0 0
2 2046.15 3999.94 602.817 0 0 0
2 3999.95 2333.02 1999.96 0 0 0
2 3893.7 2057.68 955.718 0 0 0
2 3933.12 3985.19 93.982 0 0 0
2 2871.89 3856.02 178.104 0 0 0
2 2000 3760.55 1869.63 0 0 0
2 3659.65 3982.59 1522.92 0 0 0
2 3916.56 3195.6 4.713 0 0 0
2 3133.26 2774.86 1984.13 0 0 0
2 2000 3418.64 23.16 0 0 0
2 2431.44 2000 437.438 0 0 0
2 2648.43 3830.55 1682.91 0 0 0
2 3998.86 2079.03 1548.43 0 0 0
2 3777.43 2000 1372.73 0 0 0
2 2000.17 2334.82 947.407 0 0 0
2 2366.58 2178.1 687.92 0 0 0
2 2297.91 2094.88 724.352 0 0 0
2 3852.4 2000 449.129 0 0 0
2 3198.96 2000 0 0 0 0
2 2434.83 2070.06 961.667 0 0 0
2 2187.41 2000 1035.38 0 0 0
2 2026.19 2229.52 161.244 0 0 0
2 2205.33 2000 669.652 0 0 0
2 2316.46 2373.06 382.342 0 0 0
2 2237.21 2299.8 403.91 0 0 0
2 2234.5 3729.93 14.726 0 0 0
2 2385.23 2570.38 901.774 0 0 0
2 2088.29 2980.54 529.547 0 0 0
2 2006.24 2179.92 61.164 0 0 0
2 2115.61 2072.6 926.387 0 0 0
2 2359.1 2177.11 1489.34 0 0 0
2 2401.58 2000 1128.23 0 0 0
2 3308.59 3996.07 1995.72 0 0 0
2 2429.51 2036.12 45.986 0 0 0
2 2037.01 2228.76 632.301 0 0 0
2 2394.15 2118.86 777.625 0 0 0
2 2325.4 2000.52 1048.78 0 0 0
2 2240.24 2096.61 629.655 0 0 0
2 2001.7 2117.76 1258.59 0 0 0
2 2144.85 2427.14 772.187 0 0 0
2 2976.04 2000 268.746 0 0 0
2 2337.89 2164.79 74.164 0 0 0
2 3996.34 2272.14 679.632 0 0 0
2 2424.22 2073.16 657.457 0 0 0
2 2259.83 3939.33 73.258 0 0 0
2 3963.95 3979.61 579.701 0 0 0
2 2521.6 2000 94.709 0 0 0
2 2389.74 2196.61 896.013 0 0 0
2 2010.16 3979.16 1375.42 0 0 0
2 2093.07 2389.72 241.125 0 0 0
2 2603.28 2130.17 1408.67 0 0 0
2 2370.22 2000.64 342.282 0 0 0
2 2767.54 2007.28 111.625 0 0 0
2 2229.72 3954.02 1676.25 0 0 0
2 3081.3 2536.04 1271.31 0 0 0
2 2102.65 3882.58 1925.19 0 0 0
2 4000 3267.63 0 0 0 0
2 2000.17 2380.43 30.957 0 0 0
2 2696.98 2000 2001.41 0 0 0
2 2001.83 0.05 2007.84 0 0 0
2 4000 360.62 2246.25 0 0 0
2 2812.04 0.047 2740.05 0 0 0
2 2636.03 922.668 3265.03 0 0 0
2 2388.82 308.329 3348.16 0 0 0
2 2031.05 1949.38 2102.03 0 0 0
2 2912.29 292.831 3999.96 0 0 0
2 2141.83 1525.76 2287.1 0 0 0
2 3550.24 238.85 2876.49 0 0 0
2 4000 0 3348.29 0 0 0
2 3591.37 886.758 2392.65 0 0 0
2 2788.93 0.976 2553.81 0 0 0
2 3312.82 80.037 3145.72 0 0 0
2 2214.57 109.319 3041.3 0 0 0
2 2433.88 115.596 2000 0 0 0
2 2693.2 17.484 2000 0 0 0
2 2000.04 1652.02 3823.64 0 0 0
2 2307.33 312.991 2231.93 0 0 0
2 2000.05 482.438 3434.48 0 0 0
2 3857.22 531.451 3080.86 0 0 0
2 3991.59 1985.36 3891.56 0 0 0
2 2000 123.878 3492.6 0 0 0
2 3989.24 0 2702.43 0 0 0
2 2242.45 1665.05 2000 0 0 0
2 2142.2 1350.51 2000 0 0 0
2 2028.48 13.014 3789.83 0 0 0
2 2852.46 967.212 2000 0 0 0
2 2000 958.878 2272.79 0 0 0
2 3137.68 892.026 3147.17 0 0 0
2 2768.22 483.926 2000 0 0 0
2 4000 438.901 3650.8 0 0 0
2 2016.2 1795.41 2002.89 0 0 0
2 3384.5 1716.63 2005.1 0 0 0
2 2374.74 1986.41 3334.19 0 0 0
2 2694.39 843.854 2000 0 0 0
2 2977.35 1212.06 2000 0 0 0
2 3427.86 995.559 2000 0 0 0
2 2000 503.697 3976.12 0 0 0
2 2108.12 20.17 3173.01 0 0 0
2 2754.23 1759.08 2014.28 0 0 0
2 2624.46 962.038 2903.8 0 0 0
2 2508.21 1.832 2000 0 0 0
2 2139.3 69.683 2099.39 0 0 0
2 2881.06 92.056 2000 0 0 0
2 2000.02 746.781 3814.59 0 0 0
2 2025.88 1701.42 2918.32 0 0 0
2 2199.89 1509.23 2191.74 0 0 0
2 2000 1462.32 2587.79 0 0 0
2 4000 1840.06 2784.19 0 0 0
2 3683.2 1.541 2700.5 0 0 0
2 2880.22 0.651 3516.16 0 0 0
2 3927.48 1822.11 2018.88 0 0 0
2 2110.36 12.87 3646.59 0 0 0
2 2294.26 0 2707.01 0 0 0
2 3056.63 1046.65 2068.75 0 0 0
2 3673.31 1037.92 2515.96 0 0 0
2 3499.5 2000 2538.69 0 0 0
2 2027.15 107.862 2002.78 0 0 0
2 3916.63 233.865 2700.8 0 0 0
2 2941.38 514.106 2000.06 0 0 0
2 2000 1305.6 2123.72 0 0 0
2 441.852 2000 4000 0 0 0
2 1496.54 2004.75 3998.78 0 0 0
2 126.899 2017.17 2254.54 0 0 0
2 1995.99 3994.64 2745.94 0 0 0
2 1088.16 3991.14 3724.23 0 0 0
2 556.762 2087.89 3471.7 0 0 0
2 1556.61 2000.2 3852.01 0 0 0
2 928.288 3237.95 2352.37 0 0 0
2 1840.4 3992.96 3100.63 0 0 0
2 0.002 2653.84 4000 0 0 0
2 18.55 2069.69 3626.6 0 0 0
2 589.486 2254.64 2704.45 0 0 0
2 1725.12 2196.78 2349.14 0 0 0
2 2000 3197.61 2975.7 0 0 0
2 113.055 2052.58 2493.8 0 0 0
2 2000 3946.4 3382.54 0 0 0
2 817.337 3327.42 2065.79 0 0 0
2 2000 3082.69 2242.54 0 0 0
2 272.844 2000 2000 0 0 0
2 0.003 3254.9 2284.74 0 0 0
2 1287.13 2627.89 2695.5 0 0 0
2 194.034 3010.24 2010.89 0 0 0
2 0.011 3997.13 3999.97 0 0 0
2 1788.4 2364.57 2384.62 0 0 0
2 1447.29 3749.11 3475.26 0 0 0
2 1937.18 2000.02 2536.44 0 0 0
2 1407.36 3609.71 3581.4 0 0 0
2 0.006 3654.52 3077.69 0 0 0
2 1025.49 2593.96 2497.32 0 0 0
2 1793.99 3848.32 3830.44 0 0 0
2 577.154 2147.96 2342.54 0 0 0
2 1032.06 2357.97 2000 0 0 0
2 342.047 2223.35 2427.57 0 0 0
2 1720.03 2919.99 2377.39 0 0 0
2 0 2334.52 2951.16 0 0 0
2 34.231 2000 2690.13 0 0 0
2 1139.33 4000 3935.13 0 0 0
2 36.138 3028.09 2677.88 0 0 0
2 868.82 2527.72 3571.76 0 0 0
2 29.734 2347.65 2122.76 0 0 0
2 176.366 2329.58 2000.08 0 0 0
2 641.837 2749.84 2980.04 0 0 0
2 510.99 2183.57 3042.62 0 0 0
2 5.371 2176.03 2811.58 0 0 0
2 9.57 2484.47 3997.93 0 0 0
2 2000 2002.33 3460.65 0 0 0
2 17.03 2682.91 2001.52 0 0 0
2 165.638 3051.07 2901.43 0 0 0
2 811.142 2000 3372.44 0 0 0
2 1693.73 2404.5 2028.48 0 0 0
2 22.915 3150.24 2443.34 0 0 0
2 10.582 3210.32 2027.16 0 0 0
2 1997.78 3462.9 2267.55 0 0 0
2 686.635 3039.7 3282.04 0 0 0
2 987.876 2000 3662.24 0 0 0
2 856.144 2068.48 3551.84 0 0 0
2 75.543 3159.88 2576.13 0 0 0
2 1044.13 2509.78 2014.4 0 0 0
2 741.208 3265.56 3916.99 0 0 0
2 1391.65 2768.11 2424.7 0 0 0
2 1468.57 2690.62 2043.25 0 0 0
2 2000 2554.72 2012.35 0 0 0
2 366.444 2000 3032.14 0 0 0
2 3709.04 3791.72 2349.65 0 0 0
2 3945.1 2570.19 3539.61 0 0 0
2 2008.53 3317.64 2691.78 0 0 0
2 3771.81 2000.21 2628.78 0 0 0
2 2000.54 3269.89 3140.56 0 0 0
2 2000.03 3869.25 2506.82 0 0 0
2 2290.43 2539.82 2454.48 0 0 0
2 2408.16 3483.06 2974.77 0 0 0
2 3852.97 3783.33 3735.25 0 0 0
2 2657.08 3439.73 3333.15 0 0 0
2 2741.22 3978.36 2137.73 0 0 0
2 2029.73 2002.61 3726.06 0 0 0
2 2000 3945.66 2293.11 0 0 0
2 2565 2000 2002.26 0 0 0
2 2000 2379.06 2291.1 0 0 0
2 2856.73 3021.08 3809.55 0 0 0
2 3964.86 3996.55 3894.93 0 0 0
2 2478.57 2075.66 2284.09 0 0 0
2 2164.11 2943.65 2024.15 0 0 0
2 3788.94 3014.68 3472.11 0 0 0
2 3022.2 2000 3932.65 0 0 0
2 2513.82 2217.82 2082.97 0 0 0
2 2991.14 2787.71 3087.49 0 0 0
2 2066.23 2494.05 2217.18 0 0 0
2 2441.87 2060.61 2171.51 0 0 0
2 2000 2228.45 2283.69 0 0 0
2 2284.91 2167.48 2413.99 0 0 0
2 2353.18 2000.04 2359.78 0 0 0
2 2031.34 2748.05 3258.23 0 0 0
2 2234.7 2063.47 2003.64 0 0 0
2 2265.19 2002.78 2427.93 0 0 0
2 3785.62 3895.33 3035.44 0 0 0
2 2211.05 2010.79 2331.55 0 0 0
2 3986.26 2443.77 2021.13 0 0 0
2 2139.32 2430.21 2271.15 0 0 0