LAMMPS data file, Author: Jerry Qin

1000 atoms
0 bonds
0 angles

2 atom types

-100 5100 xlo xhi
-100 5100 ylo yhi
-100 5100 zlo zhi

Masses

1 221851
2 422051

Atoms

1 1  56.676 573.506 368.415
2 1  2295.737 2417.497 4939.742
3 1  2155.954 2170.469 2555.055
4 1  4366.077 439.866 1295.870
5 1  400.196 3893.906 82.911
6 1  2440.024 3346.297 1529.998
7 1  2676.454 1119.344 2034.052
8 1  1746.597 4295.551 4999.999
9 1  1172.958 4779.788 385.318
10 1  112.260 2898.134 3448.157
11 1  3451.104 1580.837 4214.948
12 1  1118.820 321.628 526.760
13 1  1695.937 3077.910 1420.677
14 1  4896.505 3757.529 1725.029
15 1  3184.254 669.308 1666.132
16 1  5000.000 496.852 1676.524
17 1  4143.908 369.502 239.557
18 1  2962.203 3023.325 3424.829
19 1  1594.125 2507.647 3571.500
20 1  3164.399 2788.021 336.502
21 1  1689.334 1424.796 4912.748
22 1  1667.292 2952.302 221.430
23 1  2853.919 4005.675 237.791
24 1  2753.992 271.848 61.848
25 1  834.637 2002.913 3973.637
26 1  1650.640 1895.503 4081.868
27 1  4084.798 4573.457 4969.081
28 1  4968.053 1608.083 171.018
29 1  3385.755 3883.851 931.627
30 1  4934.832 2775.986 3658.822
31 1  2997.368 1489.147 525.675
32 1  979.358 761.190 4239.953
33 1  4267.838 2517.506 4948.183
34 1  1081.439 2964.065 2489.775
35 1  4891.830 20.132 3281.002
36 1  4706.542 1667.234 318.749
37 1  1138.097 4504.337 4848.127
38 1  2593.091 4958.932 2791.318
39 1  3969.548 3686.700 346.271
40 1  1083.591 995.291 1645.308
41 1  2271.344 4491.527 625.568
42 1  4726.815 3308.418 1438.287
43 1  2784.055 4824.580 191.274
44 1  772.437 4665.047 907.267
45 1  2640.884 2673.219 1912.100
46 1  2353.036 2154.920 4053.486
47 1  4413.568 4541.216 1341.701
48 1  1209.899 3575.435 4022.384
49 1  1602.245 1867.535 4881.137
50 1  2569.728 2922.846 2979.838
51 1  2926.368 1199.278 3473.727
52 1  3186.118 3175.371 1685.582
53 1  2248.462 1488.057 3339.749
54 1  536.023 508.588 1199.109
55 1  4551.845 1334.600 2095.822
56 1  2040.744 456.543 109.600
57 1  1949.384 3504.602 597.116
58 1  4485.850 2763.263 2675.340
59 1  3094.494 2516.552 1492.166
60 1  904.205 3099.477 279.515
61 1  1983.449 1043.359 3285.702
62 1  3478.290 894.477 1006.620
63 1  1858.236 1575.793 2723.043
64 1  1807.721 852.285 3497.794
65 1  482.973 2052.624 3202.904
66 1  1975.317 1048.121 187.573
67 1  2167.833 1651.499 3284.132
68 1  957.710 1570.372 499.855
69 1  1156.458 408.036 370.982
70 1  0.000 1240.520 688.141
71 1  1706.311 3667.534 1482.056
72 1  512.730 2600.648 1564.022
73 1  105.028 780.022 1689.592
74 1  12.867 2879.914 2160.801
75 1  373.867 260.724 315.317
76 1  2101.142 121.719 2299.093
77 1  166.117 20.718 1401.529
78 1  753.051 0.000 3459.336
79 1  1777.376 283.990 653.579
80 1  546.715 4553.785 3297.685
81 1  1174.913 519.656 3922.853
82 1  2718.591 2145.755 4894.837
83 1  867.314 510.869 357.927
84 1  3499.214 1922.562 1296.308
85 1  725.628 3465.863 0.000
86 1  995.070 612.223 2061.171
87 1  129.666 742.307 625.818
88 1  0.000 655.514 1616.523
89 1  848.249 1954.496 1082.482
90 1  166.916 484.190 1005.678
91 1  1174.511 34.205 85.221
92 1  400.147 847.194 96.631
93 1  523.222 500.974 856.974
94 1  1148.685 100.173 691.672
95 1  7.064 684.473 136.394
96 1  26.505 1262.853 285.448
97 1  482.081 98.302 645.103
98 1  538.918 285.941 810.092
99 1  472.367 372.759 101.049
100 1  1042.331 182.491 306.913
101 1  183.888 575.531 228.861
102 1  213.587 65.357 1120.412
103 1  166.703 766.393 501.866
104 1  1594.598 427.951 251.139
105 1  573.625 1063.280 507.286
106 1  885.763 0.000 767.165
107 1  305.918 748.735 922.507
108 1  860.575 1030.564 336.118
109 1  418.294 487.288 469.811
110 1  252.787 655.489 511.436
111 1  1348.468 0.000 136.507
112 1  3183.504 1941.710 0.000
113 1  1170.908 1317.337 142.709
114 1  783.952 1103.295 730.750
115 1  743.269 4069.222 1435.340
116 1  737.298 647.383 789.437
117 1  461.245 68.523 1075.050
118 1  2341.234 1997.804 251.239
119 1  1399.473 4125.248 117.420
120 1  263.667 519.273 402.094
121 1  689.815 719.289 589.405
122 1  29.356 82.863 1224.689
123 1  265.767 830.330 1979.601
124 1  1038.873 140.960 191.629
125 1  378.160 382.802 904.894
126 1  253.893 0.000 439.985
127 1  282.617 443.907 862.301
128 1  365.256 676.960 732.893
129 1  63.113 2193.787 1056.263
130 1  904.868 1133.732 751.749
131 1  251.165 115.617 400.834
132 1  406.569 1063.708 653.967
133 1  759.151 363.192 532.818
134 1  1545.997 972.235 3.209
135 1  929.471 733.005 1156.719
136 1  1882.436 2599.753 1042.453
137 1  0.000 1776.258 1121.044
138 1  1054.314 165.852 749.252
139 1  1376.974 964.896 2951.295
140 1  501.310 815.193 580.206
141 1  900.971 463.247 0.000
142 1  1141.504 1408.355 532.866
143 1  794.002 256.644 220.738
144 1  740.551 1116.391 1592.095
145 1  1101.017 372.601 124.631
146 1  171.610 169.554 1832.013
147 1  87.959 1179.772 748.299
148 1  625.254 337.553 742.825
149 1  1249.047 877.926 993.465
150 1  738.650 484.935 541.553
151 1  1114.884 283.870 0.023
152 1  5.404 3393.502 4548.952
153 1  694.540 524.791 1010.319
154 1  477.174 1042.804 444.213
155 1  864.080 678.595 122.576
156 1  3290.448 2902.762 3398.659
157 1  886.513 1684.461 2059.336
158 1  131.673 167.036 1065.288
159 1  610.133 862.880 1009.679
160 1  161.825 116.097 695.791
161 1  0.000 1264.400 477.056
162 1  694.364 369.921 289.233
163 1  83.234 326.410 574.492
164 1  144.422 2445.229 527.268
165 1  515.545 812.598 141.935
166 1  3042.233 3676.564 3639.257
167 1  838.658 131.455 1110.410
168 1  670.037 732.636 735.849
169 1  3211.683 1932.892 1565.029
170 1  741.211 184.365 2.018
171 1  2327.995 2831.687 313.977
172 1  1622.950 544.776 881.299
173 1  1161.045 398.048 982.454
174 1  324.663 968.947 98.528
175 1  1268.952 926.386 296.390
176 1  894.731 964.735 1345.719
177 1  924.745 2.527 899.186
178 1  460.472 1144.185 404.508
179 1  17.103 658.624 621.984
180 1  39.672 677.253 325.017
181 1  1119.609 3258.419 1709.362
182 1  977.260 115.153 824.760
183 1  735.800 96.622 85.893
184 1  946.598 1456.539 4105.491
185 1  785.381 808.976 862.003
186 1  614.990 843.543 183.160
187 1  1559.202 0.000 1084.532
188 1  111.844 1007.028 494.950
189 1  407.086 1074.719 533.471
190 1  1455.523 0.000 370.276
191 1  755.649 593.286 1419.914
192 1  723.706 810.983 660.866
193 1  223.822 163.925 18.433
194 1  0.000 919.537 1402.810
195 1  735.071 825.066 540.926
196 1  3459.508 70.383 2943.632
197 1  686.553 760.166 189.179
198 1  318.254 3911.881 1418.311
199 1  666.112 973.239 755.720
200 1  161.056 584.212 496.883
201 1  0.000 1181.834 833.584
202 1  0.000 753.516 2029.466
203 1  359.850 70.721 1210.626
204 1  1119.923 814.419 0.000
205 1  312.639 395.251 429.825
206 1  0.000 1360.466 785.677
207 1  169.298 402.298 875.377
208 1  552.197 935.680 229.707
209 1  87.283 250.186 1142.037
210 1  1169.497 1412.602 650.998
211 1  1088.578 656.668 359.120
212 1  539.606 66.282 739.977
213 1  668.047 1111.676 690.678
214 1  492.339 409.441 1163.025
215 1  913.772 361.759 1641.148
216 1  1846.957 1757.908 2513.633
217 1  2797.089 3319.551 2365.388
218 1  1471.806 2926.812 656.491
219 1  1072.373 136.441 1197.506
220 1  236.365 551.214 893.857
221 1  934.762 1120.269 922.800
222 1  2086.310 836.398 889.859
223 1  1095.004 485.602 1091.974
224 1  753.252 568.108 93.818
225 1  2717.002 2958.143 2347.474
226 1  522.289 254.665 390.894
227 1  1052.835 1959.676 2189.521
228 1  93.434 567.608 705.013
229 1  724.919 152.188 296.353
230 1  658.878 2674.583 1434.530
231 1  621.022 4021.423 2836.375
232 1  315.977 122.580 1119.299
233 1  185.917 80.960 1000.413
234 1  726.051 870.323 777.084
235 1  224.726 913.711 288.094
236 1  2606.857 1977.451 896.118
237 1  128.676 523.234 594.897
238 1  537.156 897.346 1398.015
239 1  791.983 1420.449 336.790
240 1  1514.803 646.900 4.647
241 1  434.139 364.536 438.877
242 1  1048.276 1051.540 296.374
243 1  1021.376 4836.461 2808.829
244 1  1132.204 1019.741 961.520
245 1  601.345 947.432 877.155
246 1  1125.983 0.000 990.730
247 1  735.900 1190.897 387.086
248 1  874.609 963.017 2092.527
249 1  771.348 1298.401 492.979
250 1  590.816 692.553 653.645
251 1  994.558 4080.163 2539.618
252 1  262.532 656.879 1150.762
253 1  0.000 639.603 935.416
254 1  1007.280 852.271 642.868
255 1  1188.881 160.285 2409.936
256 1  1.582 1232.286 3393.427
257 1  1558.356 2917.753 4209.603
258 1  875.204 953.698 458.979
259 1  37.515 3285.277 3496.303
260 1  406.724 869.443 632.661
261 1  767.630 536.369 752.022
262 1  373.994 3046.353 975.723
263 1  1313.946 767.452 899.522
264 1  124.289 225.470 551.351
265 1  448.290 568.460 554.384
266 1  719.607 276.907 2214.933
267 1  863.655 974.050 1177.014
268 1  425.356 0.063 1154.674
269 1  167.628 310.125 954.709
270 1  956.300 440.293 414.909
271 1  520.680 493.552 621.395
272 1  518.692 350.762 1071.306
273 1  605.840 480.431 1293.932
274 1  665.328 686.168 1497.808
275 1  620.890 610.837 851.988
276 1  632.289 1067.115 388.418
277 1  621.740 187.574 10.272
278 1  1235.618 921.180 782.957
279 1  463.121 883.946 941.246
280 1  1280.676 1567.058 240.386
281 1  2158.326 1086.764 4455.634
282 1  771.994 887.624 68.704
283 1  252.580 704.554 73.706
284 1  3831.939 372.344 3670.634
285 1  2567.135 4064.228 3021.610
286 1  931.225 665.911 672.216
287 1  769.592 64.758 377.760
288 1  1021.840 906.627 959.108
289 1  27.065 326.611 1003.591
290 1  525.121 678.313 258.111
291 1  922.416 266.835 740.888
292 1  316.843 892.127 218.030
293 1  161.813 512.806 339.369
294 1  773.512 154.342 501.162
295 1  368.622 1219.781 112.150
296 1  602.339 516.097 707.791
297 1  950.444 1076.364 1172.228
298 1  606.800 1055.522 823.045
299 1  353.444 79.750 1629.771
300 1  523.483 688.079 848.201
301 1  0.000 962.520 199.530
302 1  545.055 1015.891 1040.782
303 1  990.978 631.111 0.000
304 1  1527.820 205.176 85.119
305 1  1246.413 4574.173 1578.437
306 1  857.917 257.630 1078.012
307 1  183.320 1329.495 349.659
308 1  479.828 208.135 630.861
309 1  799.367 971.403 0.000
310 1  82.459 3605.650 2356.792
311 1  599.140 275.217 914.536
312 1  212.255 675.988 188.540
313 1  1224.494 674.630 182.694
314 1  960.948 679.991 389.702
315 1  3129.687 3165.727 3250.841
316 1  4.376 1168.951 366.514
317 1  1364.199 128.275 411.262
318 1  1376.562 467.399 35.371
319 1  740.709 1575.326 2461.941
320 1  993.483 356.610 71.212
321 1  245.695 2938.980 1966.020
322 1  357.186 106.884 917.783
323 1  238.372 1695.089 1073.824
324 1  1148.258 616.216 0.000
325 1  119.454 1020.452 183.119
326 1  911.344 3639.246 3268.821
327 1  133.211 376.509 1182.927
328 1  852.365 580.267 1342.031
329 1  1660.813 823.744 1113.605
330 1  681.501 1150.072 812.039
331 1  1054.608 1071.718 60.649
332 1  1183.311 2218.738 1586.571
333 1  1696.026 757.625 1013.722
334 1  798.929 796.286 184.251
335 1  62.534 2001.716 280.846
336 1  815.059 1029.624 998.951
337 1  1262.620 450.207 223.181
338 1  2758.760 1928.265 2.803
339 1  637.960 0.000 1474.727
340 1  1383.829 439.504 758.335
341 1  310.864 590.493 238.366
342 1  537.820 345.770 476.712
343 1  702.495 441.453 1335.981
344 1  882.535 1481.606 551.652
345 1  526.391 455.610 161.298
346 1  3996.634 2154.795 5000.000
347 1  7.555 1393.624 21.756
348 1  126.642 1084.258 621.366
349 1  3547.542 3482.267 162.816
350 1  284.575 681.149 824.437
351 1  522.241 207.589 79.886
352 1  709.965 718.710 1225.145
353 1  927.212 197.845 74.307
354 1  1726.655 913.383 395.091
355 1  218.436 776.777 790.192
356 1  216.875 1062.867 507.913
357 1  323.758 2.400 284.053
358 1  285.145 1151.022 476.699
359 1  406.450 980.408 192.665
360 1  506.440 1026.938 143.201
361 1  65.860 1366.446 2698.206
362 1  3.629 824.532 0.000
363 1  406.745 592.690 992.451
364 1  968.432 544.203 1023.812
365 1  1011.065 427.714 183.919
366 1  831.608 623.801 331.106
367 1  860.506 12.897 0.181
368 1  531.785 364.350 1358.819
369 1  194.123 1525.801 4473.428
370 1  1014.385 634.190 869.217
371 1  271.655 909.872 467.998
372 1  4374.284 1323.583 3895.266
373 1  1133.520 1283.517 3179.465
374 1  2583.851 15.674 1016.018
375 1  508.854 598.073 927.729
376 1  2960.226 4674.979 342.197
377 1  2367.796 2506.489 4979.303
378 1  2513.180 534.023 0.000
379 1  259.092 1112.696 1053.173
380 1  359.205 1093.500 199.846
381 1  1258.607 694.106 545.007
382 1  477.048 411.493 543.596
383 1  602.164 871.606 739.155
384 1  3010.472 331.780 899.710
385 1  1232.730 126.939 782.585
386 1  438.326 303.221 0.000
387 1  1026.203 1406.548 4832.235
388 1  308.240 645.021 1039.360
389 1  1125.148 3867.395 2869.630
390 1  36.081 216.407 236.796
391 1  662.679 267.138 88.144
392 1  2528.467 3296.185 1160.999
393 1  2692.701 4152.741 122.442
394 1  2723.915 1842.772 4483.186
395 1  915.437 987.212 70.998
396 1  1198.599 691.686 714.935
397 1  1290.222 1027.776 747.207
398 1  906.012 656.833 967.615
399 1  232.005 188.032 742.621
400 1  933.333 2832.943 508.089
401 1  715.093 1321.500 2737.408
402 1  3484.365 3705.266 0.000
403 1  512.120 278.930 164.969
404 1  154.038 885.197 482.082
405 1  486.054 1075.024 833.145
406 1  604.403 966.084 137.236
407 1  453.160 0.003 715.659
408 1  741.077 857.646 960.169
409 1  4572.431 929.529 1141.916
410 1  917.306 179.133 531.896
411 1  734.825 257.136 724.623
412 1  250.776 187.197 304.021
413 1  1971.049 1133.555 1030.793
414 1  539.433 0.000 1001.149
415 1  1259.909 649.510 306.128
416 1  1572.745 1011.674 183.458
417 1  0.000 304.949 644.780
418 1  1364.161 3510.502 3812.729
419 1  1129.543 1031.824 769.004
420 1  2286.051 1833.483 1790.557
421 1  1263.317 1222.088 833.052
422 1  0.000 684.129 1349.329
423 1  799.393 360.968 782.566
424 1  2096.486 1362.385 1581.666
425 1  1143.715 729.963 269.821
426 1  271.792 135.772 830.861
427 1  141.318 302.219 708.986
428 1  506.420 1261.218 67.160
429 1  1013.441 893.000 513.690
430 1  478.559 268.562 534.085
431 1  505.184 1031.017 324.868
432 1  634.515 106.692 1051.378
433 1  1291.916 97.544 91.923
434 1  822.998 560.475 970.225
435 1  226.491 369.155 583.789
436 1  0.025 1587.791 1444.966
437 1  4607.231 7.898 197.868
438 1  307.778 392.228 657.889
439 1  75.152 1074.809 291.716
440 1  695.790 27.895 261.753
441 1  320.738 93.611 107.445
442 1  184.747 946.144 132.762
443 1  1077.656 428.941 876.802
444 1  790.261 166.924 1215.491
445 1  241.663 413.388 752.584
446 1  967.023 556.060 802.070
447 1  248.756 0.000 2346.318
448 1  1000.357 110.017 417.879
449 1  1363.612 184.899 627.411
450 1  388.610 1039.084 771.066
451 1  1574.500 243.877 536.833
452 1  278.546 800.324 144.405
453 1  1285.191 3709.348 4555.354
454 1  559.012 1093.810 927.829
455 1  594.355 1308.723 1529.671
456 1  884.698 417.175 877.444
457 1  1058.393 1114.521 851.875
458 1  48.790 446.634 545.995
459 1  71.137 1922.831 1599.740
460 1  962.926 737.776 1045.006
461 1  2152.902 0.000 3549.436
462 1  4637.115 2147.539 4347.288
463 1  2319.152 730.836 3908.509
464 1  505.979 915.290 100.448
465 1  669.203 449.104 147.890
466 1  536.999 561.563 208.233
467 1  565.452 528.572 514.579
468 1  1249.852 279.397 251.856
469 1  2250.177 1375.764 2004.366
470 1  549.387 125.470 1135.292
471 1  832.343 1249.950 3055.478
472 1  456.057 131.694 836.813
473 1  827.818 699.493 616.053
474 1  4502.364 2824.444 2476.434
475 1  889.902 1147.885 332.038
476 1  551.404 1083.389 47.425
477 1  994.082 265.336 0.000
478 1  17.434 122.677 597.297
479 1  4436.231 3430.963 1650.080
480 1  413.906 176.755 534.854
481 1  2762.591 2292.547 3317.743
482 1  4.447 1044.062 2350.999
483 1  651.127 238.981 1017.615
484 1  184.864 1029.624 300.125
485 1  279.771 485.019 249.375
486 1  330.401 1298.026 278.130
487 1  212.945 931.874 1096.136
488 1  252.026 591.179 128.923
489 1  98.534 851.005 780.232
490 1  873.807 1243.195 459.518
491 1  367.567 583.985 645.099
492 1  857.643 1325.689 153.790
493 1  200.885 1039.250 69.302
494 1  1223.819 551.218 590.558
495 1  403.352 548.974 1243.891
496 1  507.992 1367.367 311.584
497 1  389.437 1503.952 1584.057
498 1  768.676 915.250 368.367
499 1  1387.312 1.724 0.000
500 1  1211.091 261.780 58.889
501 1  3541.658 4206.380 2768.627
502 1  38.740 363.246 1360.357
503 1  3466.886 3.181 514.034
504 1  665.858 0.000 1038.253
505 1  542.373 607.442 759.983
506 1  481.175 642.191 644.514
507 1  1219.231 1118.365 1147.491
508 1  27.068 1150.252 504.975
509 1  1253.232 1199.585 2216.679
510 1  428.884 338.341 628.688
511 1  830.740 119.344 1.299
512 1  854.519 414.332 226.706
513 1  275.731 3776.100 2496.334
514 1  2557.462 2089.426 3984.385
515 1  625.789 632.776 502.254
516 1  239.262 1642.702 4264.513
517 1  673.260 612.964 692.772
518 1  362.148 527.291 339.289
519 1  807.341 795.862 1146.043
520 1  348.997 646.482 356.273
521 1  1297.319 358.897 670.109
522 1  660.107 882.982 86.174
523 1  173.668 478.582 457.930
524 1  883.006 8.910 1034.966
525 1  856.895 635.943 1112.283
526 1  861.342 97.139 854.416
527 1  448.367 168.854 166.398
528 1  1353.290 3530.792 271.710
529 1  323.032 255.918 1166.445
530 1  679.807 844.025 409.286
531 1  932.303 674.765 1572.789
532 1  441.927 919.096 277.088
533 1  232.257 66.707 302.735
534 1  411.020 927.133 528.885
535 1  1244.390 171.780 384.080
536 1  1016.934 1991.494 3167.428
537 1  469.083 114.185 963.271
538 1  615.547 847.202 604.125
539 1  854.005 440.097 506.964
540 1  579.287 721.894 1236.002
541 1  4230.476 2878.284 4521.578
542 1  1207.209 776.304 816.044
543 1  1287.378 2040.252 664.116
544 1  1376.141 1012.087 25.720
545 1  658.012 553.970 588.237
546 1  1347.171 284.191 1128.108
547 1  1078.587 0.000 879.372
548 1  721.670 570.588 461.634
549 1  1100.261 944.542 599.056
550 1  1073.480 972.536 858.831
551 1  4708.658 2910.893 746.291
552 1  502.678 100.052 11.058
553 1  268.368 1014.703 214.139
554 1  632.640 840.934 1220.536
555 1  752.669 153.483 784.702
556 1  1052.420 1173.239 0.000
557 1  516.856 45.999 314.944
558 1  3294.505 4075.320 2940.022
559 1  117.579 170.702 780.516
560 1  334.346 692.229 0.000
561 1  2842.715 1386.427 2977.436
562 1  566.690 1194.880 845.931
563 1  2267.018 2946.919 236.745
564 1  565.614 505.073 980.359
565 1  1534.002 109.175 597.466
566 1  4524.539 1435.599 3015.387
567 1  272.193 23.612 1337.837
568 1  2180.621 2466.919 2268.331
569 1  787.680 0.024 104.544
570 1  1952.900 0.788 1501.989
571 1  1342.779 10.555 528.066
572 1  653.619 69.638 356.384
573 1  569.633 1077.117 233.423
574 1  435.413 1175.701 689.554
575 1  414.352 13.505 97.208
576 1  1252.450 139.353 1111.732
577 1  388.904 1070.401 938.535
578 1  1153.973 0.000 371.325
579 1  566.847 385.050 965.062
580 1  1136.854 113.593 382.160
581 1  4242.667 4361.178 2581.637
582 1  390.214 64.188 198.421
583 1  1174.684 595.081 1321.153
584 1  356.402 1120.909 1374.058
585 1  594.301 269.686 1119.950
586 1  433.840 822.006 223.487
587 1  422.289 245.402 440.622
588 1  654.723 1078.264 120.754
589 1  0.000 3256.824 2329.879
590 1  1164.081 4203.250 4628.915
591 1  115.333 696.892 238.692
592 1  1296.725 243.584 467.920
593 1  146.520 329.354 1072.291
594 1  889.224 875.354 275.983
595 1  466.335 467.649 1365.941
596 1  816.684 1045.586 167.372
597 1  941.305 395.027 748.278
598 1  1069.693 341.618 1541.313
599 1  469.591 1687.370 1162.704
600 1  582.178 533.319 304.482
601 1  988.306 477.551 67.544
602 1  1104.511 664.008 166.279
603 1  1537.762 1150.878 152.733
604 1  1456.712 991.959 858.703
605 1  1176.628 0.906 799.856
606 1  1222.680 91.068 475.153
607 1  192.302 877.538 687.847
608 1  271.321 756.650 447.694
609 1  162.664 48.072 394.922
610 1  2738.141 2980.622 1788.057
611 1  3320.810 2233.387 2877.511
612 1  185.292 614.895 804.540
613 1  451.087 0.000 1267.831
614 1  2792.576 446.130 1359.919
615 1  429.329 916.379 746.701
616 1  792.435 2329.724 915.975
617 1  816.887 0.000 660.718
618 1  961.735 1573.029 2463.675
619 1  780.138 2478.897 1319.999
620 1  590.838 354.479 125.451
621 1  1364.357 412.340 388.782
622 1  1052.039 662.419 665.142
623 1  321.130 154.896 209.961
624 1  863.954 926.776 1520.681
625 1  3470.255 4180.219 3252.980
626 1  1267.525 777.499 125.662
627 1  354.111 610.592 462.877
628 1  193.879 363.172 356.641
629 1  405.591 1870.346 662.500
630 1  1255.705 3459.059 2126.082
631 1  130.104 1011.505 795.737
632 1  452.532 543.333 708.130
633 1  516.537 674.746 533.346
634 1  153.384 1465.074 315.091
635 1  304.186 1135.772 882.024
636 1  0.007 137.417 998.932
637 1  716.089 1056.505 298.389
638 1  147.682 606.144 1139.411
639 1  598.345 0.000 0.000
640 1  358.747 242.088 604.062
641 1  1290.374 327.116 0.000
642 1  607.862 344.291 384.478
643 1  663.070 133.302 543.357
644 1  1269.438 318.976 139.203
645 1  145.001 157.208 354.553
646 1  1137.945 98.691 862.354
647 1  760.786 281.992 336.048
648 1  399.702 713.267 843.529
649 1  67.294 369.556 832.769
650 1  327.567 493.086 715.126
651 1  0.000 914.024 882.524
652 1  0.000 206.088 1203.670
653 1  423.045 1047.103 0.000
654 1  4006.943 1955.039 911.831
655 1  777.787 342.258 650.534
656 1  155.526 922.387 877.072
657 1  485.792 478.846 51.369
658 1  698.303 40.124 472.394
659 1  104.436 705.554 728.281
660 1  66.289 602.902 809.999
661 1  498.182 214.069 896.310
662 1  883.111 810.270 98.810
663 1  674.003 379.940 1105.258
664 1  385.441 724.440 424.816
665 1  151.431 500.283 785.552
666 1  352.633 293.194 711.406
667 1  153.988 344.536 488.178
668 1  295.888 15.581 852.830
669 1  1657.767 628.947 1112.191
670 1  2195.191 979.618 385.186
671 1  528.052 983.849 765.563
672 1  310.551 1017.780 429.476
673 1  549.193 599.169 1348.194
674 1  335.091 1132.804 1137.788
675 1  3239.711 4239.409 303.437
676 1  1041.574 796.417 271.747
677 1  390.701 1268.039 571.632
678 1  1052.016 481.367 648.506
679 1  1002.330 229.205 412.695
680 1  1033.357 828.338 758.575
681 1  1302.154 533.393 352.100
682 1  518.833 159.935 506.435
683 1  736.658 541.759 1125.444
684 1  0.173 119.334 1113.066
685 1  961.872 455.928 537.081
686 1  1005.101 913.338 0.000
687 1  750.589 365.274 188.843
688 1  13.968 803.623 925.405
689 1  843.641 526.668 846.355
690 1  405.594 457.171 629.901
691 1  928.122 3729.096 2479.684
692 1  1031.068 363.614 350.981
693 1  422.422 184.286 1078.138
694 1  697.760 1940.455 455.605
695 1  1222.046 181.042 552.204
696 1  342.603 1158.859 591.818
697 1  296.430 647.572 2952.878
698 1  1119.567 912.783 749.753
699 1  1089.511 728.956 798.712
700 1  180.992 1334.502 502.553
701 1  261.672 39.985 733.182
702 1  886.714 165.717 1004.774
703 1  331.321 802.358 703.458
704 1  515.755 1245.496 619.490
705 1  604.926 220.437 604.788
706 1  194.493 977.410 398.603
707 1  630.557 757.953 1132.502
708 1  1565.920 349.013 1113.167
709 1  395.407 265.516 929.143
710 1  1638.991 1969.466 596.907
711 1  132.902 1113.194 0.000
712 1  554.623 1356.198 1126.416
713 1  1126.360 857.696 894.829
714 1  14.814 1061.439 840.384
715 1  434.914 1406.415 1667.749
716 1  2507.770 1899.431 1602.680
717 1  818.657 175.387 135.021
718 1  2941.336 829.944 999.964
719 1  842.023 162.831 415.506
720 1  765.218 1057.022 499.338
721 1  1331.921 60.168 762.242
722 1  29.875 263.038 752.919
723 1  94.658 63.474 935.543
724 1  416.529 2306.420 679.660
725 1  710.263 2015.102 2955.073
726 1  807.718 429.690 1058.112
727 1  1998.201 1439.477 472.987
728 1  1187.537 766.185 449.815
729 1  4054.065 2370.685 2091.689
730 1  202.522 178.190 1191.975
731 1  574.354 119.132 899.011
732 1  110.337 887.589 360.990
733 1  473.908 236.270 259.703
734 1  3253.007 2190.054 3735.232
735 1  212.519 508.574 680.952
736 1  417.590 602.517 273.050
737 1  3207.220 1483.078 920.369
738 1  997.654 1245.950 163.488
739 1  19.787 748.176 4372.112
740 1  782.959 89.554 217.307
741 1  1118.319 436.848 23.564
742 1  1484.818 111.529 0.000
743 1  1106.235 1255.448 61.296
744 1  2193.423 2392.571 480.652
745 1  612.348 966.633 347.719
746 1  875.431 1531.437 2144.790
747 1  729.453 580.596 896.088
748 1  1649.171 4389.178 3246.049
749 1  754.392 614.249 588.622
750 1  1045.401 777.905 939.335
751 1  1807.882 779.243 1226.759
752 1  1182.242 558.184 158.753
753 1  1036.623 80.207 520.446
754 1  22.888 972.829 1159.790
755 1  2042.924 3634.092 4084.233
756 1  510.539 882.896 829.929
757 1  723.268 444.494 685.728
758 1  328.081 524.727 1072.999
759 1  614.073 706.988 405.839
760 1  773.010 276.472 114.263
761 1  364.915 831.625 463.878
762 1  358.864 752.633 1179.491
763 1  1170.905 1110.699 0.000
764 1  857.084 307.305 12.214
765 1  74.083 733.438 1087.805
766 1  80.946 1057.048 1030.223
767 1  928.473 0.000 1245.638
768 1  1042.424 626.839 1266.511
769 1  6.368 1110.100 1093.674
770 1  777.863 451.580 942.915
771 1  1016.860 960.616 695.933
772 1  878.341 1440.732 218.847
773 1  381.752 835.154 858.993
774 1  750.695 702.817 896.154
775 1  415.114 1107.955 93.516
776 1  766.997 706.050 255.860
777 1  981.793 665.732 114.866
778 1  451.298 1240.067 201.740
779 1  5000.000 3137.423 0.000
780 1  545.499 160.083 294.663
781 1  1006.623 2329.019 2738.349
782 1  913.735 361.035 320.089
783 1  4966.287 2808.918 3393.692
784 1  345.397 876.351 365.289
785 1  302.621 1034.751 4.794
786 1  522.249 1032.989 636.177
787 1  1381.879 978.721 592.031
788 1  1096.841 783.386 597.221
789 1  1433.708 1154.386 1430.075
790 1  820.152 212.223 596.137
791 1  1073.976 609.822 779.811
792 1  711.723 1415.514 727.268
793 1  3141.162 1304.253 73.463
794 1  197.646 201.874 636.817
795 1  943.016 2145.505 1014.869
796 1  694.808 977.778 440.992
797 1  2684.273 358.318 0.000
798 1  139.529 813.755 47.762
799 1  744.960 1112.528 26.625
800 1  860.933 239.460 318.065
801 1  525.417 296.226 688.368
802 1  733.822 294.142 944.451
803 1  2532.400 1691.273 0.000
804 1  2470.020 347.550 341.064
805 1  1095.581 213.242 892.850
806 1  1365.537 2057.264 1541.531
807 1  19.336 1236.307 50.049
808 1  452.912 466.931 949.378
809 1  338.134 360.339 552.790
810 1  636.627 33.682 929.350
811 1  5000.000 1220.600 2253.656
812 1  4567.554 2042.873 4044.265
813 1  2184.455 0.000 1572.648
814 1  1230.532 998.406 15.447
815 1  1238.941 24.571 216.519
816 1  2239.254 3252.582 3329.669
817 1  949.367 467.397 280.349
818 1  109.507 30.870 1109.064
819 1  641.563 1565.332 3812.663
820 1  631.529 1596.583 1152.494
821 1  1248.645 2716.608 2886.237
822 1  1375.293 1080.604 378.989
823 1  951.822 1462.352 1046.031
824 1  320.049 983.318 311.563
825 1  606.532 433.619 248.660
826 1  1549.581 0.000 2636.553
827 1  139.631 720.588 118.986
828 1  2158.880 2145.025 384.114
829 1  1281.210 4735.138 3867.606
830 1  732.321 801.216 309.035
831 1  878.535 1044.772 539.961
832 1  518.064 915.286 663.920
833 1  78.705 2478.276 4665.508
834 1  1826.682 910.691 538.027
835 1  65.942 462.453 304.522
836 1  549.266 458.559 417.219
837 1  1350.517 2162.654 124.030
838 1  885.566 405.941 110.015
839 1  1121.394 391.586 744.302
840 1  405.756 951.652 419.512
841 1  845.835 9.874 1150.212
842 1  424.302 192.678 0.000
843 1  0.000 838.421 309.862
844 1  488.976 254.012 1004.995
845 1  686.819 58.567 826.287
846 1  253.273 293.470 661.876
847 1  0.000 228.943 1063.311
848 1  716.081 165.524 647.606
849 1  383.566 76.886 0.000
850 1  745.856 522.898 202.304
851 1  142.154 2690.124 2581.965
852 1  888.581 900.104 0.000
853 1  638.412 36.373 1175.984
854 1  591.792 765.012 504.528
855 1  1414.583 227.532 502.590
856 1  2328.701 2835.639 2938.501
857 1  927.615 351.648 1108.734
858 1  3316.775 1713.530 2855.191
859 1  344.165 1147.271 0.000
860 1  496.422 28.252 841.842
861 1  475.953 784.205 466.007
862 1  2.621 244.224 544.822
863 1  2535.262 422.062 1027.711
864 1  584.607 704.098 155.947
865 1  2750.042 3970.888 2029.826
866 1  1303.585 1680.613 76.067
867 1  1145.785 1548.324 1463.821
868 1  289.084 3734.417 4504.488
869 1  0.001 3172.886 3302.702
870 1  4884.548 4710.374 2468.391
871 1  1556.836 2246.266 2595.867
872 1  835.204 774.312 709.709
873 1  4533.009 3112.696 4657.196
874 1  22.446 1850.839 3828.279
875 1  2151.479 5000.000 3783.344
876 1  961.656 2936.715 3923.729
877 1  583.329 3984.712 2537.871
878 1  252.635 1114.704 2039.062
879 1  2110.446 4164.650 848.468
880 1  3790.349 496.587 4129.508
881 1  82.866 3637.279 3055.831
882 1  3023.854 4601.618 454.462
883 1  4145.685 2281.032 628.081
884 1  210.611 2445.790 2599.486
885 1  2489.354 440.564 2203.605
886 1  2035.523 471.109 1441.578
887 1  923.057 3393.106 3265.455
888 1  2895.996 4883.700 107.455
889 1  3687.465 4962.614 3483.809
890 1  2680.088 4404.277 2529.516
891 1  1768.212 2553.337 2.841
892 1  2018.634 422.929 3740.110
893 1  1137.110 1400.441 2447.375
894 1  4620.965 1861.425 848.557
895 1  1964.863 4935.551 32.660
896 1  4436.616 4972.125 3083.259
897 1  1357.930 4006.386 2906.979
898 1  802.485 2.601 1498.168
899 1  421.917 254.894 808.936
900 1  329.467 198.534 61.653
901 2  4109.176 4966.356 1187.033
902 2  2310.808 4971.288 230.832
903 2  701.423 2137.931 1931.899
904 2  187.792 181.893 4330.944
905 2  2031.245 221.284 3670.312
906 2  2143.629 3533.654 4823.204
907 2  4466.322 4999.923 2618.663
908 2  1734.064 4418.016 160.333
909 2  265.733 1292.947 1752.765
910 2  180.719 1105.820 4970.194
911 2  1307.724 1905.864 0.000
912 2  3913.856 3968.059 2396.227
913 2  191.335 655.633 375.870
914 2  560.087 816.711 316.145
915 2  667.992 453.281 834.997
916 2  0.000 818.457 597.562
917 2  33.199 562.826 212.131
918 2  108.442 835.659 220.920
919 2  669.830 18.624 646.121
920 2  332.592 511.197 15.296
921 2  633.126 249.123 231.120
922 2  198.491 235.945 146.145
923 2  617.511 183.797 746.496
924 2  869.119 300.712 447.208
925 2  1017.233 220.827 625.239
926 2  271.055 291.592 842.126
927 2  887.852 588.514 489.805
928 2  559.698 913.017 476.589
929 2  5.099 4475.823 71.572
930 2  149.515 636.197 988.491
931 2  769.832 725.600 436.990
932 2  0.103 340.531 27.164
933 2  172.315 830.511 1004.223
934 2  292.023 971.807 607.515
935 2  911.463 717.878 249.689
936 2  0.000 25.782 383.606
937 2  655.774 999.081 0.000
938 2  734.534 925.781 218.500
939 2  911.618 856.890 822.562
940 2  384.312 678.138 150.890
941 2  321.513 936.045 972.046
942 2  465.346 735.069 983.004
943 2  1031.819 817.545 123.051
944 2  446.237 401.576 768.040