LAMMPS (23 Jun 2022 - Update 1)
OMP_NUM_THREADS environment is not set. Defaulting to 1 thread. (src/comm.cpp:98)
  using 1 OpenMP thread(s) per MPI task
# Read restart
read_restart ${read_res}
read_restart ./pgnpmf/900100/equpmf27.res
Reading restart file ...
  restart file = 23 Jun 2022, LAMMPS = 23 Jun 2022
  restoring atom style atomic from restart
  orthogonal box = (2229.9251 2229.9251 2229.9251) to (2770.0749 2770.0749 2770.0749)
  1 by 1 by 1 MPI processor grid
  restoring pair style table from restart
  1000 atoms
  read_restart CPU = 0.007 seconds

# Settings

pair_style table spline 9941

pair_coeff 1 1 ./pgnpmf/N20.txt DE_GNP 75.6
pair_coeff 2 2 ./pgnpmf/N100.txt DE_GNP 115.92
WARNING: 3 of 9941 force values in table DE_GNP are inconsistent with -dE/dr.
WARNING:  Should only be flagged at inflection points (src/pair_table.cpp:463)
pair_coeff 1 2 ./pgnpmf/mixed_potential.txt DE_GNP 95.66
WARNING: 1562 of 9941 force values in table DE_GNP are inconsistent with -dE/dr.
WARNING:  Should only be flagged at inflection points (src/pair_table.cpp:463)

#Neigh_list Calc Frequency

neigh_modify delay 0 every 1 check yes

# Saving Frequency (50 frames)

variable ts_save equal ${steps_equ}
variable ts_save equal 5000

# Dump
#dump 1 all custom ${ts_save} ./pgnpmf/${folder}/equilibration/trajectory/trajectory_${usic}_${trial}.equ.custom type x y z ix iy iz
#dump_modify 1 first no sort id
#dump 2 all cfg 50000 ./equilibration/trajectory/ovito/dumpgen.tens_*.cfg mass type xs ys zs fx fy fz

# thermo_style
thermo_style custom step temp press pe density ke etotal lx ly lz xlo xhi ylo yhi zlo zhi vol dt time cpu tpcpu spcpu cpuremain

# run info
timestep ${ts}
timestep 0.1
thermo 200

# fix

fix 1 all momentum 1000 linear 1 1 1 angular
variable T equal ${temp}
variable T equal 300
fix 2 all nvt temp ${T} 370000 100.0
fix 2 all nvt temp 300 370000 100.0

run 100000
Generated 0 of 1 mixed pair_coeff terms from geometric mixing rule
Unused restart file global fix info:
  fix style: npt, fix ID: 5
Neighbor list info ...
  update every 1 steps, delay 0 steps, check yes
  max neighbors/atom: 2000, page size: 100000
  master list distance cutoff = 117.92
  ghost atom cutoff = 117.92
  binsize = 58.96, bins = 10 10 10
  1 neighbor lists, perpetual/occasional/extra = 1 0 0
  (1) pair table, perpetual
      attributes: half, newton on
      pair build: half/bin/atomonly/newton
      stencil: half/bin/3d
      bin: standard
Per MPI rank memory allocation (min/avg/max) = 3.135 | 3.135 | 3.135 Mbytes
   Step          Temp          Press          PotEng        Density         KinEng         TotEng           Lx             Ly             Lz            Xlo            Xhi            Ylo            Yhi            Zlo            Zhi           Volume           Dt            Time           CPU           T/CPU          S/CPU         CPULeft    
  18905000   303.73055      4.1357496     -10300344       2.5485331      904.45771     -10299440       540.14977      540.14977      540.14977      2229.9251      2770.0749      2229.9251      2770.0749      2229.9251      2770.0749      1.5759506e+08  0.1            5815000        0              0              0              0            
  18905200   323.95772      3.787731      -10300390       2.5485331      964.69076     -10299425       540.14977      540.14977      540.14977      2229.9251      2770.0749      2229.9251      2770.0749      2229.9251      2770.0749      1.5759506e+08  0.1            5815020        0.033892161    590.08859      5900.7339      16.913517    
  18905400   356.63766      3.4464459     -10300438       2.5485331      1062.0061     -10299376       540.14977      540.14977      540.14977      2229.9251      2770.0749      2229.9251      2770.0749      2229.9251      2770.0749      1.5759506e+08  0.1            5815040        0.067842951    589.09298      5890.9093      16.893517    
  18905600   391.70967      3.1023979     -10300488       2.5485331      1166.4445     -10299322       540.14977      540.14977      540.14977      2229.9251      2770.0749      2229.9251      2770.0749      2229.9251      2770.0749      1.5759506e+08  0.1            5815060        0.10164234     591.72982      5917.2998      16.839133    
  18905800   434.8186       2.7611025     -10300541       2.5485331      1294.8155     -10299246       540.14977      540.14977      540.14977      2229.9251      2770.0749      2229.9251      2770.0749      2229.9251      2770.0749      1.5759506e+08  0.1            5815080        0.13542913     591.94831      5919.4794      16.793499    
  18906000   485.19129      2.4205133     -10300596       2.5485331      1444.8168     -10299152       540.14977      540.14977      540.14977      2229.9251      2770.0749      2229.9251      2770.0749      2229.9251      2770.0749      1.5759506e+08  0.1            5815100        0.16938945     588.92182      5889.2212      16.769791    
  18906200   542.94249      2.0791769     -10300655       2.5485331      1616.79       -10299038       540.14977      540.14977      540.14977      2229.9251      2770.0749      2229.9251      2770.0749      2229.9251      2770.0749      1.5759506e+08  0.1            5815120        0.2031532      592.352        5923.5272      16.726463    
  18906400   608.81343      1.8359726     -10299190       2.5485331      1812.9424     -10297377       540.14977      540.14977      540.14977      2229.9251      2770.0749      2229.9251      2770.0749      2229.9251      2770.0749      1.5759506e+08  0.1            5815140        0.23691507     592.38404      5923.8437      16.685747    
  18906600   683.62774      1.4789198     -10299256       2.5485331      2035.7267     -10297220       540.14977      540.14977      540.14977      2229.9251      2770.0749      2229.9251      2770.0749      2229.9251      2770.0749      1.5759506e+08  0.1            5815160        0.27080641     590.12071      5901.2139      16.654731    
  18906800   768.3769       1.1068223     -10299325       2.5485331      2288.0952     -10297037       540.14977      540.14977      540.14977      2229.9251      2770.0749      2229.9251      2770.0749      2229.9251      2770.0749      1.5759506e+08  0.1            5815180        0.30455292     592.65437      5926.5505      16.615171    
  18907000   864.14         0.71409002    -10299398       2.5485331      2573.2614     -10296824       540.14977      540.14977      540.14977      2229.9251      2770.0749      2229.9251      2770.0749      2229.9251      2770.0749      1.5759506e+08  0.1            5815200        0.33834512     591.85438      5918.5482      16.57901     
  18907200   972.33306      0.29604607    -10299475       2.5485331      2895.4418     -10296579       540.14977      540.14977      540.14977      2229.9251      2770.0749      2229.9251      2770.0749      2229.9251      2770.0749      1.5759506e+08  0.1            5815220        0.37223345     590.17339      5901.7454      16.54756     
  18907400   1094.397       0.10303382    -10299188       2.5485331      3258.9275     -10295929       540.14977      540.14977      540.14977      2229.9251      2770.0749      2229.9251      2770.0749      2229.9251      2770.0749      1.5759506e+08  0.1            5815240        0.40598101     592.63472      5926.3358      16.50998     
  18907600   1232.0003     -0.37946543    -10299275       2.5485331      3668.6865     -10295606       540.14977      540.14977      540.14977      2229.9251      2770.0749      2229.9251      2770.0749      2229.9251      2770.0749      1.5759506e+08  0.1            5815260        0.43975132     592.23709      5922.3729      16.473837    
  18907800   1386.9857     -0.8935711     -10299366       2.5485331      4130.2065     -10295236       540.14977      540.14977      540.14977      2229.9251      2770.0749      2229.9251      2770.0749      2229.9251      2770.0749      1.5759506e+08  0.1            5815280        0.47372036     588.77078      5887.7094      16.444935    
  18908000   1561.3536     -1.4369437     -10299463       2.5485331      4649.4444     -10294813       540.14977      540.14977      540.14977      2229.9251      2770.0749      2229.9251      2770.0749      2229.9251      2770.0749      1.5759506e+08  0.1            5815300        0.50752053     591.7133       5917.1198      16.409898    
  18908200   1757.51       -2.0079903     -10299565       2.5485331      5233.5647     -10294331       540.14977      540.14977      540.14977      2229.9251      2770.0749      2229.9251      2770.0749      2229.9251      2770.0749      1.5759506e+08  0.1            5815320        0.54295745     564.38278      5643.8364      16.424525    
  18908400   1977.9671     -2.6088842     -10299673       2.5485331      5890.0484     -10293782       540.14977      540.14977      540.14977      2229.9251      2770.0749      2229.9251      2770.0749      2229.9251      2770.0749      1.5759506e+08  0.1            5815340        0.57689484     589.32093      5893.2091      16.390658    
  18908600   2225.5521     -3.2524317     -10299786       2.5485331      6627.314      -10293159       540.14977      540.14977      540.14977      2229.9251      2770.0749      2229.9251      2770.0749      2229.9251      2770.0749      1.5759506e+08  0.1            5815360        0.61066682     592.20651      5922.0602      16.352358    
  18908800   2503.3915     -3.9597447     -10299907       2.5485331      7454.6724     -10292452       540.14977      540.14977      540.14977      2229.9251      2770.0749      2229.9251      2770.0749      2229.9251      2770.0749      1.5759506e+08  0.1            5815380        0.6446309      588.85662      5888.5706      16.319394    
  18909000   2814.8635     -4.7462679     -10300034       2.5485331      8382.1829     -10291652       540.14977      540.14977      540.14977      2229.9251      2770.0749      2229.9251      2770.0749      2229.9251      2770.0749      1.5759506e+08  0.1            5815400        0.67847845     590.88587      5908.8678      16.283531    
  18909200   3163.8484     -5.3590427     -10299800       2.5485331      9421.4003     -10290378       540.14977      540.14977      540.14977      2229.9251      2770.0749      2229.9251      2770.0749      2229.9251      2770.0749      1.5759506e+08  0.1            5815420        0.71224853     592.23941      5922.385       16.246099    
  18909400   3554.4437     -6.3156761     -10299942       2.5485331      10584.526     -10289358       540.14977      540.14977      540.14977      2229.9251      2770.0749      2229.9251      2770.0749      2229.9251      2770.0749      1.5759506e+08  0.1            5815440        0.7461519      589.91137      5899.1132      16.211892    
  18909600   3991.0791     -7.624035      -10300461       2.5485331      11884.752     -10288576       540.14977      540.14977      540.14977      2229.9251      2770.0749      2229.9251      2770.0749      2229.9251      2770.0749      1.5759506e+08  0.1            5815460        0.781503       565.75214      5657.5163      16.207739    
  18909800   4478.5554     -8.7935793     -10300620       2.5485331      13336.373     -10287284       540.14977      540.14977      540.14977      2229.9251      2770.0749      2229.9251      2770.0749      2229.9251      2770.0749      1.5759506e+08  0.1            5815480        0.81526444     592.39329      5923.9343      16.169454    
  18910000   5021.9088     -10.109218     -10300788       2.5485331      14954.387     -10285834       540.14977      540.14977      540.14977      2229.9251      2770.0749      2229.9251      2770.0749      2229.9251      2770.0749      1.5759506e+08  0.1            5815500        0.84924777     588.52433      5885.2341      16.135749    
  18910200   5626.6738     -11.516108     -10300966       2.5485331      16755.274     -10284211       540.14977      540.14977      540.14977      2229.9251      2770.0749      2229.9251      2770.0749      2229.9251      2770.0749      1.5759506e+08  0.1            5815520        0.8830017      592.52274      5925.2351      16.09784     
  18910400   6298.4749     -13.256137     -10303048       2.5485331      18755.783     -10284293       540.14977      540.14977      540.14977      2229.9251      2770.0749      2229.9251      2770.0749      2229.9251      2770.0749      1.5759506e+08  0.1            5815540        0.9167421      592.76232      5927.6282      16.06        
  18910600   7043.0872     -14.477057     -10303246       2.5485331      20973.111     -10282273       540.14977      540.14977      540.14977      2229.9251      2770.0749      2229.9251      2770.0749      2229.9251      2770.0749      1.5759506e+08  0.1            5815560        0.95062553     590.25766      5902.5778      16.024867    
  18910800   7866.2448     -15.252234     -10303086       2.5485331      23424.334     -10279662       540.14977      540.14977      540.14977      2229.9251      2770.0749      2229.9251      2770.0749      2229.9251      2770.0749      1.5759506e+08  0.1            5815580        0.98436069     592.85359      5928.5347      15.98741     
  18911000   8773.5207     -16.123749     -10303304       2.5485331      26126.047     -10277178       540.14977      540.14977      540.14977      2229.9251      2770.0749      2229.9251      2770.0749      2229.9251      2770.0749      1.5759506e+08  0.1            5815600        1.0181498      591.90756      5919.0861      15.951045    
  18911200   9770.492      -16.944101     -10303531       2.5485331      29094.857     -10274436       540.14977      540.14977      540.14977      2229.9251      2770.0749      2229.9251      2770.0749      2229.9251      2770.0749      1.5759506e+08  0.1            5815620        1.052047       590.01918      5900.188       15.916485    
  18911400   10862.346     -17.900609     -10303769       2.5485331      32346.212     -10271422       540.14977      540.14977      540.14977      2229.9251      2770.0749      2229.9251      2770.0749      2229.9251      2770.0749      1.5759506e+08  0.1            5815640        1.0858104      592.35832      5923.5749      15.880007    
  18911600   12053.937     -18.875091     -10303649       2.5485331      35894.565     -10267755       540.14977      540.14977      540.14977      2229.9251      2770.0749      2229.9251      2770.0749      2229.9251      2770.0749      1.5759506e+08  0.1            5815660        1.1195767      592.3073       5923.0793      15.843734    
  18911800   13349.165     -20.292443     -10303911       2.5485331      39751.532     -10264159       540.14977      540.14977      540.14977      2229.9251      2770.0749      2229.9251      2770.0749      2229.9251      2770.0749      1.5759506e+08  0.1            5815680        1.1535438      588.80252      5888.0269      15.810365    
  18912000   14750.477     -21.664078     -10304186       2.5485331      43924.401     -10260262       540.14977      540.14977      540.14977      2229.9251      2770.0749      2229.9251      2770.0749      2229.9251      2770.0749      1.5759506e+08  0.1            5815700        1.1873372      591.8335       5918.3273      15.77465     
  18912200   16258.495     -22.721692     -10304476       2.5485331      48415.023     -10256060       540.14977      540.14977      540.14977      2229.9251      2770.0749      2229.9251      2770.0749      2229.9251      2770.0749      1.5759506e+08  0.1            5815720        1.2210758      592.79128      5927.9189      15.738337    
  18912400   17871.332     -23.535117     -10304778       2.5485331      53217.774     -10251561       540.14977      540.14977      540.14977      2229.9251      2770.0749      2229.9251      2770.0749      2229.9251      2770.0749      1.5759506e+08  0.1            5815740        1.2549554      590.32694      5903.2719      15.703926    
  18912600   19584.578     -24.575669     -10305096       2.5485331      58319.528     -10246776       540.14977      540.14977      540.14977      2229.9251      2770.0749      2229.9251      2770.0749      2229.9251      2770.0749      1.5759506e+08  0.1            5815760        1.2886905      592.85399      5928.534       15.667789    
  18912800   21390.279     -25.850955     -10305428       2.5485331      63696.598     -10241731       540.14977      540.14977      540.14977      2229.9251      2770.0749      2229.9251      2770.0749      2229.9251      2770.0749      1.5759506e+08  0.1            5815780        1.3224227      592.90531      5929.0612      15.631738    
  18913000   23275.784     -27.125891     -10305771       2.5485331      69311.309     -10236460       540.14977      540.14977      540.14977      2229.9251      2770.0749      2229.9251      2770.0749      2229.9251      2770.0749      1.5759506e+08  0.1            5815800        1.356453       587.71081      5877.1043      15.599233    
  18913200   25224.041     -28.165324     -10306123       2.5485331      75112.887     -10231011       540.14977      540.14977      540.14977      2229.9251      2770.0749      2229.9251      2770.0749      2229.9251      2770.0749      1.5759506e+08  0.1            5815820        1.3902206      592.28413      5922.8348      15.563713    
  18913400   27213.689     -28.821435     -10306483       2.5485331      81037.718     -10225446       540.14977      540.14977      540.14977      2229.9251      2770.0749      2229.9251      2770.0749      2229.9251      2770.0749      1.5759506e+08  0.1            5815840        1.4239842      592.35386      5923.543       15.528232    
  18913600   29218.572     -29.097973     -10307220       2.5485331      87007.918     -10220212       540.14977      540.14977      540.14977      2229.9251      2770.0749      2229.9251      2770.0749      2229.9251      2770.0749      1.5759506e+08  0.1            5815860        1.4579907      588.12326      5881.2312      15.495412    
  18913800   31207.4       -29.408559     -10307596       2.5485331      92930.308     -10214666       540.14977      540.14977      540.14977      2229.9251      2770.0749      2229.9251      2770.0749      2229.9251      2770.0749      1.5759506e+08  0.1            5815880        1.491771       592.06118      5920.6167      15.460193    
  18914000   33143.689     -29.819077     -10307982       2.5485331      98696.245     -10209286       540.14977      540.14977      540.14977      2229.9251      2770.0749      2229.9251      2770.0749      2229.9251      2770.0749      1.5759506e+08  0.1            5815900        1.5255981      591.24356      5912.4375      15.425511    
  18914200   34986.651     -29.674778     -10308743       2.5485331      104184.27     -10204559       540.14977      540.14977      540.14977      2229.9251      2770.0749      2229.9251      2770.0749      2229.9251      2770.0749      1.5759506e+08  0.1            5815920        1.5595124      589.72019      5897.1983      15.391729    
  18914400   36691.516     -28.905523     -10309140       2.5485331      109261.07     -10199879       540.14977      540.14977      540.14977      2229.9251      2770.0749      2229.9251      2770.0749      2229.9251      2770.0749      1.5759506e+08  0.1            5815940        1.5933109      591.74217      5917.4192      15.356825    
  18914600   38213.642     -29.075388     -10309539       2.5485331      113793.7      -10195745       540.14977      540.14977      540.14977      2229.9251      2770.0749      2229.9251      2770.0749      2229.9251      2770.0749      1.5759506e+08  0.1            5815960        1.627173       590.62871      5906.296       15.322566    
  18914800   39511.262     -29.109022     -10309568       2.5485331      117657.79     -10191910       540.14977      540.14977      540.14977      2229.9251      2770.0749      2229.9251      2770.0749      2229.9251      2770.0749      1.5759506e+08  0.1            5815980        1.6611356      588.88336      5888.8267      15.289247    
  18915000   40550.705     -29.791269     -10309966       2.5485331      120753.08     -10189213       540.14977      540.14977      540.14977      2229.9251      2770.0749      2229.9251      2770.0749      2229.9251      2770.0749      1.5759506e+08  0.1            5816000        1.6950097      590.42225      5904.2286      15.255106    
  18915200   41312.697     -31.221033     -10310367       2.5485331      123022.16     -10187344       540.14977      540.14977      540.14977      2229.9251      2770.0749      2229.9251      2770.0749      2229.9251      2770.0749      1.5759506e+08  0.1            5816020        1.7298414      574.18967      5741.8734      15.229408    
  18915400   41794.692     -32.715739     -10310399       2.5485331      124457.46     -10185942       540.14977      540.14977      540.14977      2229.9251      2770.0749      2229.9251      2770.0749      2229.9251      2770.0749      1.5759506e+08  0.1            5816040        1.763769       589.49091      5894.9141      15.195567    
  18915600   42015.904     -35.367171     -10310793       2.5485331      125116.19     -10185677       540.14977      540.14977      540.14977      2229.9251      2770.0749      2229.9251      2770.0749      2229.9251      2770.0749      1.5759506e+08  0.1            5816060        1.79753        592.39843      5923.9857      15.160319    
  18915800   42020.999     -37.96749      -10311916       2.5485331      125131.36     -10186784       540.14977      540.14977      540.14977      2229.9251      2770.0749      2229.9251      2770.0749      2229.9251      2770.0749      1.5759506e+08  0.1            5816080        1.831291       592.40094      5924.0173      15.125125    
  18916000   41874.441     -39.80782      -10316083       2.5485331      124694.94     -10191388       540.14977      540.14977      540.14977      2229.9251      2770.0749      2229.9251      2770.0749      2229.9251      2770.0749      1.5759506e+08  0.1            5816100        1.8652393      589.13228      5891.3207      15.091498    
  18916200   41652.408     -41.300784     -10316450       2.5485331      124033.76     -10192416       540.14977      540.14977      540.14977      2229.9251      2770.0749      2229.9251      2770.0749      2229.9251      2770.0749      1.5759506e+08  0.1            5816120        1.8990085      592.25346      5922.5305      15.056442    
  18916400   41433.465     -42.832476     -10316440       2.5485331      123381.78     -10193058       540.14977      540.14977      540.14977      2229.9251      2770.0749      2229.9251      2770.0749      2229.9251      2770.0749      1.5759506e+08  0.1            5816140        1.9327923      592.00189      5920.0291      15.021541    
  18916600   41290.829     -44.608143     -10317156       2.5485331      122957.04     -10194199       540.14977      540.14977      540.14977      2229.9251      2770.0749      2229.9251      2770.0749      2229.9251      2770.0749      1.5759506e+08  0.1            5816160        1.9667729      588.56815      5885.6806      14.988182    
  18916800   41289.501     -46.199189     -10315967       2.5485331      122953.08     -10193014       540.14977      540.14977      540.14977      2229.9251      2770.0749      2229.9251      2770.0749      2229.9251      2770.0749      1.5759506e+08  0.1            5816180        2.0005947      591.33575      5913.353       14.953614    
  18917000   41484.251     -48.387018     -10316672       2.5485331      123533.02     -10193139       540.14977      540.14977      540.14977      2229.9251      2770.0749      2229.9251      2770.0749      2229.9251      2770.0749      1.5759506e+08  0.1            5816200        2.0344436      590.86253      5908.6354      14.919268    
  18917200   41914.742     -49.558786     -10317005       2.5485331      124814.94     -10192190       540.14977      540.14977      540.14977      2229.9251      2770.0749      2229.9251      2770.0749      2229.9251      2770.0749      1.5759506e+08  0.1            5816220        2.0683957      589.06508      5890.6471      14.885682    
  18917400   42604.273     -50.551024     -10317332       2.5485331      126868.25     -10190464       540.14977      540.14977      540.14977      2229.9251      2770.0749      2229.9251      2770.0749      2229.9251      2770.0749      1.5759506e+08  0.1            5816240        2.1021674      592.21107      5922.1179      14.85081     
  18917600   43558.762     -51.993856     -10319551       2.5485331      129710.56     -10189841       540.14977      540.14977      540.14977      2229.9251      2770.0749      2229.9251      2770.0749      2229.9251      2770.0749      1.5759506e+08  0.1            5816260        2.1359439      592.12794      5921.2743      14.816006    
  18917800   44760.438     -52.696255     -10319501       2.5485331      133288.94     -10186212       540.14977      540.14977      540.14977      2229.9251      2770.0749      2229.9251      2770.0749      2229.9251      2770.0749      1.5759506e+08  0.1            5816280        2.1700044      587.19075      5871.9115      14.783169    
  18918000   46170.259     -53.159126     -10317916       2.5485331      137487.15     -10180429       540.14977      540.14977      540.14977      2229.9251      2770.0749      2229.9251      2770.0749      2229.9251      2770.0749      1.5759506e+08  0.1            5816300        2.2038236      591.37945      5913.7837      14.74868     
  18918200   47732.409     -54.650173     -10318220       2.5485331      142138.96     -10176081       540.14977      540.14977      540.14977      2229.9251      2770.0749      2229.9251      2770.0749      2229.9251      2770.0749      1.5759506e+08  0.1            5816320        2.2375961      592.19974      5922.0028      14.713902    
  18918400   49380.372     -56.593349     -10318519       2.5485331      147046.32     -10171472       540.14977      540.14977      540.14977      2229.9251      2770.0749      2229.9251      2770.0749      2229.9251      2770.0749      1.5759506e+08  0.1            5816340        2.2716031      588.11217      5881.121       14.680672    
  18918600   51043.219     -57.432627     -10316919       2.5485331      151997.99     -10164921       540.14977      540.14977      540.14977      2229.9251      2770.0749      2229.9251      2770.0749      2229.9251      2770.0749      1.5759506e+08  0.1            5816360        2.3053779      592.15885      5921.5817      14.645943    
  18918800   52650.134     -57.790215     -10317207       2.5485331      156783.11     -10160424       540.14977      540.14977      540.14977      2229.9251      2770.0749      2229.9251      2770.0749      2229.9251      2770.0749      1.5759506e+08  0.1            5816380        2.3391263      592.61939      5926.193       14.611078    
  18919000   54136.184     -57.058333     -10317115       2.5485331      161208.31     -10155907       540.14977      540.14977      540.14977      2229.9251      2770.0749      2229.9251      2770.0749      2229.9251      2770.0749      1.5759506e+08  0.1            5816400        2.3730675      589.25429      5892.5415      14.577428    
  18919200   55445.626     -55.892034     -10317380       2.5485331      165107.61     -10152273       540.14977      540.14977      540.14977      2229.9251      2770.0749      2229.9251      2770.0749      2229.9251      2770.0749      1.5759506e+08  0.1            5816420        2.4068259      592.44646      5924.4637      14.542665    
  18919400   56536.445     -55.329908     -10317641       2.5485331      168355.88     -10149285       540.14977      540.14977      540.14977      2229.9251      2770.0749      2229.9251      2770.0749      2229.9251      2770.0749      1.5759506e+08  0.1            5816440        2.4416307      574.632        5746.3049      14.514151    
  18919600   57380.533     -55.824439     -10318267       2.5485331      170869.43     -10147397       540.14977      540.14977      540.14977      2229.9251      2770.0749      2229.9251      2770.0749      2229.9251      2770.0749      1.5759506e+08  0.1            5816460        2.4755645      589.38204      5893.8458      14.480369    
  18919800   57966.373     -57.064185     -10318146       2.5485331      172613.96     -10145532       540.14977      540.14977      540.14977      2229.9251      2770.0749      2229.9251      2770.0749      2229.9251      2770.0749      1.5759506e+08  0.1            5816480        2.5093454      592.05183      5920.5078      14.445703    
  18920000   58302.624     -60.514705     -10318375       2.5485331      173615.26     -10144760       540.14977      540.14977      540.14977      2229.9251      2770.0749      2229.9251      2770.0749      2229.9251      2770.0749      1.5759506e+08  0.1            5816500        2.5431542      591.56173      5915.6177      14.411219    
  18920200   58423.087     -63.368673     -10311579       2.5485331      173973.98     -10137605       540.14977      540.14977      540.14977      2229.9251      2770.0749      2229.9251      2770.0749      2229.9251      2770.0749      1.5759506e+08  0.1            5816520        2.577062       589.83482      5898.3512      14.377305    
  18920400   58382.241     -64.155643     -10311047       2.5485331      173852.34     -10137195       540.14977      540.14977      540.14977      2229.9251      2770.0749      2229.9251      2770.0749      2229.9251      2770.0749      1.5759506e+08  0.1            5816540        2.6108115      592.60237      5926.0304      14.342521    
  18920600   58245.326     -64.377024     -10310086       2.5485331      173444.63     -10136642       540.14977      540.14977      540.14977      2229.9251      2770.0749      2229.9251      2770.0749      2229.9251      2770.0749      1.5759506e+08  0.1            5816560        2.6445549      592.70752      5927.0769      14.307731    
  18920800   58081.268     -64.409593     -10310266       2.5485331      172956.1      -10137310       540.14977      540.14977      540.14977      2229.9251      2770.0749      2229.9251      2770.0749      2229.9251      2770.0749      1.5759506e+08  0.1            5816580        2.6784639      589.81424      5898.1325      14.27385     
  18921000   57961.141     -64.45316      -10312323       2.5485331      172598.38     -10139724       540.14977      540.14977      540.14977      2229.9251      2770.0749      2229.9251      2770.0749      2229.9251      2770.0749      1.5759506e+08  0.1            5816600        2.7122511      591.94037      5919.4069      14.239329    
  18921200   57952.673     -64.320082     -10312105       2.5485331      172573.16     -10139532       540.14977      540.14977      540.14977      2229.9251      2770.0749      2229.9251      2770.0749      2229.9251      2770.0749      1.5759506e+08  0.1            5816620        2.7459963      592.67702      5926.7734      14.204609    
  18921400   58113.062     -64.618262     -10311511       2.5485331      173050.78     -10138460       540.14977      540.14977      540.14977      2229.9251      2770.0749      2229.9251      2770.0749      2229.9251      2770.0749      1.5759506e+08  0.1            5816640        2.7798762      590.32086      5903.2144      14.170599    
  18921600   58485.03      -63.604034     -10311275       2.5485331      174158.43     -10137117       540.14977      540.14977      540.14977      2229.9251      2770.0749      2229.9251      2770.0749      2229.9251      2770.0749      1.5759506e+08  0.1            5816660        2.8136016      593.02516      5930.244       14.135816    
  18921800   59094.829     -60.874219     -10311388       2.5485331      175974.31     -10135414       540.14977      540.14977      540.14977      2229.9251      2770.0749      2229.9251      2770.0749      2229.9251      2770.0749      1.5759506e+08  0.1            5816680        2.8473317      592.94247      5929.423       14.101081    
  18922000   59954.262     -58.344036     -10309589       2.5485331      178533.56     -10131055       540.14977      540.14977      540.14977      2229.9251      2770.0749      2229.9251      2770.0749      2229.9251      2770.0749      1.5759506e+08  0.1            5816700        2.881285       589.04086      5890.4181      14.067461    
  18922200   61058.211     -56.611291     -10309308       2.5485331      181820.93     -10127487       540.14977      540.14977      540.14977      2229.9251      2770.0749      2229.9251      2770.0749      2229.9251      2770.0749      1.5759506e+08  0.1            5816720        2.9150252      592.76586      5927.6447      14.032806    
  18922400   62379.188     -54.945508     -10309758       2.5485331      185754.57     -10124003       540.14977      540.14977      540.14977      2229.9251      2770.0749      2229.9251      2770.0749      2229.9251      2770.0749      1.5759506e+08  0.1            5816740        2.9488041      592.08475      5920.8652      13.998356    
  18922600   63868.543     -53.735864     -10312089       2.5485331      190189.62     -10121899       540.14977      540.14977      540.14977      2229.9251      2770.0749      2229.9251      2770.0749      2229.9251      2770.0749      1.5759506e+08  0.1            5816760        2.9827918      588.44897      5884.4771      13.964899    
  18922800   65463.526     -52.636184     -10314029       2.5485331      194939.2      -10119090       540.14977      540.14977      540.14977      2229.9251      2770.0749      2229.9251      2770.0749      2229.9251      2770.0749      1.5759506e+08  0.1            5816780        3.0165468      592.50674      5925.0699      13.930372    
  18923000   67095.925     -52.544649     -10314052       2.5485331      199800.21     -10114252       540.14977      540.14977      540.14977      2229.9251      2770.0749      2229.9251      2770.0749      2229.9251      2770.0749      1.5759506e+08  0.1            5816800        3.0514499      573.01471      5730.1446      13.901059    
  18923200   68697.494     -53.139822     -10317849       2.5485331      204569.41     -10113279       540.14977      540.14977      540.14977      2229.9251      2770.0749      2229.9251      2770.0749      2229.9251      2770.0749      1.5759506e+08  0.1            5816820        3.0852737      591.29888      5912.9811      13.866789    
  18923400   70202.55      -52.28224      -10318212       2.5485331      209051.21     -10109161       540.14977      540.14977      540.14977      2229.9251      2770.0749      2229.9251      2770.0749      2229.9251      2770.0749      1.5759506e+08  0.1            5816840        3.1190114      592.80874      5928.0997      13.832147    
  18923600   71551.676     -49.335907     -10315565       2.5485331      213068.67     -10102496       540.14977      540.14977      540.14977      2229.9251      2770.0749      2229.9251      2770.0749      2229.9251      2770.0749      1.5759506e+08  0.1            5816860        3.1529138      589.92994      5899.2844      13.798245    
  18923800   72694.768     -46.899338     -10315163       2.5485331      216472.61     -10098691       540.14977      540.14977      540.14977      2229.9251      2770.0749      2229.9251      2770.0749      2229.9251      2770.0749      1.5759506e+08  0.1            5816880        3.1866478      592.87222      5928.7327      13.763615    
  18924000   73596.623     -45.035591     -10317001       2.5485331      219158.18     -10097843       540.14977      540.14977      540.14977      2229.9251      2770.0749      2229.9251      2770.0749      2229.9251      2770.0749      1.5759506e+08  0.1            5816900        3.220418       592.23643      5922.3609      13.72916     
  18924200   74242.855     -43.172329     -10317286       2.5485331      221082.54     -10096204       540.14977      540.14977      540.14977      2229.9251      2770.0749      2229.9251      2770.0749      2229.9251      2770.0749      1.5759506e+08  0.1            5816920        3.2543095      590.12073      5901.22        13.695228    
  18924400   74639.674     -42.293473     -10317178       2.5485331      222264.2      -10094913       540.14977      540.14977      540.14977      2229.9251      2770.0749      2229.9251      2770.0749      2229.9251      2770.0749      1.5759506e+08  0.1            5816940        3.288049       592.77603      5927.7541      13.660666    
  18924600   74817.05      -42.633814     -10317420       2.5485331      222792.4      -10094628       540.14977      540.14977      540.14977      2229.9251      2770.0749      2229.9251      2770.0749      2229.9251      2770.0749      1.5759506e+08  0.1            5816960        3.3217871      592.80367      5928.0353      13.626115    
  18924800   74822.497     -43.211343     -10315018       2.5485331      222808.62     -10092210       540.14977      540.14977      540.14977      2229.9251      2770.0749      2229.9251      2770.0749      2229.9251      2770.0749      1.5759506e+08  0.1            5816980        3.3556617      590.41117      5904.1023      13.592133    
  18925000   74713.011     -43.551577     -10314854       2.5485331      222482.59     -10092372       540.14977      540.14977      540.14977      2229.9251      2770.0749      2229.9251      2770.0749      2229.9251      2770.0749      1.5759506e+08  0.1            5817000        3.3894413      592.07308      5920.7439      13.557773    
  18925200   74559.667     -42.873091     -10315410       2.5485331      222025.96     -10093384       540.14977      540.14977      540.14977      2229.9251      2770.0749      2229.9251      2770.0749      2229.9251      2770.0749      1.5759506e+08  0.1            5817020        3.4232102      592.26089      5922.6075      13.523383    
  18925400   74434.105     -41.292139     -10315581       2.5485331      221652.05     -10093929       540.14977      540.14977      540.14977      2229.9251      2770.0749      2229.9251      2770.0749      2229.9251      2770.0749      1.5759506e+08  0.1            5817040        3.4571122      589.93437      5899.3401      13.489525    
  18925600   74401.532     -39.778607     -10314993       2.5485331      221555.06     -10093438       540.14977      540.14977      540.14977      2229.9251      2770.0749      2229.9251      2770.0749      2229.9251      2770.0749      1.5759506e+08  0.1            5817060        3.4908788      592.30129      5923.012       13.455143    
  18925800   74521.636     -36.875223     -10314015       2.5485331      221912.71     -10092103       540.14977      540.14977      540.14977      2229.9251      2770.0749      2229.9251      2770.0749      2229.9251      2770.0749      1.5759506e+08  0.1            5817080        3.5246391      592.41294      5924.1315      13.420749    
  18926000   74841.843     -33.184745     -10314123       2.5485331      222866.23     -10091256       540.14977      540.14977      540.14977      2229.9251      2770.0749      2229.9251      2770.0749      2229.9251      2770.0749      1.5759506e+08  0.1            5817100        3.5595418      573.02019      5730.1977      13.390666    
  18926200   75396.74      -29.780233     -10313845       2.5485331      224518.62     -10089327       540.14977      540.14977      540.14977      2229.9251      2770.0749      2229.9251      2770.0749      2229.9251      2770.0749      1.5759506e+08  0.1            5817120        3.5933         592.44972      5924.4895      13.356237    
  18926400   76201.833     -27.6074       -10311660       2.5485331      226916.05     -10084744       540.14977      540.14977      540.14977      2229.9251      2770.0749      2229.9251      2770.0749      2229.9251      2770.0749      1.5759506e+08  0.1            5817140        3.6270834      592.00737      5920.0888      13.321912    
  18926600   77252.76      -25.808479     -10310987       2.5485331      230045.53     -10080941       540.14977      540.14977      540.14977      2229.9251      2770.0749      2229.9251      2770.0749      2229.9251      2770.0749      1.5759506e+08  0.1            5817160        3.6609951      589.76751      5897.6662      13.288064    
  18926800   78525.356     -24.183886     -10311404       2.5485331      233835.1      -10077569       540.14977      540.14977      540.14977      2229.9251      2770.0749      2229.9251      2770.0749      2229.9251      2770.0749      1.5759506e+08  0.1            5817180        3.694818       591.31469      5913.154       13.253896    
  18927000   79975.209     -22.097354     -10311063       2.5485331      238152.51     -10072910       540.14977      540.14977      540.14977      2229.9251      2770.0749      2229.9251      2770.0749      2229.9251      2770.0749      1.5759506e+08  0.1            5817200        3.7286154      591.76276      5917.6213      13.219644    
  18927200   81545.586     -21.045943     -10311068       2.5485331      242828.83     -10068239       540.14977      540.14977      540.14977      2229.9251      2770.0749      2229.9251      2770.0749      2229.9251      2770.0749      1.5759506e+08  0.1            5817220        3.7625118      590.03299      5900.3389      13.185747    
  18927400   83168.187     -17.770587     -10310676       2.5485331      247660.66     -10063015       540.14977      540.14977      540.14977      2229.9251      2770.0749      2229.9251      2770.0749      2229.9251      2770.0749      1.5759506e+08  0.1            5817240        3.7963146      591.66705      5916.6679      13.151526    
  18927600   84773.778     -11.93125      -10310257       2.5485331      252441.84     -10057815       540.14977      540.14977      540.14977      2229.9251      2770.0749      2229.9251      2770.0749      2229.9251      2770.0749      1.5759506e+08  0.1            5817260        3.830034       593.12924      5931.2892      13.117026    
  18927800   86297.918     -6.2262425     -10307929       2.5485331      256980.46     -10050948       540.14977      540.14977      540.14977      2229.9251      2770.0749      2229.9251      2770.0749      2229.9251      2770.0749      1.5759506e+08  0.1            5817280        3.8639766      589.23167      5892.3092      13.083296    
  18928000   87677.483     -1.727746      -10307476       2.5485331      261088.57     -10046388       540.14977      540.14977      540.14977      2229.9251      2770.0749      2229.9251      2770.0749      2229.9251      2770.0749      1.5759506e+08  0.1            5817300        3.8978143      591.05564      5910.5728      13.049211    
  18928200   88859.39       3.8398206     -10299986       2.5485331      264608.09     -10035378       540.14977      540.14977      540.14977      2229.9251      2770.0749      2229.9251      2770.0749      2229.9251      2770.0749      1.5759506e+08  0.1            5817320        3.9315448      592.93628      5929.3511      13.014776    
  18928400   89806.945      8.579839      -10300999       2.5485331      267429.75     -10033569       540.14977      540.14977      540.14977      2229.9251      2770.0749      2229.9251      2770.0749      2229.9251      2770.0749      1.5759506e+08  0.1            5817340        3.9654879      589.22045      5892.2127      12.981048    
  18928600   90506.856      11.5385       -10301993       2.5485331      269513.96     -10032479       540.14977      540.14977      540.14977      2229.9251      2770.0749      2229.9251      2770.0749      2229.9251      2770.0749      1.5759506e+08  0.1            5817360        3.9992388      592.57733      5925.7688      12.946695    
  18928800   90964.613      13.023578     -10301820       2.5485331      270877.09     -10030943       540.14977      540.14977      540.14977      2229.9251      2770.0749      2229.9251      2770.0749      2229.9251      2770.0749      1.5759506e+08  0.1            5817380        4.0329565      593.15988      5931.5979      12.912246    
  18929000   91199.442      14.844098     -10301259       2.5485331      271576.37     -10029683       540.14977      540.14977      540.14977      2229.9251      2770.0749      2229.9251      2770.0749      2229.9251      2770.0749      1.5759506e+08  0.1            5817400        4.0678428      573.29016      5732.8968      12.881509    
  18929200   91251.706      15.514339     -10300676       2.5485331      271732        -10028944       540.14977      540.14977      540.14977      2229.9251      2770.0749      2229.9251      2770.0749      2229.9251      2770.0749      1.5759506e+08  0.1            5817420        4.10156        593.16753      5931.6748      12.847042    
  18929400   91177.778      16.437689     -10299704       2.5485331      271511.85     -10028192       540.14977      540.14977      540.14977      2229.9251      2770.0749      2229.9251      2770.0749      2229.9251      2770.0749      1.5759506e+08  0.1            5817440        4.1352745      593.21768      5932.178       12.812579    
  18929600   91046.381      17.829054     -10299825       2.5485331      271120.58     -10028705       540.14977      540.14977      540.14977      2229.9251      2770.0749      2229.9251      2770.0749      2229.9251      2770.0749      1.5759506e+08  0.1            5817460        4.1691566      590.28264      5902.8339      12.778641    
  18929800   90927.14       20.726971     -10299199       2.5485331      270765.5      -10028434       540.14977      540.14977      540.14977      2229.9251      2770.0749      2229.9251      2770.0749      2229.9251      2770.0749      1.5759506e+08  0.1            5817480        4.2029039      592.63997      5926.3997      12.744296    
  18930000   90885.904      25.510899     -10297820       2.5485331      270642.7      -10027177       540.14977      540.14977      540.14977      2229.9251      2770.0749      2229.9251      2770.0749      2229.9251      2770.0749      1.5759506e+08  0.1            5817500        4.2366884      591.98843      5919.8836      12.710071    
  18930200   90983.397      29.273199     -10295265       2.5485331      270933.02     -10024332       540.14977      540.14977      540.14977      2229.9251      2770.0749      2229.9251      2770.0749      2229.9251      2770.0749      1.5759506e+08  0.1            5817520        4.2705796      590.12301      5901.247       12.676171    
  18930400   91270.699      32.209481     -10294962       2.5485331      271788.56     -10023174       540.14977      540.14977      540.14977      2229.9251      2770.0749      2229.9251      2770.0749      2229.9251      2770.0749      1.5759506e+08  0.1            5817540        4.3043145      592.85775      5928.5577      12.641812    
  18930600   91784.326      36.931457     -10295021       2.5485331      273318.05     -10021703       540.14977      540.14977      540.14977      2229.9251      2770.0749      2229.9251      2770.0749      2229.9251      2770.0749      1.5759506e+08  0.1            5817560        4.3380664      592.55967      5925.5971      12.607511    
  18930800   92540.19       42.20086      -10293590       2.5485331      275568.88     -10018022       540.14977      540.14977      540.14977      2229.9251      2770.0749      2229.9251      2770.0749      2229.9251      2770.0749      1.5759506e+08  0.1            5817580        4.3719967      589.44407      5894.4482      12.573733    
  18931000   93535.937      45.972887     -10293245       2.5485331      278534.05     -10014711       540.14977      540.14977      540.14977      2229.9251      2770.0749      2229.9251      2770.0749      2229.9251      2770.0749      1.5759506e+08  0.1            5817600        4.4058225      591.26469      5912.6494      12.539654    
  18931200   94751.809      49.791926     -10292510       2.5485331      282154.71     -10010355       540.14977      540.14977      540.14977      2229.9251      2770.0749      2229.9251      2770.0749      2229.9251      2770.0749      1.5759506e+08  0.1            5817620        4.439588       592.31974      5923.1872      12.50541     
  18931400   96150.849      54.902941     -10291390       2.5485331      286320.81     -10005069       540.14977      540.14977      540.14977      2229.9251      2770.0749      2229.9251      2770.0749      2229.9251      2770.0749      1.5759506e+08  0.1            5817640        4.4734898      589.94055      5899.4102      12.471553    
  18931600   97679.53       60.309427     -10290251       2.5485331      290872.96     -9999378.1      540.14977      540.14977      540.14977      2229.9251      2770.0749      2229.9251      2770.0749      2229.9251      2770.0749      1.5759506e+08  0.1            5817660        4.5072702      592.05774      5920.5828      12.43736     
  18931800   99275.141      65.123568     -10287198       2.5485331      295624.42     -9991573.4      540.14977      540.14977      540.14977      2229.9251      2770.0749      2229.9251      2770.0749      2229.9251      2770.0749      1.5759506e+08  0.1            5817680        4.5420047      575.79559      5757.9394      12.40578     
  18932000   100871.79      68.696165     -10286765       2.5485331      300378.97     -9986385.9      540.14977      540.14977      540.14977      2229.9251      2770.0749      2229.9251      2770.0749      2229.9251      2770.0749      1.5759506e+08  0.1            5817700        4.5759771      588.71662      5887.174       12.372092    
  18932200   102400.2       74.287461     -10285208       2.5485331      304930.31     -9980277.8      540.14977      540.14977      540.14977      2229.9251      2770.0749      2229.9251      2770.0749      2229.9251      2770.0749      1.5759506e+08  0.1            5817720        4.609834       590.71843      5907.1988      12.338091    
  18932400   103799.7       78.918499     -10284376       2.5485331      309097.78     -9975278.1      540.14977      540.14977      540.14977      2229.9251      2770.0749      2229.9251      2770.0749      2229.9251      2770.0749      1.5759506e+08  0.1            5817740        4.6436195      591.96977      5919.6888      12.303903    
  18932600   105018.94      83.464067     -10283531       2.5485331      312728.48     -9970803        540.14977      540.14977      540.14977      2229.9251      2770.0749      2229.9251      2770.0749      2229.9251      2770.0749      1.5759506e+08  0.1            5817760        4.6775804      588.91105      5889.1147      12.27018     
  18932800   106021.63      89.080877     -10282681       2.5485331      315714.3      -9966967.1      540.14977      540.14977      540.14977      2229.9251      2770.0749      2229.9251      2770.0749      2229.9251      2770.0749      1.5759506e+08  0.1            5817780        4.7114221      590.98859      5909.8854      12.236145    
  18933000   106783.37      93.541138     -10282184       2.5485331      317982.63     -9964201.9      540.14977      540.14977      540.14977      2229.9251      2770.0749      2229.9251      2770.0749      2229.9251      2770.0749      1.5759506e+08  0.1            5817800        4.7452481      591.2614       5912.6053      12.202072    
  18933200   107301.99      96.319521     -10281305       2.5485331      319527.01     -9961777.7      540.14977      540.14977      540.14977      2229.9251      2770.0749      2229.9251      2770.0749      2229.9251      2770.0749      1.5759506e+08  0.1            5817820        4.7804872      567.54853      5675.4824      12.171601    
  18933400   107594.13      99.420087     -10280407       2.5485331      320396.94     -9960009.9      540.14977      540.14977      540.14977      2229.9251      2770.0749      2229.9251      2770.0749      2229.9251      2770.0749      1.5759506e+08  0.1            5817840        4.8142842      591.77261      5917.7284      12.137426    
  18933600   107697.1       102.54068     -10279494       2.5485331      320703.57     -9958790.8      540.14977      540.14977      540.14977      2229.9251      2770.0749      2229.9251      2770.0749      2229.9251      2770.0749      1.5759506e+08  0.1            5817860        4.8480696      591.97193      5919.7152      12.103228    
  18933800   107668.22      105.21101     -10285597       2.5485331      320617.58     -9964979        540.14977      540.14977      540.14977      2229.9251      2770.0749      2229.9251      2770.0749      2229.9251      2770.0749      1.5759506e+08  0.1            5817880        4.8820321      588.88575      5888.856       12.069473    
  18934000   107570.03      109.66335     -10282065       2.5485331      320325.18     -9961739.9      540.14977      540.14977      540.14977      2229.9251      2770.0749      2229.9251      2770.0749      2229.9251      2770.0749      1.5759506e+08  0.1            5817900        4.9158533      591.34478      5913.4555      12.03537     
  18934200   107467.84      115.83952     -10281165       2.5485331      320020.89     -9961144.6      540.14977      540.14977      540.14977      2229.9251      2770.0749      2229.9251      2770.0749      2229.9251      2770.0749      1.5759506e+08  0.1            5817920        4.9496416      591.92029      5919.2077      12.001191    
  18934400   107426.32      122.3203      -10278363       2.5485331      319897.24     -9958466.2      540.14977      540.14977      540.14977      2229.9251      2770.0749      2229.9251      2770.0749      2229.9251      2770.0749      1.5759506e+08  0.1            5817940        4.9845545      572.85293      5728.5176      11.969718    
  18934600   107507.89      126.44318     -10277456       2.5485331      320140.14     -9957315.8      540.14977      540.14977      540.14977      2229.9251      2770.0749      2229.9251      2770.0749      2229.9251      2770.0749      1.5759506e+08  0.1            5817960        5.0183482      591.82758      5918.2722      11.935536    
  18934800   107764.39      130.81522     -10276549       2.5485331      320903.97     -9955645.2      540.14977      540.14977      540.14977      2229.9251      2770.0749      2229.9251      2770.0749      2229.9251      2770.0749      1.5759506e+08  0.1            5817980        5.0521492      591.6983       5916.9844      11.901377    
  18935000   108230.09      136.01415     -10273368       2.5485331      322290.73     -9951077.7      540.14977      540.14977      540.14977      2229.9251      2770.0749      2229.9251      2770.0749      2229.9251      2770.0749      1.5759506e+08  0.1            5818000        5.0861383      588.42447      5884.2536      11.867661    
  18935200   108926.15      139.11593     -10272068       2.5485331      324363.49     -9947704.3      540.14977      540.14977      540.14977      2229.9251      2770.0749      2229.9251      2770.0749      2229.9251      2770.0749      1.5759506e+08  0.1            5818020        5.1199536      591.44757      5914.4711      11.83354     
  18935400   109858.27      140.82042     -10270758       2.5485331      327139.18     -9943618.5      540.14977      540.14977      540.14977      2229.9251      2770.0749      2229.9251      2770.0749      2229.9251      2770.0749      1.5759506e+08  0.1            5818040        5.1537608      591.59036      5915.9094      11.799404    
  18935600   111011.81      145.70713     -10270176       2.5485331      330574.22     -9939602.2      540.14977      540.14977      540.14977      2229.9251      2770.0749      2229.9251      2770.0749      2229.9251      2770.0749      1.5759506e+08  0.1            5818060        5.1876859      589.53473      5895.3445      11.76554     
  18935800   112356.75      151.69881     -10270753       2.5485331      334579.2      -9936174        540.14977      540.14977      540.14977      2229.9251      2770.0749      2229.9251      2770.0749      2229.9251      2770.0749      1.5759506e+08  0.1            5818080        5.2214749      591.90721      5919.0735      11.73137     
  18936000   113845.39      158.29832     -10266805       2.5485331      339012.14     -9927792.9      540.14977      540.14977      540.14977      2229.9251      2770.0749      2229.9251      2770.0749      2229.9251      2770.0749      1.5759506e+08  0.1            5818100        5.2554253      589.09593      5890.9633      11.697564    
  18936200   115414.85      165.92951     -10265847       2.5485331      343685.73     -9922160.9      540.14977      540.14977      540.14977      2229.9251      2770.0749      2229.9251      2770.0749      2229.9251      2770.0749      1.5759506e+08  0.1            5818120        5.2891801      592.50674      5925.0664      11.663325    
  18936400   116998.32      173.9965      -10264875       2.5485331      348401.02     -9916473.9      540.14977      540.14977      540.14977      2229.9251      2770.0749      2229.9251      2770.0749      2229.9251      2770.0749      1.5759506e+08  0.1            5818140        5.3229721      591.8562       5918.5625      11.629173    
  18936600   118530.13      182.72995     -10263896       2.5485331      352962.49     -9910933.2      540.14977      540.14977      540.14977      2229.9251      2770.0749      2229.9251      2770.0749      2229.9251      2770.0749      1.5759506e+08  0.1            5818160        5.3569086      589.33708      5893.3709      11.595338    
  18936800   119947.34      189.64214     -10262907       2.5485331      357182.7      -9905724.5      540.14977      540.14977      540.14977      2229.9251      2770.0749      2229.9251      2770.0749      2229.9251      2770.0749      1.5759506e+08  0.1            5818180        5.3906816      592.1885       5921.8808      11.561152    
  18937000   121198.9       193.96509     -10261550       2.5485331      360909.62     -9900640.5      540.14977      540.14977      540.14977      2229.9251      2770.0749      2229.9251      2770.0749      2229.9251      2770.0749      1.5759506e+08  0.1            5818200        5.4255214      574.05479      5740.539       11.529238    
  18937200   122244.17      198.08566     -10260929       2.5485331      364022.27     -9896907.2      540.14977      540.14977      540.14977      2229.9251      2770.0749      2229.9251      2770.0749      2229.9251      2770.0749      1.5759506e+08  0.1            5818220        5.4594291      589.83736      5898.3733      11.495324    
  18937400   123055.54      203.51978     -10261826       2.5485331      366438.38     -9895387.9      540.14977      540.14977      540.14977      2229.9251      2770.0749      2229.9251      2770.0749      2229.9251      2770.0749      1.5759506e+08  0.1            5818240        5.4931537      593.03949      5930.4149      11.461029    
  18937600   123626.73      208.03989     -10261188       2.5485331      368139.3      -9893048.7      540.14977      540.14977      540.14977      2229.9251      2770.0749      2229.9251      2770.0749      2229.9251      2770.0749      1.5759506e+08  0.1            5818260        5.5270068      590.78701      5907.8713      11.427006    
  18937800   123972.54      211.19077     -10259441       2.5485331      369169.04     -9890272        540.14977      540.14977      540.14977      2229.9251      2770.0749      2229.9251      2770.0749      2229.9251      2770.0749      1.5759506e+08  0.1            5818280        5.5609889      588.54568      5885.4437      11.39325     
  18938000   124126.01      215.51686     -10258065       2.5485331      369626.05     -9888439.3      540.14977      540.14977      540.14977      2229.9251      2770.0749      2229.9251      2770.0749      2229.9251      2770.0749      1.5759506e+08  0.1            5818300        5.5947915      591.67041      5916.7151      11.359126    
  18938200   124134.46      222.70164     -10255903       2.5485331      369651.23     -9886252        540.14977      540.14977      540.14977      2229.9251      2770.0749      2229.9251      2770.0749      2229.9251      2770.0749      1.5759506e+08  0.1            5818320        5.6286191      591.23248      5912.3237      11.325057    
  18938400   124055.75      232.44971     -10252634       2.5485331      369416.85     -9883217.4      540.14977      540.14977      540.14977      2229.9251      2770.0749      2229.9251      2770.0749      2229.9251      2770.0749      1.5759506e+08  0.1            5818340        5.6625639      589.19351      5891.9275      11.291224    
  18938600   123954.53      239.64736     -10249729       2.5485331      369115.42     -9880613.8      540.14977      540.14977      540.14977      2229.9251      2770.0749      2229.9251      2770.0749      2229.9251      2770.0749      1.5759506e+08  0.1            5818360        5.6963637      591.72002      5917.2121      11.257103    
  18938800   123896.38      243.64675     -10249079       2.5485331      368942.27     -9880137.1      540.14977      540.14977      540.14977      2229.9251      2770.0749      2229.9251      2770.0749      2229.9251      2770.0749      1.5759506e+08  0.1            5818380        5.7301615      591.753        5917.5183      11.222983    
  18939000   123947.87      247.26589     -10247698       2.5485331      369095.59     -9878602.3      540.14977      540.14977      540.14977      2229.9251      2770.0749      2229.9251      2770.0749      2229.9251      2770.0749      1.5759506e+08  0.1            5818400        5.7641595      588.27073      5882.709       11.189255    
  18939200   124162.69      252.33307     -10246688       2.5485331      369735.28     -9876952.5      540.14977      540.14977      540.14977      2229.9251      2770.0749      2229.9251      2770.0749      2229.9251      2770.0749      1.5759506e+08  0.1            5818420        5.7979646      591.62548      5916.2503      11.155152    
  18939400   124580.38      259.99837     -10243413       2.5485331      370979.09     -9872434.2      540.14977      540.14977      540.14977      2229.9251      2770.0749      2229.9251      2770.0749      2229.9251      2770.0749      1.5759506e+08  0.1            5818440        5.831758       591.83189      5918.3191      11.121031    
  18939600   125226.71      267.23457     -10240505       2.5485331      372903.75     -9867601.7      540.14977      540.14977      540.14977      2229.9251      2770.0749      2229.9251      2770.0749      2229.9251      2770.0749      1.5759506e+08  0.1            5818460        5.8666663      572.92783      5729.2783      11.089021    
  18939800   126107.83      271.53863     -10239485       2.5485331      375527.59     -9863957.2      540.14977      540.14977      540.14977      2229.9251      2770.0749      2229.9251      2770.0749      2229.9251      2770.0749      1.5759506e+08  0.1            5818480        5.9004615      591.80098      5918.0109      11.054892    
  18940000   127212.39      275.30429     -10238454       2.5485331      378816.77     -9859637.6      540.14977      540.14977      540.14977      2229.9251      2770.0749      2229.9251      2770.0749      2229.9251      2770.0749      1.5759506e+08  0.1            5818500        5.9343027      590.99725      5909.9928      11.020851    
  18940200   128512.67      280.33787     -10238153       2.5485331      382688.79     -9855463.9      540.14977      540.14977      540.14977      2229.9251      2770.0749      2229.9251      2770.0749      2229.9251      2770.0749      1.5759506e+08  0.1            5818520        5.9683097      588.11259      5881.1131      10.987119    
  18940400   129962.16      287.45124     -10236729       2.5485331      387005.13     -9849724.2      540.14977      540.14977      540.14977      2229.9251      2770.0749      2229.9251      2770.0749      2229.9251      2770.0749      1.5759506e+08  0.1            5818540        6.0020968      591.9414       5919.4048      10.952983    
  18940600   131506.19      293.08201     -10235664       2.5485331      391602.97     -9844061.3      540.14977      540.14977      540.14977      2229.9251      2770.0749      2229.9251      2770.0749      2229.9251      2770.0749      1.5759506e+08  0.1            5818560        6.035902       591.62671      5916.2744      10.918883    
  18940800   133083.77      299.9437      -10234230       2.5485331      396300.73     -9837929.3      540.14977      540.14977      540.14977      2229.9251      2770.0749      2229.9251      2770.0749      2229.9251      2770.0749      1.5759506e+08  0.1            5818580        6.0698403      589.30526      5893.0485      10.885024    
  18941000   134626.12      308.777       -10233157       2.5485331      400893.6      -9832263        540.14977      540.14977      540.14977      2229.9251      2770.0749      2229.9251      2770.0749      2229.9251      2770.0749      1.5759506e+08  0.1            5818600        6.103665       591.28156      5912.8152      10.850964    
  18941200   136067.41      316.21165     -10229436       2.5485331      405185.51     -9824250        540.14977      540.14977      540.14977      2229.9251      2770.0749      2229.9251      2770.0749      2229.9251      2770.0749      1.5759506e+08  0.1            5818620        6.1374532      591.92553      5919.2564      10.816841    
  18941400   137350.79      319.46879     -10229065       2.5485331      409007.19     -9820058.1      540.14977      540.14977      540.14977      2229.9251      2770.0749      2229.9251      2770.0749      2229.9251      2770.0749      1.5759506e+08  0.1            5818640        6.1713982      589.18742      5891.8796      10.782996    
  18941600   138433.08      323.53131     -10227942       2.5485331      412230.07     -9815711.7      540.14977      540.14977      540.14977      2229.9251      2770.0749      2229.9251      2770.0749      2229.9251      2770.0749      1.5759506e+08  0.1            5818660        6.2051772      592.08459      5920.85        10.748862    
  18941800   139287.96      328.65684     -10226439       2.5485331      414775.77     -9811663.3      540.14977      540.14977      540.14977      2229.9251      2770.0749      2229.9251      2770.0749      2229.9251      2770.0749      1.5759506e+08  0.1            5818680        6.2390428      590.56849      5905.6886      10.714881    
  18942000   139907.97      334.44026     -10225302       2.5485331      416622.04     -9808680.1      540.14977      540.14977      540.14977      2229.9251      2770.0749      2229.9251      2770.0749      2229.9251      2770.0749      1.5759506e+08  0.1            5818700        6.273067       587.81603      5878.1495      10.681172    
  18942200   140302.16      341.69205     -10224530       2.5485331      417795.88     -9806733.8      540.14977      540.14977      540.14977      2229.9251      2770.0749      2229.9251      2770.0749      2229.9251      2770.0749      1.5759506e+08  0.1            5818720        6.3078404      575.1511       5751.4938      10.648724    
  18942400   140493.89      347.77238     -10221845       2.5485331      418366.8      -9803478.2      540.14977      540.14977      540.14977      2229.9251      2770.0749      2229.9251      2770.0749      2229.9251      2770.0749      1.5759506e+08  0.1            5818740        6.3417217      590.29844      5903.0081      10.614757    
  18942600   140525.45      351.95458     -10221034       2.5485331      418460.79     -9802573.2      540.14977      540.14977      540.14977      2229.9251      2770.0749      2229.9251      2770.0749      2229.9251      2770.0749      1.5759506e+08  0.1            5818760        6.3756519      589.44577      5894.4447      10.580873    
  18942800   140456.98      355.84549     -10221739       2.5485331      418256.9      -9803482        540.14977      540.14977      540.14977      2229.9251      2770.0749      2229.9251      2770.0749      2229.9251      2770.0749      1.5759506e+08  0.1            5818780        6.4094355      592.0039       5920.0439      10.546746    
  18943000   140353.88      361.26133     -10217541       2.5485331      417949.9      -9799591.2      540.14977      540.14977      540.14977      2229.9251      2770.0749      2229.9251      2770.0749      2229.9251      2770.0749      1.5759506e+08  0.1            5818800        6.4432665      591.17294      5911.7297      10.512701    
  18943200   140282.71      368.16035     -10216333       2.5485331      417737.96     -9798594.9      540.14977      540.14977      540.14977      2229.9251      2770.0749      2229.9251      2770.0749      2229.9251      2770.0749      1.5759506e+08  0.1            5818820        6.4771715      589.88386      5898.8362      10.478778    
  18943400   140310.09      373.02315     -10219652       2.5485331      417819.49     -9801832.3      540.14977      540.14977      540.14977      2229.9251      2770.0749      2229.9251      2770.0749      2229.9251      2770.0749      1.5759506e+08  0.1            5818840        6.5109467      592.14786      5921.4795      10.444647    
  18943600   140489.38      377.73711     -10218434       2.5485331      418353.39     -9800080.9      540.14977      540.14977      540.14977      2229.9251      2770.0749      2229.9251      2770.0749      2229.9251      2770.0749      1.5759506e+08  0.1            5818860        6.5447234      592.12561      5921.2568      10.410522    
  18943800   140859.97      384.14327     -10215665       2.5485331      419456.93     -9796207.7      540.14977      540.14977      540.14977      2229.9251      2770.0749      2229.9251      2770.0749      2229.9251      2770.0749      1.5759506e+08  0.1            5818880        6.5786645      589.25606      5892.5635      10.37666     
  18944000   141450.79      392.35124     -10214026       2.5485331      421216.29     -9792809.9      540.14977      540.14977      540.14977      2229.9251      2770.0749      2229.9251      2770.0749      2229.9251      2770.0749      1.5759506e+08  0.1            5818900        6.6125022      591.05695      5910.5754      10.342635    
  18944200   142278.07      398.08136     -10212742       2.5485331      423679.79     -9789062.6      540.14977      540.14977      540.14977      2229.9251      2770.0749      2229.9251      2770.0749      2229.9251      2770.0749      1.5759506e+08  0.1            5818920        6.6463058      591.65335      5916.5123      10.308559    
  18944400   143337.7       403.62459     -10210295       2.5485331      426835.2      -9783459.7      540.14977      540.14977      540.14977      2229.9251      2770.0749      2229.9251      2770.0749      2229.9251      2770.0749      1.5759506e+08  0.1            5818940        6.6802915      588.4835       5884.8356      10.274766    
  18944600   144601.5       412.1852      -10209357       2.5485331      430598.58     -9778758.5      540.14977      540.14977      540.14977      2229.9251      2770.0749      2229.9251      2770.0749      2229.9251      2770.0749      1.5759506e+08  0.1            5818960        6.7140737      592.02723      5920.2882      10.240661    
  18944800   146024.16      423.19468     -10208022       2.5485331      434835.02     -9773186.8      540.14977      540.14977      540.14977      2229.9251      2770.0749      2229.9251      2770.0749      2229.9251      2770.0749      1.5759506e+08  0.1            5818980        6.7478508      592.11693      5921.1671      10.206551    
  18945000   147552.59      432.59707     -10206662       2.5485331      439386.43     -9767275.5      540.14977      540.14977      540.14977      2229.9251      2770.0749      2229.9251      2770.0749      2229.9251      2770.0749      1.5759506e+08  0.1            5819000        6.7827638      572.85186      5728.5124      10.174149    
  18945200   149126.72      437.22497     -10212296       2.5485331      444073.91     -9768222.1      540.14977      540.14977      540.14977      2229.9251      2770.0749      2229.9251      2770.0749      2229.9251      2770.0749      1.5759506e+08  0.1            5819020        6.8165295      592.31853      5923.189       10.140015    
  18945400   150678.59      442.05523     -10209373       2.5485331      448695.1      -9760677.8      540.14977      540.14977      540.14977      2229.9251      2770.0749      2229.9251      2770.0749      2229.9251      2770.0749      1.5759506e+08  0.1            5819040        6.8503184      591.9087       5919.0871      10.105918    
  18945600   152143.94      448.41493     -10207956       2.5485331      453058.66     -9754897.8      540.14977      540.14977      540.14977      2229.9251      2770.0749      2229.9251      2770.0749      2229.9251      2770.0749      1.5759506e+08  0.1            5819060        6.8842716      589.04716      5890.4733      10.072065    
  18945800   153461.15      456.35913     -10204612       2.5485331      456981.1      -9747630.8      540.14977      540.14977      540.14977      2229.9251      2770.0749      2229.9251      2770.0749      2229.9251      2770.0749      1.5759506e+08  0.1            5819080        6.9180596      591.92669      5919.2658      10.037972    
  18946000   154588.19      464.20539     -10203512       2.5485331      460337.23     -9743175.1      540.14977      540.14977      540.14977      2229.9251      2770.0749      2229.9251      2770.0749      2229.9251      2770.0749      1.5759506e+08  0.1            5819100        6.9519484      590.16566      5901.6644      10.004026    
  18946200   155495.81      472.74829     -10203188       2.5485331      463039.96     -9740147.8      540.14977      540.14977      540.14977      2229.9251      2770.0749      2229.9251      2770.0749      2229.9251      2770.0749      1.5759506e+08  0.1            5819120        6.9858816      589.39361      5893.931       9.9701446    
  18946400   156168.74      482.30911     -10199054       2.5485331      465043.85     -9734010.2      540.14977      540.14977      540.14977      2229.9251      2770.0749      2229.9251      2770.0749      2229.9251      2770.0749      1.5759506e+08  0.1            5819140        7.0196692      591.93282      5919.3196      9.9360564    
  18946600   156610.68      491.25492     -10192782       2.5485331      466359.87     -9726422.2      540.14977      540.14977      540.14977      2229.9251      2770.0749      2229.9251      2770.0749      2229.9251      2770.0749      1.5759506e+08  0.1            5819160        7.0535332      590.59659      5905.9781      9.9020783    
  18946800   156844.76      499.57721     -10191232       2.5485331      467056.9      -9724174.7      540.14977      540.14977      540.14977      2229.9251      2770.0749      2229.9251      2770.0749      2229.9251      2770.0749      1.5759506e+08  0.1            5819180        7.0874733      589.2741       5892.7328      9.8682073    
  18947000   156909.87      505.40807     -10189283       2.5485331      467250.79     -9722032.2      540.14977      540.14977      540.14977      2229.9251      2770.0749      2229.9251      2770.0749      2229.9251      2770.0749      1.5759506e+08  0.1            5819200        7.1212943      591.3484       5913.4792      9.8341712    
  18947200   156864.68      510.29357     -10185425       2.5485331      467116.22     -9718308.8      540.14977      540.14977      540.14977      2229.9251      2770.0749      2229.9251      2770.0749      2229.9251      2770.0749      1.5759506e+08  0.1            5819220        7.1551959      589.93965      5899.404       9.8002477    
  18947400   156773.34      517.93395     -10183451       2.5485331      466844.24     -9716606.9      540.14977      540.14977      540.14977      2229.9251      2770.0749      2229.9251      2770.0749      2229.9251      2770.0749      1.5759506e+08  0.1            5819240        7.189148       589.06524      5890.6491      9.7663928    
  18947600   156698.77      525.44826     -10181824       2.5485331      466622.17     -9715201.6      540.14977      540.14977      540.14977      2229.9251      2770.0749      2229.9251      2770.0749      2229.9251      2770.0749      1.5759506e+08  0.1            5819260        7.2229582      591.5393       5915.3986      9.7323455    
  18947800   156705.63      529.88222     -10181283       2.5485331      466642.61     -9714640        540.14977      540.14977      540.14977      2229.9251      2770.0749      2229.9251      2770.0749      2229.9251      2770.0749      1.5759506e+08  0.1            5819280        7.2577438      574.95059      5749.4973      9.6996044    
  18948000   156854.33      537.69262     -10178889       2.5485331      467085.42     -9711803.5      540.14977      540.14977      540.14977      2229.9251      2770.0749      2229.9251      2770.0749      2229.9251      2770.0749      1.5759506e+08  0.1            5819300        7.2918419      586.54442      5865.4439      9.6659327    
  18948200   157191.59      544.62765     -10177589       2.5485331      468089.73     -9709499        540.14977      540.14977      540.14977      2229.9251      2770.0749      2229.9251      2770.0749      2229.9251      2770.0749      1.5759506e+08  0.1            5819320        7.3256814      591.02383      5910.2542      9.6319171    
  18948400   157745.45      553.94997     -10175529       2.5485331      469739.02     -9705790        540.14977      540.14977      540.14977      2229.9251      2770.0749      2229.9251      2770.0749      2229.9251      2770.0749      1.5759506e+08  0.1            5819340        7.3595336      590.80519      5908.0504      9.5979197    
  18948600   158529.97      560.78756     -10177971       2.5485331      472075.18     -9705895.6      540.14977      540.14977      540.14977      2229.9251      2770.0749      2229.9251      2770.0749      2229.9251      2770.0749      1.5759506e+08  0.1            5819360        7.393573       587.55342      5875.5271      9.5641659    
  18948800   159542.72      567.70203     -10177337       2.5485331      475090.96     -9702246.4      540.14977      540.14977      540.14977      2229.9251      2770.0749      2229.9251      2770.0749      2229.9251      2770.0749      1.5759506e+08  0.1            5819380        7.427448       590.40662      5904.0775      9.5301983    
  18949000   160760.99      577.18398     -10175204       2.5485331      478718.78     -9696485.2      540.14977      540.14977      540.14977      2229.9251      2770.0749      2229.9251      2770.0749      2229.9251      2770.0749      1.5759506e+08  0.1            5819400        7.4615114      587.14036      5871.3957      9.4964716    
  18949200   162151.08      588.31179     -10173060       2.5485331      482858.24     -9690201.8      540.14977      540.14977      540.14977      2229.9251      2770.0749      2229.9251      2770.0749      2229.9251      2770.0749      1.5759506e+08  0.1            5819420        7.4953737      590.62679      5906.2713      9.4624879    
  18949400   163659.22      598.8662      -10171268       2.5485331      487349.22     -9683919        540.14977      540.14977      540.14977      2229.9251      2770.0749      2229.9251      2770.0749      2229.9251      2770.0749      1.5759506e+08  0.1            5819440        7.5292249      590.82179      5908.2291      9.4284912    
  18949600   165221.61      607.27587     -10170611       2.5485331      492001.75     -9678609.1      540.14977      540.14977      540.14977      2229.9251      2770.0749      2229.9251      2770.0749      2229.9251      2770.0749      1.5759506e+08  0.1            5819460        7.5632304      588.13946      5881.3766      9.3946878    
  18949800   166773.33      613.98571     -10169143       2.5485331      496622.49     -9672520.4      540.14977      540.14977      540.14977      2229.9251      2770.0749      2229.9251      2770.0749      2229.9251      2770.0749      1.5759506e+08  0.1            5819480        7.5970564      591.26092      5912.6144      9.3606613    
[...]
  19594400   303.90047      0.34957636    -10266831       2.5479743      904.96369     -10265926       540.18925      540.18925      540.18925      2229.9054      2770.0946      2229.9054      2770.0946      2229.9054      2770.0946      1.5762961e+08  0.1            5883940        57.513217      502.7141       5027.1318      2.1065658    
  19594600   303.76274      2.4638453     -10266877       2.5480493      904.55357     -10265972       540.18395      540.18395      540.18395      2229.908       2770.092       2229.908       2770.092       2229.908       2770.092       1.5762497e+08  0.1            5883960        57.552801      505.25495      5052.5596      2.0668134    
  19594800   303.81172      3.8356823     -10266923       2.548102       904.69942     -10266018       540.18023      540.18023      540.18023      2229.9099      2770.0901      2229.9099      2770.0901      2229.9099      2770.0901      1.5762172e+08  0.1            5883980        57.592397      505.10496      5051.0484      2.0270617    
  19595000   303.70543      3.6197014     -10266969       2.5481067      904.38292     -10266064       540.17989      540.17989      540.17989      2229.9101      2770.0899      2229.9101      2770.0899      2229.9101      2770.0899      1.5762142e+08  0.1            5884000        57.632176      502.78203      5027.8212      1.9873165    
  19595200   303.75473      1.7666309     -10267015       2.5480621      904.52972     -10266110       540.18304      540.18304      540.18304      2229.9085      2770.0915      2229.9085      2770.0915      2229.9085      2770.0915      1.5762418e+08  0.1            5884020        57.671831      504.34472      5043.4405      1.9475671    
  19595400   303.88756     -1.0646905     -10267061       2.5479882      904.92526     -10266156       540.18827      540.18827      540.18827      2229.9059      2770.0941      2229.9059      2770.0941      2229.9059      2770.0941      1.5762876e+08  0.1            5884040        57.711588      503.05388      5030.5395      1.9078212    
  19595600   303.73585     -3.7368528     -10267106       2.5479191      904.47349     -10266202       540.19315      540.19315      540.19315      2229.9034      2770.0966      2229.9034      2770.0966      2229.9034      2770.0966      1.5763303e+08  0.1            5884060        57.751155      505.46941      5054.6989      1.8680691    
  19595800   303.77912     -5.028391      -10267152       2.5478917      904.60234     -10266247       540.19509      540.19509      540.19509      2229.9025      2770.0975      2229.9025      2770.0975      2229.9025      2770.0975      1.5763472e+08  0.1            5884080        57.790723      505.46644      5054.6602      1.8283173    
  19596000   303.67781     -4.1965561     -10267198       2.5479283      904.30066     -10266294       540.1925       540.1925       540.1925       2229.9037      2770.0963      2229.9037      2770.0963      2229.9037      2770.0963      1.5763246e+08  0.1            5884100        57.830466      503.23646      5032.3672      1.7885712    
  19596200   303.73495     -1.3864579     -10267244       2.5480243      904.47083     -10266340       540.18572      540.18572      540.18572      2229.9071      2770.0929      2229.9071      2770.0929      2229.9071      2770.0929      1.5762652e+08  0.1            5884120        57.870079      504.88067      5048.8053      1.7488211    
  19596400   303.88697      2.5111504     -10267290       2.548153       904.92349     -10266385       540.17663      540.17663      540.17663      2229.9117      2770.0883      2229.9117      2770.0883      2229.9117      2770.0883      1.5761856e+08  0.1            5884140        57.909828      503.16154      5031.6146      1.7090753    
  19596600   303.74901      6.3524511     -10267335       2.54828        904.51269     -10266431       540.16765      540.16765      540.16765      2229.9162      2770.0838      2229.9162      2770.0838      2229.9162      2770.0838      1.576107e+08   0.1            5884160        57.94941       505.26845      5052.6854      1.6693246    
  19596800   303.80229      9.1888466     -10267380       2.5483769      904.67135     -10266476       540.16081      540.16081      540.16081      2229.9196      2770.0804      2229.9196      2770.0804      2229.9196      2770.0804      1.5760472e+08  0.1            5884180        57.98902       504.92353      5049.2332      1.629575     
  19597000   303.70417      10.48293      -10267426       2.5484272      904.37916     -10266521       540.15725      540.15725      540.15725      2229.9214      2770.0786      2229.9214      2770.0786      2229.9214      2770.0786      1.576016e+08   0.1            5884200        58.028783      502.99164      5029.9178      1.5898297    
  19597200   303.75092      10.186378     -10267471       2.5484295      904.51838     -10266567       540.15709      540.15709      540.15709      2229.9215      2770.0785      2229.9215      2770.0785      2229.9215      2770.0785      1.5760146e+08  0.1            5884220        58.068349      505.47837      5054.7878      1.5500792    
  19597400   303.89236      8.6437158     -10267517       2.5483942      904.93955     -10266613       540.15958      540.15958      540.15958      2229.9202      2770.0798      2229.9202      2770.0798      2229.9202      2770.0798      1.5760364e+08  0.1            5884240        58.108092      503.23348      5032.3319      1.5103335    
  19597600   303.73835      6.3782569     -10267564       2.5483373      904.48093     -10266659       540.1636       540.1636       540.1636       2229.9182      2770.0818      2229.9182      2770.0818      2229.9182      2770.0818      1.5760716e+08  0.1            5884260        58.14765       505.59001      5055.9063      1.4705831    
  19597800   303.77929      3.8997006     -10267610       2.5482742      904.60285     -10266705       540.16806      540.16806      540.16806      2229.916       2770.084       2229.916       2770.084       2229.916       2770.084       1.5761106e+08  0.1            5884280        58.187219      505.43734      5054.3681      1.4308333    
  19598000   303.66392     -3.1723994     -10267655       2.5480734      904.2593      -10266751       540.18225      540.18225      540.18225      2229.9089      2770.0911      2229.9089      2770.0911      2229.9089      2770.0911      1.5762348e+08  0.1            5884300        58.226972      503.11168      5031.1144      1.3910881    
  19598200   303.71637     -0.37330216    -10267701       2.5481692      904.4155      -10266797       540.17548      540.17548      540.17548      2229.9123      2770.0877      2229.9123      2770.0877      2229.9123      2770.0877      1.5761756e+08  0.1            5884320        58.266546      505.37709      5053.7698      1.3513388    
  19598400   303.86547      1.016718      -10265852       2.548212       904.85948     -10264947       540.17246      540.17246      540.17246      2229.9138      2770.0862      2229.9138      2770.0862      2229.9138      2770.0862      1.5761491e+08  0.1            5884340        58.306125      505.32372      5053.2339      1.3115898    
  19598600   303.72413      4.4744241     -10265897       2.5483278      904.4386      -10264993       540.16428      540.16428      540.16428      2229.9179      2770.0821      2229.9179      2770.0821      2229.9179      2770.0821      1.5760775e+08  0.1            5884360        58.345849      503.47915      5034.7946      1.2718442    
  19598800   303.77398      5.0249753     -10265943       2.5483563      904.58705     -10265038       540.16226      540.16226      540.16226      2229.9189      2770.0811      2229.9189      2770.0811      2229.9189      2770.0811      1.5760599e+08  0.1            5884380        58.385425      505.35459      5053.5471      1.2320955    
  19599000   303.67479      4.6857502     -10265988       2.5483582      904.29168     -10265084       540.16212      540.16212      540.16212      2229.9189      2770.0811      2229.9189      2770.0811      2229.9189      2770.0811      1.5760587e+08  0.1            5884400        58.425191      502.93843      5029.3858      1.1923509    
  19599200   303.71393      4.5239436     -10266034       2.5483656      904.40822     -10265129       540.1616       540.1616       540.1616       2229.9192      2770.0808      2229.9192      2770.0808      2229.9192      2770.0808      1.5760541e+08  0.1            5884420        58.464753      505.54145      5055.4125      1.1526022    
  19599400   303.86191      4.4169891     -10266079       2.5483747      904.84889     -10265174       540.16096      540.16096      540.16096      2229.9195      2770.0805      2229.9195      2770.0805      2229.9195      2770.0805      1.5760485e+08  0.1            5884440        58.504312      505.56562      5055.6603      1.1128538    
  19599600   303.70864      4.2370508     -10266124       2.5483816      904.39248     -10265220       540.16047      540.16047      540.16047      2229.9198      2770.0802      2229.9198      2770.0802      2229.9198      2770.0802      1.5760442e+08  0.1            5884460        58.544051      503.28997      5032.8965      1.0731089    
  19599800   303.75322      3.9216887     -10266170       2.5483846      904.52521     -10265265       540.16026      540.16026      540.16026      2229.9199      2770.0801      2229.9199      2770.0801      2229.9199      2770.0801      1.5760424e+08  0.1            5884480        58.583628      505.34557      5053.4609      1.0333612    
  19600000   303.65558      3.490895      -10266215       2.5483841      904.23448     -10265311       540.16029      540.16029      540.16029      2229.9199      2770.0801      2229.9199      2770.0801      2229.9199      2770.0801      1.5760427e+08  0.1            5884500        58.623512      501.44533      5014.4479      0.99361889   
  19600200   303.68936      2.9759117     -10266260       2.5483811      904.33507     -10265356       540.16051      540.16051      540.16051      2229.9197      2770.0803      2229.9197      2770.0803      2229.9197      2770.0803      1.5760445e+08  0.1            5884520        58.663112      505.05539      5050.5561      0.95387178   
  19600400   303.83632      2.3748449     -10266306       2.5483754      904.77268     -10265401       540.16091      540.16091      540.16091      2229.9195      2770.0805      2229.9195      2770.0805      2229.9195      2770.0805      1.5760481e+08  0.1            5884540        58.702722      504.91786      5049.1747      0.91412503   
  19600600   303.6788       1.6880662     -10266351       2.5483671      904.30361     -10265446       540.1615       540.1615       540.1615       2229.9193      2770.0807      2229.9193      2770.0807      2229.9193      2770.0807      1.5760532e+08  0.1            5884560        58.74244       503.55521      5035.5549      0.87438006   
  19600800   303.72266      0.96112796    -10266396       2.5483575      904.43421     -10265491       540.16218      540.16218      540.16218      2229.9189      2770.0811      2229.9189      2770.0811      2229.9189      2770.0811      1.5760591e+08  0.1            5884580        58.782016      505.35834      5053.5835      0.83463312   
  19601000   303.62455      0.29051711    -10266441       2.5483494      904.14206     -10265537       540.16275      540.16275      540.16275      2229.9186      2770.0814      2229.9186      2770.0814      2229.9186      2770.0814      1.5760641e+08  0.1            5884600        58.822823      490.10442      4901.0398      0.79490305   
  19601200   303.65339     -0.2090689     -10266486       2.5483462      904.22793     -10265581       540.16298      540.16298      540.16298      2229.9185      2770.0815      2229.9185      2770.0815      2229.9185      2770.0815      1.5760661e+08  0.1            5884620        58.862469      504.46558      5044.6555      0.75515663   
  19601400   303.8059      -0.45649321    -10266530       2.5483503      904.68209     -10265626       540.16269      540.16269      540.16269      2229.9187      2770.0813      2229.9187      2770.0813      2229.9187      2770.0813      1.5760636e+08  0.1            5884640        58.902048      505.32037      5053.2102      0.71540952   
  19601600   303.6436      -0.44608579    -10266575       2.5483619      904.1988      -10265671       540.16187      540.16187      540.16187      2229.9191      2770.0809      2229.9191      2770.0809      2229.9191      2770.0809      1.5760564e+08  0.1            5884660        58.941891      501.9745       5019.7324      0.67566567   
  19601800   303.69382     -0.24177362    -10266620       2.5483791      904.34835     -10265715       540.16065      540.16065      540.16065      2229.9197      2770.0803      2229.9197      2770.0803      2229.9197      2770.0803      1.5760458e+08  0.1            5884680        58.981481      505.17883      5051.7993      0.63591896   
  19602000   303.60438      1.7617179     -10266664       2.5484499      904.082       -10265760       540.15564      540.15564      540.15564      2229.9222      2770.0778      2229.9222      2770.0778      2229.9222      2770.0778      1.576002e+08   0.1            5884700        59.021266      502.69678      5026.9626      0.59617443   
  19602200   303.62666      0.31685923    -10266340       2.5484098      904.14833     -10265436       540.15848      540.15848      540.15848      2229.9208      2770.0792      2229.9208      2770.0792      2229.9208      2770.0792      1.5760268e+08  0.1            5884720        59.060858      505.15416      5051.5429      0.55642803   
  19602400   303.78883      0.46638353    -10266385       2.5484249      904.63127     -10265480       540.15741      540.15741      540.15741      2229.9213      2770.0787      2229.9213      2770.0787      2229.9213      2770.0787      1.5760175e+08  0.1            5884740        59.100457      505.06895      5050.6922      0.51668189   
  19602600   303.6188       0.5487583     -10266429       2.5484378      904.12493     -10265525       540.1565       540.1565       540.1565       2229.9218      2770.0782      2229.9218      2770.0782      2229.9218      2770.0782      1.5760094e+08  0.1            5884760        59.140216      503.0224       5030.2241      0.47693725   
  19602800   303.67696      0.49968034    -10266473       2.5484468      904.29814     -10265569       540.15586      540.15586      540.15586      2229.9221      2770.0779      2229.9221      2770.0779      2229.9221      2770.0779      1.5760039e+08  0.1            5884780        59.179808      505.15739      5051.5751      0.43719135   
  19603000   303.58151      0.22900717    -10266518       2.548449       904.0139      -10265614       540.15571      540.15571      540.15571      2229.9221      2770.0779      2229.9221      2770.0779      2229.9221      2770.0779      1.5760025e+08  0.1            5884800        59.219641      502.09397      5020.9417      0.39744727   
  19603200   303.60141     -0.36333272    -10266562       2.5484414      904.07315     -10265658       540.15625      540.15625      540.15625      2229.9219      2770.0781      2229.9219      2770.0781      2229.9219      2770.0781      1.5760073e+08  0.1            5884820        59.25928       504.55986      5045.594       0.3577019    
  19603400   303.77479     -1.2551628     -10266606       2.5484246      904.58944     -10265702       540.15744      540.15744      540.15744      2229.9213      2770.0787      2229.9213      2770.0787      2229.9213      2770.0787      1.5760176e+08  0.1            5884840        59.298891      504.90263      5049.0276      0.31795653   
  19603600   303.59415     -2.0683714     -10266650       2.54841        904.05153     -10265746       540.15846      540.15846      540.15846      2229.9208      2770.0792      2229.9208      2770.0792      2229.9208      2770.0792      1.5760266e+08  0.1            5884860        59.338674      502.72642      5027.2578      0.27821215   
  19603800   303.66064     -2.0074973     -10266694       2.5484217      904.24953     -10265790       540.15764      540.15764      540.15764      2229.9212      2770.0788      2229.9212      2770.0788      2229.9212      2770.0788      1.5760195e+08  0.1            5884880        59.378294      504.80069      5048.0162      0.23846705   
  19604000   303.57251     -0.33389891    -10266739       2.5484818      903.98708     -10265835       540.15339      540.15339      540.15339      2229.9233      2770.0767      2229.9233      2770.0767      2229.9233      2770.0767      1.5759823e+08  0.1            5884900        59.418099      502.44468      5024.4427      0.19872275   
  19604200   303.59676      2.649801      -10266783       2.5485813      904.05931     -10265879       540.14636      540.14636      540.14636      2229.9268      2770.0732      2229.9268      2770.0732      2229.9268      2770.0732      1.5759207e+08  0.1            5884920        59.457669      505.43137      5054.3103      0.15897773   
  19604400   303.78872      4.9017591     -10266826       2.5486587      904.63093     -10265922       540.14089      540.14089      540.14089      2229.9296      2770.0704      2229.9296      2770.0704      2229.9296      2770.0704      1.5758729e+08  0.1            5884940        59.497244      505.38092      5053.8129      0.11923296   
  19604600   303.60008      3.7452806     -10266871       2.5486326      904.06919     -10265967       540.14274      540.14274      540.14274      2229.9286      2770.0714      2229.9286      2770.0714      2229.9286      2770.0714      1.575889e+08   0.1            5884960        59.53695       503.69602      5036.9598      0.079488588  
  19604800   303.66012     -0.79974579    -10266915       2.5485035      904.24799     -10266011       540.15186      540.15186      540.15186      2229.9241      2770.0759      2229.9241      2770.0759      2229.9241      2770.0759      1.5759688e+08  0.1            5884980        59.576603      504.37284      5043.7285      0.039744233  
  19605000   303.56121     -3.8989049     -10266959       2.5484178      903.95346     -10266055       540.15791      540.15791      540.15791      2229.921       2770.079       2229.921       2770.079       2229.921       2770.079       1.5760218e+08  0.1            5885000        59.616374      502.88414      5028.8357      0            
Loop time of 59.6164 on 1 procs for 300000 steps with 1000 atoms

Performance: 43.478 ns/day, 0.552 hours/ns, 5032.173 timesteps/s
99.7% CPU use with 1 MPI tasks x 1 OpenMP threads

MPI task timing breakdown:
Section |  min time  |  avg time  |  max time  |%varavg| %total
---------------------------------------------------------------
Pair    | 45.355     | 45.355     | 45.355     |   0.0 | 76.08
Neigh   | 0.032233   | 0.032233   | 0.032233   |   0.0 |  0.05
Comm    | 2.3631     | 2.3631     | 2.3631     |   0.0 |  3.96
Output  | 0.047273   | 0.047273   | 0.047273   |   0.0 |  0.08
Modify  | 10.536     | 10.536     | 10.536     |   0.0 | 17.67
Other   |            | 1.283      |            |       |  2.15

Nlocal:           1000 ave        1000 max        1000 min
Histogram: 1 0 0 0 0 0 0 0 0 0
Nghost:           1902 ave        1902 max        1902 min
Histogram: 1 0 0 0 0 0 0 0 0 0
Neighs:           6803 ave        6803 max        6803 min
Histogram: 1 0 0 0 0 0 0 0 0 0

Total # of neighbors = 6803
Ave neighs/atom = 6.803
Neighbor list builds = 37
Dangerous builds = 10

# run_style
run_style verlet

# write restart
write_restart ${write_res}
write_restart ./pgnpmf/900100/equpmf28.res
System init for write_restart ...
Generated 0 of 1 mixed pair_coeff terms from geometric mixing rule

Total wall time: 0:02:08
