LAMMPS (23 Jun 2022 - Update 1)
OMP_NUM_THREADS environment is not set. Defaulting to 1 thread. (src/comm.cpp:98)
  using 1 OpenMP thread(s) per MPI task

# Init #
dimension   3
boundary    p p p
units       real
atom_style  atomic

# Atom Definition #
read_data ${input_data}
read_data ./pgnpmf/64/dat64.dat
Reading data file ...
  orthogonal box = (-100 -100 -100) to (4100 4100 4100)
  1 by 2 by 2 MPI processor grid
  reading atoms ...
  1000 atoms
  read_data CPU = 0.008 seconds

# Settings #
pair_style table spline 9941

pair_coeff 1 1 ./pgnpmf/N20.txt DE_GNP 75.6
pair_coeff 2 2 ./pgnpmf/N100.txt DE_GNP 115.92
WARNING: 3 of 9941 force values in table DE_GNP are inconsistent with -dE/dr.
WARNING:  Should only be flagged at inflection points (src/pair_table.cpp:463)
pair_coeff 1 2 ./pgnpmf/mixed_potential.txt DE_GNP 95.66
WARNING: 1562 of 9941 force values in table DE_GNP are inconsistent with -dE/dr.
WARNING:  Should only be flagged at inflection points (src/pair_table.cpp:463)

# Neighbor list calc frequency #
neigh_modify delay 0 every 1 check yes

# Saving frequency #
variable ts_save equal floor(${steps_gen}*0.01)
variable ts_save equal floor(5000*0.01)

# Dump #
dump 1 all custom 10000 ./pgnpmf/${folder}/generation/trajectory/trajectory_${usic}_${trial}.gen.custom type x y z ix iy iz
dump 1 all custom 10000 ./pgnpmf/64/generation/trajectory/trajectory_${usic}_${trial}.gen.custom type x y z ix iy iz
dump 1 all custom 10000 ./pgnpmf/64/generation/trajectory/trajectory_1_${trial}.gen.custom type x y z ix iy iz
dump 1 all custom 10000 ./pgnpmf/64/generation/trajectory/trajectory_1_1.gen.custom type x y z ix iy iz
dump_modify 1 first no sort id
dump 2 all cfg 10000 ./pgnpmf/${folder}/generation/trajectory/dumpgen.tens_*.cfg mass type xs ys zs fx fy fz
dump 2 all cfg 10000 ./pgnpmf/64/generation/trajectory/dumpgen.tens_*.cfg mass type xs ys zs fx fy fz
dump_modify 2 element N20 N100

# Fix #
fix 1 all momentum 1000 linear 1 1 1 angular

variable T equal ${Temp}
variable T equal 300

variable nts equal ${steps_gen}/${ts}
variable nts equal 5000/${ts}
variable nts equal 5000/1
variable long equal ${nts}*5
variable long equal 5000*5

# Velocity #
velocity all create ${T} ${Vseed} mom yes rot yes dist gaussian
velocity all create 300 ${Vseed} mom yes rot yes dist gaussian
velocity all create 300 97531 mom yes rot yes dist gaussian

fix 2 all nvt temp ${T} 370000 100.0 #iso 1.0 1.0 1000.0
fix 2 all nvt temp 300 370000 100.0 
run ${nts}
run 5000
Generated 0 of 1 mixed pair_coeff terms from geometric mixing rule
Neighbor list info ...
  update every 1 steps, delay 0 steps, check yes
  max neighbors/atom: 2000, page size: 100000
  master list distance cutoff = 117.92
  ghost atom cutoff = 117.92
  binsize = 58.96, bins = 72 72 72
  1 neighbor lists, perpetual/occasional/extra = 1 0 0
  (1) pair table, perpetual
      attributes: half, newton on
      pair build: half/bin/atomonly/newton
      stencil: half/bin/3d
      bin: standard
Per MPI rank memory allocation (min/avg/max) = 6.142 | 6.144 | 6.144 Mbytes
   Step          Temp          E_pair         E_mol          TotEng         Press     
         0   300           -14878.027      0             -13984.678     -0.0030371176 
      5000   357440.85     -45693.863      0              1018704        0.64575432   
Loop time of 0.0936195 on 4 procs for 5000 steps with 1000 atoms

Performance: 4614.425 ns/day, 0.005 hours/ns, 53407.701 timesteps/s
99.4% CPU use with 4 MPI tasks x 1 OpenMP threads

MPI task timing breakdown:
Section |  min time  |  avg time  |  max time  |%varavg| %total
---------------------------------------------------------------
Pair    | 0.0049047  | 0.0055058  | 0.0060141  |   0.6 |  5.88
Neigh   | 0.0017991  | 0.0019498  | 0.0021881  |   0.3 |  2.08
Comm    | 0.039495   | 0.04098    | 0.042298   |   0.6 | 43.77
Output  | 1.6603e-05 | 1.9969e-05 | 3.0016e-05 |   0.0 |  0.02
Modify  | 0.029356   | 0.031301   | 0.033196   |   0.9 | 33.43
Other   |            | 0.01386    |            |       | 14.81

Nlocal:            250 ave         276 max         228 min
Histogram: 1 0 0 1 1 0 0 0 0 1
Nghost:          69.75 ave          89 max          52 min
Histogram: 1 1 0 0 0 0 0 0 1 1
Neighs:           3.25 ave           5 max           0 min
Histogram: 1 0 0 0 0 0 1 0 0 2

Total # of neighbors = 13
Ave neighs/atom = 0.013
Neighbor list builds = 17
Dangerous builds = 0

unfix 2

fix 3 all nvt temp 370000 370000 100.0
run ${long}
run 25000
Generated 0 of 1 mixed pair_coeff terms from geometric mixing rule
Per MPI rank memory allocation (min/avg/max) = 6.142 | 6.144 | 6.144 Mbytes
   Step          Temp          E_pair         E_mol          TotEng         Press     
      5000   357440.85     -45693.863      0              1018704        0.64575432   
     30000   365748.44     -449330         0              639806.39      0.71104041   
Loop time of 0.491101 on 4 procs for 25000 steps with 1000 atoms

Performance: 4398.280 ns/day, 0.005 hours/ns, 50906.022 timesteps/s
99.4% CPU use with 4 MPI tasks x 1 OpenMP threads

MPI task timing breakdown:
Section |  min time  |  avg time  |  max time  |%varavg| %total
---------------------------------------------------------------
Pair    | 0.031798   | 0.036461   | 0.04738    |   3.3 |  7.42
Neigh   | 0.014549   | 0.01579    | 0.017752   |   1.0 |  3.22
Comm    | 0.18853    | 0.20788    | 0.21977    |   2.6 | 42.33
Output  | 0.0068301  | 0.0069684  | 0.0072425  |   0.2 |  1.42
Modify  | 0.14171    | 0.1557     | 0.16601    |   2.3 | 31.70
Other   |            | 0.0683     |            |       | 13.91

Nlocal:            250 ave         280 max         227 min
Histogram: 1 0 1 0 1 0 0 0 0 1
Nghost:           63.5 ave          85 max          41 min
Histogram: 1 0 0 1 0 0 1 0 0 1
Neighs:           22.5 ave          40 max           9 min
Histogram: 1 0 0 1 1 0 0 0 0 1

Total # of neighbors = 90
Ave neighs/atom = 0.09
Neighbor list builds = 139
Dangerous builds = 0

unfix 3

fix 4 all nvt temp 370000 3700000 $(100*dt)
fix 4 all nvt temp 370000 3700000 100
run ${long}
run 25000
Generated 0 of 1 mixed pair_coeff terms from geometric mixing rule
Per MPI rank memory allocation (min/avg/max) = 6.146 | 6.147 | 6.148 Mbytes
   Step          Temp          E_pair         E_mol          TotEng         Press     
     30000   365748.44     -449330         0              639806.39      0.71104041   
     55000   3640436.7     -292541.35      0              10548058       6.9645429    
Loop time of 0.503463 on 4 procs for 25000 steps with 1000 atoms

Performance: 4290.288 ns/day, 0.006 hours/ns, 49656.110 timesteps/s
99.7% CPU use with 4 MPI tasks x 1 OpenMP threads

MPI task timing breakdown:
Section |  min time  |  avg time  |  max time  |%varavg| %total
---------------------------------------------------------------
Pair    | 0.037982   | 0.045255   | 0.059783   |   4.0 |  8.99
Neigh   | 0.032682   | 0.033871   | 0.035914   |   0.7 |  6.73
Comm    | 0.19216    | 0.21192    | 0.21902    |   2.5 | 42.09
Output  | 0.004417   | 0.0047844  | 0.0056876  |   0.8 |  0.95
Modify  | 0.13336    | 0.14374    | 0.15476    |   2.0 | 28.55
Other   |            | 0.06389    |            |       | 12.69

Nlocal:            250 ave         280 max         234 min
Histogram: 1 1 1 0 0 0 0 0 0 1
Nghost:           73.5 ave          97 max          62 min
Histogram: 2 0 1 0 0 0 0 0 0 1
Neighs:           22.5 ave          41 max          14 min
Histogram: 2 0 1 0 0 0 0 0 0 1

Total # of neighbors = 90
Ave neighs/atom = 0.09
Neighbor list builds = 313
Dangerous builds = 0

unfix 4

fix 5 all nvt temp 3700000 ${T} 100.0
fix 5 all nvt temp 3700000 300 100.0
run ${nts}
run 5000
Generated 0 of 1 mixed pair_coeff terms from geometric mixing rule
Per MPI rank memory allocation (min/avg/max) = 6.146 | 6.147 | 6.148 Mbytes
   Step          Temp          E_pair         E_mol          TotEng         Press     
     55000   3640436.7     -292541.35      0              10548058       6.9645429    
     60000   70320.742     -356590.03      0             -147186.87      0.045525657  
Loop time of 0.103344 on 4 procs for 5000 steps with 1000 atoms

Performance: 4180.224 ns/day, 0.006 hours/ns, 48382.225 timesteps/s
99.5% CPU use with 4 MPI tasks x 1 OpenMP threads

MPI task timing breakdown:
Section |  min time  |  avg time  |  max time  |%varavg| %total
---------------------------------------------------------------
Pair    | 0.0072778  | 0.0087463  | 0.012174   |   2.1 |  8.46
Neigh   | 0.0061982  | 0.0063642  | 0.0067517  |   0.3 |  6.16
Comm    | 0.040578   | 0.044343   | 0.046338   |   1.1 | 42.91
Output  | 0.0027933  | 0.0027966  | 0.0028062  |   0.0 |  2.71
Modify  | 0.028086   | 0.02891    | 0.029911   |   0.5 | 27.97
Other   |            | 0.01218    |            |       | 11.79

Nlocal:            250 ave         280 max         233 min
Histogram: 1 1 0 1 0 0 0 0 0 1
Nghost:          79.25 ave         105 max          63 min
Histogram: 1 1 0 1 0 0 0 0 0 1
Neighs:             24 ave          46 max          13 min
Histogram: 1 1 1 0 0 0 0 0 0 1

Total # of neighbors = 96
Ave neighs/atom = 0.096
Neighbor list builds = 59
Dangerous builds = 0

# Thermo #
thermo_style custom step temp press pe ke etotal epair lx ly lz xlo xhi ylo yhi zlo zhi vol density dt time

# Run stle #
run_style verlet

# Run #
timestep ${ts}
timestep 1
thermo ${ts_save}
thermo 50
# run ${steps_gen}

# write restart #
write_restart ${write_restart}
write_restart ./pgnpmf/64/genpmf.res
System init for write_restart ...
Generated 0 of 1 mixed pair_coeff terms from geometric mixing rule


Total wall time: 0:00:01
