ITEM: TIMESTEP
0
ITEM: NUMBER OF ATOMS
1000
ITEM: BOX BOUNDS pp pp pp
-1.0000000000000000e+02 4.1000000000000000e+03
-1.0000000000000000e+02 4.1000000000000000e+03
-1.0000000000000000e+02 4.1000000000000000e+03
ITEM: ATOMS type x y z ix iy iz
2 2786.02 844.191 2101.64 0 0 0
2 2604.11 803.665 -0.01 0 0 0
2 1153.4 114.822 3717.74 0 0 0
2 3155.91 778.942 305.072 0 0 0
2 1975.52 -0.082 485.907 0 0 0
2 4000 1036.18 1612.32 0 0 0
2 1068.35 2757.12 256.209 0 0 0
2 341.657 2455.85 2596.43 0 0 0
2 -0.03 2052.49 -0 0 0 0
2 -0.033 4000.01 1707.07 0 0 0
2 1808.86 1400.04 1353.22 0 0 0
2 -0.003 4000.02 -0.018 0 0 0
2 1780.07 1950.18 1859.48 0 0 0
2 2761.85 2389.05 -0.005 0 0 0
2 -0.008 1156.57 3556.77 0 0 0
2 1907.74 3805.72 2939.85 0 0 0
2 3468.3 7.644 4000.02 0 0 0
2 3562.47 3941.23 597.188 0 0 0
2 -0.006 1231.48 3994.36 0 0 0
2 3253.3 -0.038 3364.92 0 0 0
2 4000.02 3216.95 3137.55 0 0 0
2 3697.96 1859.76 2471.52 0 0 0
2 3800.43 3876.61 3620.66 0 0 0
2 1615.3 3062.72 2958.48 0 0 0
2 1416.94 1581.52 0.699 0 0 0
2 4000.05 1217.17 569.898 0 0 0
2 2505.72 4000 894.329 0 0 0
2 2493.27 -0.007 1641.63 0 0 0
2 661.703 1016.59 -0.003 0 0 0
2 1978.99 1833.55 1752.8 0 0 0
2 90.656 1788.27 -0.095 0 0 0
2 2286.09 737.613 -0 0 0 0
2 4000.04 -0.036 4000.02 0 0 0
2 3183.15 2533.49 2468.11 0 0 0
2 -0 956.544 2626.86 0 0 0
2 2527.91 784.147 3248.15 0 0 0
2 2557.15 -0.012 2810.88 0 0 0
2 2962.86 2804.07 1443.84 0 0 0
2 -0.019 830.39 1296.31 0 0 0
2 2620.1 922.023 -0.02 0 0 0
2 -0 683.209 -0 0 0 0
2 4000.01 942.896 4000.02 0 0 0
2 2898.95 3298.78 1355.28 0 0 0
2 -0 2621.38 1006.04 0 0 0
2 1178.91 24.128 1301.07 0 0 0
2 2863.41 2956.54 1412.55 0 0 0
2 2718.89 1508.07 -0 0 0 0
2 2638 1877.93 4000 0 0 0
2 0.763 3159.49 1883.56 0 0 0
2 1191.46 591.759 3449.43 0 0 0
2 577.6 1073.2 2156.85 0 0 0
2 120.306 4000 2422.31 0 0 0
2 2642.19 4000 1488.68 0 0 0
2 984.629 1602.14 -0 0 0 0
2 4000.09 4000.01 -0.05 0 0 0
2 406.768 146.931 2192.42 0 0 0
2 -0 -0 475.977 0 0 0
2 1958.55 879.089 1519.87 0 0 0
2 4000.01 2681.72 2898.74 0 0 0
2 2171.58 3279.92 3273.55 0 0 0
2 3415.61 814.813 2895.19 0 0 0
2 1387.49 2588.25 1933.41 0 0 0
2 3456.38 891.033 3583.61 0 0 0
2 4000 3271.27 2617.9 0 0 0
2 30.765 308.93 408.589 0 0 0
2 188.413 1971.91 1097.34 0 0 0
2 1778.72 1728.66 184.227 0 0 0
2 2968.93 2531.02 1635.39 0 0 0
2 877.781 259.508 2825.06 0 0 0
2 -0 1616.68 389.769 0 0 0
2 655.382 1421.11 10.322 0 0 0
2 529.145 791.57 3773.59 0 0 0
2 2226.24 2158.92 1060.62 0 0 0
2 3487.46 1321.76 2607.13 0 0 0
2 414.61 2764.56 -0 0 0 0
2 1304.56 1831.61 362.719 0 0 0
2 1747.7 10.474 39.505 0 0 0
2 2709.73 566.323 1550.14 0 0 0
2 1549.49 1146.98 4000 0 0 0
2 3118.42 1921.46 1118.67 0 0 0
2 2042.37 269.577 2639.22 0 0 0
2 129.651 87.052 779.048 0 0 0
2 74.808 855.975 1484.41 0 0 0
2 647.592 -0 510.696 0 0 0
2 704.055 402.954 2037.81 0 0 0
2 24.182 963.826 962.281 0 0 0
2 713.829 2938.76 618.242 0 0 0
2 4.52 2159.66 1563.46 0 0 0
2 1620.71 2001.8 767.068 0 0 0
2 1039.7 857.955 81.203 0 0 0
2 2256 184.536 31.219 0 0 0
2 357.725 977.203 940.184 0 0 0
2 652.841 1358.02 171.645 0 0 0
2 523.51 449.246 -0 0 0 0
2 617.996 648.746 294.825 0 0 0
2 1039.55 1404.24 647.952 0 0 0
2 988.633 386.604 56.235 0 0 0
2 3163.64 459.549 3777.73 0 0 0
2 1067.14 1161.63 487.052 0 0 0
2 1510.51 359.815 3.143 0 0 0
2 816.334 1598.04 2431.07 0 0 0
2 517.778 275.387 894.123 0 0 0
2 687.99 660.901 -0 0 0 0
2 1081.71 537.593 753.831 0 0 0
2 848.235 254.449 882.641 0 0 0
2 106.566 1892.74 30.415 0 0 0
2 967.559 623.025 -0 0 0 0
2 876.423 969.05 312.007 0 0 0
2 1161.22 20.766 1185.06 0 0 0
2 1029.95 29.303 74.079 0 0 0
2 223.426 626.23 131.724 0 0 0
2 -0 336.382 201.079 0 0 0
2 146.979 896.325 10.781 0 0 0
2 1034.03 330.754 1007.86 0 0 0
2 33.402 513.293 687.735 0 0 0
2 746.786 555.266 1141.91 0 0 0
2 328.471 69.358 42.144 0 0 0
2 453.833 311.383 510.95 0 0 0
2 20.688 644.995 871.283 0 0 0
2 757.01 103.978 751.377 0 0 0
2 357.692 102.256 650.883 0 0 0
2 1438.03 1312.47 1150.71 0 0 0
2 138.627 88.223 387.47 0 0 0
2 786.991 506.227 211.753 0 0 0
2 1092.19 951.722 514.914 0 0 0
2 611.784 102.33 797.022 0 0 0
2 111.503 1031.77 595.994 0 0 0
2 729.455 1239.86 692.632 0 0 0
2 801.871 511.949 527.884 0 0 0
2 95.1 425.89 821.665 0 0 0
2 1202.15 261.181 543.844 0 0 0
2 644.103 773.129 218.562 0 0 0
2 945.713 1302.95 137.044 0 0 0
2 2363.34 39.055 1025.1 0 0 0
2 189.476 -0 835.296 0 0 0
2 378.538 1084.48 617.7 0 0 0
2 0.033 1199.09 0.155 0 0 0
2 -0 2003.17 1721.18 0 0 0
2 7.766 705.693 1665.18 0 0 0
2 1017.98 93.18 839.765 0 0 0
2 0.165 367.651 723.687 0 0 0
2 912.862 1469.67 438.05 0 0 0
2 1068.68 925.342 839.873 0 0 0
2 1372.98 384.015 792.338 0 0 0
2 276.743 692.257 -0 0 0 0
2 680.802 924.812 627.515 0 0 0
2 -0 1770.97 103.372 0 0 0
2 1036.4 686.158 675.65 0 0 0
2 -0.023 8.427 4000 0 0 0
2 1263.05 52.849 56.624 0 0 0
2 2296.16 1514.78 1408.18 0 0 0
2 397.485 576.827 997.259 0 0 0
2 889.787 1514.51 -0 0 0 0
2 990.243 501.083 52.451 0 0 0
2 1875.25 1804.63 2606.97 0 0 0
2 184.481 800.791 324.436 0 0 0
2 756.347 145.242 494.13 0 0 0
2 1391.73 634.814 280.263 0 0 0
2 609.497 624.563 3241.99 0 0 0
2 666.591 543.527 1455.12 0 0 0
2 96.282 1248.89 308.654 0 0 0
2 1609.43 330.089 142.983 0 0 0
2 196.772 -0 1161.71 0 0 0
2 271.11 289.884 690.397 0 0 0
2 577.795 1203.48 1301.21 0 0 0
2 993.929 962.109 69.782 0 0 0
2 1507.36 1368.88 934.82 0 0 0
2 442.273 -0 859.433 0 0 0
2 226.353 171.69 369.091 0 0 0
2 466.088 206.234 12.684 0 0 0
2 469.372 1122.2 184.192 0 0 0
2 536.055 1389.58 583.237 0 0 0
2 2068.97 1234.59 -0 0 0 0
2 724.98 1168.66 -0 0 0 0
2 960.048 1071.73 552.143 0 0 0
2 107.847 1103.08 778.878 0 0 0
2 922.541 917.673 219.594 0 0 0
2 172.206 459.476 1269.88 0 0 0
2 636.457 844.939 795.534 0 0 0
2 1399.35 253.648 653.135 0 0 0
2 1242.21 29.428 749.473 0 0 0
2 85.216 1205.13 1408.6 0 0 0
2 339.647 285.09 472.038 0 0 0
2 314.327 -0 854.553 0 0 0
2 970.959 293.818 519.916 0 0 0
2 137.69 1358.57 986.459 0 0 0
2 1529.63 1355.98 423.72 0 0 0
2 7.018 983.066 1072.46 0 0 0
2 36.342 1379.57 371.548 0 0 0
2 849.965 -0 1817.11 0 0 0
2 888.051 852.633 591.68 0 0 0
2 1510.81 619.67 318.123 0 0 0
2 232.285 -0 1528.45 0 0 0
2 1158.83 815.278 80.479 0 0 0
2 382.104 908.176 819.829 0 0 0
2 1254.41 801.002 3093.27 0 0 0
2 216.853 1234.98 1633.2 0 0 0
2 189.727 507.927 770.466 0 0 0
2 955.965 635.479 436.969 0 0 0
2 821.624 966.507 1382.37 0 0 0
2 505.95 721.745 1410.89 0 0 0
2 542.4 103.891 287.763 0 0 0
2 4.941 757.142 271.385 0 0 0
2 936.915 826.578 57.415 0 0 0
2 921.791 430.301 1522.54 0 0 0
2 233.369 768.482 592.104 0 0 0
2 188.466 228.462 163.655 0 0 0
2 1041.89 1269.42 737.223 0 0 0
2 218.456 1098.07 611.219 0 0 0
2 951.179 1059.16 1248.2 0 0 0
2 704.225 1305.62 992.54 0 0 0
2 -0 299.432 837.497 0 0 0
2 901.694 669.21 669.446 0 0 0
2 -0 179.554 883.829 0 0 0
2 979.883 373.317 376.506 0 0 0
2 26.447 985.141 823.354 0 0 0
2 43.872 205.15 451.901 0 0 0
2 777.036 754.068 412.632 0 0 0
2 193.755 741.113 1255.12 0 0 0
2 161.182 532.792 87.593 0 0 0
2 490.274 176.319 849.017 0 0 0
2 231.39 1353.09 143.65 0 0 0
2 560.539 852.572 1455.59 0 0 0
2 0.101 161.3 673.631 0 0 0
2 0.051 1273.25 580.387 0 0 0
2 23.531 346.292 1687.47 0 0 0
2 961.918 421.957 1044.08 0 0 0
2 300.023 965.553 540.562 0 0 0
2 374.637 1006.81 95.853 0 0 0
2 594.418 285.845 414.063 0 0 0
2 299.984 1097.3 122.469 0 0 0
2 457.247 771.953 163.346 0 0 0
2 533.637 990.8 960.333 0 0 0
2 548.966 727.265 849.111 0 0 0
2 843.214 -0 264.748 0 0 0
2 726.494 1309.31 422.233 0 0 0
2 28.803 1353.82 -0 0 0 0
2 10.581 1.272 658.501 0 0 0
2 1077.64 546.865 523.298 0 0 0
2 656.775 319.666 117.764 0 0 0
2 405.427 104.65 1230.45 0 0 0
2 1418.23 3487.58 1323.82 0 0 0
2 217.546 847.799 741.792 0 0 0
2 663.811 467.875 808.694 0 0 0
2 1125.52 128.658 638.261 0 0 0
2 992.424 1000.9 2459.76 0 0 0
2 1235.91 917.19 871.88 0 0 0
2 601.529 210.245 822.45 0 0 0
2 800.502 229.956 786.552 0 0 0
2 449.831 356.793 925.927 0 0 0
2 101.367 621.693 291.805 0 0 0
2 832.188 -0.009 0.001 0 0 0
2 1615.67 984.829 890.495 0 0 0
2 565.93 1058.77 42.204 0 0 0
2 1344.64 -0 4000 0 0 0
2 508.08 -0 276.395 0 0 0
2 146.374 250.917 19.172 0 0 0
2 827.887 1148.16 820.273 0 0 0
2 137.295 2168.64 2867.38 0 0 0
2 169.763 921.004 1048.83 0 0 0
2 655.241 1081.62 128.994 0 0 0
2 153.075 427.559 1077.73 0 0 0
2 1319.88 1610.31 1241.94 0 0 0
2 480.869 1218.85 430.45 0 0 0
2 222.443 978.202 676.412 0 0 0
2 1792.53 624.687 1159.18 0 0 0
2 1273.62 0.75 299.877 0 0 0
2 603.165 458.377 1397.67 0 0 0
2 913.862 92.42 645.555 0 0 0
2 333.41 687.936 184.995 0 0 0
2 3520.42 685.542 79.707 0 0 0
2 614.491 1161.01 64.637 0 0 0
2 851.48 388.001 539.598 0 0 0
2 629.032 345.012 1377.75 0 0 0
2 450.759 353.031 6.557 0 0 0
2 835.571 184.557 1078.56 0 0 0
2 751.955 268.666 1003.58 0 0 0
2 78.942 556.669 789.575 0 0 0
2 425.165 1027.21 391.099 0 0 0
2 856.624 841.445 444.029 0 0 0
2 1302.39 378.734 3.245 0 0 0
2 852.67 397.957 1082.22 0 0 0
2 827.042 1116.86 -0 0 0 0
2 537.077 318.607 3117.84 0 0 0
2 865.674 1332.85 534.867 0 0 0
2 122.228 1084.64 339.949 0 0 0
2 684.064 21.202 1272.1 0 0 0
2 -0 780.775 686.782 0 0 0
2 729.671 248.154 462.059 0 0 0
2 735.195 1065.27 318.282 0 0 0
2 203.463 1372.88 1363.19 0 0 0
2 591.387 373.582 954.897 0 0 0
2 33.503 641.662 381.073 0 0 0
2 868.826 669.729 336.011 0 0 0
2 -0 1521.46 3825.02 0 0 0
2 926.042 1047.5 691.927 0 0 0
2 907.902 435.8 -0 0 0 0
2 1131.82 268.883 1226.81 0 0 0
2 1155.25 530.494 262.902 0 0 0
2 709.507 839.871 145.494 0 0 0
2 614.785 333.824 696.386 0 0 0
2 1257.49 103.528 494.342 0 0 0
2 811.054 645.697 48.832 0 0 0
2 5.881 1049.45 633.861 0 0 0
2 82.522 239.205 214.477 0 0 0
2 793.54 1615.28 44 0 0 0
2 527.147 1431.35 356.38 0 0 0
2 388.339 1408.13 -0 0 0 0
2 781.299 650.239 730.032 0 0 0
2 637.65 1008.82 362.321 0 0 0
2 348.214 1225.5 532.119 0 0 0
2 604.27 1481.29 882.92 0 0 0
2 204.198 -0 1416.55 0 0 0
2 954.918 488.176 858.515 0 0 0
2 962.737 393.799 663.58 0 0 0
2 695.493 70.318 400.127 0 0 0
2 615.11 1208.04 831.823 0 0 0
2 -0 1364.29 643.937 0 0 0
2 202.083 457.109 432.499 0 0 0
2 1175.38 156.611 358.452 0 0 0
2 855.77 20.449 1122.19 0 0 0
2 841.884 1051.98 1000.69 0 0 0
2 12.827 532.817 918.012 0 0 0
2 87.366 1229.83 799.462 0 0 0
2 779.502 94.145 970.901 0 0 0
2 1258.39 962.113 165.163 0 0 0
2 435.973 1067.36 504.615 0 0 0
2 1421.49 14.001 548.323 0 0 0
2 79.723 283.262 660.858 0 0 0
2 410.758 346.738 622.92 0 0 0
2 205.01 -0 467.603 0 0 0
2 560.361 1086.75 561.077 0 0 0
2 667.311 1305.78 797.091 0 0 0
2 167.463 354.876 369.603 0 0 0
2 428.486 222.626 949.879 0 0 0
2 854.972 543.685 436.621 0 0 0
2 2878.73 1075.34 3495.58 0 0 0
2 359.319 1053.78 741.681 0 0 0
2 471.918 49.713 -0 0 0 0
2 513.093 224.676 1032.5 0 0 0
2 483.129 278.147 98.808 0 0 0
2 1263.79 -0 596.595 0 0 0
2 782.835 1213.4 2335.78 0 0 0
2 459.498 943.876 24.981 0 0 0
2 576.093 155.217 2361.54 0 0 0
2 -0.008 -0.001 -0.01 0 0 0
2 1566.02 410.93 767.626 0 0 0
2 81.136 136.445 306.507 0 0 0
2 598.344 2555.96 1763.11 0 0 0
2 1169.27 0.533 96.538 0 0 0
2 500.239 934.074 1306.24 0 0 0
2 296.252 2144.04 150.148 0 0 0
2 1285.34 910.947 261.736 0 0 0
2 1482.86 872.898 -0 0 0 0
2 220.574 277.824 278.049 0 0 0
2 589.397 1005.06 216.811 0 0 0
2 907.291 104.328 295.479 0 0 0
2 762.768 1345.36 714.424 0 0 0
2 116.409 150.718 1080.56 0 0 0
2 79.617 -0 212.676 0 0 0
2 1270.39 -0 1625.99 0 0 0
2 1386.25 1197.75 309.756 0 0 0
2 1063.07 547.298 328.129 0 0 0
2 2795.98 38.555 910.307 0 0 0
2 535.181 855.763 -0 0 0 0
2 877.558 810.282 149.458 0 0 0
2 672.565 663.063 108.892 0 0 0
2 359.383 737.793 967.432 0 0 0
2 1198.42 449.986 200.17 0 0 0
2 985.655 -0 786.31 0 0 0
2 709.883 709.776 1353.92 0 0 0
2 118.244 538.74 410.3 0 0 0
2 1546.59 115.7 1072.25 0 0 0
2 1150.02 639.315 774.248 0 0 0
2 381.351 416.156 168.193 0 0 0
2 901.231 1424.38 595.437 0 0 0
2 397.966 95.635 1003.76 0 0 0
2 -0 245.501 594.804 0 0 0
2 730.809 176.201 897.962 0 0 0
2 958.579 766.795 283.562 0 0 0
2 1207.8 436.844 1.053 0 0 0
2 253.673 418.395 92.966 0 0 0
2 945.624 477.404 593.635 0 0 0
2 211.951 650.695 542.178 0 0 0
2 174.383 983.843 514.784 0 0 0
2 1385.04 923.708 1000.73 0 0 0
2 151.015 1171.79 563.979 0 0 0
2 397.925 381.586 409.376 0 0 0
2 433.796 2191.79 1574.13 0 0 0
2 835.328 854.703 287.634 0 0 0
2 422.286 -0 202.078 0 0 0
2 261.055 487.618 689.141 0 0 0
2 223.086 297.876 1173.3 0 0 0
2 386.954 148.574 787.489 0 0 0
2 723.876 194.472 1129.38 0 0 0
2 1063.88 1955.78 550.916 0 0 0
2 487.314 264.364 765.567 0 0 0
2 753.902 4.264 905.189 0 0 0
2 291.33 588.395 250.697 0 0 0
2 946.689 903.701 502.928 0 0 0
2 710.517 1228.59 189.724 0 0 0
2 346.872 200.637 1031.19 0 0 0
2 957.402 978.562 1148.89 0 0 0
2 1814.85 2995.26 2034.7 0 0 0
2 752.026 1094.38 78.184 0 0 0
2 84.259 142.7 571.565 0 0 0
2 640.905 1260.85 -0 0 0 0
2 755.869 1118.2 219.613 0 0 0
2 272.495 476.381 902.877 0 0 0
2 914.83 255.084 632.614 0 0 0
2 97.135 1733.16 477.972 0 0 0
2 146.571 739.226 480.291 0 0 0
2 824.09 403.462 855.588 0 0 0
2 353.849 1348 503.073 0 0 0
2 307.072 601.901 648.191 0 0 0
2 1015.75 664.582 524.611 0 0 0
2 169.73 173.106 895.197 0 0 0
2 165.795 2469.41 1488.55 0 0 0
2 1833.94 275.201 3341.76 0 0 0
2 222.483 1340.14 704.932 0 0 0
2 220.642 189.015 1050.39 0 0 0
2 1498.95 394.424 386.564 0 0 0
2 298.635 -0 225.357 0 0 0
2 2138.33 315.371 0.12 0 0 0
2 -0 1409.85 1233.73 0 0 0
2 736.634 851.996 525.239 0 0 0
2 379.64 670.512 699.977 0 0 0
2 2774.22 2455.88 3481.62 0 0 0
2 135.389 98.904 985.34 0 0 0
2 854.993 778.364 1298.27 0 0 0
2 182.562 372.492 648.381 0 0 0
2 570.286 534.83 811.368 0 0 0
2 459.901 303.314 237.33 0 0 0
2 594.259 1171.95 965.302 0 0 0
2 1178.22 45.45 336.871 0 0 0
2 772.042 1425.23 598.77 0 0 0
2 1003.25 301.724 904.841 0 0 0
2 366.749 12.312 1150.43 0 0 0
2 48.663 120.382 1165.41 0 0 0
2 402.698 619.183 306.072 0 0 0
2 1214.71 1212.04 692.794 0 0 0
2 949.7 17.842 481.732 0 0 0
2 1287.99 261.191 12.696 0 0 0
2 3395.33 1419.76 4000 0 0 0
2 124.793 326.19 153.894 0 0 0
2 818.758 900.839 116.441 0 0 0
2 -0.005 853.992 1403.79 0 0 0
2 275.089 989.885 256.172 0 0 0
2 265.777 274.051 23.154 0 0 0
2 864.054 536.685 -0 0 0 0
2 202.862 447.334 314.318 0 0 0
2 1195.99 1696.79 890.491 0 0 0
2 109.215 323.746 502.554 0 0 0
2 7.64 297.472 1199.43 0 0 0
2 1085.73 230.632 598.41 0 0 0
2 182.559 1268.69 242.645 0 0 0
2 395.4 485.304 917.13 0 0 0
2 630.054 46.659 1463.21 0 0 0
2 186.049 18.451 191.393 0 0 0
2 1126.91 666.878 230.716 0 0 0
2 1636.91 2507.72 3070.31 0 0 0
2 126.825 709.19 185.321 0 0 0
2 425.904 901.446 424.237 0 0 0
2 -0 650.031 979.443 0 0 0
2 685.081 324.236 1140.86 0 0 0
2 1156.21 605.845 50.911 0 0 0
2 58.511 1368.63 153.355 0 0 0
2 4000.03 13.001 -0.045 0 0 0
2 105.444 0.356 1055.17 0 0 0
2 16.347 100.754 201.023 0 0 0
2 467.4 339.232 1062.08 0 0 0
2 800.417 1388.96 389.129 0 0 0
2 954.846 1087.44 199.23 0 0 0
2 1312.42 100.91 386.019 0 0 0
2 392.566 1288.61 307.719 0 0 0
2 877.961 1211.66 1018.9 0 0 0
2 1345.99 747.706 1213.89 0 0 0
2 181.467 562.735 637.11 0 0 0
2 837.545 1200.51 1575.41 0 0 0
2 650.957 725.864 1134.02 0 0 0
2 1175.38 1185.28 -0 0 0 0
2 93.821 819.912 255.252 0 0 0
2 263.787 253.203 563.077 0 0 0
2 761.31 355.976 734.997 0 0 0
2 581.764 3903.58 3024.55 0 0 0
2 58.513 752.904 1001.73 0 0 0
2 997.204 823.041 415.774 0 0 0
2 374.02 87.109 140.782 0 0 0
2 693.375 352.198 476.329 0 0 0
2 884.271 423.592 439.645 0 0 0
2 733.094 103.259 297.55 0 0 0
2 912.013 97.157 181.313 0 0 0
2 1181.54 1909.99 516.47 0 0 0
2 1310.75 624.589 398.911 0 0 0
2 -0 1345.47 1047.96 0 0 0
2 757.882 362.75 103.264 0 0 0
2 763.838 -0 457.112 0 0 0
2 26.072 415.697 319.787 0 0 0
2 3414.73 2731.2 2259.51 0 0 0
2 496.696 0.44 1373.83 0 0 0
2 1011.14 161.753 460.012 0 0 0
2 373.624 265.693 3.028 0 0 0
2 659.561 1002.82 748.14 0 0 0
2 921.525 669.847 99.671 0 0 0
2 45.463 27.88 108.109 0 0 0
2 1088.37 948.525 683.579 0 0 0
2 595.732 616.988 936.406 0 0 0
2 696.451 404.661 620.292 0 0 0
2 704.519 902.199 1172.22 0 0 0
2 410.295 931.87 1238.94 0 0 0
2 385.865 716.475 59.851 0 0 0
2 310.277 581.67 775.348 0 0 0
2 79.666 1272.53 447.2 0 0 0
2 469.842 1241.72 972.053 0 0 0
2 970.587 641.154 813.759 0 0 0
2 176.455 4000 2045.82 0 0 0
2 359.613 438.345 694.813 0 0 0
2 272.785 86.567 464.035 0 0 0
2 903.873 569.138 1186.16 0 0 0
2 571.213 422.777 164.748 0 0 0
2 1309.65 -0 3723.94 0 0 0
2 362.536 870.968 510.088 0 0 0
2 73.094 -0 381.098 0 0 0
2 859.803 1230.48 1800.27 0 0 0
2 1231.97 711.999 1790.17 0 0 0
2 703.963 1109.1 755.635 0 0 0
2 471.625 537.744 572.101 0 0 0
2 -0 1265.49 240.262 0 0 0
2 160.365 835.911 1122.51 0 0 0
2 1036.14 1047.12 410.221 0 0 0
2 236.811 1162.46 377.88 0 0 0
2 402.263 857.859 113.447 0 0 0
2 871.311 11.742 906.794 0 0 0
2 593.656 855.611 139.276 0 0 0
2 305.618 573.124 68.192 0 0 0
2 98.791 198.005 729.182 0 0 0
2 720.483 321.68 832.916 0 0 0
2 2633.33 2149.42 310.171 0 0 0
2 338.291 477.817 359.976 0 0 0
2 211.69 591.002 -0 0 0 0
2 486.111 943.709 140.391 0 0 0
2 951.932 -0 245.131 0 0 0
2 1157.23 -0 816.368 0 0 0
2 166.653 447.802 916.3 0 0 0
2 -0 465.007 780.758 0 0 0
2 971.845 179.111 758.694 0 0 0
2 1048.71 0.003 689.539 0 0 0
2 177.109 705.812 799.438 0 0 0
2 58.856 934.421 418.235 0 0 0
2 554.837 515.485 662.118 0 0 0
2 803.605 1344.03 101.514 0 0 0
2 456.285 684.857 1180.92 0 0 0
2 284.182 105.848 838.119 0 0 0
2 571.276 1227.06 521.83 0 0 0
2 476.19 233.607 651.444 0 0 0
2 459.74 743.401 550.065 0 0 0
2 1200.55 696.347 1153.19 0 0 0
2 106.724 542.965 974.461 0 0 0
2 1178.35 1770.67 807.466 0 0 0
2 378.872 671.121 573.288 0 0 0
2 122.159 -0 677.886 0 0 0
2 813.886 2239.2 740.99 0 0 0
2 296.724 391.07 1213.76 0 0 0
2 1215.21 134.156 -0 0 0 0
2 531.262 1377.28 249.719 0 0 0
2 362.038 94.585 536.761 0 0 0
2 751.338 -0 1033.75 0 0 0
2 677.352 926.297 205.492 0 0 0
2 518.369 635.417 340.892 0 0 0
2 836.504 45.421 388.143 0 0 0
2 1087.1 350.415 -0 0 0 0
2 623.955 2390.29 83.379 0 0 0
2 1333.42 105.432 745.651 0 0 0
2 997.335 79.135 1031.24 0 0 0
2 1067.18 379.666 1142.71 0 0 0
2 958.133 673.711 1686.84 0 0 0
2 934.11 305.249 -0 0 0 0
2 843.01 543.301 907.856 0 0 0
2 1109.76 321.87 671.518 0 0 0
2 364.781 1111.53 928.745 0 0 0
2 246.77 133.081 1425.38 0 0 0
2 722.373 363.078 319.131 0 0 0
2 466.865 741.434 401.879 0 0 0
2 733.075 324.185 1348.55 0 0 0
2 851.5 8.551 155.343 0 0 0
2 1340.14 428.105 924.848 0 0 0
2 1112.35 1285.95 637.13 0 0 0
2 116.956 460.843 638.505 0 0 0
2 564.067 291.906 200.408 0 0 0
2 169.33 978.205 130.998 0 0 0
2 1299.66 443.492 320.756 0 0 0
2 289.366 70.157 1233.81 0 0 0
2 111.895 1028.3 905.611 0 0 0
2 732.751 790.736 1247.45 0 0 0
2 953.735 299.551 284.881 0 0 0
2 1586.56 449.015 507.321 0 0 0
2 2228.23 884.867 1290.35 0 0 0
2 -0 470.438 1633.35 0 0 0
2 916.959 360.913 765.322 0 0 0
2 480.733 179.06 1496.55 0 0 0
2 1592.11 972.975 364.785 0 0 0
2 111.801 363.089 266.234 0 0 0
2 870.693 547.134 634.027 0 0 0
2 1427.08 501.286 661.259 0 0 0
2 686.046 560.805 220.52 0 0 0
2 963.573 685.478 936.587 0 0 0
2 529.495 503.789 1134.83 0 0 0
2 2857.78 702.235 2833.31 0 0 0
2 177.187 1393.47 43.629 0 0 0
2 1186.78 1138.78 971.145 0 0 0
2 1231.55 548.099 1435.68 0 0 0
2 1044.47 762.519 1053.03 0 0 0
2 911.751 1212.13 -0 0 0 0
2 1589.92 3123.81 579.011 0 0 0
2 563.649 781.462 1872.22 0 0 0
2 600.881 470.529 461.191 0 0 0
2 310.892 941.277 157.775 0 0 0
2 566.655 320.432 1.078 0 0 0
2 42.443 834.69 776.803 0 0 0
2 425.804 698.804 1303.12 0 0 0
2 544.505 528.945 229.689 0 0 0
2 942.122 1170.8 686.853 0 0 0
2 1109.33 726.762 961.229 0 0 0
2 732.742 388.038 998.867 0 0 0
2 757.401 2608.09 3596.18 0 0 0
2 519.023 691.531 236.097 0 0 0
2 274.872 96.47 301.316 0 0 0
2 306.562 988.143 1465.05 0 0 0
2 994.843 -0 366.255 0 0 0
2 425.6 1160.51 689.846 0 0 0
2 -0 1064.86 920.948 0 0 0
2 547.597 33.388 151.779 0 0 0
2 1245.92 415.734 681 0 0 0
2 471.182 813.841 882.202 0 0 0
2 -0.031 4000.05 1856.65 0 0 0
2 411.183 1135.84 380.692 0 0 0
2 369.648 2454.75 510.865 0 0 0
2 927.51 988.603 421.522 0 0 0
2 1428.66 -0 690.187 0 0 0
2 1172.35 -0 236.872 0 0 0
2 1292.55 242.464 677.046 0 0 0
2 1045.43 204.113 1187.3 0 0 0
2 623.312 158.77 918.645 0 0 0
2 212.999 1299.06 -0 0 0 0
2 1096.4 270.706 462.863 0 0 0
2 128.319 902.701 803.382 0 0 0
2 291.504 504.953 170.745 0 0 0
2 764.745 541.206 738.874 0 0 0
2 261.918 370.166 767.64 0 0 0
2 664.557 187.173 193.236 0 0 0
2 487.828 989.454 281.976 0 0 0
2 582.905 1091.72 1501.89 0 0 0
2 863.937 591.116 179.975 0 0 0
2 829.246 41.836 535.032 0 0 0
2 25.251 232.031 1033.32 0 0 0
2 -0 547.666 162.442 0 0 0
2 629.034 797.355 499.652 0 0 0
2 288.178 216.162 839.862 0 0 0
2 782.454 966.059 611.621 0 0 0
2 348.894 801.833 350.596 0 0 0
2 318.35 1200.72 773.615 0 0 0
2 725.275 195.992 586.749 0 0 0
2 333.207 1392.33 603.73 0 0 0
2 879.628 184.58 482.267 0 0 0
2 634.685 1965.87 -0 0 0 0
2 722.541 1175.26 1149.3 0 0 0
2 827.152 782.172 661.448 0 0 0
2 155.599 197.384 1190.01 0 0 0
2 1139.25 213.244 1122.11 0 0 0
2 434.47 944.025 551.85 0 0 0
2 1425.8 -0 803.465 0 0 0
2 272.152 277.735 1006.81 0 0 0
2 15.166 692.847 171.371 0 0 0
2 2992.09 2770.99 2731.81 0 0 0
2 14.19 40.551 1532.68 0 0 0
2 655.636 655.949 679.827 0 0 0
2 -0 3576.37 780.245 0 0 0
2 218.653 671.111 429.304 0 0 0
2 582.406 912.785 303.603 0 0 0
2 400.666 1290.34 663.858 0 0 0
2 462.82 778.172 1015.51 0 0 0
2 1053.9 1082.4 -0 0 0 0
2 51.6 780.325 382.621 0 0 0
2 929.457 955.679 614.578 0 0 0
2 1485.62 345.346 1029.68 0 0 0
2 288.533 140.767 184.518 0 0 0
2 295.177 2277.89 551.697 0 0 0
2 620.422 20.372 13.861 0 0 0
2 846.011 745.446 1038.84 0 0 0
2 994.634 216.681 130.515 0 0 0
2 2517.86 1180.6 1855.86 0 0 0
2 3.897 887.871 870.739 0 0 0
2 755.691 425.224 1535.81 0 0 0
2 802.17 94.097 863.248 0 0 0
2 1133.73 2256.3 892.323 0 0 0
2 265.081 690.089 724.659 0 0 0
2 -0 1123.17 787.059 0 0 0
2 1253.17 161.023 117.097 0 0 0
2 803.969 614.953 1052.5 0 0 0
2 1170.9 654.867 404.412 0 0 0
2 582.948 709.325 430.199 0 0 0
2 -0 1240 376.286 0 0 0
2 764.094 -0 716.182 0 0 0
2 80.119 1540.07 622.575 0 0 0
2 156.896 329.562 868.216 0 0 0
2 327.915 801.494 177.614 0 0 0
2 1308.59 1517.22 3237.4 0 0 0
2 1101.68 352.177 265.6 0 0 0
2 711.126 267.126 692.973 0 0 0
2 1420.88 56.786 393.569 0 0 0
2 1601.42 1458.36 -0 0 0 0
2 -0 704.942 1081.58 0 0 0
2 1070.55 722.474 403.454 0 0 0
2 1376.64 859.348 305.685 0 0 0
2 983.409 564.421 1538.84 0 0 0
2 287.891 147.066 951.342 0 0 0
2 681.847 746.024 895.93 0 0 0
2 276.103 1198.54 -0 0 0 0
2 1497.11 560.404 839.935 0 0 0
2 982.352 956.693 733.118 0 0 0
2 248.155 689.789 919.901 0 0 0
2 463.346 465.582 437.351 0 0 0
2 1255.45 974.57 614.948 0 0 0
2 -0 113.326 1067.01 0 0 0
2 431.271 0.035 89.337 0 0 0
2 710.81 81.16 1374.96 0 0 0
2 161.918 674.454 1128.29 0 0 0
2 763.445 619.836 416.234 0 0 0
2 676.558 15.235 242.888 0 0 0
2 1247.52 1754.45 145.38 0 0 0
2 561.73 657.584 116.768 0 0 0
2 1757.3 151.922 995.5 0 0 0
2 255.821 -0 98.579 0 0 0
2 630.791 182.196 404.706 0 0 0
2 945.85 511.429 739.779 0 0 0
2 741.762 902.012 366.259 0 0 0
2 853.961 -0 648.362 0 0 0
2 141.589 696.121 956.892 0 0 0
2 1411.41 3051.12 978.496 0 0 0
2 531.44 865.517 578.238 0 0 0
2 874.788 810.852 917.956 0 0 0
2 133.195 1103.14 214.182 0 0 0
2 10.094 670.456 545.518 0 0 0
2 1203.79 548.713 133.069 0 0 0
2 1314.25 2888.82 498.488 0 0 0
2 1361.13 1976.18 57.985 0 0 0
2 1277.77 605.729 295.671 0 0 0
2 189.628 556.163 300.477 0 0 0
2 1084.82 -0 1008.22 0 0 0
2 1296.98 516.601 786.26 0 0 0
2 2.783 1109.26 294.612 0 0 0
2 88.667 604.501 1172.47 0 0 0
2 -0 160.959 1255.33 0 0 0
2 1207 1298.74 344.639 0 0 0
2 792.132 497.679 330.474 0 0 0
2 1024.87 705.23 200.869 0 0 0
2 679.027 1142.83 626.698 0 0 0
2 753.932 1192.5 534.722 0 0 0
2 1169.46 412.888 776.254 0 0 0
2 329.327 241.795 334.719 0 0 0
2 1336.91 3.792 186.246 0 0 0
2 962.728 399.501 1815.4 0 0 0
2 314.44 499.305 1020.5 0 0 0
2 634.159 113.391 527.169 0 0 0
2 131.825 984.147 237.042 0 0 0
2 982.277 2.354 1129.22 0 0 0
2 1206.47 217.221 1557.32 0 0 0
2 -0 535.935 468.087 0 0 0
2 858.555 2134.91 693.701 0 0 0
2 613.659 980.926 1410.48 0 0 0
2 1156.26 31.679 680.503 0 0 0
2 -0 357.721 572.832 0 0 0
2 3306.72 -0.003 457.349 0 0 0
2 1120.81 696.7 -0 0 0 0
2 596.114 2565.04 781.795 0 0 0
2 342.161 675.03 863.954 0 0 0
2 409.568 101.62 885.997 0 0 0
2 842.755 413.892 261.696 0 0 0
2 461.766 862.298 721.586 0 0 0
2 971.964 467.068 1160.91 0 0 0
2 761.598 324.975 -0 0 0 0
2 367.538 918.984 263.091 0 0 0
2 -0 1114.72 1107.62 0 0 0
2 2168.23 549.432 551.535 0 0 0
2 -0 251.565 737.919 0 0 0
2 457.87 492.798 1407.57 0 0 0
2 3877.48 753.287 27.17 0 0 0
2 1969.76 885.52 1838 0 0 0
2 1188.58 336.653 1623.78 0 0 0
2 620.529 633.248 808.283 0 0 0
2 711.491 791.836 1004.23 0 0 0
2 311.068 403.734 601.943 0 0 0
2 408.888 85.139 305.678 0 0 0
2 486.38 430.238 1001.49 0 0 0
2 352.311 685.977 1085.45 0 0 0
2 2275.09 -0 597.054 0 0 0
2 551.919 983.207 666.709 0 0 0
2 1583.43 2364.4 1738.89 0 0 0
2 594.44 286.26 1083.7 0 0 0
2 42.339 901.545 65.9 0 0 0
2 599.044 683.251 1240.24 0 0 0
2 1380.15 -0 43.409 0 0 0
2 830.705 931.446 1240.86 0 0 0
2 70.14 706.641 1209.92 0 0 0
2 178.388 1204.56 134.86 0 0 0
2 573.476 150.995 1138.42 0 0 0
2 1166.62 165.011 480.775 0 0 0
2 370.716 80.042 1360.55 0 0 0
2 1167.56 1197.39 1494.93 0 0 0
2 1048.16 2308.42 3060.85 0 0 0
2 55.635 998.867 718.151 0 0 0
2 261.68 855.989 1548.49 0 0 0
2 679.064 205.953 50.127 0 0 0
2 1003.67 646.805 297.772 0 0 0
2 663.095 700.334 565.352 0 0 0
2 1.957 803.117 508.78 0 0 0
2 784.368 1152.49 386.233 0 0 0
2 423.347 431.39 821.036 0 0 0
2 231.44 133.704 3.028 0 0 0
2 798.676 283.743 314.65 0 0 0
2 840.025 1261.91 715.801 0 0 0
2 836.213 135.958 23.422 0 0 0
2 740.866 977.954 126.12 0 0 0
2 616.029 1514.56 658.41 0 0 0
2 380.422 778.453 655.564 0 0 0
2 697.524 713.729 782.08 0 0 0
2 931.968 302.222 1037.91 0 0 0
2 461.454 156.775 210.455 0 0 0
2 48.026 879.985 173.71 0 0 0
2 399.726 4.898 593.996 0 0 0
2 832.283 1169.21 608.34 0 0 0
2 296.584 -0 552.253 0 0 0
2 367.717 349.328 276.333 0 0 0
2 730.261 533.835 956.377 0 0 0
2 570.592 220.423 285.494 0 0 0
2 634.627 545.944 1248.1 0 0 0
2 1024.58 412.605 495.61 0 0 0
2 1106.93 813.301 704.588 0 0 0
2 43.819 1880.29 1509.24 0 0 0
2 3.048 222.021 1373.77 0 0 0
2 819.694 182.679 265.027 0 0 0
2 81.591 252.529 895.266 0 0 0
2 851.631 162.735 712.07 0 0 0
2 2596.95 1882.47 1025.69 0 0 0
2 641.274 22.452 929.356 0 0 0
2 4.866 292.409 302.886 0 0 0
2 1196.29 344.948 355.623 0 0 0
2 895.86 1587.03 981.596 0 0 0
2 310.356 412.223 484.82 0 0 0
2 2596.01 1493.26 470.633 0 0 0
2 1117.98 714.998 108.951 0 0 0
2 3218.69 136.07 -0 0 0 0
2 1172.7 453.524 3423.69 0 0 0
2 881.521 1150.55 284.59 0 0 0
2 488.096 651.827 485.949 0 0 0
2 1428.88 1421.75 850.508 0 0 0
2 301.473 779.915 496.553 0 0 0
2 467.719 158.439 561.876 0 0 0
2 -0 1251.81 119.731 0 0 0
2 228.734 668.306 294.538 0 0 0
2 -0 401.01 884.099 0 0 0
2 884.893 950.24 32.884 0 0 0
2 681.505 1419.1 722.289 0 0 0
2 1945.06 456.26 845.98 0 0 0
2 1021.6 1171.3 986.388 0 0 0
2 2399.57 1032.6 1045.9 0 0 0
2 2639.64 3377.87 1396.05 0 0 0
2 402.164 -0 723.271 0 0 0
2 156.372 318.308 1016.18 0 0 0
2 1060.9 722.907 793.753 0 0 0
2 130.304 227.577 376.853 0 0 0
2 247.619 804.531 843.555 0 0 0
2 6.531 414.061 1291.97 0 0 0
2 1276.99 281.825 2033.87 0 0 0
2 336.8 201.688 693.81 0 0 0
2 1949.26 909.915 5.051 0 0 0
2 434.119 1032.74 820.84 0 0 0
2 314.783 816.902 1203.61 0 0 0
2 1029.15 638.364 89.84 0 0 0
2 190.06 224.516 790.699 0 0 0
2 584.168 107.299 640.398 0 0 0
2 7.366 1245.38 722.32 0 0 0
2 2355.05 951.975 2109.61 0 0 0
2 1463.77 291.036 402.881 0 0 0
2 101.792 1323.08 650.718 0 0 0
2 1118.36 1424.38 566.947 0 0 0
2 1084.73 456.665 154.955 0 0 0
2 727.027 21.613 583.656 0 0 0
2 1169.44 614.14 1002.61 0 0 0
2 2689.41 1577.3 2393.61 0 0 0
2 985.749 120.055 561.279 0 0 0
2 756.23 302.132 195.131 0 0 0
2 720.49 1243.26 1488.55 0 0 0
2 811.224 1642.82 1347.91 0 0 0
2 202.527 1114.02 722.259 0 0 0
2 404.894 334.908 746.109 0 0 0
2 2452.6 2635.01 388.991 0 0 0
2 2901.68 2454.51 1925.92 0 0 0
2 363.889 1873.81 1138.67 0 0 0
2 274.463 116.952 726.91 0 0 0
2 1200.03 117.998 858.045 0 0 0
2 919.691 962.922 1589.44 0 0 0
2 576.665 1091.76 1106.31 0 0 0
2 1262.38 306.203 768.067 0 0 0
2 274.095 505.392 579.568 0 0 0
2 1019.91 194.98 882.18 0 0 0
2 1288.12 312.485 445.501 0 0 0
2 1.249 636.553 746.874 0 0 0
2 620.906 1159.2 261.756 0 0 0
2 937.988 1140.95 1428.06 0 0 0
2 1299.62 869.58 719.364 0 0 0
2 438.214 997.975 1030.86 0 0 0
2 1454.8 702.373 802.383 0 0 0
2 645 1252.66 623.303 0 0 0
2 111.405 1349.3 525.375 0 0 0
2 842.408 849.386 -0 0 0 0
2 761.81 641.142 556.072 0 0 0
2 1911.38 2440.49 938.495 0 0 0
2 110.197 376.71 1172.61 0 0 0
2 253.41 567.731 475.597 0 0 0
2 364.008 883.671 1005.25 0 0 0
2 2363.18 2066.3 330.992 0 0 0
2 1197.08 1333.77 910.63 0 0 0
2 307.566 714.161 1282.51 0 0 0
2 2264.51 12.106 364.147 0 0 0
2 312.632 941.361 371.236 0 0 0
2 124.172 1081.19 0.428 0 0 0
2 4.717 317.642 2097.66 0 0 0
2 990.294 587.096 1057.06 0 0 0
2 484.829 356.382 334.585 0 0 0
2 520.703 907.6 1171.12 0 0 0
2 781.053 1047.47 707.063 0 0 0
2 387.295 285.497 843.273 0 0 0
2 977.7 1287.26 518.019 0 0 0
2 1029.73 127.732 13.907 0 0 0
2 667.565 678.647 993.319 0 0 0
2 270.327 383.065 237.87 0 0 0
2 882.398 455.193 1277.36 0 0 0
2 1231.76 490.927 956.675 0 0 0
2 2026.02 350.063 520.106 0 0 0
2 318.471 17.614 386.631 0 0 0
2 632.585 484.954 969.57 0 0 0
2 1076.57 10.426 292.492 0 0 0
2 472.559 259.015 411.725 0 0 0
2 372.308 673.196 419.172 0 0 0
2 563.626 -0 1133.14 0 0 0
2 389.977 519.583 1100.03 0 0 0
2 753.901 -0 329.251 0 0 0
2 194.009 1415.22 281.009 0 0 0
2 248.593 878.913 636.797 0 0 0
2 534.141 905.934 829.642 0 0 0
2 512.665 585.472 1018.93 0 0 0
2 4000.08 676.501 -0.031 0 0 0
2 783.387 -0 1202.46 0 0 0
2 820.213 849.414 1390.22 0 0 0
2 1981.02 583.058 2199.18 0 0 0
2 2550.81 2006.45 898.303 0 0 0
2 374.24 -0 1626.77 0 0 0
2 71.159 984.811 -0 0 0 0
2 562.051 328.184 526.42 0 0 0
2 1036.71 -0 3154.51 0 0 0
2 1253.99 1297.05 2038.53 0 0 0
2 763.128 4000.02 485.908 0 0 0
2 -0.065 1157.67 656.324 0 0 0
2 -0.04 3254.76 -0.005 0 0 0
2 492.354 1054.69 1732.89 0 0 0
2 -0 466.128 1027.47 0 0 0
2 1565.46 1798.64 545.259 0 0 0