LAMMPS data file, Author: Jerry Qin

1000 atoms
0 bonds
0 angles

2 atom types

-100 4100 xlo xhi
-100 4100 ylo yhi
-100 4100 zlo zhi

Masses

1 221851
2 422051

Atoms

1 1  494.338 318.783 266.834
2 1  403.490 637.250 535.852
3 1  68.966 642.658 594.370
4 1  838.939 899.946 212.404
5 1  747.770 280.980 693.871
6 1  876.278 365.064 838.121
7 1  555.184 862.410 543.416
8 1  513.118 936.558 140.375
9 1  712.969 696.431 967.563
10 1  836.325 851.980 680.537
11 1  109.316 302.048 723.915
12 1  898.033 168.355 995.335
13 1  797.094 569.046 433.555
14 1  2000.000 225.080 653.664
15 1  2000.000 20.427 596.832
16 1  2000.000 533.290 570.669
17 1  2000.000 868.593 171.569
18 1  2000.000 18.690 890.444
19 1  2000.000 501.347 697.105
20 1  2000.000 524.127 71.184
21 1  2000.000 88.626 254.339
22 1  2000.000 398.871 272.836
23 1  2000.000 195.445 966.727
24 1  2000.000 236.621 371.373
25 1  2000.000 602.020 436.514
26 1  288.379 3898.527 318.727
27 1  426.864 3403.892 322.559
28 1  40.937 3647.663 321.955
29 1  741.034 3676.754 38.464
30 1  396.128 2936.898 279.546
31 1  504.055 3247.652 675.063
32 1  236.652 3629.301 584.191
33 1  513.224 3627.606 306.169
34 1  831.873 3295.695 34.890
35 1  158.932 3970.253 125.740
36 1  380.326 3081.813 497.706
37 1  180.923 3285.462 333.355
38 1  60.012 3974.151 53.627
39 1  508.532 416.756 2080.557
40 1  484.446 731.209 2111.944
41 1  709.201 291.763 2066.551
42 1  441.934 571.865 2061.127
43 1  134.836 678.063 2055.426
44 1  835.584 407.769 2073.716
45 1  40.338 483.995 2055.585
46 1  429.917 0.000 2031.721
47 1  51.693 149.643 2113.614
48 1  670.988 80.510 2070.457
49 1  309.801 0.000 2000.000
50 1  995.852 2000.000 4000.000
51 1  2063.435 2353.662 173.511
52 1  2200.152 3094.689 1880.373
53 1  2056.336 1999.997 138.534
54 1  2000.265 2325.866 1784.328
55 1  2035.698 2000.055 821.834
56 1  2120.623 2000.033 35.975
57 1  3048.423 2000.082 492.538
58 1  2002.000 2000.895 247.122
59 1  2004.947 2000.106 704.387
60 1  2003.444 2000.164 478.870
61 1  2058.281 2001.772 595.628
62 1  2045.409 2002.044 360.372
63 1  2001.057 2000.118 939.224
64 1  3679.073 560.068 3048.267
65 1  3762.436 651.107 3029.849
66 1  3519.500 573.591 3714.266
67 1  3215.376 304.567 3361.000
68 1  3658.920 629.491 2856.062
69 1  3222.096 639.348 2882.138
70 1  3579.611 376.515 3188.149
71 1  3299.564 526.303 3800.634
72 1  3511.031 262.093 3594.020
73 1  3382.921 352.556 3612.369
74 1  3331.142 197.473 3294.737
75 1  3614.471 106.116 3714.059
76 1  1594.032 2000.000 2000.000
77 1  0.000 2074.862 2000.000
78 1  30.543 2322.505 2000.000
79 1  931.125 2271.336 2059.335
80 1  1079.268 2004.176 2071.699
81 1  522.583 2243.877 2000.000
82 1  68.092 2000.000 2134.931
83 1  1358.692 2064.226 2000.000
84 1  219.744 2000.000 2160.028
85 1  0.000 2218.348 2155.594
86 1  354.721 2000.000 2175.863
87 1  576.213 2000.000 2000.000
88 1  366.090 2000.000 2008.748
89 1  2540.019 2640.538 2136.731
90 1  2132.407 2196.339 2877.468
91 1  2023.517 2095.507 2161.301
92 1  2561.026 2119.105 2026.589
93 1  2178.554 2028.084 2273.380
94 1  2145.203 2172.422 2003.774
95 1  2240.138 2486.921 2000.106
96 1  2567.670 2100.541 2315.342
97 1  2052.580 2650.730 2046.515
98 1  2159.238 2645.959 2869.845
99 1  2115.534 2046.583 2027.297
100 1  2621.325 2846.788 2142.531
101 2  846.056 795.287 18.394
102 2  915.399 530.505 928.076
103 2  752.096 831.734 428.798
104 2  782.466 540.302 700.815
105 2  875.205 436.671 7.330
106 2  654.005 722.316 536.013
107 2  279.966 373.820 874.693
108 2  557.307 926.857 758.179
109 2  359.265 344.552 625.044
110 2  771.268 432.815 411.114
111 2  449.275 677.029 900.313
112 2  654.512 11.863 288.347
113 2  198.326 87.986 654.544
114 2  288.637 947.772 687.176
115 2  5.136 907.988 288.741
116 2  505.914 711.007 340.629
117 2  424.907 924.622 816.012
118 2  298.444 490.391 0.000
119 2  157.124 52.918 815.337
120 2  417.526 404.719 226.437
121 2  128.964 268.635 845.251
122 2  883.832 382.082 628.817
123 2  326.939 647.789 742.042
124 2  603.256 345.688 862.004
125 2  714.033 153.794 897.645
126 2  935.926 863.470 578.885
127 2  435.097 6.503 932.099
128 2  589.064 284.908 598.205
129 2  532.322 475.464 854.868
130 2  307.027 765.171 880.525
131 2  61.354 556.899 418.158
132 2  321.922 755.459 132.229
133 2  38.505 958.891 803.709
134 2  405.850 318.757 445.713
135 2  286.878 857.720 305.826
136 2  681.048 711.194 191.260
137 2  663.934 0.000 155.542
138 2  88.212 167.910 619.671
139 2  618.683 808.966 345.279
140 2  6.201 75.834 807.660
141 2  128.095 784.173 156.149
142 2  111.028 421.710 0.000
143 2  368.134 205.225 612.755
144 2  819.137 255.324 330.907
145 2  959.058 690.911 913.633
146 2  410.713 948.442 35.184
147 2  511.940 151.330 810.286
148 2  515.218 563.860 298.687
149 2  168.469 25.332 963.978
150 2  863.763 287.829 935.843
151 2  936.762 964.137 377.390
152 2  492.261 734.962 57.693
153 2  281.385 882.973 1133.331
154 2  542.257 430.848 390.862
155 2  723.773 833.638 175.922
156 2  415.556 19.658 297.485
157 2  50.531 609.126 0.000
158 2  843.276 438.188 509.028
159 2  88.001 300.525 239.446
160 2  41.635 742.634 386.275
161 2  380.819 312.546 321.723
162 2  491.778 754.447 203.417
163 2  278.400 496.752 367.858
164 2  302.275 690.644 30.394
165 2  256.165 710.226 1011.581
166 2  273.853 345.832 239.692
167 2  183.547 684.063 472.822
168 2  777.867 783.940 566.938
169 2  137.285 992.118 482.437
170 2  653.981 0.000 863.088
171 2  282.740 789.676 422.283
172 2  312.176 25.954 808.247
173 2  81.893 525.689 755.408
174 2  915.311 849.280 786.876
175 2  955.611 881.950 920.147
176 2  666.842 172.820 247.034
177 2  812.923 769.348 991.093
178 2  472.767 819.575 852.429
179 2  873.715 141.950 728.980
180 2  967.886 763.504 387.560
181 2  268.264 500.597 199.017
182 2  130.601 395.396 613.016
183 2  58.581 535.392 125.442
184 2  864.151 270.392 69.401
185 2  192.775 618.504 223.030
186 2  779.208 640.530 96.365
187 2  193.261 872.020 949.333
188 2  655.458 371.939 266.015
189 2  44.232 382.764 149.079
190 2  200.946 294.059 359.394
191 2  499.851 151.755 180.818
192 2  770.354 143.601 426.429
193 2  178.781 1046.867 898.960
194 2  594.038 820.241 929.630
195 2  196.044 581.764 617.315
196 2  708.736 973.619 257.265
197 2  775.614 865.265 811.884
198 2  4.393 89.287 953.629
199 2  768.606 202.597 5.480
200 2  758.507 493.703 116.127
201 2  500.236 440.356 692.838
202 2  710.601 178.124 611.230
203 2  863.313 376.405 180.580
204 2  567.152 608.347 664.717
205 2  360.977 116.874 885.375
206 2  546.391 361.199 9.503
207 2  142.728 926.887 45.561
208 2  327.841 394.373 84.865
209 2  451.954 554.425 805.850
210 2  574.155 792.212 781.938
211 2  88.017 677.970 756.226
212 2  804.310 14.037 922.328
213 2  814.872 738.377 272.240
214 2  3171.145 762.025 608.070
215 2  2887.035 401.756 740.338
216 2  3274.542 60.176 15.527
217 2  3091.512 857.417 181.059
218 2  3058.409 636.596 82.446
219 2  3020.032 472.445 174.321
220 2  2530.130 687.502 0.000
221 2  2546.097 420.889 882.531
222 2  2956.379 474.564 9.003
223 2  2641.446 914.190 758.692
224 2  2653.500 264.026 52.911
225 2  2896.660 793.829 246.859
226 2  2826.958 925.618 250.586
227 2  2810.985 720.995 296.398
228 2  2886.901 59.061 303.534
229 2  2668.255 215.824 734.338
230 2  2452.934 847.979 50.252
231 2  3141.752 636.906 361.680
232 2  3132.373 835.261 29.137
233 2  2904.945 389.798 258.642
234 2  2795.868 756.138 442.304
235 2  3205.597 0.000 243.051
236 2  2946.152 659.440 164.604
237 2  2693.359 561.247 852.327
238 2  2539.647 778.844 143.226
239 2  3065.284 705.370 651.953
240 2  2770.946 496.655 381.585
241 2  3241.536 921.574 502.246
242 2  2753.867 289.481 261.036
243 2  2697.770 317.803 915.757
244 2  2897.138 53.271 753.597
245 2  3159.741 548.855 598.495
246 2  3102.106 467.911 292.216
247 2  3053.599 711.888 439.461
248 2  2776.562 705.355 5.489
249 2  2477.715 304.009 147.362
250 2  2333.615 681.875 845.674
251 2  3120.124 827.913 519.342
252 2  3275.561 321.169 272.485
253 2  2529.827 171.577 358.955
254 2  2442.945 183.647 156.164
255 2  2597.989 877.657 189.359
256 2  3318.429 517.481 781.058
257 2  2630.901 614.300 140.781
258 2  2863.389 597.675 291.351
259 2  3005.327 992.968 318.093
260 2  2652.600 487.242 765.594
261 2  2585.321 928.168 557.234
262 2  2672.617 454.125 287.736
263 2  2580.067 678.039 648.212
264 2  2495.967 582.524 750.615
265 2  3174.035 620.282 762.375
266 2  3068.319 89.863 556.179
267 2  2766.042 459.286 647.686
268 2  3174.058 223.223 512.286
269 2  2641.955 615.446 754.038
270 2  2816.084 175.308 858.901
271 2  2696.709 275.037 623.446
272 2  2929.967 813.301 708.450
273 2  3265.955 733.877 865.245
274 2  2497.825 960.162 854.867
275 2  3191.630 211.497 950.314
276 2  2665.792 332.764 152.386
277 2  2978.528 280.974 537.825
278 2  3275.915 951.169 66.297
279 2  2621.432 90.979 185.089
280 2  2678.170 972.522 333.959
281 2  3135.454 0.000 507.565
282 2  2772.385 472.798 892.993
283 2  3130.606 134.147 198.332
284 2  3253.904 552.096 677.137
285 2  2647.466 1.534 289.467
286 2  2494.487 510.404 413.954
287 2  2729.761 792.714 800.030
288 2  2574.568 262.379 855.276
289 2  2562.355 204.081 136.204
290 2  2648.001 45.794 725.797
291 2  2670.536 78.071 73.063
292 2  3004.582 23.588 843.521
293 2  3168.609 723.106 213.332
294 2  2807.296 100.826 162.438
295 2  2697.220 879.968 481.949
296 2  2651.103 200.480 469.081
297 2  3035.187 554.583 852.199
298 2  2962.161 205.698 886.094
299 2  2444.789 228.927 288.485
300 2  2393.635 1038.892 576.253
301 2  2341.649 59.210 374.431
302 2  2441.856 227.748 556.742
303 2  2451.947 80.798 676.208
304 2  2518.571 407.346 542.119
305 2  3229.584 130.045 456.522
306 2  2791.462 22.889 848.937
307 2  2484.773 930.431 211.073
308 2  2481.664 350.023 369.832
309 2  2825.657 295.861 490.178
310 2  3224.346 287.417 793.993
311 2  2957.195 815.608 62.105
312 2  2876.083 281.217 639.666
313 2  2692.308 630.175 464.714
314 2  2511.085 313.887 721.589
315 2  2486.229 703.721 436.838
316 2  2815.786 843.601 894.995
317 2  2606.393 788.538 792.413
318 2  2994.086 543.116 379.241
319 2  2800.360 76.047 390.908
320 2  2843.849 233.995 756.419
321 2  2931.649 50.635 47.605
322 2  3056.828 150.337 999.097
323 2  2753.843 782.867 127.738
324 2  2757.581 691.899 642.154
325 2  2892.551 219.232 394.547
326 2  1.445 2444.962 478.102
327 2  119.740 2642.096 670.753
328 2  34.140 3087.588 899.623
329 2  290.507 2943.352 437.189
330 2  969.535 2646.447 772.730
331 2  648.051 2507.642 867.950
332 2  120.788 3107.778 0.018
333 2  786.731 3093.658 651.447
334 2  590.134 3164.339 253.328
335 2  358.155 2734.938 674.802
336 2  848.787 2999.191 696.164
337 2  416.866 2922.714 59.036
338 2  872.453 2713.566 867.778
339 2  181.192 2552.008 586.953
340 2  556.624 2979.009 658.575
341 2  304.069 2848.158 148.442
342 2  941.034 2444.471 221.440
343 2  92.744 2771.295 719.888
344 2  612.641 2443.569 526.043
345 2  178.436 2878.990 757.833
346 2  495.216 2572.554 495.679
347 2  758.164 2668.755 704.425
348 2  819.329 3030.197 157.489
349 2  740.644 2988.510 926.140
350 2  207.094 2481.105 486.165
351 2  220.486 2904.309 221.736
352 2  774.950 2987.418 289.304
353 2  489.193 2636.333 797.128
354 2  351.453 2495.771 548.285
355 2  961.389 3000.942 240.809
356 2  920.319 3117.687 607.584
357 2  157.859 2919.042 497.191
358 2  394.228 2494.104 932.982
359 2  57.505 2572.162 447.992
360 2  250.308 3111.106 477.875
361 2  968.713 2685.984 66.711
362 2  729.696 3115.195 936.286
363 2  615.910 2924.580 288.183
364 2  483.255 2428.209 600.939
365 2  708.994 2531.554 637.013
366 2  47.181 2974.523 968.168
367 2  630.685 3040.581 13.258
368 2  828.989 2485.759 368.382
369 2  101.599 2890.295 103.299
370 2  684.368 2798.810 588.104
371 2  238.249 2649.156 154.525
372 2  365.859 2577.153 381.564
373 2  908.959 2933.353 553.487
374 2  288.231 2639.576 638.986
375 2  547.515 2671.202 604.135
376 2  218.405 2703.722 766.067
377 2  437.530 3166.604 41.005
378 2  725.005 3063.236 435.013
379 2  499.711 2858.749 955.355
380 2  433.752 2567.659 669.939
381 2  882.199 2563.537 127.944
382 2  503.988 3073.394 1.090
383 2  838.289 2811.759 543.260
384 2  258.346 2580.834 751.806
385 2  986.051 2853.215 925.356
386 2  722.394 2662.698 959.488
387 2  474.815 2958.809 492.606
388 2  55.967 2850.799 981.106
389 2  452.734 3192.626 769.879
390 2  417.279 2861.857 607.639
391 2  141.808 3132.715 400.005
392 2  840.005 2802.526 945.873
393 2  487.891 3079.400 266.149
394 2  291.153 2828.840 15.286
395 2  772.541 2593.729 454.844
396 2  328.687 3004.015 941.096
397 2  282.587 2884.910 329.043
398 2  774.902 2780.760 126.193
399 2  698.534 2405.511 660.282
400 2  372.956 3046.564 187.804
401 2  506.175 2940.905 360.842
402 2  584.009 2710.099 952.790
403 2  102.413 2378.057 485.100
404 2  63.798 2469.757 579.053
405 2  976.522 2789.286 596.892
406 2  1016.264 3037.843 726.439
407 2  32.097 3112.990 305.183
408 2  88.639 2940.518 358.357
409 2  822.399 2673.174 167.710
410 2  865.785 2736.259 671.027
411 2  858.100 2533.005 3.033
412 2  75.496 2736.350 927.048
413 2  161.640 2706.272 389.160
414 2  884.189 2924.692 933.461
415 2  249.436 2439.910 663.323
416 2  483.370 3057.577 602.388
417 2  70.130 2687.057 243.757
418 2  694.070 2899.820 189.719
419 2  260.073 2950.866 816.883
420 2  163.450 2960.213 7.947
421 2  41.736 2779.769 356.665
422 2  53.255 2835.275 845.884
423 2  44.397 2523.321 891.720
424 2  448.940 3073.404 984.877
425 2  966.851 2778.603 332.348
426 2  650.317 2866.219 402.348
427 2  125.077 2989.382 236.481
428 2  923.257 2833.591 224.384
429 2  574.488 2563.413 716.039
430 2  943.298 2429.210 927.650
431 2  416.861 2773.278 196.231
432 2  791.330 2563.962 804.068
433 2  228.863 2657.150 280.765
434 2  0.006 2902.419 220.907
435 2  910.457 2504.993 491.970
436 2  499.380 3059.768 858.728
437 2  609.594 3152.989 125.151
438 2  638.385 2803.873 875.756
439 2  6.225 1887.208 3240.231
440 2  710.529 141.527 3018.399
441 2  483.152 403.634 2705.333
442 2  5.857 1086.377 3113.025
443 2  601.377 192.721 3991.553
444 2  437.002 49.502 2954.719
445 2  629.156 458.100 2885.333
446 2  834.781 375.977 2805.289
447 2  207.939 808.964 2881.925
448 2  293.660 594.183 2951.217
449 2  468.619 703.763 2581.849
450 2  68.935 19.736 3039.137
451 2  816.268 510.210 2514.106
452 2  69.796 777.882 2545.511
453 2  0.204 167.299 2790.146
454 2  524.024 785.455 2449.243
455 2  127.961 633.662 2922.651
456 2  819.616 849.621 2949.188
457 2  87.489 51.786 2693.179
458 2  616.224 607.890 2684.345
459 2  308.813 424.820 2471.785
460 2  487.292 458.497 2460.936
461 2  1122.395 1019.981 2007.743
462 2  181.078 461.326 3103.754
463 2  355.759 738.380 2663.980
464 2  268.524 837.835 2680.469
465 2  363.911 464.115 2815.618
466 2  778.948 930.620 2763.657
467 2  352.161 304.062 3114.458
468 2  823.880 966.722 2870.582
469 2  1834.276 6.213 2002.520
470 2  1009.558 346.877 2850.514
471 2  358.651 956.187 2495.697
472 2  403.883 357.226 2572.019
473 2  659.825 231.744 3156.868
474 2  966.787 830.664 2695.852
475 2  551.834 978.943 2774.432
476 2  386.295 536.882 2420.337
477 2  670.280 577.002 2575.283
478 2  845.594 9.871 2452.650
479 2  603.250 375.799 2660.912
480 2  562.490 326.830 2935.739
481 2  507.909 262.117 2438.102
482 2  498.947 796.567 3897.348
483 2  833.491 721.413 2817.162
484 2  250.487 736.390 3102.640
485 2  991.041 522.498 2300.324
486 2  36.341 306.617 3090.486
487 2  923.897 944.259 2606.221
488 2  64.710 421.225 2381.743
489 2  131.678 754.252 2774.865
490 2  23.335 959.345 2407.692
491 2  110.289 409.847 2564.574
492 2  930.486 447.297 2668.874
493 2  831.692 236.246 2717.105
494 2  1597.459 3.403 2070.529
495 2  511.448 961.531 3130.470
496 2  592.155 385.604 2427.860
497 2  230.710 386.059 2722.657
498 2  982.284 662.798 2823.696
499 2  0.235 783.180 2644.411
500 2  541.198 587.797 2931.532
501 2  651.229 789.382 3045.674
502 2  423.637 183.732 2475.732
503 2  110.862 499.734 2721.156
504 2  966.796 434.694 2456.933
505 2  659.489 50.086 2427.616
506 2  701.502 400.371 2791.279
507 2  611.070 553.059 3025.323
508 2  609.682 186.059 2475.388
509 2  793.519 987.395 2412.619
510 2  661.074 900.462 3104.530
511 2  335.788 344.651 2858.917
512 2  140.565 867.260 3176.592
513 2  717.120 603.709 3182.828
514 2  433.942 919.448 2755.267
515 2  769.113 706.429 3095.847
516 2  518.139 84.135 2728.017
517 2  121.671 1053.955 2551.014
518 2  292.652 220.435 2702.112
519 2  54.397 227.182 2912.254
520 2  303.874 93.765 2719.220
521 2  67.136 57.250 2545.236
522 2  136.531 904.152 2613.849
523 2  977.289 860.516 2845.903
524 2  353.553 672.824 2479.988
525 2  294.874 588.912 2717.151
526 2  641.697 143.194 2606.441
527 2  382.380 511.739 2949.684
528 2  146.592 197.948 3039.173
529 2  455.085 858.394 2621.419
530 2  630.137 361.633 3245.626
531 2  199.729 394.680 2916.979
532 2  318.780 835.683 2554.040
533 2  418.069 776.008 3169.264
534 2  17.556 976.572 3994.531
535 2  1.155 1208.869 2600.793
536 2  112.285 770.291 3055.325
537 2  5.556 389.019 2906.857
538 2  291.888 259.787 2531.960
539 2  476.815 502.569 2776.833
540 2  975.633 285.899 2997.285
541 2  844.652 357.467 2440.173
542 2  460.310 694.891 3086.799
543 2  630.408 166.015 2827.852
544 2  1320.943 758.242 2395.766
545 2  244.585 0.082 2780.448
546 2  899.436 146.234 2410.034
547 2  617.393 414.067 3114.785
548 2  587.758 32.490 2994.694
549 2  267.036 0.244 2540.412
550 2  933.798 456.466 3112.360
551 2  2911.516 2518.989 635.200
552 2  2667.376 2810.451 918.975
553 2  3002.623 2454.059 492.182
554 2  2374.822 2596.981 570.037
555 2  2696.631 2968.045 401.752
556 2  3077.644 2497.027 746.080
557 2  2925.359 2867.346 908.879
558 2  2848.304 2956.494 635.134
559 2  3013.981 2406.887 617.734
560 2  3044.733 3030.629 483.986
561 2  2852.756 2466.565 48.853
562 2  2872.483 2540.503 474.229
563 2  2420.855 2358.917 477.853
564 2  3033.192 2526.247 629.148
565 2  2770.197 2407.572 481.088
566 2  2625.636 2960.613 939.641
567 2  2603.347 2550.864 415.056
568 2  2546.792 2803.666 140.788
569 2  2808.895 2560.609 703.345
570 2  2770.503 2762.772 554.818
571 2  2989.739 2677.808 82.392
572 2  2652.224 2602.994 912.885
573 2  3059.820 2717.865 707.388
574 2  2861.738 2438.611 555.870
575 2  2912.533 2618.521 155.780
576 2  2411.660 2500.724 414.386
577 2  2913.592 2872.103 523.443
578 2  2713.994 2560.225 566.743
579 2  2855.432 2772.145 195.800
580 2  2787.747 2375.995 334.199
581 2  2616.787 2333.692 785.697
582 2  2758.120 2907.438 916.845
583 2  2410.095 2613.050 918.156
584 2  2466.710 3139.771 682.944
585 2  3027.685 2460.015 370.805
586 2  2588.988 2724.108 838.595
587 2  3047.680 3038.251 358.453
588 2  2826.311 3058.499 953.094
589 2  2455.181 3005.098 78.335
590 2  2407.595 2885.222 264.824
591 2  2432.567 2635.635 764.443
592 2  2445.009 2425.352 41.233
593 2  2908.709 2980.905 855.717
594 2  2654.001 2697.976 319.413
595 2  2461.634 3002.309 251.332
596 2  2464.646 2515.363 303.077
597 2  2707.773 2896.317 625.147
598 2  3035.794 2992.453 22.428
599 2  2773.048 2449.877 138.452
600 2  2764.462 3093.723 610.487
601 2  2354.628 2908.221 981.597
602 2  2792.413 2919.093 155.686
603 2  2535.132 2947.834 155.509
604 2  2300.816 2773.845 904.151
605 2  2851.013 2738.205 412.551
606 2  2810.353 2865.823 413.441
607 2  2985.742 2524.025 944.038
608 2  2895.687 2372.199 654.911
609 2  2678.777 2913.786 49.773
610 2  2726.429 2473.499 786.078
611 2  3011.626 2510.685 189.085
612 2  2559.221 2615.284 274.386
613 2  2924.953 2641.683 669.614
614 2  2963.610 2859.961 663.210
615 2  2482.934 2437.763 980.053
616 2  2886.455 2582.344 806.574
617 2  2798.743 2683.064 744.683
618 2  2705.952 3060.211 482.553
619 2  2957.188 3020.506 596.203
620 2  2379.664 3037.454 807.493
621 2  2662.232 2680.526 46.304
622 2  2606.561 2726.764 1011.138
623 2  2724.361 2587.156 391.509
624 2  2474.725 3068.709 453.315
625 2  2980.106 2754.177 416.969
626 2  2847.216 2545.395 229.840
627 2  2592.335 2885.324 724.221
628 2  2536.110 2447.929 429.831
629 2  2666.771 2817.669 122.902
630 2  2702.772 2900.315 504.125
631 2  2715.088 2431.938 967.130
632 2  2510.347 2977.286 538.861
633 2  2424.399 2453.440 866.803
634 2  2400.513 2635.889 444.594
635 2  2759.717 2829.478 779.870
636 2  2476.934 2422.957 752.098
637 2  2847.118 2618.897 347.617
638 2  2579.983 2523.645 147.076
639 2  2933.563 2988.750 239.732
640 2  2702.675 2595.901 231.583
641 2  2540.411 2858.045 545.088
642 2  2423.960 2584.601 209.717
643 2  2957.974 2541.656 311.409
644 2  2808.164 2750.931 67.816
645 2  3079.385 3047.378 764.299
646 2  2883.156 3065.255 687.123
647 2  2432.614 2706.852 338.914
648 2  2541.363 3069.071 182.444
649 2  2391.888 2550.696 688.396
650 2  2645.146 2415.755 621.755
651 2  2926.017 2870.485 205.868
652 2  2496.862 2927.322 901.233
653 2  2633.401 2664.199 621.935
654 2  2964.136 2626.647 410.223
655 2  2538.333 2760.859 632.462
656 2  2767.512 2740.017 277.584
657 2  2804.953 2500.262 361.149
658 2  2848.097 2997.895 468.196
659 2  2553.315 2979.653 351.434
660 2  2448.701 2988.660 645.506
661 2  2719.864 2570.478 76.568
662 2  3010.294 2581.901 820.086
663 2  2854.258 2678.999 521.373
664 2  3092.071 402.406 3031.268
665 2  2791.061 489.709 2674.341
666 2  3237.678 544.774 3040.117
667 2  3159.881 705.541 2453.355
668 2  2941.678 294.253 3047.339
669 2  3265.480 939.405 2798.407
670 2  3075.847 729.616 2913.542
671 2  3234.275 856.067 2516.232
672 2  2934.595 833.935 2883.171
673 2  2848.283 245.256 2690.391
674 2  2654.790 748.219 3004.463
675 2  2405.700 813.676 2773.848
676 2  2800.799 284.063 3168.423
677 2  2671.729 777.596 3194.718
678 2  2584.740 531.747 2406.633
679 2  3061.773 361.077 2782.529
680 2  2662.830 49.660 2513.837
681 2  3142.645 842.176 2973.887
682 2  2781.777 663.775 2481.779
683 2  2969.380 570.089 2751.767
684 2  3191.428 233.709 2538.109
685 2  2407.130 206.479 3133.660
686 2  3177.818 549.287 2719.103
687 2  2839.757 581.018 3096.467
688 2  2822.420 897.572 3108.163
689 2  2536.260 877.984 2934.969
690 2  2741.752 375.828 3073.957
691 2  2450.894 4.292 3056.516
692 2  2658.813 144.404 2408.967
693 2  2412.509 656.664 3057.120
694 2  2717.667 698.170 2646.593
695 2  2926.461 950.201 2602.531
696 2  2453.665 301.149 2708.453
697 2  2949.114 1015.632 2429.775
698 2  3220.047 774.630 2848.349
699 2  2979.336 418.820 2863.022
700 2  3008.252 645.544 3167.485
701 2  2847.224 768.529 2517.118
702 2  2746.661 336.405 2558.994
703 2  2720.843 984.352 3130.625
704 2  2905.874 546.080 2975.966
705 2  3124.916 709.752 2729.219
706 2  3212.608 672.618 3012.410
707 2  2873.529 411.386 3033.783
708 2  3124.411 1064.635 2597.174
709 2  2756.164 222.676 2961.865
710 2  2496.343 657.374 3301.790
711 2  2506.752 828.786 3236.408
712 2  3207.139 346.968 3214.073
713 2  2465.146 571.075 2874.638
714 2  2640.436 481.322 2627.144
715 2  2995.879 824.461 3000.572
716 2  2518.394 496.764 3102.639
717 2  2852.954 721.366 2679.636
718 2  3054.327 57.448 3124.157
719 2  2663.529 459.950 3149.448
720 2  2684.797 702.033 2874.744
721 2  2834.149 160.255 2428.891
722 2  2650.326 458.329 2890.642
723 2  3159.242 652.900 3228.765
724 2  2771.264 361.920 2752.255
725 2  2812.396 648.973 2850.985
726 2  2419.049 207.612 2983.740
727 2  2503.159 647.730 2766.961
728 2  2719.436 195.968 2547.661
729 2  3168.221 104.028 2712.684
730 2  2712.107 591.506 2916.367
731 2  3132.609 220.292 2781.652
732 2  2967.254 680.524 2830.749
733 2  2480.024 34.576 2920.773
734 2  2510.598 380.126 3019.502
735 2  2532.365 176.531 2711.911
736 2  2861.435 774.116 2972.647
737 2  2541.813 157.901 3100.478
738 2  2472.547 1044.213 2711.872
739 2  2800.526 129.566 3107.279
740 2  3105.011 455.146 2877.259
741 2  2499.610 763.396 3111.069
742 2  3109.314 942.462 2837.368
743 2  2556.069 328.644 2856.348
744 2  2526.900 423.880 2568.531
745 2  2464.494 753.265 2883.683
746 2  2627.901 982.143 2908.074
747 2  3111.235 642.854 3101.216
748 2  2977.905 327.235 2637.864
749 2  2821.212 138.319 2579.822
750 2  2832.072 714.604 3197.763
751 2  2551.998 572.169 2991.830
752 2  2693.627 179.451 3219.585
753 2  3212.919 374.326 2669.869
754 2  3026.882 630.045 3002.329
755 2  3203.623 768.439 2604.668
756 2  3014.590 188.072 2589.381
757 2  2503.945 960.390 3117.484
758 2  3192.211 1019.572 2429.736
759 2  2531.730 832.414 2773.761
760 2  2884.930 586.878 2618.844
761 2  2827.004 169.134 2837.229
762 2  3026.666 760.168 3235.285
763 2  2954.349 959.535 2936.967
764 2  3129.897 568.424 2942.651
765 2  2500.047 536.789 2639.660
766 2  2795.662 572.590 3230.265
767 2  2628.456 904.375 3146.413
768 2  2540.666 178.857 2530.886
769 2  2558.906 922.049 2425.468
770 2  3111.700 816.543 2673.726
771 2  2886.828 392.898 3193.656
772 2  2462.303 618.745 2504.735
773 2  2992.961 600.341 3290.617
774 2  2612.886 361.462 2654.852
775 2  3231.036 149.994 3135.145
776 2  157.732 3261.970 3019.507
777 2  674.289 3122.950 2687.791
778 2  311.764 2919.429 3399.754
779 2  65.000 2901.678 3065.888
780 2  172.027 3275.324 2865.931
781 2  716.434 2580.257 2748.790
782 2  670.554 3315.013 2902.537
783 2  894.123 3124.275 3015.933
784 2  271.082 2875.951 3172.359
785 2  919.595 3171.395 3345.667
786 2  91.940 2607.399 2560.278
787 2  173.615 3034.571 3431.707
788 2  246.646 2755.145 2730.007
789 2  204.469 2701.691 2553.261
790 2  338.499 2967.003 3262.451
791 2  642.148 3031.656 2804.021
792 2  743.379 2634.986 3429.279
793 2  520.462 2785.323 3076.609
794 2  16.848 3308.882 2511.233
795 2  721.730 3303.161 3280.683
796 2  342.351 3120.232 2691.019
797 2  842.469 2721.928 2727.535
798 2  662.583 2774.843 3169.291
799 2  781.684 2917.008 2594.396
800 2  299.991 3333.898 3310.161
801 2  734.818 2675.646 2999.391
802 2  523.389 2903.490 2944.570
803 2  929.872 2923.947 2933.199
804 2  277.737 2956.904 2594.946
805 2  342.194 2851.875 2710.446
806 2  411.244 3385.018 2574.785
807 2  754.471 3035.198 2454.156
808 2  381.819 2909.650 3000.015
809 2  745.952 3042.716 3320.087
810 2  952.989 3436.009 3128.055
811 2  78.882 3134.768 3090.971
812 2  42.619 2935.697 2507.706
813 2  361.475 3289.807 3115.971
814 2  376.873 2558.424 2697.287
815 2  637.633 2695.426 2807.102
816 2  676.717 2996.816 3005.891
817 2  344.573 3198.537 2990.345
818 2  183.413 2850.819 2535.266
819 2  188.112 3197.431 3250.836
820 2  286.455 3495.087 2648.189
821 2  836.454 3256.534 2520.366
822 2  890.590 2941.341 3214.631
823 2  272.464 3095.438 3258.580
824 2  546.914 3321.930 2697.437
825 2  243.295 3222.063 3388.554
826 2  268.977 2660.187 3462.843
827 2  62.246 2619.287 2969.502
828 2  143.417 3119.990 2564.182
829 2  657.862 3506.917 2978.120
830 2  888.352 2793.980 2517.981
831 2  428.523 2940.064 2811.980
832 2  928.833 2779.824 3238.882
833 2  15.218 2536.532 3236.353
834 2  341.375 2512.410 3028.117
835 2  788.251 3425.070 2680.742
836 2  238.429 2604.406 3359.188
837 2  64.169 2606.973 2753.625
838 2  554.330 2534.516 2819.437
839 2  758.220 2824.572 3083.830
840 2  538.760 3250.357 2967.826
841 2  929.344 3190.034 2833.295
842 2  391.473 2994.721 2564.277
843 2  877.386 3310.944 2867.048
844 2  205.393 3086.683 2898.425
845 2  242.053 2658.981 3208.059
846 2  940.568 2521.134 2848.020
847 2  851.041 3461.452 3287.035
848 2  158.832 2748.880 2879.927
849 2  895.900 3093.256 2731.467
850 2  772.112 2763.330 2544.390
851 2  187.829 2521.212 3111.412
852 2  272.613 2961.206 2973.177
853 2  636.365 2494.052 2983.759
854 2  600.758 2784.840 2703.432
855 2  283.176 2872.414 3542.421
856 2  620.505 3427.111 2749.868
857 2  356.647 3122.479 3090.852
858 2  472.427 3131.867 2871.998
859 2  492.818 3157.601 3455.532
860 2  537.480 3060.071 2516.191
861 2  952.048 3214.953 2494.373
862 2  375.635 2502.694 3234.002
863 2  711.373 3291.417 2682.118
864 2  2.754 2748.159 2957.675
865 2  573.218 3242.378 2531.217
866 2  623.965 3129.803 3387.297
867 2  625.966 3298.224 3192.080
868 2  97.067 3123.646 3296.538
869 2  689.468 2505.536 3267.947
870 2  680.956 3189.467 3134.134
871 2  86.546 3352.359 2725.554
872 2  998.524 2671.684 2882.986
873 2  6.003 2832.664 3222.358
874 2  771.720 2584.426 2918.016
875 2  583.707 2758.971 3317.815
876 2  862.787 3103.383 3216.402
877 2  67.525 2598.494 3384.695
878 2  900.297 2876.812 3071.475
879 2  40.972 3441.159 2642.650
880 2  186.621 2762.789 3031.057
881 2  820.087 2547.416 3081.475
882 2  530.936 3432.382 3340.264
883 2  218.908 3134.938 2773.162
884 2  745.672 3066.014 2888.669
885 2  588.628 2567.861 3313.717
886 2  384.406 2668.439 2973.958
887 2  120.601 2889.289 2663.201
888 2  447.981 3409.370 2789.988
889 2  2847.791 2816.029 3191.742
890 2  2864.012 2813.103 2564.690
891 2  2655.125 2473.403 2529.235
892 2  2550.257 2928.495 2487.351
893 2  2980.976 2839.854 2410.931
894 2  2694.663 2452.011 2406.653
895 2  2499.189 2731.380 2945.965
896 2  2596.477 2741.744 2449.826
897 2  2975.590 3104.448 2675.505
898 2  2970.358 2838.787 2932.513
899 2  2688.608 3023.770 2743.460
900 2  2379.020 2922.135 2911.110
901 2  2921.329 2956.781 2526.716
902 2  2412.961 2986.341 2408.393
903 2  2404.792 2703.744 2616.417
904 2  3022.566 2886.393 3034.241
905 2  2692.805 2746.687 2563.219
906 2  2862.661 2478.792 2377.318
907 2  2609.865 2911.402 3017.979
908 2  2946.085 2454.986 2467.360
909 2  2913.994 2693.292 2512.984
910 2  2662.360 2868.785 2536.359
911 2  2842.212 2587.738 3085.131
912 2  2401.104 2822.941 2571.673
913 2  2493.635 2828.780 3148.271
914 2  2921.843 2624.652 2972.041
915 2  2953.569 2394.729 2955.701
916 2  2849.942 2486.501 3010.620
917 2  2606.994 2941.260 2686.166
918 2  2328.592 3007.164 2840.988
919 2  2709.839 3082.459 2983.014
920 2  2542.814 2428.148 2925.732
921 2  3002.048 2852.855 2530.080
922 2  2757.152 2506.777 2667.994
923 2  2573.944 2976.857 2900.079
924 2  2745.281 2750.093 2452.414
925 2  2534.982 3107.174 2536.813
926 2  2544.147 2545.397 3146.105
927 2  2718.619 2630.777 2439.607
928 2  2920.666 2762.305 2836.516
929 2  2630.123 2597.535 2516.112
930 2  2404.116 2628.398 2898.787