LAMMPS (23 Jun 2022 - Update 1)
OMP_NUM_THREADS environment is not set. Defaulting to 1 thread. (src/comm.cpp:98)
  using 1 OpenMP thread(s) per MPI task
# Read restart
read_restart ${read_res}
read_restart ./pgnpmf/1090/equpmf69.res
Reading restart file ...
  restart file = 23 Jun 2022, LAMMPS = 23 Jun 2022
  restoring atom style atomic from restart
  orthogonal box = (1629.0681 1629.0681 1629.0681) to (2370.9319 2370.9319 2370.9319)
  1 by 2 by 2 MPI processor grid
  restoring pair style table from restart
  1000 atoms
  read_restart CPU = 0.004 seconds

# Settings

pair_style table spline 9941

pair_coeff 1 1 ./pgnpmf/N20.txt DE_GNP 75.6
pair_coeff 2 2 ./pgnpmf/N100.txt DE_GNP 115.92
WARNING: 3 of 9941 force values in table DE_GNP are inconsistent with -dE/dr.
WARNING:  Should only be flagged at inflection points (src/pair_table.cpp:463)
pair_coeff 1 2 ./pgnpmf/mixed_potential.txt DE_GNP 95.66
WARNING: 1562 of 9941 force values in table DE_GNP are inconsistent with -dE/dr.
WARNING:  Should only be flagged at inflection points (src/pair_table.cpp:463)

#Neigh_list Calc Frequency

neigh_modify delay 0 every 1 check yes

# Saving Frequency (50 frames)

variable ts_save equal ${steps_equ}
variable ts_save equal 5000

# Dump
#dump 1 all custom ${ts_save} ./pgnpmf/${folder}/equilibration/trajectory/trajectory_${usic}_${trial}.equ.custom type x y z ix iy iz
#dump_modify 1 first no sort id
dump 2 all cfg 50000 ./pgnpmf/${folder}/equilibration/trajectory/dumpgen.tens_*.cfg mass type xs ys zs fx fy fz
dump 2 all cfg 50000 ./pgnpmf/1090/equilibration/trajectory/dumpgen.tens_*.cfg mass type xs ys zs fx fy fz
dump_modify 2 element N20 N100

# thermo_style
thermo_style custom step temp press pe density ke etotal lx ly lz xlo xhi ylo yhi zlo zhi vol dt time cpu tpcpu spcpu cpuremain

# run info
timestep ${ts}
timestep 0.25
thermo 200

# fix

fix 1 all momentum 1000 linear 1 1 1 angular
variable T equal ${temp}
variable T equal 300
fix 2 all nvt temp ${T} 370000 100.0
fix 2 all nvt temp 300 370000 100.0

run 100000
Generated 0 of 1 mixed pair_coeff terms from geometric mixing rule
Unused restart file global fix info:
  fix style: npt, fix ID: 5
Neighbor list info ...
  update every 1 steps, delay 0 steps, check yes
  max neighbors/atom: 2000, page size: 100000
  master list distance cutoff = 117.92
  ghost atom cutoff = 117.92
  binsize = 58.96, bins = 13 13 13
  1 neighbor lists, perpetual/occasional/extra = 1 0 0
  (1) pair table, perpetual
      attributes: half, newton on
      pair build: half/bin/atomonly/newton
      stencil: half/bin/3d
      bin: standard
Per MPI rank memory allocation (min/avg/max) = 3.077 | 3.077 | 3.077 Mbytes
   Step          Temp          Press          PotEng        Density         KinEng         TotEng           Lx             Ly             Lz            Xlo            Xhi            Ylo            Yhi            Zlo            Zhi           Volume           Dt            Time           CPU           T/CPU          S/CPU         CPULeft    
  70010000   305.94685      1.617984      -56317999       1.6350691      911.05746     -56317088       741.86377      741.86377      741.86377      1629.0681      2370.9319      1629.0681      2370.9319      1629.0681      2370.9319      4.0829352e+08  0.25           18260000       0              0              0              0            
  70010200   334.7551       1.6118419     -56318018       1.6350691      996.84353     -56317021       741.86377      741.86377      741.86377      1629.0681      2370.9319      1629.0681      2370.9319      1629.0681      2370.9319      4.0829352e+08  0.25           18260050       0.01378755     3626.1592      14503.66       6.8814635    
  70010400   389.79922      1.6354        -56318038       1.6350691      1160.7555     -56316878       741.86377      741.86377      741.86377      1629.0681      2370.9319      1629.0681      2370.9319      1629.0681      2370.9319      4.0829352e+08  0.25           18260100       0.026973313    3792.042       15168.183      6.7170419    
  70010600   472.55009      1.6976648     -56318060       1.6350691      1407.1735     -56316653       741.86377      741.86377      741.86377      1629.0681      2370.9319      1629.0681      2370.9319      1629.0681      2370.9319      4.0829352e+08  0.25           18260150       0.040101892    3808.4699      15233.899      6.6439858    
  70010800   584.69986      1.794028      -56318084       1.6350691      1741.1363     -56316343       741.86377      741.86377      741.86377      1629.0681      2370.9319      1629.0681      2370.9319      1629.0681      2370.9319      4.0829352e+08  0.25           18260200       0.05323201     3807.9093      15231.544      6.6011699    
  70011000   732.76282      1.9075752     -56318109       1.6350691      2182.0425     -56315927       741.86377      741.86377      741.86377      1629.0681      2370.9319      1629.0681      2370.9319      1629.0681      2370.9319      4.0829352e+08  0.25           18260250       0.066432718    3787.8455      15151.454      6.5770886    
  70011200   927.49942      2.3383826     -56310759       1.6350691      2761.9349     -56307997       741.86377      741.86377      741.86377      1629.0681      2370.9319      1629.0681      2370.9319      1629.0681      2370.9319      4.0829352e+08  0.25           18260300       0.079985602    3689.2255      14756.897      6.585703     
  70011400   1181.8262      2.4098259     -56310790       1.6350691      3519.2766     -56307271       741.86377      741.86377      741.86377      1629.0681      2370.9319      1629.0681      2370.9319      1629.0681      2370.9319      4.0829352e+08  0.25           18260350       0.093157581    3795.9394      15183.798      6.5611389    
  70011600   1512.5677      2.7746209     -56303446       1.6350691      4504.1683     -56298942       741.86377      741.86377      741.86377      1629.0681      2370.9319      1629.0681      2370.9319      1629.0681      2370.9319      4.0829352e+08  0.25           18260400       0.10622016     3827.7409      15310.95       6.5326953    
  70011800   1940.532       2.8238587     -56303485       1.6350691      5778.5729     -56297706       741.86377      741.86377      741.86377      1629.0681      2370.9319      1629.0681      2370.9319      1629.0681      2370.9319      4.0829352e+08  0.25           18260450       0.11929097     3825.3244      15301.393      6.5081173    
  70012000   2489.6379      2.9787622     -56303528       1.6350691      7413.7164     -56296114       741.86377      741.86377      741.86377      1629.0681      2370.9319      1629.0681      2370.9319      1629.0681      2370.9319      4.0829352e+08  0.25           18260500       0.13229549     3844.8901      15379.508      6.4825903    
  70012200   3188.54        3.2302488     -56303575       1.6350691      9494.9277     -56294080       741.86377      741.86377      741.86377      1629.0681      2370.9319      1629.0681      2370.9319      1629.0681      2370.9319      4.0829352e+08  0.25           18260550       0.14533248     3835.2629      15341.139      6.4607838    
  70012400   4066.569       3.4931569     -56303627       1.6350691      12109.548     -56291517       741.86377      741.86377      741.86377      1629.0681      2370.9319      1629.0681      2370.9319      1629.0681      2370.9319      4.0829352e+08  0.25           18260600       0.15836054     3837.8623      15351.439      6.4400814    
  70012600   5150.6613      4.0303698     -56296305       1.6350691      15337.79      -56280968       741.86377      741.86377      741.86377      1629.0681      2370.9319      1629.0681      2370.9319      1629.0681      2370.9319      4.0829352e+08  0.25           18260650       0.17140897     3831.8819      15327.52       6.4213231    
  70012800   6458.6157      4.3163006     -56296366       1.6350691      19232.655     -56277134       741.86377      741.86377      741.86377      1629.0681      2370.9319      1629.0681      2370.9319      1629.0681      2370.9319      4.0829352e+08  0.25           18260700       0.18491107     3703.1359      14812.576      6.4191262    
  70013000   7988.9231      4.8328524     -56289053       1.6350691      23789.649     -56265264       741.86377      741.86377      741.86377      1629.0681      2370.9319      1629.0681      2370.9319      1629.0681      2370.9319      4.0829352e+08  0.25           18260750       0.19809981     3791.0981      15164.473      6.4052936    
  70013200   9708.4961      5.2177042     -56289119       1.6350691      28910.243     -56260209       741.86377      741.86377      741.86377      1629.0681      2370.9319      1629.0681      2370.9319      1629.0681      2370.9319      4.0829352e+08  0.25           18260800       0.21178768     3652.8554      14611.328      6.4066433    
  70013400   11537.47       6.2087319     -56281806       1.6350691      34356.615     -56247450       741.86377      741.86377      741.86377      1629.0681      2370.9319      1629.0681      2370.9319      1629.0681      2370.9319      4.0829352e+08  0.25           18260850       0.2248301      3833.6667      15334.619      6.3878797    
  70013600   13341.637      6.9076119     -56281873       1.6350691      39729.118     -56242144       741.86377      741.86377      741.86377      1629.0681      2370.9319      1629.0681      2370.9319      1629.0681      2370.9319      4.0829352e+08  0.25           18260900       0.23785254     3839.5333      15358.191      6.3692174    
  70013800   14933.349      6.8465256     -56289311       1.6350691      44468.963     -56244842       741.86377      741.86377      741.86377      1629.0681      2370.9319      1629.0681      2370.9319      1629.0681      2370.9319      4.0829352e+08  0.25           18260950       0.25090175     3831.6393      15326.572      6.3518281    
  70014000   16114          6.8911584     -56296745       1.6350691      47984.741     -56248760       741.86377      741.86377      741.86377      1629.0681      2370.9319      1629.0681      2370.9319      1629.0681      2370.9319      4.0829352e+08  0.25           18261000       0.26418391     3764.4621      15057.797      6.3404652    
  70014200   16760.359      7.336264      -56296793       1.6350691      49909.488     -56246884       741.86377      741.86377      741.86377      1629.0681      2370.9319      1629.0681      2370.9319      1629.0681      2370.9319      4.0829352e+08  0.25           18261050       0.27754871     3741.1479      14964.589      6.330803     
  70014400   16937.962      7.8469853     -56289454       1.6350691      50438.358     -56239015       741.86377      741.86377      741.86377      1629.0681      2370.9319      1629.0681      2370.9319      1629.0681      2370.9319      4.0829352e+08  0.25           18261100       0.29069593     3803.0645      15212.352      6.316077     
  70014600   16929.621      8.0190513     -56289481       1.6350691      50413.522     -56239068       741.86377      741.86377      741.86377      1629.0681      2370.9319      1629.0681      2370.9319      1629.0681      2370.9319      4.0829352e+08  0.25           18261150       0.30395357     3771.4057      15085.555      6.3037793    
  70014800   17094.8        8.756521      -56282123       1.6350691      50905.394     -56231217       741.86377      741.86377      741.86377      1629.0681      2370.9319      1629.0681      2370.9319      1629.0681      2370.9319      4.0829352e+08  0.25           18261200       0.31697835     3838.8762      15355.514      6.2867785    
  70015000   17696.593      9.083366      -56289510       1.6350691      52697.433     -56236813       741.86377      741.86377      741.86377      1629.0681      2370.9319      1629.0681      2370.9319      1629.0681      2370.9319      4.0829352e+08  0.25           18261250       0.33007059     3819.0544      15276.305      6.2713808    
  70015200   18792.64       10.035843     -56289509       1.6350691      55961.274     -56233548       741.86377      741.86377      741.86377      1629.0681      2370.9319      1629.0681      2370.9319      1629.0681      2370.9319      4.0829352e+08  0.25           18261300       0.34306908     3846.5977      15386.279      6.254452     
  70015400   20195.738      10.732064     -56289500       1.6350691      60139.458     -56229361       741.86377      741.86377      741.86377      1629.0681      2370.9319      1629.0681      2370.9319      1629.0681      2370.9319      4.0829352e+08  0.25           18261350       0.35612846     3828.6651      15314.715      6.238879     
  70015600   21584.143      11.702354     -56289476       1.6350691      64273.892     -56225202       741.86377      741.86377      741.86377      1629.0681      2370.9319      1629.0681      2370.9319      1629.0681      2370.9319      4.0829352e+08  0.25           18261400       0.36915026     3839.6064      15358.245      6.2228617    
  70015800   22667.984      12.227586     -56289439       1.6350691      67501.384     -56221938       741.86377      741.86377      741.86377      1629.0681      2370.9319      1629.0681      2370.9319      1629.0681      2370.9319      4.0829352e+08  0.25           18261450       0.38287346     3643.566       14574.283      6.2184296    
  70016000   23294.102      12.05516      -56296768       1.6350691      69365.857     -56227402       741.86377      741.86377      741.86377      1629.0681      2370.9319      1629.0681      2370.9319      1629.0681      2370.9319      4.0829352e+08  0.25           18261500       0.39613325     3770.8079      15083.379      6.2061198    
  70016200   23521.758      11.939359     -56304084       1.6350691      70043.778     -56234040       741.86377      741.86377      741.86377      1629.0681      2370.9319      1629.0681      2370.9319      1629.0681      2370.9319      4.0829352e+08  0.25           18261550       0.40917226     3834.6334      15338.504      6.1904124    
  70016400   23600.746      12.671694     -56304010       1.6350691      70278.992     -56233731       741.86377      741.86377      741.86377      1629.0681      2370.9319      1629.0681      2370.9319      1629.0681      2370.9319      4.0829352e+08  0.25           18261600       0.42217176     3846.258       15385.005      6.1742951    
  70016600   23846.207      13.118512     -56303918       1.6350691      71009.931     -56232908       741.86377      741.86377      741.86377      1629.0681      2370.9319      1629.0681      2370.9319      1629.0681      2370.9319      4.0829352e+08  0.25           18261650       0.4352703      3817.2592      15269.074      6.1597636    
  70016800   24493.724      14.218286     -56296441       1.6350691      72938.129     -56223503       741.86377      741.86377      741.86377      1629.0681      2370.9319      1629.0681      2370.9319      1629.0681      2370.9319      4.0829352e+08  0.25           18261700       0.44829768     3838.093       15352.419      6.1443426    
  70017000   25584.317      14.701521     -56296328       1.6350691      76185.726     -56220142       741.86377      741.86377      741.86377      1629.0681      2370.9319      1629.0681      2370.9319      1629.0681      2370.9319      4.0829352e+08  0.25           18261750       0.46133932     3833.8463      15335.31       6.1292511    
  70017200   26947.103      15.301123     -56296197       1.6350691      80243.872     -56215953       741.86377      741.86377      741.86377      1629.0681      2370.9319      1629.0681      2370.9319      1629.0681      2370.9319      4.0829352e+08  0.25           18261800       0.47456574     3780.3242      15121.299      6.1166531    
  70017400   28283.711      15.78842      -56296051       1.6350691      84224.062     -56211827       741.86377      741.86377      741.86377      1629.0681      2370.9319      1629.0681      2370.9319      1629.0681      2370.9319      4.0829352e+08  0.25           18261850       0.4880364      3711.7524      14846.952      6.1070785    
  70017600   29312.191      16.923714     -56288510       1.6350691      87286.7       -56201223       741.86377      741.86377      741.86377      1629.0681      2370.9319      1629.0681      2370.9319      1629.0681      2370.9319      4.0829352e+08  0.25           18261900       0.50118789     3801.8373      15207.37       6.0934174    
  70017800   29894.642      17.998818     -56288329       1.6350691      89021.14      -56199307       741.86377      741.86377      741.86377      1629.0681      2370.9319      1629.0681      2370.9319      1629.0681      2370.9319      4.0829352e+08  0.25           18261950       0.5142058      3840.8853      15363.627      6.0782009    
  70018000   30105.802      18.675099     -56288131       1.6350691      89649.938     -56198481       741.86377      741.86377      741.86377      1629.0681      2370.9319      1629.0681      2370.9319      1629.0681      2370.9319      4.0829352e+08  0.25           18262000       0.52722308     3841.0276      15364.003      6.0630919    
  70018200   30204.178      19.574134     -56280542       1.6350691      89942.884     -56190599       741.86377      741.86377      741.86377      1629.0681      2370.9319      1629.0681      2370.9319      1629.0681      2370.9319      4.0829352e+08  0.25           18262050       0.54018536     3857.3687      15429.421      6.047467     
  70018400   30496.78       20.665021     -56280321       1.6350691      90814.202     -56189506       741.86377      741.86377      741.86377      1629.0681      2370.9319      1629.0681      2370.9319      1629.0681      2370.9319      4.0829352e+08  0.25           18262100       0.55324314     3829.1178      15316.51       6.0330101    
  70018600   31191.903      21.269731     -56280075       1.6350691      92884.16      -56187190       741.86377      741.86377      741.86377      1629.0681      2370.9319      1629.0681      2370.9319      1629.0681      2370.9319      4.0829352e+08  0.25           18262150       0.56649895     3771.9546      15087.724      6.0207229    
  70018800   32312.711      22.027339     -56279803       1.6350691      96221.736     -56183581       741.86377      741.86377      741.86377      1629.0681      2370.9319      1629.0681      2370.9319      1629.0681      2370.9319      4.0829352e+08  0.25           18262200       0.57993581     3721.0787      14884.388      6.0102679    
  70019000   33678.352      23.141415     -56279513       1.6350691      100288.38     -56179225       741.86377      741.86377      741.86377      1629.0681      2370.9319      1629.0681      2370.9319      1629.0681      2370.9319      4.0829352e+08  0.25           18262250       0.59316852     3778.5715      15114.212      5.997616     
  70019200   34988.35       24.368033     -56279198       1.6350691      104189.33     -56175009       741.86377      741.86377      741.86377      1629.0681      2370.9319      1629.0681      2370.9319      1629.0681      2370.9319      4.0829352e+08  0.25           18262300       0.60617785     3843.3893      15373.632      5.9827335    
  70019400   35969.13       25.382444     -56278855       1.6350691      107109.93     -56171745       741.86377      741.86377      741.86377      1629.0681      2370.9319      1629.0681      2370.9319      1629.0681      2370.9319      4.0829352e+08  0.25           18262350       0.61917748     3846.2456      15385.012      5.9678404    
  70019600   36501.854      26.502706     -56278483       1.6350691      108696.29     -56169787       741.86377      741.86377      741.86377      1629.0681      2370.9319      1629.0681      2370.9319      1629.0681      2370.9319      4.0829352e+08  0.25           18262400       0.63223236     3829.9881      15320.012      5.9535408    
  70019800   36686.286      27.540919     -56278087       1.6350691      109245.5      -56168842       741.86377      741.86377      741.86377      1629.0681      2370.9319      1629.0681      2370.9319      1629.0681      2370.9319      4.0829352e+08  0.25           18262450       0.64549766     3769.2345      15076.948      5.9412322    
  70020000   36791.89       28.365184     -56277674       1.6350691      109559.97     -56168114       741.86377      741.86377      741.86377      1629.0681      2370.9319      1629.0681      2370.9319      1629.0681      2370.9319      4.0829352e+08  0.25           18262500       0.65844485     3861.8514      15447.429      5.9260222    
  70020200   37122.528      29.227185     -56277241       1.6350691      110544.55     -56166697       741.86377      741.86377      741.86377      1629.0681      2370.9319      1629.0681      2370.9319      1629.0681      2370.9319      4.0829352e+08  0.25           18262550       0.67145002     3844.5953      15378.427      5.9114119    
  70020400   37871.469      30.431688     -56269406       1.6350691      112774.77     -56156631       741.86377      741.86377      741.86377      1629.0681      2370.9319      1629.0681      2370.9319      1629.0681      2370.9319      4.0829352e+08  0.25           18262600       0.68491315     3713.8643      14855.311      5.9008087    
  70020600   39036.763      31.380075     -56276302       1.6350691      116244.82     -56160057       741.86377      741.86377      741.86377      1629.0681      2370.9319      1629.0681      2370.9319      1629.0681      2370.9319      4.0829352e+08  0.25           18262650       0.69808784     3795.1289      15180.494      5.8876658    
  70020800   40415.006      32.861808     -56275792       1.6350691      120348.99     -56155443       741.86377      741.86377      741.86377      1629.0681      2370.9319      1629.0681      2370.9319      1629.0681      2370.9319      4.0829352e+08  0.25           18262700       0.71107989     3848.5005      15394.149      5.8730107    
  70021000   41699.397      34.546681     -56267878       1.6350691      124173.69     -56143705       741.86377      741.86377      741.86377      1629.0681      2370.9319      1629.0681      2370.9319      1629.0681      2370.9319      4.0829352e+08  0.25           18262750       0.72414796     3826.1499      15304.5        5.8590335    
  70021200   42627.832      35.880903     -56267308       1.6350691      126938.4      -56140370       741.86377      741.86377      741.86377      1629.0681      2370.9319      1629.0681      2370.9319      1629.0681      2370.9319      4.0829352e+08  0.25           18262800       0.73738844     3776.2645      15105.109      5.8464543    
  70021400   43109.186      37.436456     -56259336       1.6350691      128371.79     -56130965       741.86377      741.86377      741.86377      1629.0681      2370.9319      1629.0681      2370.9319      1629.0681      2370.9319      4.0829352e+08  0.25           18262850       0.7504317      3833.3963      15333.521      5.8323204    
  70021600   43266.784      38.920171     -56266097       1.6350691      128841.1      -56137256       741.86377      741.86377      741.86377      1629.0681      2370.9319      1629.0681      2370.9319      1629.0681      2370.9319      4.0829352e+08  0.25           18262900       0.7633817      3861.0277      15444.201      5.8175113    
  70021800   43381.195      39.976446     -56282107       1.6350691      129181.79     -56152925       741.86377      741.86377      741.86377      1629.0681      2370.9319      1629.0681      2370.9319      1629.0681      2370.9319      4.0829352e+08  0.25           18262950       0.77682167     3720.2295      14880.988      5.8064287    
  70022000   43750.83       41.774939     -56281446       1.6350691      130282.5      -56151164       741.86377      741.86377      741.86377      1629.0681      2370.9319      1629.0681      2370.9319      1629.0681      2370.9319      4.0829352e+08  0.25           18263000       0.79008706     3769.2362      15076.885      5.793987     
  70022200   44554.187      43.937969     -56280762       1.6350691      132674.76     -56148087       741.86377      741.86377      741.86377      1629.0681      2370.9319      1629.0681      2370.9319      1629.0681      2370.9319      4.0829352e+08  0.25           18263050       0.8032638      3794.5664      15178.222      5.780881     
  70022400   45761.597      45.687265     -56280050       1.6350691      136270.22     -56143780       741.86377      741.86377      741.86377      1629.0681      2370.9319      1629.0681      2370.9319      1629.0681      2370.9319      4.0829352e+08  0.25           18263100       0.8165837      3753.7819      15015.148      5.7687833    
  70022600   47147.579      47.748194     -56271927       1.6350691      140397.44     -56131530       741.86377      741.86377      741.86377      1629.0681      2370.9319      1629.0681      2370.9319      1629.0681      2370.9319      4.0829352e+08  0.25           18263150       0.82964564     3827.9159      15311.63       5.7548586    
  70022800   48403.188      50.07381      -56269258       1.6350691      144136.43     -56125121       741.86377      741.86377      741.86377      1629.0681      2370.9319      1629.0681      2370.9319      1629.0681      2370.9319      4.0829352e+08  0.25           18263200       0.8427046      3828.7742      15315.093      5.7409396    
  70023000   49281.043      52.434124     -56261080       1.6350691      146750.53     -56114330       741.86377      741.86377      741.86377      1629.0681      2370.9319      1629.0681      2370.9319      1629.0681      2370.9319      4.0829352e+08  0.25           18263250       0.85570269     3846.7208      15386.923      5.72664      
  70023200   49712.388      54.205142     -56267628       1.6350691      148035        -56119593       741.86377      741.86377      741.86377      1629.0681      2370.9319      1629.0681      2370.9319      1629.0681      2370.9319      4.0829352e+08  0.25           18263300       0.8692043      3703.2873      14813.206      5.7156896    
  70023400   49846.294      55.658608     -56279637       1.6350691      148433.75     -56131203       741.86377      741.86377      741.86377      1629.0681      2370.9319      1629.0681      2370.9319      1629.0681      2370.9319      4.0829352e+08  0.25           18263350       0.88388993     3404.6714      13618.594      5.7123176    
  70023600   49974.438      56.787878     -56295414       1.6350691      148815.34     -56146599       741.86377      741.86377      741.86377      1629.0681      2370.9319      1629.0681      2370.9319      1629.0681      2370.9319      4.0829352e+08  0.25           18263400       0.89771497     3616.6211      14466.534      5.7031449    
  70023800   50390.391      58.711894     -56294524       1.6350691      150053.98     -56144470       741.86377      741.86377      741.86377      1629.0681      2370.9319      1629.0681      2370.9319      1629.0681      2370.9319      4.0829352e+08  0.25           18263450       0.9108589      3804.0477      15216.294      5.6895806    
  70024000   51246.999      60.870562     -56293610       1.6350691      152604.81     -56141006       741.86377      741.86377      741.86377      1629.0681      2370.9319      1629.0681      2370.9319      1629.0681      2370.9319      4.0829352e+08  0.25           18263500       0.92400536     3803.2954      15213.124      5.6760457    
  70024200   52492.557      62.921891     -56298156       1.6350691      156313.87     -56141842       741.86377      741.86377      741.86377      1629.0681      2370.9319      1629.0681      2370.9319      1629.0681      2370.9319      4.0829352e+08  0.25           18263550       0.93706702     3827.9897      15311.802      5.6620101    
  70024400   53884.633      64.749237     -56304576       1.6350691      160459.24     -56144117       741.86377      741.86377      741.86377      1629.0681      2370.9319      1629.0681      2370.9319      1629.0681      2370.9319      4.0829352e+08  0.25           18263600       0.95014581     3822.9985      15292.04       5.6481021    
  70024600   55106.828      66.369872     -56310964       1.6350691      164098.72     -56146865       741.86377      741.86377      741.86377      1629.0681      2370.9319      1629.0681      2370.9319      1629.0681      2370.9319      4.0829352e+08  0.25           18263650       0.96343105     3763.5761      15054.295      5.6354251    
  70024800   55926.664      68.102583     -56309940       1.6350691      166540.06     -56143400       741.86377      741.86377      741.86377      1629.0681      2370.9319      1629.0681      2370.9319      1629.0681      2370.9319      4.0829352e+08  0.25           18263700       0.97678848     3743.2199      14972.824      5.623147     
  70025000   56304.881      70.063549     -56310786       1.6350691      167666.32     -56143120       741.86377      741.86377      741.86377      1629.0681      2370.9319      1629.0681      2370.9319      1629.0681      2370.9319      4.0829352e+08  0.25           18263750       0.99001601     3779.9984      15120.075      5.6101029    
  70025200   56419.874      72.40109      -56309723       1.6350691      168008.75     -56141714       741.86377      741.86377      741.86377      1629.0681      2370.9319      1629.0681      2370.9319      1629.0681      2370.9319      4.0829352e+08  0.25           18263800       1.0032758      3770.805       15083.311      5.5972344    
  70025400   56572.364      74.895257     -56308649       1.6350691      168462.84     -56140186       741.86377      741.86377      741.86377      1629.0681      2370.9319      1629.0681      2370.9319      1629.0681      2370.9319      4.0829352e+08  0.25           18263850       1.0163803      3815.5249      15262.024      5.5835029    
  70025600   57040.324      77.645345     -56314934       1.6350691      169856.34     -56145078       741.86377      741.86377      741.86377      1629.0681      2370.9319      1629.0681      2370.9319      1629.0681      2370.9319      4.0829352e+08  0.25           18263900       1.029493       3813.0743      15252.398      5.5698322    
  70025800   57954.963      80.227612     -56306442       1.6350691      172579.98     -56133862       741.86377      741.86377      741.86377      1629.0681      2370.9319      1629.0681      2370.9319      1629.0681      2370.9319      4.0829352e+08  0.25           18263950       1.0427689      3766.2352      15064.855      5.5570454    
  70026000   59227.661      82.34915      -56312668       1.6350691      176369.86     -56136298       741.86377      741.86377      741.86377      1629.0681      2370.9319      1629.0681      2370.9319      1629.0681      2370.9319      4.0829352e+08  0.25           18264000       1.0558582      3819.9186      15279.621      5.5432664    
  70026200   60605.308      84.973912     -56304104       1.6350691      180472.26     -56123632       741.86377      741.86377      741.86377      1629.0681      2370.9319      1629.0681      2370.9319      1629.0681      2370.9319      4.0829352e+08  0.25           18264050       1.0688511      3848.2651      15393.149      5.5290054    
  70026400   61788.044      87.959398     -56295528       1.6350691      183994.24     -56111534       741.86377      741.86377      741.86377      1629.0681      2370.9319      1629.0681      2370.9319      1629.0681      2370.9319      4.0829352e+08  0.25           18264100       1.0823338      3708.4513      14833.806      5.5172726    
  70026600   62558.525      90.652944     -56293935       1.6350691      186288.6      -56107647       741.86377      741.86377      741.86377      1629.0681      2370.9319      1629.0681      2370.9319      1629.0681      2370.9319      4.0829352e+08  0.25           18264150       1.0955584      3780.8344      15123.431      5.5042004    
  70026800   62901.535      93.264124     -56292688       1.6350691      187310.03     -56105378       741.86377      741.86377      741.86377      1629.0681      2370.9319      1629.0681      2370.9319      1629.0681      2370.9319      4.0829352e+08  0.25           18264200       1.1086065      3831.9362      15327.671      5.4902519    
  70027000   63006.625      95.347446     -56291420       1.6350691      187622.97     -56103797       741.86377      741.86377      741.86377      1629.0681      2370.9319      1629.0681      2370.9319      1629.0681      2370.9319      4.0829352e+08  0.25           18264250       1.1219423      3749.3426      14997.36       5.4777282    
  70027200   63180.533      97.604199     -56288238       1.6350691      188140.84     -56100097       741.86377      741.86377      741.86377      1629.0681      2370.9319      1629.0681      2370.9319      1629.0681      2370.9319      4.0829352e+08  0.25           18264300       1.1350239      3822.1455      15288.498      5.4639624    
  70027400   63694.666      100.08575     -56286933       1.6350691      189671.84     -56097261       741.86377      741.86377      741.86377      1629.0681      2370.9319      1629.0681      2370.9319      1629.0681      2370.9319      4.0829352e+08  0.25           18264350       1.148052       3837.8764      15351.516      5.4499578    
  70027600   64656.347      103.1122      -56280122       1.6350691      192535.56     -56087587       741.86377      741.86377      741.86377      1629.0681      2370.9319      1629.0681      2370.9319      1629.0681      2370.9319      4.0829352e+08  0.25           18264400       1.1610772      3838.7038      15354.887      5.4359619    
  70027800   65960.267      106.06398     -56286150       1.6350691      196418.41     -56089732       741.86377      741.86377      741.86377      1629.0681      2370.9319      1629.0681      2370.9319      1629.0681      2370.9319      4.0829352e+08  0.25           18264450       1.1741907      3812.8605      15251.442      5.4223954    
  70028000   67333.103      109.0346      -56284777       1.6350691      200506.48     -56084270       741.86377      741.86377      741.86377      1629.0681      2370.9319      1629.0681      2370.9319      1629.0681      2370.9319      4.0829352e+08  0.25           18264500       1.1876607      3711.9574      14847.793      5.4104635    
  70028200   68468.297      112.22806     -56283362       1.6350691      203886.9      -56079475       741.86377      741.86377      741.86377      1629.0681      2370.9319      1629.0681      2370.9319      1629.0681      2370.9319      4.0829352e+08  0.25           18264550       1.2011188      3715.2283      14860.816      5.3984446    
  70028400   69180.742      114.7522      -56280030       1.6350691      206008.44     -56074021       741.86377      741.86377      741.86377      1629.0681      2370.9319      1629.0681      2370.9319      1629.0681      2370.9319      4.0829352e+08  0.25           18264600       1.2140447      3868.1921      15472.822      5.384034     
  70028600   69487.373      117.44728     -56278586       1.6350691      206921.53     -56071664       741.86377      741.86377      741.86377      1629.0681      2370.9319      1629.0681      2370.9319      1629.0681      2370.9319      4.0829352e+08  0.25           18264650       1.2270661      3839.8468      15359.387      5.3700727    
  70028800   69595.028      120.23001     -56277132       1.6350691      207242.11     -56069890       741.86377      741.86377      741.86377      1629.0681      2370.9319      1629.0681      2370.9319      1629.0681      2370.9319      4.0829352e+08  0.25           18264700       1.2400772      3842.8614      15371.508      5.3560869    
  70029000   69805.862      123.05057     -56283046       1.6350691      207869.94     -56075176       741.86377      741.86377      741.86377      1629.0681      2370.9319      1629.0681      2370.9319      1629.0681      2370.9319      4.0829352e+08  0.25           18264750       1.2531112      3836.128       15344.42       5.34222      
  70029200   70375.146      126.824       -56268708       1.6350691      209565.17     -56059142       741.86377      741.86377      741.86377      1629.0681      2370.9319      1629.0681      2370.9319      1629.0681      2370.9319      4.0829352e+08  0.25           18264800       1.266076       3856.5916      15426.494      5.3280783    
  70029400   71387.434      129.5709      -56267225       1.6350691      212579.59     -56054645       741.86377      741.86377      741.86377      1629.0681      2370.9319      1629.0681      2370.9319      1629.0681      2370.9319      4.0829352e+08  0.25           18264850       1.2795704      3705.236       14820.902      5.3161618    
  70029600   72711.889      132.47174     -56263842       1.6350691      216523.59     -56047319       741.86377      741.86377      741.86377      1629.0681      2370.9319      1629.0681      2370.9319      1629.0681      2370.9319      4.0829352e+08  0.25           18264900       1.29276        3790.8724      15163.56       5.3029627    
  70029800   74064.647      135.37308     -56271614       1.6350691      220551.87     -56051062       741.86377      741.86377      741.86377      1629.0681      2370.9319      1629.0681      2370.9319      1629.0681      2370.9319      4.0829352e+08  0.25           18264950       1.3058096      3831.4805      15325.862      5.2891973    
  70030000   75151.583      138.27469     -56277482       1.6350691      223788.58     -56053693       741.86377      741.86377      741.86377      1629.0681      2370.9319      1629.0681      2370.9319      1629.0681      2370.9319      4.0829352e+08  0.25           18265000       1.3188354      3838.616       15354.431      5.2753495    
  70030200   75808.451      141.31374     -56275958       1.6350691      225744.62     -56050213       741.86377      741.86377      741.86377      1629.0681      2370.9319      1629.0681      2370.9319      1629.0681      2370.9319      4.0829352e+08  0.25           18265050       1.331848       3842.3975      15369.59       5.2614673    
  70030400   76080.211      144.09029     -56281824       1.6350691      226553.88     -56055270       741.86377      741.86377      741.86377      1629.0681      2370.9319      1629.0681      2370.9319      1629.0681      2370.9319      4.0829352e+08  0.25           18265100       1.3448905      3833.635       15334.499      5.2477181    
  70030600   76188.816      146.92458     -56280316       1.6350691      226877.28     -56053439       741.86377      741.86377      741.86377      1629.0681      2370.9319      1629.0681      2370.9319      1629.0681      2370.9319      4.0829352e+08  0.25           18265150       1.3578612      3854.8537      15419.441      5.2337058    
  70030800   76441.71       149.80998     -56286206       1.6350691      227630.36     -56058575       741.86377      741.86377      741.86377      1629.0681      2370.9319      1629.0681      2370.9319      1629.0681      2370.9319      4.0829352e+08  0.25           18265200       1.3711971      3749.2859      14997.139      5.2211044    
  70031000   77069.784      153.59608     -56277352       1.6350691      229500.66     -56047852       741.86377      741.86377      741.86377      1629.0681      2370.9319      1629.0681      2370.9319      1629.0681      2370.9319      4.0829352e+08  0.25           18265250       1.3845961      3731.5995      14926.389      5.2087265    
  70031200   78127.757      156.61583     -56268498       1.6350691      232651.12     -56035847       741.86377      741.86377      741.86377      1629.0681      2370.9319      1629.0681      2370.9319      1629.0681      2370.9319      4.0829352e+08  0.25           18265300       1.3977782      3793.0178      15172.168      5.1955227    
  70031400   79463.965      158.73338     -56274406       1.6350691      236630.12     -56037776       741.86377      741.86377      741.86377      1629.0681      2370.9319      1629.0681      2370.9319      1629.0681      2370.9319      4.0829352e+08  0.25           18265350       1.4107004      3869.3257      15477.249      5.1813649    
  70031600   80790.44       162.63337     -56258184       1.6350691      240580.14     -56017604       741.86377      741.86377      741.86377      1629.0681      2370.9319      1629.0681      2370.9319      1629.0681      2370.9319      4.0829352e+08  0.25           18265400       1.4237601      3828.5848      15314.368      5.1677289    
  70031800   81828.42       165.43763     -56256728       1.6350691      243671.06     -56013057       741.86377      741.86377      741.86377      1629.0681      2370.9319      1629.0681      2370.9319      1629.0681      2370.9319      4.0829352e+08  0.25           18265450       1.4368733      3812.951       15251.811      5.1542955    
  70032000   82434.214      168.05973     -56260771       1.6350691      245475.01     -56015296       741.86377      741.86377      741.86377      1629.0681      2370.9319      1629.0681      2370.9319      1629.0681      2370.9319      4.0829352e+08  0.25           18265500       1.4499498      3823.6397      15294.412      5.1407385    
  70032200   82670.749      171.16658     -56259339       1.6350691      246179.38     -56013159       741.86377      741.86377      741.86377      1629.0681      2370.9319      1629.0681      2370.9319      1629.0681      2370.9319      4.0829352e+08  0.25           18265550       1.4632673      3754.4666      15017.945      5.128034     
  70032400   82778.203      173.27373     -56280050       1.6350691      246499.35     -56033551       741.86377      741.86377      741.86377      1629.0681      2370.9319      1629.0681      2370.9319      1629.0681      2370.9319      4.0829352e+08  0.25           18265600       1.4764182      3801.9951      15207.984      5.1147418    
  70032600   83064.126      176.88628     -56265791       1.6350691      247350.78     -56018440       741.86377      741.86377      741.86377      1629.0681      2370.9319      1629.0681      2370.9319      1629.0681      2370.9319      4.0829352e+08  0.25           18265650       1.4900726      3661.8198      14647.264      5.1031764    
  70032800   83744.893      180.5008      -56257027       1.6350691      249377.99     -56007649       741.86377      741.86377      741.86377      1629.0681      2370.9319      1629.0681      2370.9319      1629.0681      2370.9319      4.0829352e+08  0.25           18265700       1.5033778      3757.9253      15031.152      5.0903933    
  70033000   84849.364      183.33722     -56263029       1.6350691      252666.92     -56010362       741.86377      741.86377      741.86377      1629.0681      2370.9319      1629.0681      2370.9319      1629.0681      2370.9319      4.0829352e+08  0.25           18265750       1.5165085      3807.8568      15232.009      5.077014     
  70033200   86201.613      186.96094     -56254269       1.6350691      256693.68     -55997575       741.86377      741.86377      741.86377      1629.0681      2370.9319      1629.0681      2370.9319      1629.0681      2370.9319      4.0829352e+08  0.25           18265800       1.5296886      3793.6097      15174.433      5.0638039    
  70033400   87506.769      190.19319     -56260264       1.6350691      260580.22     -55999684       741.86377      741.86377      741.86377      1629.0681      2370.9319      1629.0681      2370.9319      1629.0681      2370.9319      4.0829352e+08  0.25           18265850       1.5428701      3793.2088      15172.698      5.0505991    
  70033600   88493.777      194.76764     -56244124       1.6350691      263519.36     -55980605       741.86377      741.86377      741.86377      1629.0681      2370.9319      1629.0681      2370.9319      1629.0681      2370.9319      4.0829352e+08  0.25           18265900       1.5562593      3734.3762      14937.587      5.0380665    
  70033800   89043.172      198.15921     -56235362       1.6350691      265155.36     -55970206       741.86377      741.86377      741.86377      1629.0681      2370.9319      1629.0681      2370.9319      1629.0681      2370.9319      4.0829352e+08  0.25           18265950       1.5695121      3772.7267      15090.911      5.0250837    
  70034000   89238.887      201.47978     -56233969       1.6350691      265738.17     -55968231       741.86377      741.86377      741.86377      1629.0681      2370.9319      1629.0681      2370.9319      1629.0681      2370.9319      4.0829352e+08  0.25           18266000       1.5830743      3686.7632      14747.12       5.0130752    
  70034200   89344.754      205.11228     -56232573       1.6350691      266053.42     -55966520       741.86377      741.86377      741.86377      1629.0681      2370.9319      1629.0681      2370.9319      1629.0681      2370.9319      4.0829352e+08  0.25           18266050       1.5962273      3801.376       15205.492      4.9997607    
  70034400   89660.53       207.80027     -56238536       1.6350691      266993.75     -55971542       741.86377      741.86377      741.86377      1629.0681      2370.9319      1629.0681      2370.9319      1629.0681      2370.9319      4.0829352e+08  0.25           18266100       1.6094651      3777.0912      15108.44       4.9867095    
  70034600   90392.685      210.73402     -56237105       1.6350691      269173.98     -55967931       741.86377      741.86377      741.86377      1629.0681      2370.9319      1629.0681      2370.9319      1629.0681      2370.9319      4.0829352e+08  0.25           18266150       1.6229185      3716.5462      14866.125      4.9743174    
  70034800   91544.313      214.45558     -56237538       1.6350691      272603.33     -55964935       741.86377      741.86377      741.86377      1629.0681      2370.9319      1629.0681      2370.9319      1629.0681      2370.9319      4.0829352e+08  0.25           18266200       1.6360932      3795.156       15180.571      4.961063     
  70035000   92911.908      218.18527     -56237931       1.6350691      276675.8      -55961255       741.86377      741.86377      741.86377      1629.0681      2370.9319      1629.0681      2370.9319      1629.0681      2370.9319      4.0829352e+08  0.25           18266250       1.6493644      3767.5233      15070.149      4.9480996    
  70035200   94195.856      222.03608     -56236390       1.6350691      280499.17     -55955891       741.86377      741.86377      741.86377      1629.0681      2370.9319      1629.0681      2370.9319      1629.0681      2370.9319      4.0829352e+08  0.25           18266300       1.6625517      3791.525       15166.067      4.9348822    
  70035400   95133.511      225.21411     -56234806       1.6350691      283291.35     -55951515       741.86377      741.86377      741.86377      1629.0681      2370.9319      1629.0681      2370.9319      1629.0681      2370.9319      4.0829352e+08  0.25           18266350       1.6757569      3786.3961      15145.468      4.9217177    
  70035600   95631.108      229.10369     -56231288       1.6350691      284773.11     -55946515       741.86377      741.86377      741.86377      1629.0681      2370.9319      1629.0681      2370.9319      1629.0681      2370.9319      4.0829352e+08  0.25           18266400       1.6895847      3615.9314      14463.726      4.910362     
  70035800   95803.679      232.7914      -56229628       1.6350691      285287        -55944341       741.86377      741.86377      741.86377      1629.0681      2370.9319      1629.0681      2370.9319      1629.0681      2370.9319      4.0829352e+08  0.25           18266450       1.7029391      3744.0846      14976.53       4.8976058    
  70036000   95920.526      236.35271     -56220555       1.6350691      285634.95     -55934920       741.86377      741.86377      741.86377      1629.0681      2370.9319      1629.0681      2370.9319      1629.0681      2370.9319      4.0829352e+08  0.25           18266500       1.7160502      3813.5559      15254.18       4.8841485    
  70036200   96278.079      240.13682     -56218801       1.6350691      286699.68     -55932101       741.86377      741.86377      741.86377      1629.0681      2370.9319      1629.0681      2370.9319      1629.0681      2370.9319      4.0829352e+08  0.25           18266550       1.7292868      3777.3882      15109.53       4.8710503    
  70036400   97062.268      244.39504     -56209611       1.6350691      289034.86     -55920576       741.86377      741.86377      741.86377      1629.0681      2370.9319      1629.0681      2370.9319      1629.0681      2370.9319      4.0829352e+08  0.25           18266600       1.7424306      3804.0885      15216.459      4.8576906    
  70036600   98253.674      248.64149     -56207748       1.6350691      292582.66     -55915165       741.86377      741.86377      741.86377      1629.0681      2370.9319      1629.0681      2370.9319      1629.0681      2370.9319      4.0829352e+08  0.25           18266650       1.7558565      3724.1374      14896.432      4.8451135    
  70036800   99627.813      251.62767     -56220579       1.6350691      296674.62     -55923904       741.86377      741.86377      741.86377      1629.0681      2370.9319      1629.0681      2370.9319      1629.0681      2370.9319      4.0829352e+08  0.25           18266700       1.7690593      3787.0749      15148.327      4.8319137    
  70037000   100872.73      254.98475     -56225965       1.6350691      300381.75     -55925583       741.86377      741.86377      741.86377      1629.0681      2370.9319      1629.0681      2370.9319      1629.0681      2370.9319      4.0829352e+08  0.25           18266750       1.782726       3658.457       14633.739      4.8199694    
  70037200   101755.42      259.14568     -56216532       1.6350691      303010.27     -55913522       741.86377      741.86377      741.86377      1629.0681      2370.9319      1629.0681      2370.9319      1629.0681      2370.9319      4.0829352e+08  0.25           18266800       1.7961778      3717.0319      14868.265      4.807423     
  70037400   102215.33      264.06755     -56192298       1.6350691      304379.8      -55887918       741.86377      741.86377      741.86377      1629.0681      2370.9319      1629.0681      2370.9319      1629.0681      2370.9319      4.0829352e+08  0.25           18266850       1.8096754      3704.3842      14817.502      4.7949849    
  70037600   102387.35      268.03195     -56190149       1.6350691      304892.03     -55885257       741.86377      741.86377      741.86377      1629.0681      2370.9319      1629.0681      2370.9319      1629.0681      2370.9319      4.0829352e+08  0.25           18266900       1.8229258      3773.4579      15093.857      4.7818836    
  70037800   102542.78      271.43524     -56193431       1.6350691      305354.89     -55888076       741.86377      741.86377      741.86377      1629.0681      2370.9319      1629.0681      2370.9319      1629.0681      2370.9319      4.0829352e+08  0.25           18266950       1.8361359      3784.9563      15139.704      4.7686755    
  70038000   102966.87      274.54996     -56198571       1.6350691      306617.77     -55891954       741.86377      741.86377      741.86377      1629.0681      2370.9319      1629.0681      2370.9319      1629.0681      2370.9319      4.0829352e+08  0.25           18267000       1.8493589      3781.2979      15125.16       4.7555003    
  70038200   103814.57      278.85535     -56194393       1.6350691      309142.08     -55885251       741.86377      741.86377      741.86377      1629.0681      2370.9319      1629.0681      2370.9319      1629.0681      2370.9319      4.0829352e+08  0.25           18267050       1.8628536      3705.1877      14820.849      4.7430156    
  70038400   105025.57      282.57365     -56192060       1.6350691      312748.2      -55879312       741.86377      741.86377      741.86377      1629.0681      2370.9319      1629.0681      2370.9319      1629.0681      2370.9319      4.0829352e+08  0.25           18267100       1.8760117      3799.9211      15199.673      4.7296689    
  70038600   106364.1       286.78531     -56197062       1.6350691      316734.13     -55880328       741.86377      741.86377      741.86377      1629.0681      2370.9319      1629.0681      2370.9319      1629.0681      2370.9319      4.0829352e+08  0.25           18267150       1.889756       3637.8635      14551.464      4.7177881    
  70038800   107543.7       291.61007     -56194654       1.6350691      320246.78     -55874408       741.86377      741.86377      741.86377      1629.0681      2370.9319      1629.0681      2370.9319      1629.0681      2370.9319      4.0829352e+08  0.25           18267200       1.9031022      3746.3929      14985.565      4.7048971    
  70039000   108360.67      296.09496     -56192212       1.6350691      322679.58     -55869532       741.86377      741.86377      741.86377      1629.0681      2370.9319      1629.0681      2370.9319      1629.0681      2370.9319      4.0829352e+08  0.25           18267250       1.9165457      3719.2538      14876.58       4.692239     
  70039200   108794.53      299.72855     -56189743       1.6350691      323971.54     -55865771       741.86377      741.86377      741.86377      1629.0681      2370.9319      1629.0681      2370.9319      1629.0681      2370.9319      4.0829352e+08  0.25           18267300       1.9297276      3793.0871      15172.851      4.6789339    
  70039400   108996.73      303.99095     -56179875       1.6350691      324573.66     -55855301       741.86377      741.86377      741.86377      1629.0681      2370.9319      1629.0681      2370.9319      1629.0681      2370.9319      4.0829352e+08  0.25           18267350       1.9428738      3803.4088      15213.588      4.6655455    
  70039600   109231.35      307.39486     -56177375       1.6350691      325272.32     -55852102       741.86377      741.86377      741.86377      1629.0681      2370.9319      1629.0681      2370.9319      1629.0681      2370.9319      4.0829352e+08  0.25           18267400       1.9560048      3807.7686      15231.059      4.6521246    
  70039800   109746.92      311.54168     -56174869       1.6350691      326807.58     -55848062       741.86377      741.86377      741.86377      1629.0681      2370.9319      1629.0681      2370.9319      1629.0681      2370.9319      4.0829352e+08  0.25           18267450       1.9691905      3791.9692      15167.73       4.638837     
  70040000   110654.32      316.44131     -56172373       1.6350691      329509.68     -55842864       741.86377      741.86377      741.86377      1629.0681      2370.9319      1629.0681      2370.9319      1629.0681      2370.9319      4.0829352e+08  0.25           18267500       1.983056       3606.0895      14424.381      4.6271359    
  70040200   111864.49      321.53469     -56169880       1.6350691      333113.34     -55836767       741.86377      741.86377      741.86377      1629.0681      2370.9319      1629.0681      2370.9319      1629.0681      2370.9319      4.0829352e+08  0.25           18267550       1.996424       3740.2742      14961.273      4.6142564    
  70040400   113136.41      326.72052     -56152636       1.6350691      336900.91     -55815735       741.86377      741.86377      741.86377      1629.0681      2370.9319      1629.0681      2370.9319      1629.0681      2370.9319      4.0829352e+08  0.25           18267600       2.0095975      3795.4913      15181.855      4.6009258    
  70040600   114219         330.21893     -56164921       1.6350691      340124.67     -55824797       741.86377      741.86377      741.86377      1629.0681      2370.9319      1629.0681      2370.9319      1629.0681      2370.9319      4.0829352e+08  0.25           18267650       2.0227567      3799.5954      15198.326      4.5875646    
  70040800   114962.79      334.673       -56147706       1.6350691      342339.57     -55805366       741.86377      741.86377      741.86377      1629.0681      2370.9319      1629.0681      2370.9319      1629.0681      2370.9319      4.0829352e+08  0.25           18267700       2.0359438      3791.6153      15166.622      4.5742681    
  70041000   115382.68      339.42401     -56137891       1.6350691      343589.91     -55794301       741.86377      741.86377      741.86377      1629.0681      2370.9319      1629.0681      2370.9319      1629.0681      2370.9319      4.0829352e+08  0.25           18267750       2.0494115      3712.595       14850.33       4.5615981    
  70041200   115648.09      344.25865     -56128111       1.6350691      344380.26     -55783731       741.86377      741.86377      741.86377      1629.0681      2370.9319      1629.0681      2370.9319      1629.0681      2370.9319      4.0829352e+08  0.25           18267800       2.0625701      3799.7683      15198.955      4.5482368    
  70041400   115990.28      349.03983     -56118354       1.6350691      345399.24     -55772954       741.86377      741.86377      741.86377      1629.0681      2370.9319      1629.0681      2370.9319      1629.0681      2370.9319      4.0829352e+08  0.25           18267850       2.0757914      3781.7975      15127.356      4.5350139    
  70041600   116620.32      353.30724     -56108645       1.6350691      347275.39     -55761369       741.86377      741.86377      741.86377      1629.0681      2370.9319      1629.0681      2370.9319      1629.0681      2370.9319      4.0829352e+08  0.25           18267900       2.0894045      3672.9413      14691.769      4.5226396    
  70041800   117596.39      357.33768     -56106351       1.6350691      350181.96     -55756169       741.86377      741.86377      741.86377      1629.0681      2370.9319      1629.0681      2370.9319      1629.0681      2370.9319      4.0829352e+08  0.25           18267950       2.1028384      3721.9357      14887.743      4.5098653    
  70042000   118791.98      361.37326     -56104087       1.6350691      353742.23     -55750345       741.86377      741.86377      741.86377      1629.0681      2370.9319      1629.0681      2370.9319      1629.0681      2370.9319      4.0829352e+08  0.25           18268000       2.1161969      3742.9229      14971.647      4.496923     
  70042200   119975.73      365.99362     -56099952       1.6350691      357267.24     -55742685       741.86377      741.86377      741.86377      1629.0681      2370.9319      1629.0681      2370.9319      1629.0681      2370.9319      4.0829352e+08  0.25           18268050       2.1294155      3782.536       15130.135      4.4836807    
  70042400   120945.46      370.27817     -56103237       1.6350691      360154.94     -55743082       741.86377      741.86377      741.86377      1629.0681      2370.9319      1629.0681      2370.9319      1629.0681      2370.9319      4.0829352e+08  0.25           18268100       2.1426698      3772.2855      15089.221      4.4705136    
  70042600   121620.76      373.63738     -56117736       1.6350691      362165.86     -55755570       741.86377      741.86377      741.86377      1629.0681      2370.9319      1629.0681      2370.9319      1629.0681      2370.9319      4.0829352e+08  0.25           18268150       2.1559753      3757.9674      15031.763      4.4574502    
  70042800   122063.29      378.3383      -56115624       1.6350691      363483.65     -55752141       741.86377      741.86377      741.86377      1629.0681      2370.9319      1629.0681      2370.9319      1629.0681      2370.9319      4.0829352e+08  0.25           18268200       2.1691907      3783.4155      15133.612      4.4442002    
  70043000   122454.11      382.7451      -56108081       1.6350691      364647.43     -55743434       741.86377      741.86377      741.86377      1629.0681      2370.9319      1629.0681      2370.9319      1629.0681      2370.9319      4.0829352e+08  0.25           18268250       2.1828974      3647.8705      14591.579      4.4319475    
  70043200   123024.53      386.63594     -56113425       1.6350691      366346.04     -55747079       741.86377      741.86377      741.86377      1629.0681      2370.9319      1629.0681      2370.9319      1629.0681      2370.9319      4.0829352e+08  0.25           18268300       2.1965398      3665.0518      14660.137      4.4195484    
  70043400   123974.83      390.69314     -56111414       1.6350691      369175.86     -55742238       741.86377      741.86377      741.86377      1629.0681      2370.9319      1629.0681      2370.9319      1629.0681      2370.9319      4.0829352e+08  0.25           18268350       2.2098614      3753.2705      15013.04       4.4064945    
  70043600   125353.71      394.41103     -56116807       1.6350691      373281.94     -55743525       741.86377      741.86377      741.86377      1629.0681      2370.9319      1629.0681      2370.9319      1629.0681      2370.9319      4.0829352e+08  0.25           18268400       2.2231494      3762.8108      15051.258      4.3933711    
  70043800   126946.83      398.31371     -56122219       1.6350691      378025.99     -55744193       741.86377      741.86377      741.86377      1629.0681      2370.9319      1629.0681      2370.9319      1629.0681      2370.9319      4.0829352e+08  0.25           18268450       2.2364409      3761.8052      15046.868      4.380253     
  70044000   128368.97      403.59679     -56098130       1.6350691      382260.88     -55715869       741.86377      741.86377      741.86377      1629.0681      2370.9319      1629.0681      2370.9319      1629.0681      2370.9319      4.0829352e+08  0.25           18268500       2.2497918      3745.0496      14980.624      4.3672471    
  70044200   129376.22      407.9737      -56094317       1.6350691      385260.29     -55709057       741.86377      741.86377      741.86377      1629.0681      2370.9319      1629.0681      2370.9319      1629.0681      2370.9319      4.0829352e+08  0.25           18268550       2.2630898      3759.9809      15039.919      4.3541359    
  70044400   129953.78      411.9669      -56099780       1.6350691      386980.17     -55712800       741.86377      741.86377      741.86377      1629.0681      2370.9319      1629.0681      2370.9319      1629.0681      2370.9319      4.0829352e+08  0.25           18268600       2.2766503      3687.1946      14748.758      4.3415232    
  70044600   130145.07      414.16787     -56110734       1.6350691      387549.8      -55723184       741.86377      741.86377      741.86377      1629.0681      2370.9319      1629.0681      2370.9319      1629.0681      2370.9319      4.0829352e+08  0.25           18268650       2.2904266      3629.4128      14517.675      4.3293076    
  70044800   129853.3       417.82338     -56094092       1.6350691      386680.94     -55707411       741.86377      741.86377      741.86377      1629.0681      2370.9319      1629.0681      2370.9319      1629.0681      2370.9319      4.0829352e+08  0.25           18268700       2.3038774      3717.1441      14868.485      4.3164649    
  70045000   129206.66      420.93095     -56092195       1.6350691      384755.37     -55707440       741.86377      741.86377      741.86377      1629.0681      2370.9319      1629.0681      2370.9319      1629.0681      2370.9319      4.0829352e+08  0.25           18268750       2.3170827      3786.4571      15145.799      4.3031578    
  70045200   128819.56      424.73112     -56090310       1.6350691      383602.65     -55706708       741.86377      741.86377      741.86377      1629.0681      2370.9319      1629.0681      2370.9319      1629.0681      2370.9319      4.0829352e+08  0.25           18268800       2.330338       3772.0277      15088.163      4.2899446    
  70045400   129454.1       428.49528     -56084645       1.6350691      385492.19     -55699153       741.86377      741.86377      741.86377      1629.0681      2370.9319      1629.0681      2370.9319      1629.0681      2370.9319      4.0829352e+08  0.25           18268850       2.3436069      3768.2633      15073.18       4.2767554    
  70045600   131498.61      432.87877     -56090137       1.6350691      391580.41     -55698556       741.86377      741.86377      741.86377      1629.0681      2370.9319      1629.0681      2370.9319      1629.0681      2370.9319      4.0829352e+08  0.25           18268900       2.3570683      3714.3435      14857.281      4.2639139    
  70045800   134172.65      437.82986     -56077270       1.6350691      399543.23     -55677727       741.86377      741.86377      741.86377      1629.0681      2370.9319      1629.0681      2370.9319      1629.0681      2370.9319      4.0829352e+08  0.25           18268950       2.3703518      3764.0396      15056.327      4.2507463    
  70046000   135981.49      442.567       -56060592       1.6350691      404929.67     -55655663       741.86377      741.86377      741.86377      1629.0681      2370.9319      1629.0681      2370.9319      1629.0681      2370.9319      4.0829352e+08  0.25           18269000       2.3840166      3659.0305      14636.098      4.2382554    
  70046200   136386.64      445.87803     -56067903       1.6350691      406136.13     -55661767       741.86377      741.86377      741.86377      1629.0681      2370.9319      1629.0681      2370.9319      1629.0681      2370.9319      4.0829352e+08  0.25           18269050       2.3974076      3733.8505      14935.393      4.2252689    
  70046400   135696.19      448.89813     -56067814       1.6350691      404080.1      -55663734       741.86377      741.86377      741.86377      1629.0681      2370.9319      1629.0681      2370.9319      1629.0681      2370.9319      4.0829352e+08  0.25           18269100       2.4106515      3775.3056      15101.205      4.2120211    
  70046600   134376.99      451.68004     -56058448       1.6350691      400151.72     -55658296       741.86377      741.86377      741.86377      1629.0681      2370.9319      1629.0681      2370.9319      1629.0681      2370.9319      4.0829352e+08  0.25           18269150       2.4238948      3775.5217      15102.047      4.1987721    
  70046800   132914.69      454.23247     -56056457       1.6350691      395797.24     -55660660       741.86377      741.86377      741.86377      1629.0681      2370.9319      1629.0681      2370.9319      1629.0681      2370.9319      4.0829352e+08  0.25           18269200       2.4374545      3687.4124      14749.673      4.1860667    
  70047000   132691.24      457.04794     -56054459       1.6350691      395131.85     -55659327       741.86377      741.86377      741.86377      1629.0681      2370.9319      1629.0681      2370.9319      1629.0681      2370.9319      4.0829352e+08  0.25           18269250       2.4507623      3757.1544      15028.577      4.1729233    
  70047200   135213.09      461.2094      -56052430       1.6350691      402641.48     -55649789       741.86377      741.86377      741.86377      1629.0681      2370.9319      1629.0681      2370.9319      1629.0681      2370.9319      4.0829352e+08  0.25           18269300       2.4640661      3758.2772      15033.029      4.1597716    
  70047400   139062.62      466.17118     -56050367       1.6350691      414104.73     -55636262       741.86377      741.86377      741.86377      1629.0681      2370.9319      1629.0681      2370.9319      1629.0681      2370.9319      4.0829352e+08  0.25           18269350       2.4773723      3757.7211      15030.916      4.1466213    
  70047600   141494.49      470.51473     -56038994       1.6350691      421346.43     -55617647       741.86377      741.86377      741.86377      1629.0681      2370.9319      1629.0681      2370.9319      1629.0681      2370.9319      4.0829352e+08  0.25           18269400       2.4911347      3633.0603      14532.268      4.1342273    
  70047800   142209.74      473.45982     -56036847       1.6350691      423476.32     -55613370       741.86377      741.86377      741.86377      1629.0681      2370.9319      1629.0681      2370.9319      1629.0681      2370.9319      4.0829352e+08  0.25           18269450       2.504796       3659.999       14639.831      4.1216528    
  70048000   141783.2       476.87357     -56027296       1.6350691      422206.17     -55605090       741.86377      741.86377      741.86377      1629.0681      2370.9319      1629.0681      2370.9319      1629.0681      2370.9319      4.0829352e+08  0.25           18269500       2.5181476      3744.8465      14979.419      4.1085605    
  70048200   140851         480.83986     -56017726       1.6350691      419430.22     -55598295       741.86377      741.86377      741.86377      1629.0681      2370.9319      1629.0681      2370.9319      1629.0681      2370.9319      4.0829352e+08  0.25           18269550       2.5314387      3761.9244      15047.722      4.095368     
  70048400   140196.27      483.61281     -56015528       1.6350691      417480.56     -55598048       741.86377      741.86377      741.86377      1629.0681      2370.9319      1629.0681      2370.9319      1629.0681      2370.9319      4.0829352e+08  0.25           18269600       2.5448155      3737.8413      14951.434      4.0823117    
  70048600   141013.71      487.3658      -56013318       1.6350691      419914.74     -55593403       741.86377      741.86377      741.86377      1629.0681      2370.9319      1629.0681      2370.9319      1629.0681      2370.9319      4.0829352e+08  0.25           18269650       2.5581175      3758.8081      15035.299      4.0691334    
  70048800   144460.11      492.57282     -56011072       1.6350691      430177.53     -55580894       741.86377      741.86377      741.86377      1629.0681      2370.9319      1629.0681      2370.9319      1629.0681      2370.9319      4.0829352e+08  0.25           18269700       2.5714214      3758.3029      15033.186      4.0559568    
  70049000   148208.36      498.25554     -56008767       1.6350691      441339.2      -55567428       741.86377      741.86377      741.86377      1629.0681      2370.9319      1629.0681      2370.9319      1629.0681      2370.9319      4.0829352e+08  0.25           18269750       2.5853955      3578.0695      14312.303      4.0438274    
  70049200   149346.46      502.46097     -56006433       1.6350691      444728.26     -55561705       741.86377      741.86377      741.86377      1629.0681      2370.9319      1629.0681      2370.9319      1629.0681      2370.9319      4.0829352e+08  0.25           18269800       2.5988147      3725.9798      14903.856      4.030818     
  70049400   148237.09      504.0155      -56013721       1.6350691      441424.75     -55572297       741.86377      741.86377      741.86377      1629.0681      2370.9319      1629.0681      2370.9319      1629.0681      2370.9319      4.0829352e+08  0.25           18269850       2.6120818      3768.6708      15074.75       4.0175711    
  70049600   145982.19      506.47103     -56020647       1.6350691      434710.05     -55585937       741.86377      741.86377      741.86377      1629.0681      2370.9319      1629.0681      2370.9319      1629.0681      2370.9319      4.0829352e+08  0.25           18269900       2.6253568      3766.5266      15066.077      4.0043354    
  70049800   143717.73      508.5369      -56031183       1.6350691      427966.85     -55603216       741.86377      741.86377      741.86377      1629.0681      2370.9319      1629.0681      2370.9319      1629.0681      2370.9319      4.0829352e+08  0.25           18269950       2.6386429      3763.2455      15052.956      3.991117     
  70050000   142677.73      511.15911     -56036256       1.6350691      424869.92     -55611386       741.86377      741.86377      741.86377      1629.0681      2370.9319      1629.0681      2370.9319      1629.0681      2370.9319      4.0829352e+08  0.25           18270000       2.6544301      3167.1643      12668.657      3.9816486    
  70050200   145564.67      516.44266     -56039441       1.6350691      433466.72     -55605974       741.86377      741.86377      741.86377      1629.0681      2370.9319      1629.0681      2370.9319      1629.0681      2370.9319      4.0829352e+08  0.25           18270050       2.6676594      3779.5457      15118.236      3.9683124    
  70050400   151481.1       522.10549     -56022374       1.6350691      451084.85     -55571289       741.86377      741.86377      741.86377      1629.0681      2370.9319      1629.0681      2370.9319      1629.0681      2370.9319      4.0829352e+08  0.25           18270100       2.6811012      3719.7192      14878.902      3.9552911    
  70050600   153995.37      526.05178     -56020028       1.6350691      458571.91     -55561456       741.86377      741.86377      741.86377      1629.0681      2370.9319      1629.0681      2370.9319      1629.0681      2370.9319      4.0829352e+08  0.25           18270150       2.6944332      3750.3835      15001.533      3.9421049    
  70050800   153888.7       529.57124     -56010302       1.6350691      458254.28     -55552048       741.86377      741.86377      741.86377      1629.0681      2370.9319      1629.0681      2370.9319      1629.0681      2370.9319      4.0829352e+08  0.25           18270200       2.7078162      3736.0831      14944.43       3.9289912    
  70051000   152384.8       533.09815     -55993210       1.6350691      453775.92     -55539434       741.86377      741.86377      741.86377      1629.0681      2370.9319      1629.0681      2370.9319      1629.0681      2370.9319      4.0829352e+08  0.25           18270250       2.7210434      3780.0312      15120.12       3.9156509    
  70051200   150480.68      536.41401     -55998277       1.6350691      448105.76     -55550171       741.86377      741.86377      741.86377      1629.0681      2370.9319      1629.0681      2370.9319      1629.0681      2370.9319      4.0829352e+08  0.25           18270300       2.7344075      3741.4197      14965.604      3.9025069    
  70051400   149362.25      540.73528     -55988619       1.6350691      444775.28     -55543843       741.86377      741.86377      741.86377      1629.0681      2370.9319      1629.0681      2370.9319      1629.0681      2370.9319      4.0829352e+08  0.25           18270350       2.7476698      3770.078       15080.297      3.8892168    
  70051600   150485.33      544.20894     -55993731       1.6350691      448119.62     -55545612       741.86377      741.86377      741.86377      1629.0681      2370.9319      1629.0681      2370.9319      1629.0681      2370.9319      4.0829352e+08  0.25           18270400       2.760953       3764.1453      15056.539      3.8759564    
  70051800   154860.04      549.6126      -55986000       1.6350691      461146.76     -55524853       741.86377      741.86377      741.86377      1629.0681      2370.9319      1629.0681      2370.9319      1629.0681      2370.9319      4.0829352e+08  0.25           18270450       2.774078       3809.5404      15238.236      3.8624751    
  70052000   158919.52      553.52391     -55998487       1.6350691      473235.21     -55525251       741.86377      741.86377      741.86377      1629.0681      2370.9319      1629.0681      2370.9319      1629.0681      2370.9319      4.0829352e+08  0.25           18270500       2.7876456      3685.2425      14740.95       3.8496089    
  70052200   159792.08      556.84213     -56003602       1.6350691      475833.52     -55527769       741.86377      741.86377      741.86377      1629.0681      2370.9319      1629.0681      2370.9319      1629.0681      2370.9319      4.0829352e+08  0.25           18270550       2.8013114      3658.7935      14635.199      3.83687      
  70052400   158683.05      560.7563      -55984713       1.6350691      472531.04     -55512182       741.86377      741.86377      741.86377      1629.0681      2370.9319      1629.0681      2370.9319      1629.0681      2370.9319      4.0829352e+08  0.25           18270600       2.8145045      3789.8501      15159.388      3.8234805    
  70052600   156926.41      564.56251     -55982492       1.6350691      467300.06     -55515192       741.86377      741.86377      741.86377      1629.0681      2370.9319      1629.0681      2370.9319      1629.0681      2370.9319      4.0829352e+08  0.25           18270650       2.8276433      3805.5026      15221.992      3.8100199    
  70052800   155611.81      567.92224     -55972934       1.6350691      463385.41     -55509548       741.86377      741.86377      741.86377      1629.0681      2370.9319      1629.0681      2370.9319      1629.0681      2370.9319      4.0829352e+08  0.25           18270700       2.8408004      3800.1224      15200.567      3.7965869    
  70053000   155809.18      571.45566     -55985533       1.6350691      463973.13     -55521560       741.86377      741.86377      741.86377      1629.0681      2370.9319      1629.0681      2370.9319      1629.0681      2370.9319      4.0829352e+08  0.25           18270750       2.853831       3837.2382      15348.78       3.7829882    
  70053200   159746.4       575.08981     -55990765       1.6350691      475697.5      -55515067       741.86377      741.86377      741.86377      1629.0681      2370.9319      1629.0681      2370.9319      1629.0681      2370.9319      4.0829352e+08  0.25           18270800       2.8671995      3740.1485      14960.732      3.769839     
  70053400   166293.19      579.55141     -55988602       1.6350691      495192.74     -55493409       741.86377      741.86377      741.86377      1629.0681      2370.9319      1629.0681      2370.9319      1629.0681      2370.9319      4.0829352e+08  0.25           18270850       2.8803892      3790.825       15163.299      3.7564551    
  70053600   167866.08      584.13941     -55986441       1.6350691      499876.52     -55486564       741.86377      741.86377      741.86377      1629.0681      2370.9319      1629.0681      2370.9319      1629.0681      2370.9319      4.0829352e+08  0.25           18270900       2.894465       3552.1902      14208.698      3.7442189    
  70053800   165923.48      588.0696      -55984295       1.6350691      494091.8      -55490203       741.86377      741.86377      741.86377      1629.0681      2370.9319      1629.0681      2370.9319      1629.0681      2370.9319      4.0829352e+08  0.25           18270950       2.9086646      3521.2304      14084.926      3.7321249    
  70054000   162754.99      590.6864      -55974802       1.6350691      484656.56     -55490145       741.86377      741.86377      741.86377      1629.0681      2370.9319      1629.0681      2370.9319      1629.0681      2370.9319      4.0829352e+08  0.25           18271000       2.9217995      3806.6626      15226.704      3.7186565    
  70054200   160141.38      592.12308     -55980097       1.6350691      476873.68     -55503223       741.86377      741.86377      741.86377      1629.0681      2370.9319      1629.0681      2370.9319      1629.0681      2370.9319      4.0829352e+08  0.25           18271050       2.9351382      3748.4623      14993.759      3.7054488    
  70054400   159322.81      595.95593     -55978032       1.6350691      474436.11     -55503596       741.86377      741.86377      741.86377      1629.0681      2370.9319      1629.0681      2370.9319      1629.0681      2370.9319      4.0829352e+08  0.25           18271100       2.9483201      3793.0926      15172.506      3.692043     
  70054600   161275.51      600.77486     -55975970       1.6350691      480250.92     -55495719       741.86377      741.86377      741.86377      1629.0681      2370.9319      1629.0681      2370.9319      1629.0681      2370.9319      4.0829352e+08  0.25           18271150       2.9613882      3826.1264      15304.421      3.6784982    
  70054800   166562.09      605.43562     -55973915       1.6350691      495993.46     -55477921       741.86377      741.86377      741.86377      1629.0681      2370.9319      1629.0681      2370.9319      1629.0681      2370.9319      4.0829352e+08  0.25           18271200       2.9744979      3813.9759      15255.882      3.6650089    
[...]
  70999400   307.44316      1.7061949     -56291052       1.6348067      915.51323     -56290137       741.90346      741.90346      741.90346      1629.0483      2370.9517      1629.0483      2370.9517      1629.0483      2370.9517      4.0835905e+08  0.25           18507350       22.864519      3169.0568      12676.279      0.83747039   
  70999600   302.06227      4.1160434     -56291068       1.6348659      899.48987     -56290169       741.89451      741.89451      741.89451      1629.0527      2370.9473      1629.0527      2370.9473      1629.0527      2370.9473      4.0834428e+08  0.25           18507400       22.880275      3173.4198      12693.639      0.82166742   
  70999800   299.92485     -5.3762273     -56291084       1.6346303      893.12498     -56290191       741.93016      741.93016      741.93016      1629.0349      2370.9651      1629.0349      2370.9651      1629.0349      2370.9651      4.0840314e+08  0.25           18507450       22.896097      3160.0215      12640.141      0.80586687   
  71000000   288.58004      7.7585399     -56291099       1.6349555      859.34207     -56290240       741.88095      741.88095      741.88095      1629.0595      2370.9405      1629.0595      2370.9405      1629.0595      2370.9405      4.0832188e+08  0.25           18507500       22.913819      2821.3969      11285.566      0.79013178   
  71000200   310.44517     -1.865352      -56291118       1.6347172      924.45269     -56290193       741.91701      741.91701      741.91701      1629.0415      2370.9585      1629.0415      2370.9585      1629.0415      2370.9585      4.0838142e+08  0.25           18507550       22.929804      3128.0491      12512.206      0.77433529   
  71000400   299.94627     -2.8318327     -56291134       1.6346938      893.18877     -56290241       741.92054      741.92054      741.92054      1629.0397      2370.9603      1629.0397      2370.9603      1629.0397      2370.9603      4.0838725e+08  0.25           18507600       22.945584      3168.405       12673.54       0.75853181   
  71000600   300.95435      9.7787842     -56291147       1.6350067      896.19067     -56290251       741.87321      741.87321      741.87321      1629.0634      2370.9366      1629.0634      2370.9366      1629.0634      2370.9366      4.0830911e+08  0.25           18507650       22.961439      3153.6718      12614.757      0.74273073   
  71000800   287.22371     -7.0599766     -56291165       1.6345904      855.30316     -56290309       741.93618      741.93618      741.93618      1629.0319      2370.9681      1629.0319      2370.9681      1629.0319      2370.9681      4.0841309e+08  0.25           18507700       22.977309      3150.682       12602.702      0.72693006   
  71001000   312.68991      3.2771381     -56291183       1.6348466      931.13714     -56290252       741.89743      741.89743      741.89743      1629.0513      2370.9487      1629.0513      2370.9487      1629.0513      2370.9487      4.0834909e+08  0.25           18507750       22.99312       3162.2223      12648.885      0.71112751   
  71001200   300.4373       5.1319871     -56291199       1.634893       894.65099     -56290304       741.89041      741.89041      741.89041      1629.0548      2370.9452      1629.0548      2370.9452      1629.0548      2370.9452      4.0833751e+08  0.25           18507800       23.009363      3078.2231      12312.905      0.69533798   
  71001400   299.8305      -5.9083554     -56291214       1.63462        892.84404     -56290321       741.93171      741.93171      741.93171      1629.0341      2370.9659      1629.0341      2370.9659      1629.0341      2370.9659      4.084057e+08   0.25           18507850       23.025355      3126.6857      12506.722      0.6795404    
  71001600   289.55231      6.0897923     -56291230       1.6349177      862.23732     -56290368       741.88667      741.88667      741.88667      1629.0567      2370.9433      1629.0567      2370.9433      1629.0567      2370.9433      4.0833133e+08  0.25           18507900       23.041194      3156.7861      12627.154      0.66373816   
  71001800   313.146        0.39746582    -56291248       1.6347773      932.49532     -56290315       741.90791      741.90791      741.90791      1629.046       2370.954       1629.046       2370.954       1629.046       2370.954       4.083664e+08   0.25           18507950       23.05705       3153.3693      12613.498      0.64793635   
  71002000   294.85996     -2.5713652     -56291264       1.6347047      878.04261     -56290386       741.91889      741.91889      741.91889      1629.0406      2370.9594      1629.0406      2370.9594      1629.0406      2370.9594      4.0838453e+08  0.25           18508000       23.072889      3156.7548      12626.959      0.63213401   
  71002200   304.91564      5.933597      -56291279       1.6349161      907.9867      -56290371       741.88692      741.88692      741.88692      1629.0565      2370.9435      1629.0565      2370.9435      1629.0565      2370.9435      4.0833174e+08  0.25           18508050       23.088656      3171.0633      12684.317      0.6163297    
  71002400   287.20688     -1.3225539     -56291297       1.6347377      855.25304     -56290442       741.91389      741.91389      741.91389      1629.0431      2370.9569      1629.0431      2370.9569      1629.0431      2370.9569      4.0837628e+08  0.25           18508100       23.104375      3180.9607      12723.852      0.60052417   
  71002600   313.0297      -1.2944277     -56291313       1.6347394      932.14899     -56290381       741.91364      741.91364      741.91364      1629.0432      2370.9568      1629.0432      2370.9568      1629.0432      2370.9568      4.0837587e+08  0.25           18508150       23.120573      3086.6819      12346.668      0.5847309    
  71002800   301.25761      5.0687715     -56291330       1.634898       897.09372     -56290433       741.88965      741.88965      741.88965      1629.0552      2370.9448      1629.0552      2370.9448      1629.0552      2370.9448      4.0833625e+08  0.25           18508200       23.136466      3146.1195      12584.514      0.56892955   
  71003000   297.12407      0.60406032    -56291347       1.6347892      884.78475     -56290463       741.90611      741.90611      741.90611      1629.0469      2370.9531      1629.0469      2370.9531      1629.0469      2370.9531      4.0836344e+08  0.25           18508250       23.15221       3175.7632      12702.986      0.55312454   
  71003200   314.203       -2.68436       -56291364       1.6347093      935.64287     -56290428       741.9182       741.9182       741.9182       1629.0409      2370.9591      1629.0409      2370.9591      1629.0409      2370.9591      4.083834e+08   0.25           18508300       23.167932      3180.238       12720.953      0.53731909   
  71003400   295.25043      2.2810066     -56291380       1.6348332      879.20537     -56290501       741.89946      741.89946      741.89946      1629.0503      2370.9497      1629.0503      2370.9497      1629.0503      2370.9497      4.0835244e+08  0.25           18508350       23.183663      3178.5577      12714.328      0.52151394   
  71003600   308.38288      4.4528776     -56291396       1.6348874      918.31155     -56290478       741.89126      741.89126      741.89126      1629.0544      2370.9456      1629.0544      2370.9456      1629.0544      2370.9456      4.083389e+08   0.25           18508400       23.199445      3168.1243      12672.51       0.50571003   
  71003800   290.89063     -0.025859202   -56291413       1.6347775      866.22261     -56290547       741.90787      741.90787      741.90787      1629.0461      2370.9539      1629.0461      2370.9539      1629.0461      2370.9539      4.0836634e+08  0.25           18508450       23.215937      3031.7417      12126.748      0.48992113   
  71004000   309.03748     -2.5063747     -56291429       1.6347164      920.26083     -56290509       741.91712      741.91712      741.91712      1629.0414      2370.9586      1629.0414      2370.9586      1629.0414      2370.9586      4.0838161e+08  0.25           18508500       23.231878      3136.6706      12546.86       0.47412      
  71004200   290.32695      1.8565051     -56291445       1.6348245      864.54408     -56290581       741.90076      741.90076      741.90076      1629.0496      2370.9504      1629.0496      2370.9504      1629.0496      2370.9504      4.083546e+08   0.25           18508550       23.247639      3172.3098      12689.262      0.45831516   
  71004400   308.30645      4.5670991     -56291460       1.6348917      918.08395     -56290542       741.8906       741.8906       741.8906       1629.0547      2370.9453      1629.0547      2370.9453      1629.0547      2370.9453      4.0833781e+08  0.25           18508600       23.263363      3179.8909      12719.571      0.44250967   
  71004600   290.91748     -0.62861255    -56291477       1.6347645      866.30259     -56290611       741.90985      741.90985      741.90985      1629.0451      2370.9549      1629.0451      2370.9549      1629.0451      2370.9549      4.0836961e+08  0.25           18508650       23.279084      3180.4763      12721.894      0.42670423   
  71004800   305.74447     -2.5306887     -56291493       1.6347183      910.45482     -56290582       741.91683      741.91683      741.91683      1629.0416      2370.9584      1629.0416      2370.9584      1629.0416      2370.9584      4.0838113e+08  0.25           18508700       23.294871      3167.02        12668.081      0.41090009   
  71005000   300.16799      4.6309032     -56291508       1.6348964      893.84901     -56290614       741.88989      741.88989      741.88989      1629.0551      2370.9449      1629.0551      2370.9449      1629.0551      2370.9449      4.0833664e+08  0.25           18508750       23.311106      3079.9001      12319.641      0.39510353   
  71005200   296.6312       3.5848381     -56291524       1.6348722      883.31707     -56290641       741.89355      741.89355      741.89355      1629.0532      2370.9468      1629.0532      2370.9468      1629.0532      2370.9468      4.0834269e+08  0.25           18508800       23.327113      3123.6467      12494.463      0.37930269   
  71005400   309.45527     -5.7120295     -56291539       1.6346441      921.50496     -56290617       741.92807      741.92807      741.92807      1629.036       2370.964       1629.036       2370.964       1629.036       2370.964       4.0839969e+08  0.25           18508850       23.34292       3163.0783      12652.418      0.36349846   
  71005600   292.92024      3.0580198     -56291556       1.6348629      872.26644     -56290684       741.89496      741.89496      741.89496      1629.0525      2370.9475      1629.0525      2370.9475      1629.0525      2370.9475      4.0834502e+08  0.25           18508900       23.358678      3173.0839      12692.36       0.34769348   
  71005800   314.11141      7.575161      -56291570       1.6349759      935.37014     -56290635       741.87787      741.87787      741.87787      1629.0611      2370.9389      1629.0611      2370.9389      1629.0611      2370.9389      4.083168e+08   0.25           18508950       23.374494      3161.3416      12645.353      0.3318894    
  71006000   291.20117     -8.2082222     -56291585       1.6345866      867.14735     -56290718       741.93676      741.93676      741.93676      1629.0316      2370.9684      1629.0316      2370.9684      1629.0316      2370.9684      4.0841405e+08  0.25           18509000       23.390345      3154.3674      12617.31       0.31608578   
  71006200   310.51071      4.5010519     -56291604       1.6349017      924.64788     -56290679       741.88909      741.88909      741.88909      1629.0555      2370.9445      1629.0555      2370.9445      1629.0555      2370.9445      4.0833533e+08  0.25           18509050       23.406457      3103.2925      12413.295      0.30028543   
  71006400   290.4077       5.2862295     -56291619       1.6349214      864.78454     -56290754       741.88611      741.88611      741.88611      1629.0569      2370.9431      1629.0569      2370.9431      1629.0569      2370.9431      4.0833041e+08  0.25           18509100       23.422634      3090.6536      12362.642      0.28448547   
  71006600   306.36975     -7.1163414     -56291633       1.6346136      912.31681     -56290721       741.93268      741.93268      741.93268      1629.0337      2370.9663      1629.0337      2370.9663      1629.0337      2370.9663      4.084073e+08   0.25           18509150       23.438461      3159.3139      12637.193      0.26868097   
  71006800   284.72589      8.5219629     -56291649       1.6350013      847.86509     -56290801       741.87403      741.87403      741.87403      1629.063       2370.937       1629.063       2370.937       1629.063       2370.937       4.0831047e+08  0.25           18509200       23.454215      3173.7508      12695.038      0.25287566   
  71007000   303.03907     -1.9840498     -56291667       1.6347408      902.39861     -56290765       741.91343      741.91343      741.91343      1629.0433      2370.9567      1629.0433      2370.9567      1629.0433      2370.9567      4.0837552e+08  0.25           18509250       23.47          3167.5603      12670.241      0.23707073   
  71007200   294.86858      7.6404893     -56299059       1.634988       878.06829     -56298181       741.87604      741.87604      741.87604      1629.062       2370.938       1629.062       2370.938       1629.062       2370.938       4.0831377e+08  0.25           18509300       23.485767      3171.1081      12684.411      0.22126567   
  71007400   305.91959      6.2240797     -56299075       1.6349533      910.97629     -56298164       741.88129      741.88129      741.88129      1629.0594      2370.9406      1629.0594      2370.9406      1629.0594      2370.9406      4.0832244e+08  0.25           18509350       23.50148       3182.0419      12728.21       0.20546017   
  71007600   301.54655     -3.6486505     -56299092       1.6347087      897.95412     -56298194       741.91829      741.91829      741.91829      1629.0409      2370.9591      1629.0409      2370.9591      1629.0409      2370.9591      4.0838354e+08  0.25           18509400       23.517756      3072.1889      12288.762      0.18965934   
  71007800   299.36976      5.0591414     -56299108       1.6349254      891.47202     -56298217       741.8855       741.8855       741.8855       1629.0572      2370.9428      1629.0572      2370.9428      1629.0572      2370.9428      4.083294e+08   0.25           18509450       23.533826      3111.2769      12445.056      0.17385636   
  71008000   304.00812     -2.5195621     -56299125       1.6347373      905.28427     -56298220       741.91396      741.91396      741.91396      1629.043       2370.957       1629.043       2370.957       1629.043       2370.957       4.083764e+08   0.25           18509500       23.549681      3153.5652      12614.281      0.15805157   
  71008200   294.9546       0.8362853     -56299141       1.6348204      878.32443     -56298263       741.90139      741.90139      741.90139      1629.0493      2370.9507      1629.0493      2370.9507      1629.0493      2370.9507      4.0835564e+08  0.25           18509550       23.565357      3189.6809      12758.738      0.14224563   
  71008400   310.03661      0.5312544     -56291780       1.6348033      923.23608     -56290857       741.90397      741.90397      741.90397      1629.048       2370.952       1629.048       2370.952       1629.048       2370.952       4.083599e+08   0.25           18509600       23.581069      3182.2649      12729.07       0.12644006   
  71008600   297.59833      2.3381492     -56291796       1.6348468      886.19702     -56290910       741.89739      741.89739      741.89739      1629.0513      2370.9487      1629.0513      2370.9487      1629.0513      2370.9487      4.0834904e+08  0.25           18509650       23.596866      3165.0932      12660.384      0.11063502   
  71008800   303.75218     -0.19315751    -56291813       1.6347825      904.52214     -56290909       741.90713      741.90713      741.90713      1629.0464      2370.9536      1629.0464      2370.9536      1629.0464      2370.9536      4.0836511e+08  0.25           18509700       23.61315       3070.5211      12282.065      0.094831938  
  71009000   296.60209      2.086577      -56291830       1.6348386      883.23037     -56290947       741.89864      741.89864      741.89864      1629.0507      2370.9493      1629.0507      2370.9493      1629.0507      2370.9493      4.0835109e+08  0.25           18509750       23.629179      3119.3199      12477.264      0.079027363  
  71009200   303.50804     -0.1616172     -56291847       1.6347829      903.79512     -56290943       741.90706      741.90706      741.90706      1629.0465      2370.9535      1629.0465      2370.9535      1629.0465      2370.9535      4.08365e+08    0.25           18509800       23.645025      3155.3087      12621.24       0.063222     
  71009400   278.80592      2.4450773     -56291864       1.6348486      830.23642     -56291033       741.89712      741.89712      741.89712      1629.0514      2370.9486      1629.0514      2370.9486      1629.0514      2370.9486      4.0834858e+08  0.25           18509850       23.660759      3177.8424      12711.328      0.047416357  
  71009600   310.87973     -0.94348004    -56291881       1.6347653      925.74676     -56290955       741.90973      741.90973      741.90973      1629.0451      2370.9549      1629.0451      2370.9549      1629.0451      2370.9549      4.0836941e+08  0.25           18509900       23.676392      3198.406       12793.652      0.031610674  
  71009800   293.31642      3.6299785     -56291898       1.6348802      873.44621     -56291025       741.89235      741.89235      741.89235      1629.0538      2370.9462      1629.0538      2370.9462      1629.0538      2370.9462      4.0834071e+08  0.25           18509950       23.692296      3143.8654      12575.427      0.015805403  
  71010000   312.03702     -2.4697007     -56291916       1.6347295      929.19297     -56290987       741.91514      741.91514      741.91514      1629.0424      2370.9576      1629.0424      2370.9576      1629.0424      2370.9576      4.0837834e+08  0.25           18510000       23.708417      3101.5026      12406.097      0            
Loop time of 23.7085 on 4 procs for 300000 steps with 1000 atoms

Performance: 273.320 ns/day, 0.088 hours/ns, 12653.692 timesteps/s
99.4% CPU use with 4 MPI tasks x 1 OpenMP threads

MPI task timing breakdown:
Section |  min time  |  avg time  |  max time  |%varavg| %total
---------------------------------------------------------------
Pair    | 11.276     | 11.713     | 12.121     |   8.7 | 49.40
Neigh   | 0.005266   | 0.0054447  | 0.005616   |   0.2 |  0.02
Comm    | 6.1436     | 6.4912     | 6.9213     |  10.9 | 27.38
Output  | 0.058206   | 0.077091   | 0.13219    |  11.5 |  0.33
Modify  | 4.5544     | 4.5791     | 4.6147     |   1.2 | 19.31
Other   |            | 0.8428     |            |       |  3.55

Nlocal:            250 ave         260 max         244 min
Histogram: 1 1 0 1 0 0 0 0 0 1
Nghost:          628.5 ave         635 max         621 min
Histogram: 1 0 0 0 0 1 1 0 0 1
Neighs:         1710.5 ave        1766 max        1674 min
Histogram: 1 1 0 0 1 0 0 0 0 1

Total # of neighbors = 6842
Ave neighs/atom = 6.842
Neighbor list builds = 29
Dangerous builds = 0

# run_style
run_style verlet

# write restart
write_restart ${write_res}
write_restart ./pgnpmf/1090/equpmf70.res
System init for write_restart ...
Generated 0 of 1 mixed pair_coeff terms from geometric mixing rule

Total wall time: 0:01:10
