LAMMPS data file, Author: Jerry Qin

1000 atoms
0 bonds
0 angles

2 atom types

-100 4100 xlo xhi
-100 4100 ylo yhi
-100 4100 zlo zhi

Masses

1 221851
2 422051

Atoms

1 1  247.233 210.636 154.466
2 1  571.717 248.017 333.729
3 1  47.823 308.475 348.747
4 1  575.388 335.332 908.929
5 1  81.449 209.093 777.640
6 1  561.109 55.062 748.309
7 1  419.417 407.710 547.967
8 1  798.689 0.187 765.842
9 1  576.240 165.305 542.014
10 1  238.100 245.539 535.532
11 1  168.459 336.159 197.248
12 1  397.940 255.363 762.483
13 1  711.302 329.713 786.093
14 1  2000.000 92.475 226.005
15 1  2000.000 352.847 1574.092
16 1  2099.965 378.073 0.467
17 1  2000.000 463.472 106.410
18 1  2000.508 261.365 53.383
19 1  2739.876 86.299 195.878
20 1  2000.000 1089.091 260.183
21 1  2010.924 246.677 178.400
22 1  2000.000 0.000 1198.472
23 1  2000.000 528.185 379.498
24 1  2000.000 689.974 313.357
25 1  2000.000 708.246 815.932
26 1  31.951 2133.593 880.539
27 1  526.692 2252.369 581.229
28 1  314.607 2250.207 159.202
29 1  416.296 2141.327 696.731
30 1  385.892 2285.905 806.579
31 1  284.015 2204.056 594.690
32 1  392.471 2223.229 381.212
33 1  850.932 2691.328 0.669
34 1  559.358 2191.173 249.785
35 1  0.014 2017.808 482.165
36 1  586.714 2167.533 944.582
37 1  605.346 2319.026 439.869
38 1  519.020 2259.297 109.311
39 1  778.916 235.528 2000.000
40 1  0.000 937.121 2000.000
41 1  1119.958 417.506 2000.000
42 1  867.348 1123.099 2000.000
43 1  663.954 1244.393 2000.000
44 1  450.299 89.349 2000.000
45 1  183.068 0.003 2000.489
46 1  226.297 759.951 2000.000
47 1  197.784 912.047 2000.000
48 1  0.000 574.844 2000.000
49 1  303.643 277.438 2000.000
50 1  925.348 367.561 2000.000
51 1  3315.087 3317.808 146.904
52 1  3487.199 3704.206 385.586
53 1  3731.954 3942.650 625.703
54 1  3335.131 3721.682 83.716
55 1  3511.531 3320.051 347.011
56 1  3582.877 3287.635 550.143
57 1  3565.942 3212.444 296.809
58 1  3388.826 3451.511 543.645
59 1  3232.482 3124.868 61.587
60 1  3147.250 3222.103 98.868
61 1  3343.370 3650.533 596.444
62 1  3775.514 3842.769 690.581
63 1  3921.717 3265.014 320.167
64 1  2844.539 956.717 2722.964
65 1  3148.482 277.646 3128.915
66 1  3303.179 0.038 3033.796
67 1  3038.797 177.160 3482.296
68 1  3373.644 215.478 3189.445
69 1  2841.760 300.827 3456.899
70 1  3124.782 885.935 3491.425
71 1  3169.150 501.319 3217.965
72 1  3243.966 147.742 3242.423
73 1  3384.501 622.634 3313.532
74 1  3380.108 697.280 3020.399
75 1  3251.448 817.066 3426.055
76 1  16.856 2443.569 2855.264
77 1  773.668 2207.926 2234.679
78 1  1058.874 2259.799 2174.050
79 1  535.882 2015.996 2034.647
80 1  881.392 2062.748 2008.287
81 1  134.387 2186.898 2018.621
82 1  151.691 2009.385 2003.918
83 1  1139.844 2001.554 2003.061
84 1  313.107 2081.776 2242.625
85 1  546.444 2398.106 2003.601
86 1  252.890 2120.800 2054.334
87 1  60.147 2295.606 2102.630
88 1  984.796 2000.048 2004.105
89 1  2000.172 2183.255 2000.113
90 1  2183.959 2097.888 2721.820
91 1  2001.469 2203.795 2614.854
92 1  3210.008 2000.730 2849.855
93 1  2438.273 2815.629 2001.029
94 1  2192.576 2000.119 2000.198
95 1  2000.211 2000.113 2739.148
96 1  2948.953 2594.031 2352.918
97 1  2470.985 2000.270 2000.775
98 1  3444.240 3107.998 2044.054
99 1  3157.324 2672.183 2075.835
100 1  2000.265 2000.202 2155.868
101 2  114.972 421.037 33.975
102 2  590.851 0.751 985.178
103 2  4.357 1975.775 928.450
104 2  287.289 503.922 622.955
105 2  622.353 376.311 612.566
106 2  260.421 386.889 1.763
107 2  722.027 484.468 214.762
108 2  665.569 893.467 297.941
109 2  0.081 842.374 0.178
110 2  765.416 166.994 79.444
111 2  171.018 61.295 699.718
112 2  0.089 206.263 677.640
113 2  273.970 971.662 236.881
114 2  974.385 350.218 955.866
115 2  0.075 1240.202 318.792
116 2  1518.836 695.499 704.479
117 2  108.403 0.866 0.021
118 2  591.755 364.707 160.403
119 2  511.249 972.771 1.109
120 2  511.123 310.228 666.226
121 2  19.262 1979.273 118.452
122 2  30.270 99.943 627.700
123 2  303.646 367.827 308.377
124 2  649.730 515.154 372.962
125 2  1158.639 1854.639 47.987
126 2  0.419 1842.967 1983.343
127 2  543.620 814.717 394.092
128 2  18.863 560.847 16.113
129 2  1508.775 411.818 607.617
130 2  191.624 402.079 817.289
131 2  1209.722 5.655 25.246
132 2  329.610 618.980 63.257
133 2  116.533 13.106 304.572
134 2  673.083 262.543 182.498
135 2  1375.404 244.956 671.126
136 2  468.500 668.926 646.107
137 2  1988.602 19.076 1808.093
138 2  97.902 888.541 92.249
139 2  729.700 1998.348 1999.450
140 2  578.631 295.528 768.354
141 2  107.781 1944.533 16.226
142 2  246.301 0.038 0.043
143 2  959.723 802.691 868.099
144 2  935.991 340.521 813.147
145 2  1997.734 10.165 1991.074
146 2  602.686 1398.289 56.781
147 2  422.270 175.645 427.047
148 2  920.420 561.092 582.307
149 2  0.214 0.022 1538.143
150 2  918.913 304.105 464.139
151 2  375.669 467.033 438.646
152 2  656.008 810.488 908.026
153 2  1314.086 666.592 0.961
154 2  829.363 178.174 301.101
155 2  183.483 771.163 16.010
156 2  0.948 0.338 1101.616
157 2  601.887 8.895 289.324
158 2  1520.244 1271.304 0.298
159 2  6.992 7.387 1878.210
160 2  327.361 993.144 891.471
161 2  1.482 1999.999 0.001
162 2  0.342 1324.527 0.242
163 2  465.224 84.528 966.224
164 2  319.140 113.089 198.286
165 2  732.468 42.478 583.675
166 2  1999.788 39.064 0.205
167 2  998.879 997.682 885.470
168 2  0.432 0.081 690.237
169 2  189.575 0.805 802.883
170 2  1994.533 13.984 858.083
171 2  260.145 884.405 147.680
172 2  0.005 402.859 67.038
173 2  447.845 98.028 714.285
174 2  801.738 972.847 29.162
175 2  3.334 28.966 1219.694
176 2  143.067 768.704 735.978
177 2  592.478 1232.814 0.452
178 2  168.590 488.834 953.414
179 2  464.345 789.773 499.790
180 2  322.096 419.971 804.139
181 2  863.095 195.510 696.631
182 2  98.131 814.687 943.994
183 2  668.819 425.712 851.784
184 2  150.665 525.183 89.512
185 2  494.343 43.924 354.885
186 2  158.442 348.781 398.844
187 2  993.345 1627.655 513.524
188 2  1998.047 1999.829 24.151
189 2  314.089 750.494 475.220
190 2  0.327 359.057 611.862
191 2  533.395 437.461 455.776
192 2  906.000 165.616 94.119
193 2  1.775 121.328 1100.346
194 2  1529.918 498.310 2.264
195 2  1983.122 1223.856 1985.218
196 2  377.356 130.827 22.907
197 2  834.152 86.881 632.455
198 2  0.082 444.354 217.122
199 2  1848.484 53.572 0.108
200 2  13.123 707.601 715.201
201 2  1924.997 0.509 133.497
202 2  199.596 15.035 110.667
203 2  0.268 1.890 1998.979
204 2  835.970 732.421 298.634
205 2  540.722 212.645 1097.904
206 2  667.638 868.340 482.557
207 2  294.643 602.088 1079.235
208 2  881.233 802.420 464.734
209 2  404.068 953.766 583.247
210 2  4.312 1202.891 4.378
211 2  577.956 953.501 872.795
212 2  1830.277 1804.828 1085.805
213 2  771.520 1998.184 1885.898
214 2  2589.171 315.667 470.479
215 2  2852.060 0.000 598.079
216 2  2438.190 979.130 792.521
217 2  2505.440 454.146 512.275
218 2  3056.437 569.498 412.689
219 2  2701.545 329.939 925.607
220 2  2687.716 574.421 405.705
221 2  2981.564 697.055 530.925
222 2  2636.439 1017.155 160.998
223 2  2740.158 592.229 971.280
224 2  2424.973 736.370 574.624
225 2  2580.520 582.274 181.637
226 2  2535.857 350.119 591.092
227 2  2580.508 136.690 213.368
228 2  2837.898 523.634 404.695
229 2  2973.638 693.889 177.056
230 2  2909.796 128.748 394.583
231 2  2803.530 896.368 22.316
232 2  3020.135 803.770 132.099
233 2  2850.219 704.314 934.351
234 2  3017.262 623.394 624.387
235 2  3019.784 285.607 375.247
236 2  2993.314 973.953 383.585
237 2  2643.431 901.201 95.031
238 2  2697.619 20.307 545.292
239 2  3215.883 681.857 403.647
240 2  3009.456 240.537 506.010
241 2  2954.089 532.545 689.633
242 2  2447.634 400.214 178.833
243 2  2688.406 883.544 812.049
244 2  2500.428 780.225 490.770
245 2  3208.942 290.904 614.259
246 2  2452.044 536.443 22.302
247 2  3141.992 857.163 675.998
248 2  2861.310 615.870 544.473
249 2  2960.941 511.991 964.133
250 2  2661.874 413.713 465.786
251 2  2580.585 465.841 370.688
252 2  3093.379 1.060 866.390
253 2  2960.858 320.816 207.100
254 2  2974.114 625.003 47.685
255 2  2438.499 315.526 786.629
256 2  2863.748 139.160 607.461
257 2  2828.495 242.757 55.323
258 2  3041.532 820.445 734.767
259 2  3195.605 729.418 87.198
260 2  2782.302 837.829 939.160
261 2  2554.706 929.394 787.780
262 2  2650.020 645.056 842.294
263 2  3064.622 498.822 66.197
264 2  2681.937 272.534 595.444
265 2  2616.589 643.683 695.690
266 2  3067.095 691.972 0.000
267 2  3163.960 538.368 316.614
268 2  3005.622 33.637 958.874
269 2  3155.250 38.621 712.988
270 2  2758.885 533.256 304.515
271 2  2463.970 227.073 345.546
272 2  2972.156 932.416 70.343
273 2  3063.678 385.963 520.871
274 2  2763.654 229.054 866.826
275 2  2847.272 373.721 15.621
276 2  3120.791 295.222 461.959
277 2  3044.319 318.784 955.945
278 2  2479.305 601.030 517.420
279 2  2926.068 821.366 404.536
280 2  2971.058 646.192 307.591
281 2  3181.837 365.389 257.322
282 2  3178.677 376.169 997.090
283 2  3157.059 938.869 25.449
284 2  2887.613 187.168 845.301
285 2  2996.155 876.788 497.408
286 2  2512.713 820.272 857.367
287 2  3206.646 93.618 920.941
288 2  2600.148 581.251 490.216
289 2  3007.333 155.252 623.583
290 2  3093.583 984.911 194.061
291 2  3012.925 120.954 276.705
292 2  2450.185 462.325 752.694
293 2  2524.202 607.571 358.535
294 2  2817.013 645.457 123.126
295 2  2788.158 114.115 77.613
296 2  3158.757 999.559 685.514
297 2  2828.534 452.900 159.053
298 2  3087.405 259.701 835.363
299 2  2806.647 12.111 474.196
300 2  3134.642 654.994 787.317
301 2  2644.993 447.654 584.694
302 2  3202.092 62.569 598.116
303 2  3111.915 276.649 213.994
304 2  2553.330 913.598 519.025
305 2  2677.270 217.627 325.568
306 2  2489.776 47.347 64.757
307 2  2540.796 944.378 347.544
308 2  2804.243 682.432 438.211
309 2  2800.461 294.613 657.459
310 2  2896.779 815.956 285.031
311 2  2885.372 837.724 821.628
312 2  2739.102 707.725 577.378
313 2  2570.168 286.088 964.547
314 2  2839.061 517.578 772.660
315 2  2673.030 36.700 405.020
316 2  3119.083 11.845 486.988
317 2  2973.781 738.773 658.520
318 2  2444.695 965.236 578.774
319 2  2703.298 422.439 337.546
320 2  3208.310 184.669 477.544
321 2  3171.270 144.447 807.634
322 2  2941.949 881.541 980.767
323 2  2514.616 695.903 870.156
324 2  2622.041 1042.873 843.815
325 2  2951.334 629.447 814.958
326 2  905.157 2984.475 139.421
327 2  323.699 3154.244 289.824
328 2  803.710 2651.458 299.668
329 2  111.343 2528.211 229.993
330 2  791.932 3026.464 422.360
331 2  258.762 2497.961 565.305
332 2  266.628 3117.854 181.686
333 2  122.572 2712.304 551.267
334 2  149.270 2665.726 229.093
335 2  392.511 2815.258 941.492
336 2  327.162 3054.142 470.632
337 2  257.313 2698.341 150.799
338 2  82.195 3162.223 598.599
339 2  357.954 2541.020 66.868
340 2  33.770 2934.185 447.854
341 2  456.098 3110.728 430.734
342 2  693.723 2603.558 539.109
343 2  57.906 3051.095 741.813
344 2  491.725 3127.693 0.034
345 2  110.493 3056.567 212.706
346 2  12.618 2421.264 35.817
347 2  914.093 2569.377 570.416
348 2  141.001 2885.701 619.277
349 2  794.686 2592.829 139.329
350 2  876.545 2496.084 163.236
351 2  804.304 2752.467 516.005
352 2  607.287 2638.018 10.544
353 2  308.710 3119.156 8.584
354 2  885.922 3109.937 167.259
355 2  81.085 3128.937 342.923
356 2  560.951 3198.155 194.464
357 2  423.592 2544.702 498.466
358 2  946.465 3158.595 612.000
359 2  101.187 2695.684 962.953
360 2  207.089 2842.070 215.119
361 2  258.535 2570.130 337.233
362 2  938.800 2920.228 438.096
363 2  918.000 2870.438 222.049
364 2  182.723 2406.337 318.172
365 2  498.081 2872.359 0.482
366 2  508.908 3011.092 27.439
367 2  122.756 2582.256 552.070
368 2  863.037 2863.532 598.331
369 2  949.080 2745.141 208.599
370 2  607.696 2408.317 662.607
371 2  873.083 2857.813 968.464
372 2  300.462 2860.586 505.288
373 2  940.728 2616.732 795.544
374 2  594.446 2934.776 88.182
375 2  89.251 2620.017 9.866
376 2  13.005 3218.518 243.533
377 2  690.102 2706.934 190.111
378 2  0.787 2591.239 645.977
379 2  523.036 2583.544 779.547
380 2  776.587 2910.145 469.405
381 2  1068.008 2588.184 271.927
382 2  266.423 2769.780 401.142
383 2  761.487 2848.220 68.582
384 2  270.538 2920.000 319.737
385 2  168.741 3032.995 670.836
386 2  209.913 3103.676 580.802
387 2  403.400 2939.135 528.888
388 2  632.595 2960.211 404.761
389 2  13.723 2450.021 883.748
390 2  834.897 3178.376 310.316
391 2  539.697 2718.941 330.036
392 2  89.345 2958.672 130.979
393 2  413.809 2655.659 917.775
394 2  399.533 2581.714 660.629
395 2  876.313 2694.723 893.199
396 2  317.743 2432.702 410.981
397 2  652.333 2556.614 892.516
398 2  682.314 2422.541 786.853
399 2  316.623 3176.270 430.934
400 2  780.315 2976.643 913.658
401 2  665.211 3044.069 506.397
402 2  514.632 2539.762 952.501
403 2  980.534 2869.187 641.368
404 2  790.718 2912.458 227.234
405 2  692.972 3239.858 234.585
406 2  122.612 2652.061 674.243
407 2  488.949 3253.985 9.920
408 2  92.460 2800.333 182.959
409 2  658.338 2600.150 746.875
410 2  574.646 2581.052 547.912
411 2  89.067 3042.942 517.321
412 2  345.985 2720.935 308.108
413 2  330.753 2764.321 636.229
414 2  3.883 2652.313 791.448
415 2  229.927 2975.993 429.718
416 2  956.437 2980.210 261.637
417 2  240.359 3030.694 966.746
418 2  120.843 2817.795 472.628
419 2  58.287 2709.348 379.963
420 2  719.320 3145.896 596.591
421 2  503.213 3028.729 543.919
422 2  944.589 2976.022 559.755
423 2  485.830 2483.284 595.539
424 2  16.771 2543.756 123.877
425 2  48.275 3221.214 909.508
426 2  821.632 2636.231 421.554
427 2  205.764 2997.116 843.879
428 2  870.867 2795.017 65.223
429 2  403.872 2495.635 839.183
430 2  931.549 3167.727 984.672
431 2  543.695 2817.898 444.775
432 2  301.463 2914.776 728.295
433 2  380.098 2833.908 265.218
434 2  382.700 2987.387 386.070
435 2  1039.903 2491.396 135.267
436 2  841.208 3078.093 592.008
437 2  153.207 2476.181 447.021
438 2  204.773 2634.320 454.631
439 2  148.395 180.860 3187.319
440 2  433.486 924.758 2799.652
441 2  840.401 593.344 2792.176
442 2  338.098 151.853 3166.965
443 2  907.737 262.854 2671.711
444 2  213.208 442.981 2562.077
445 2  68.701 254.336 2753.816
446 2  695.059 745.167 2659.520
447 2  66.842 0.000 2759.613
448 2  180.559 840.035 2463.973
449 2  243.183 172.779 2460.272
450 2  16.059 67.290 2468.802
451 2  300.506 748.779 2577.463
452 2  230.773 434.997 3046.262
453 2  398.504 207.712 2935.399
454 2  112.622 471.510 3333.458
455 2  852.442 172.847 2810.315
456 2  225.194 937.078 2997.329
457 2  138.271 199.076 2867.976
458 2  731.235 429.291 3107.446
459 2  331.566 40.842 2573.304
460 2  481.217 478.009 2924.087
461 2  885.494 38.208 2944.190
462 2  347.286 352.486 2785.352
463 2  470.194 649.683 2751.382
464 2  0.000 791.136 3330.069
465 2  640.538 407.740 3278.224
466 2  797.982 716.058 2819.702
467 2  86.793 817.400 2723.381
468 2  312.429 624.340 2717.998
469 2  67.021 147.396 2967.823
470 2  409.594 59.428 2692.557
471 2  202.280 622.443 3028.680
472 2  828.925 951.667 2666.355
473 2  797.436 959.877 2538.751
474 2  831.474 158.740 2556.114
475 2  429.176 926.325 2607.859
476 2  880.827 935.799 3206.107
477 2  931.560 705.958 3228.770
478 2  181.095 446.060 3184.557
479 2  680.010 30.518 2605.671
480 2  809.632 805.333 3310.085
481 2  934.061 880.526 2688.318
482 2  34.876 917.501 2577.743
483 2  69.550 791.521 2891.134
484 2  857.903 254.004 3239.262
485 2  266.134 40.922 3330.865
486 2  422.555 569.781 3062.671
487 2  588.842 626.514 2759.861
488 2  234.774 257.468 2806.504
489 2  231.487 344.778 2903.316
490 2  688.542 642.995 2865.139
491 2  507.797 315.164 2477.649
492 2  483.363 282.798 2873.774
493 2  865.156 443.737 2388.870
494 2  928.563 544.345 2985.434
495 2  301.947 991.147 3247.949
496 2  701.200 505.664 2541.933
497 2  427.157 0.000 2970.993
498 2  46.924 391.702 2816.494
499 2  6.019 526.695 3293.755
500 2  584.466 231.549 3178.518
501 2  17.887 173.053 2671.432
502 2  4.624 233.134 2474.621
503 2  437.845 780.738 3196.967
504 2  797.057 660.843 2520.810
505 2  222.189 303.295 2582.303
506 2  480.890 460.453 3090.234
507 2  643.814 301.463 3069.347
508 2  51.476 350.437 3180.149
509 2  183.871 696.466 3210.672
510 2  529.756 890.173 3307.218
511 2  553.029 678.461 2636.522
512 2  385.195 351.635 3177.228
513 2  0.000 409.575 2609.284
514 2  619.299 64.676 3121.017
515 2  489.382 527.421 2780.601
516 2  148.878 574.952 3202.440
517 2  273.595 480.861 2855.337
518 2  156.367 0.000 3008.904
519 2  749.002 661.662 3307.415
520 2  617.588 206.799 2677.682
521 2  246.578 841.994 3240.649
522 2  362.384 703.240 2806.135
523 2  236.305 41.198 2795.998
524 2  29.586 194.213 3227.848
525 2  598.920 0.000 3261.511
526 2  572.105 1043.494 3148.187
527 2  232.716 540.293 3112.151
528 2  298.345 990.757 2765.281
529 2  105.337 796.188 3254.383
530 2  741.849 544.305 3026.372
531 2  507.288 929.034 3160.384
532 2  447.407 585.131 2519.424
533 2  514.552 604.773 2947.187
534 2  208.457 801.405 2833.691
535 2  348.061 680.306 2457.716
536 2  22.502 316.608 2974.414
537 2  817.713 580.524 3184.458
538 2  180.832 304.938 2698.751
539 2  656.461 639.659 3028.906
540 2  369.986 467.563 2562.999
541 2  484.344 785.423 2919.970
542 2  470.099 784.618 2734.988
543 2  729.938 0.000 2812.305
544 2  392.199 600.218 3229.098
545 2  0.000 236.166 3080.981
546 2  786.877 37.643 3221.995
547 2  757.506 242.704 2997.771
548 2  120.185 593.989 2907.694
549 2  140.520 920.984 2757.523
550 2  496.899 455.181 2555.150
551 2  3027.355 3149.078 79.774
552 2  2959.322 2644.830 837.813
553 2  2720.234 2651.818 738.813
554 2  2582.537 2412.722 802.731
555 2  2666.351 2686.289 331.896
556 2  2615.754 2724.527 524.778
557 2  3009.562 2803.518 618.048
558 2  2929.634 2713.389 1.546
559 2  2983.122 3005.531 9.130
560 2  2514.290 3044.339 379.095
561 2  2662.116 2562.942 121.109
562 2  2779.464 2638.807 40.093
563 2  2592.182 2543.600 803.620
564 2  2974.051 2448.662 43.441
565 2  2801.428 3162.343 157.604
566 2  2873.154 2646.218 308.704
567 2  3015.024 2771.904 861.320
568 2  2954.057 3173.854 452.211
569 2  2897.295 2584.287 555.927
570 2  3054.510 2517.212 297.300
571 2  3097.375 2546.899 161.630
572 2  2622.221 2476.984 479.554
573 2  3169.881 2750.360 676.130
574 2  3028.323 2432.882 896.289
575 2  3142.642 2555.183 990.289
576 2  3005.129 3098.908 969.872
577 2  3056.399 2503.106 420.875
578 2  3138.688 2914.650 531.499
579 2  3045.554 2670.904 599.849
580 2  2703.926 3082.299 815.062
581 2  2920.778 2451.499 727.219
582 2  2812.858 2620.881 667.047
583 2  2641.661 2909.552 201.982
584 2  2853.626 2832.663 946.284
585 2  2805.729 2556.996 212.377
586 2  3195.151 2783.042 399.973
587 2  3202.386 2885.372 328.256
588 2  2730.098 2788.006 293.437
589 2  2686.411 2654.706 210.894
590 2  2421.965 3053.083 0.000
591 2  3233.114 2556.182 401.505
592 2  2579.733 2615.112 934.939
593 2  2383.393 3078.399 989.544
594 2  3004.637 2960.545 924.072
595 2  2896.516 2762.327 373.181
596 2  3062.498 2871.201 769.147
597 2  3033.823 2625.148 381.200
598 2  2557.140 3033.826 869.833
599 2  2898.339 2791.151 503.412
600 2  2793.910 2484.607 750.877
601 2  3164.169 3050.318 438.796
602 2  2857.097 2561.639 422.397
603 2  2567.406 2849.114 665.985
604 2  3130.281 2993.384 736.464
605 2  3101.694 2978.744 361.909
606 2  2569.269 2417.097 181.191
607 2  2699.791 2901.411 607.692
608 2  2749.946 3098.600 26.668
609 2  2523.331 2893.213 279.323
610 2  3207.222 3115.208 710.400
611 2  2399.225 3098.799 432.784
612 2  3017.344 2925.019 652.238
613 2  3136.025 3065.843 575.611
614 2  2847.338 2402.888 427.491
615 2  2517.409 2947.961 136.559
616 2  2789.504 2874.004 701.588
617 2  2733.356 3032.406 161.103
618 2  2978.244 2842.632 84.188
619 2  2601.540 2987.545 735.090
620 2  2718.356 3106.829 947.039
621 2  2830.452 2792.800 605.624
622 2  3114.262 3216.782 557.039
623 2  3282.992 2920.232 941.608
624 2  3093.661 2657.270 802.466
625 2  2707.684 2647.871 599.929
626 2  2584.166 2750.405 60.946
627 2  2770.920 2461.033 106.122
628 2  2853.826 3018.484 946.115
629 2  3179.772 2424.269 502.217
630 2  2618.548 3172.630 559.143
631 2  2398.990 3217.616 908.984
632 2  2885.753 2378.091 577.185
633 2  3264.184 2697.417 535.133
634 2  2947.701 2718.066 734.442
635 2  2543.195 2579.628 699.001
636 2  2646.971 2917.478 405.965
637 2  3034.364 2629.487 0.000
638 2  2618.128 3017.759 49.891
639 2  3191.492 2407.654 854.534
640 2  3032.864 2835.006 474.575
641 2  3025.269 2512.949 581.693
642 2  3087.577 2505.104 794.199
643 2  2781.232 2864.208 82.282
644 2  2942.751 2477.318 157.622
645 2  3013.311 2608.364 501.385
646 2  2488.338 3100.687 771.078
647 2  2784.277 2922.660 219.743
648 2  2836.275 2900.269 436.020
649 2  2535.315 2424.207 560.324
650 2  2827.798 2319.088 296.353
651 2  2809.941 3165.971 334.045
652 2  2552.537 2696.422 626.000
653 2  2923.370 2897.147 234.130
654 2  2780.085 2684.624 498.795
655 2  2403.627 2512.634 982.489
656 2  2457.624 2924.871 445.361
657 2  3090.943 3142.980 890.606
658 2  2483.739 2657.721 826.655
659 2  2768.952 2974.528 367.352
660 2  2647.064 3114.545 234.757
661 2  2662.460 3197.093 678.682
662 2  2955.992 2437.052 493.287
663 2  2844.150 3136.248 486.186
664 2  2987.287 490.488 2706.979
665 2  2029.464 847.370 2329.833
666 2  2905.001 806.159 3081.793
667 2  2492.385 67.633 2684.532
668 2  2590.569 693.604 3027.072
669 2  2512.674 714.798 2377.751
670 2  2472.938 930.110 2875.169
671 2  2956.809 25.180 3092.493
672 2  2825.142 488.672 2813.565
673 2  2400.029 744.194 2523.989
674 2  2609.117 130.836 2739.463
675 2  2409.721 102.909 3068.887
676 2  2646.968 581.201 2952.580
677 2  2737.146 166.483 2595.430
678 2  2714.275 690.737 2752.914
679 2  2643.408 653.113 2349.425
680 2  2790.807 516.749 2966.359
681 2  2664.830 743.383 2906.132
682 2  2756.082 755.562 2411.403
683 2  2504.348 396.297 2618.370
684 2  2795.187 814.218 2793.748
685 2  3033.822 304.852 2941.043
686 2  2529.657 296.623 2535.976
687 2  2587.173 333.633 2765.613
688 2  2778.091 136.875 2385.306
689 2  2477.749 625.687 2736.481
690 2  3042.072 659.328 2566.969
691 2  2452.646 10.023 2807.582
692 2  2488.088 608.017 2892.504
693 2  2725.058 277.904 3061.209
694 2  2893.136 177.738 3014.649
695 2  2340.022 621.101 2454.346
696 2  2822.536 222.068 2662.679
697 2  2425.643 812.900 2695.320
698 2  2688.607 522.998 2647.087
699 2  3012.096 382.736 3073.292
700 2  2946.427 276.726 2670.708
701 2  2682.677 887.719 2745.177
702 2  2960.428 117.851 2533.992
703 2  2688.582 0.000 3016.730
704 2  2728.027 643.437 2880.005
705 2  2957.288 578.841 2792.126
706 2  2455.851 874.109 2524.078
707 2  3045.081 114.827 2866.577
708 2  3022.866 206.133 2764.247
709 2  2685.357 566.373 2769.402
710 2  3035.171 707.402 2699.230
711 2  2805.522 851.590 2663.632
712 2  2514.353 89.813 2915.180
713 2  2839.403 82.703 2858.893
714 2  2876.856 655.273 2689.225
715 2  3059.750 509.806 3035.226
716 2  2655.728 292.672 2900.201
717 2  2995.466 592.019 2965.313
718 2  2550.403 838.416 2426.877
719 2  3124.603 731.908 2844.226
720 2  2844.864 922.027 3021.010
721 2  2754.550 823.872 2983.897
722 2  2475.824 467.939 2487.261
723 2  2837.334 665.889 2826.762
724 2  2379.024 291.032 3036.995
725 2  2614.370 16.375 2507.186
726 2  2599.852 93.173 3097.780
727 2  2525.644 372.527 3038.021
728 2  2869.805 666.276 2953.761
729 2  2929.013 132.915 2394.340
730 2  2388.978 685.634 2343.913
731 2  2727.981 412.281 2529.310
732 2  2661.473 379.566 2393.550
733 2  2715.464 283.266 2625.427
734 2  2810.577 506.421 2534.825
735 2  3127.479 582.635 2844.070
736 2  3044.702 921.195 2924.936
737 2  2957.711 32.297 2661.284
738 2  2446.737 720.765 2910.271
739 2  2580.059 696.011 2478.780
740 2  2524.641 866.260 2642.136
741 2  2783.123 384.410 2918.206
742 2  2545.523 571.922 2546.348
743 2  2418.453 496.402 2665.067
744 2  3073.408 455.250 2480.633
745 2  2768.322 228.898 2948.143
746 2  3128.521 192.819 2452.872
747 2  2805.507 887.719 2893.990
748 2  2437.348 0.000 2940.916
749 2  2851.589 205.804 2830.057
750 2  3175.370 234.965 2749.962
751 2  2669.917 854.306 2526.383
752 2  2439.738 486.483 2979.083
753 2  2459.775 328.723 2938.140
754 2  2771.566 449.786 2409.873
755 2  2421.814 598.037 2555.218
756 2  2728.509 346.485 2763.422
757 2  2930.264 412.949 2537.714
758 2  2906.856 953.914 2889.602
759 2  3064.708 828.419 2636.818
760 2  2422.970 295.845 2822.747
761 2  3036.581 79.003 2742.345
762 2  2720.640 187.251 2744.053
763 2  2562.426 467.303 2963.394
764 2  2656.991 131.817 2502.617
765 2  2579.631 1003.370 2630.221
766 2  2911.376 159.185 2730.947
767 2  2393.078 272.744 2589.359
768 2  2483.087 16.620 2543.725
769 2  2529.738 235.496 2878.436
770 2  2571.090 864.322 3031.174
771 2  3080.612 372.581 2838.079
772 2  2986.484 452.828 2874.321
773 2  2570.974 782.472 2565.408
774 2  2850.747 504.962 2667.240
775 2  2922.891 0.047 2939.048
776 2  574.751 2457.678 3069.316
777 2  233.810 2712.766 2691.374
778 2  913.218 2467.545 2849.337
779 2  680.455 3033.773 2790.096
780 2  817.673 2636.373 2564.972
781 2  795.200 2556.531 2417.204
782 2  400.484 3170.442 3135.576
783 2  152.824 3109.324 3140.453
784 2  98.723 2841.410 2497.643
785 2  239.158 2609.685 3132.511
786 2  351.518 2515.091 3184.896
787 2  388.144 2467.799 2418.968
788 2  640.359 2554.157 2423.391
789 2  310.399 2623.665 2649.796
790 2  366.865 2927.522 2954.623
791 2  802.291 2673.413 3126.617
792 2  430.369 2727.257 2945.006
793 2  664.878 2619.248 2882.430
794 2  516.207 2677.986 3178.580
795 2  493.276 2884.226 2975.706
796 2  11.472 2693.095 2559.327
797 2  690.879 2747.302 2677.209
798 2  231.605 2396.894 2660.086
799 2  565.418 2690.728 2950.020
800 2  66.349 3096.842 2380.566
801 2  448.842 2826.474 3204.645
802 2  915.086 2517.263 2487.658
803 2  779.978 2814.043 3138.874
804 2  152.154 2868.874 3162.355
805 2  554.470 3018.629 2747.544
806 2  788.524 2615.849 3256.241
807 2  914.157 2542.681 2728.322
808 2  282.201 2643.326 2895.869
809 2  289.725 2879.026 2453.583
810 2  352.288 2810.275 2570.503
811 2  274.518 3139.367 3083.594
812 2  259.166 3009.933 3195.382
813 2  125.277 2357.236 2537.211
814 2  650.550 2694.872 2447.061
815 2  811.436 2849.346 2426.107
816 2  26.795 2814.999 2828.378
817 2  516.048 3152.502 2711.454
818 2  675.562 2648.602 3026.294
819 2  158.785 2975.361 2637.861
820 2  695.112 2980.704 3003.816
821 2  695.650 3165.211 2848.593
822 2  368.638 2664.626 2491.207
823 2  673.781 3151.935 2680.770
824 2  346.786 3196.834 2823.119
825 2  835.241 3147.836 2874.777
826 2  874.647 2771.654 2774.012
827 2  783.024 2782.877 2964.181
828 2  513.478 2786.192 2525.262
829 2  0.000 3115.711 2675.940
830 2  582.653 2426.353 2482.638
831 2  356.137 3042.763 3128.325
832 2  292.178 2450.038 2883.185
833 2  71.630 2481.453 3080.099
834 2  835.754 3008.410 2983.378
835 2  134.010 2743.857 2580.998
836 2  245.137 2886.726 2918.431
837 2  1024.837 2769.307 2867.046
838 2  556.719 2849.434 2675.364
839 2  249.701 3036.959 2553.596
840 2  225.856 2447.918 3178.903
841 2  708.080 2545.605 2528.515
842 2  416.326 2525.559 2892.796
843 2  705.376 2496.908 3000.547
844 2  589.826 3184.656 2580.695
845 2  928.171 2477.247 3140.141
846 2  91.647 2457.696 2697.943
847 2  905.211 2914.712 2776.111
848 2  773.159 3176.761 3152.413
849 2  617.747 2686.637 2568.224
850 2  678.883 2940.794 2427.893
851 2  950.509 3082.705 2445.947
852 2  504.131 2985.648 2323.916
853 2  405.287 2506.823 3066.094
854 2  847.795 3173.967 2628.660
855 2  625.319 2771.019 2856.209
856 2  470.383 2419.047 2571.861
857 2  59.509 2679.452 2673.384
858 2  948.211 2671.529 2680.591
859 2  1.092 2948.732 2598.782
860 2  200.322 3039.719 2919.260
861 2  137.445 2958.810 2778.912
862 2  378.539 2849.831 2847.116
863 2  336.392 3083.420 2729.938
864 2  351.883 2375.855 2638.038
865 2  925.758 3127.331 3158.887
866 2  267.545 2562.075 2409.950
867 2  303.187 2767.824 3119.462
868 2  581.925 2344.011 2952.122
869 2  795.420 2536.568 2803.020
870 2  882.363 2862.550 2883.438
871 2  120.616 2510.712 2813.400
872 2  119.212 2964.684 3002.101
873 2  38.040 2878.764 2701.239
874 2  737.137 2392.731 2531.980
875 2  408.313 2816.951 2705.570
876 2  198.533 2956.255 2426.046
877 2  405.422 3148.305 3002.315
878 2  667.829 3025.412 3124.151
879 2  967.510 2878.159 2617.076
880 2  153.290 2624.348 3021.764
881 2  545.482 2411.672 2784.397
882 2  41.252 3057.998 2839.084
883 2  0.000 2527.895 2628.959
884 2  933.452 2970.550 2546.701
885 2  148.689 3163.263 2699.357
886 2  964.342 3156.193 2754.999
887 2  980.996 2875.798 2465.587
888 2  609.021 2650.803 2760.870
889 2  3200.147 3117.644 3172.925
890 2  2893.927 2441.404 2959.053
891 2  2998.422 2595.859 2775.142
892 2  3125.460 2837.884 2902.020
893 2  2968.143 3016.379 2882.387
894 2  2755.300 2584.892 2718.201
895 2  2869.190 3042.371 2997.229
896 2  2818.356 2683.387 2808.543
897 2  2384.368 2855.766 2609.032
898 2  2772.169 2469.278 2462.685
899 2  2881.155 2468.936 2840.249
900 2  2553.078 2799.215 2998.604
901 2  3241.188 2447.992 2963.203
902 2  2963.239 3156.071 3133.009
903 2  2845.599 3223.113 3173.622
904 2  2684.297 3094.433 3108.974
905 2  2637.899 2841.937 2670.015
906 2  3149.818 2624.928 2911.515
907 2  3273.397 2628.807 2793.359
908 2  2465.420 2945.843 2623.347
909 2  2997.479 3138.626 2512.059
910 2  3101.880 3014.535 3203.910
911 2  2411.166 2593.178 3037.841
912 2  2609.433 2506.788 2826.273
913 2  3102.746 3199.493 3065.323
914 2  2940.293 2909.990 3162.377
915 2  2748.230 3027.046 2878.502
916 2  3052.632 3020.073 2536.766
917 2  2690.684 2691.787 2952.500
918 2  2985.334 2408.604 2581.336
919 2  2798.222 2906.474 3115.622
920 2  2621.392 3012.259 2573.796
921 2  2738.052 2811.282 2985.096
922 2  2468.194 3129.562 2565.890
923 2  3139.933 3210.491 3234.754
924 2  2606.092 2852.439 3094.967
925 2  2957.512 2945.652 2645.683
926 2  2806.128 3135.188 3088.019
927 2  2597.694 3156.965 2405.662
928 2  2638.494 3225.392 2965.359
929 2  3185.754 2929.275 3142.559
930 2  2632.162 2793.835 3252.634
931 2  2626.797 2914.379 3222.368