ITEM: TIMESTEP
0
ITEM: NUMBER OF ATOMS
1000
ITEM: BOX BOUNDS pp pp pp
-1.0000000000000000e+02 4.1000000000000000e+03
-1.0000000000000000e+02 4.1000000000000000e+03
-1.0000000000000000e+02 4.1000000000000000e+03
ITEM: ATOMS type x y z ix iy iz
1 494.338 318.783 266.834 0 0 0
1 403.49 637.25 535.852 0 0 0
1 68.966 642.658 594.37 0 0 0
1 838.939 899.946 212.404 0 0 0
1 747.77 280.98 693.871 0 0 0
1 876.278 365.064 838.121 0 0 0
1 555.184 862.41 543.416 0 0 0
1 513.118 936.558 140.375 0 0 0
1 712.969 696.431 967.563 0 0 0
1 836.325 851.98 680.537 0 0 0
1 109.316 302.048 723.915 0 0 0
1 898.033 168.355 995.335 0 0 0
1 797.094 569.046 433.555 0 0 0
1 2000 225.08 653.664 0 0 0
1 2000 20.427 596.832 0 0 0
1 2000 533.29 570.669 0 0 0
1 2000 868.593 171.569 0 0 0
1 2000 18.69 890.444 0 0 0
1 2000 501.347 697.105 0 0 0
1 2000 524.127 71.184 0 0 0
1 2000 88.626 254.339 0 0 0
1 2000 398.871 272.836 0 0 0
1 2000 195.445 966.727 0 0 0
1 2000 236.621 371.373 0 0 0
1 2000 602.02 436.514 0 0 0
1 288.379 3898.53 318.727 0 0 0
1 426.864 3403.89 322.559 0 0 0
1 40.937 3647.66 321.955 0 0 0
1 741.034 3676.75 38.464 0 0 0
1 396.128 2936.9 279.546 0 0 0
1 504.055 3247.65 675.063 0 0 0
1 236.652 3629.3 584.191 0 0 0
1 513.224 3627.61 306.169 0 0 0
1 831.873 3295.7 34.89 0 0 0
1 158.932 3970.25 125.74 0 0 0
1 380.326 3081.81 497.706 0 0 0
1 180.923 3285.46 333.355 0 0 0
1 60.012 3974.15 53.627 0 0 0
1 508.532 416.756 2080.56 0 0 0
1 484.446 731.209 2111.94 0 0 0
1 709.201 291.763 2066.55 0 0 0
1 441.934 571.865 2061.13 0 0 0
1 134.836 678.063 2055.43 0 0 0
1 835.584 407.769 2073.72 0 0 0
1 40.338 483.995 2055.59 0 0 0
1 429.917 0 2031.72 0 0 0
1 51.693 149.643 2113.61 0 0 0
1 670.988 80.51 2070.46 0 0 0
1 309.801 0 2000 0 0 0
1 995.852 2000 4000 0 0 0
1 2063.43 2353.66 173.511 0 0 0
1 2200.15 3094.69 1880.37 0 0 0
1 2056.34 2000 138.534 0 0 0
1 2000.27 2325.87 1784.33 0 0 0
1 2035.7 2000.06 821.834 0 0 0
1 2120.62 2000.03 35.975 0 0 0
1 3048.42 2000.08 492.538 0 0 0
1 2002 2000.89 247.122 0 0 0
1 2004.95 2000.11 704.387 0 0 0
1 2003.44 2000.16 478.87 0 0 0
1 2058.28 2001.77 595.628 0 0 0
1 2045.41 2002.04 360.372 0 0 0
1 2001.06 2000.12 939.224 0 0 0
1 3679.07 560.068 3048.27 0 0 0
1 3762.44 651.107 3029.85 0 0 0
1 3519.5 573.591 3714.27 0 0 0
1 3215.38 304.567 3361 0 0 0
1 3658.92 629.491 2856.06 0 0 0
1 3222.1 639.348 2882.14 0 0 0
1 3579.61 376.515 3188.15 0 0 0
1 3299.56 526.303 3800.63 0 0 0
1 3511.03 262.093 3594.02 0 0 0
1 3382.92 352.556 3612.37 0 0 0
1 3331.14 197.473 3294.74 0 0 0
1 3614.47 106.116 3714.06 0 0 0
1 1594.03 2000 2000 0 0 0
1 0 2074.86 2000 0 0 0
1 30.543 2322.51 2000 0 0 0
1 931.125 2271.34 2059.34 0 0 0
1 1079.27 2004.18 2071.7 0 0 0
1 522.583 2243.88 2000 0 0 0
1 68.092 2000 2134.93 0 0 0
1 1358.69 2064.23 2000 0 0 0
1 219.744 2000 2160.03 0 0 0
1 0 2218.35 2155.59 0 0 0
1 354.721 2000 2175.86 0 0 0
1 576.213 2000 2000 0 0 0
1 366.09 2000 2008.75 0 0 0
1 2540.02 2640.54 2136.73 0 0 0
1 2132.41 2196.34 2877.47 0 0 0
1 2023.52 2095.51 2161.3 0 0 0
1 2561.03 2119.11 2026.59 0 0 0
1 2178.55 2028.08 2273.38 0 0 0
1 2145.2 2172.42 2003.77 0 0 0
1 2240.14 2486.92 2000.11 0 0 0
1 2567.67 2100.54 2315.34 0 0 0
1 2052.58 2650.73 2046.52 0 0 0
1 2159.24 2645.96 2869.84 0 0 0
1 2115.53 2046.58 2027.3 0 0 0
1 2621.32 2846.79 2142.53 0 0 0
2 846.056 795.287 18.394 0 0 0
2 915.399 530.505 928.076 0 0 0
2 752.096 831.734 428.798 0 0 0
2 782.466 540.302 700.815 0 0 0
2 875.205 436.671 7.33 0 0 0
2 654.005 722.316 536.013 0 0 0
2 279.966 373.82 874.693 0 0 0
2 557.307 926.857 758.179 0 0 0
2 359.265 344.552 625.044 0 0 0
2 771.268 432.815 411.114 0 0 0
2 449.275 677.029 900.313 0 0 0
2 654.512 11.863 288.347 0 0 0
2 198.326 87.986 654.544 0 0 0
2 288.637 947.772 687.176 0 0 0
2 5.136 907.988 288.741 0 0 0
2 505.914 711.007 340.629 0 0 0
2 424.907 924.622 816.012 0 0 0
2 298.444 490.391 0 0 0 0
2 157.124 52.918 815.337 0 0 0
2 417.526 404.719 226.437 0 0 0
2 128.964 268.635 845.251 0 0 0
2 883.832 382.082 628.817 0 0 0
2 326.939 647.789 742.042 0 0 0
2 603.256 345.688 862.004 0 0 0
2 714.033 153.794 897.645 0 0 0
2 935.926 863.47 578.885 0 0 0
2 435.097 6.503 932.099 0 0 0
2 589.064 284.908 598.205 0 0 0
2 532.322 475.464 854.868 0 0 0
2 307.027 765.171 880.525 0 0 0
2 61.354 556.899 418.158 0 0 0
2 321.922 755.459 132.229 0 0 0
2 38.505 958.891 803.709 0 0 0
2 405.85 318.757 445.713 0 0 0
2 286.878 857.72 305.826 0 0 0
2 681.048 711.194 191.26 0 0 0
2 663.934 0 155.542 0 0 0
2 88.212 167.91 619.671 0 0 0
2 618.683 808.966 345.279 0 0 0
2 6.201 75.834 807.66 0 0 0
2 128.095 784.173 156.149 0 0 0
2 111.028 421.71 0 0 0 0
2 368.134 205.225 612.755 0 0 0
2 819.137 255.324 330.907 0 0 0
2 959.058 690.911 913.633 0 0 0
2 410.713 948.442 35.184 0 0 0
2 511.94 151.33 810.286 0 0 0
2 515.218 563.86 298.687 0 0 0
2 168.469 25.332 963.978 0 0 0
2 863.763 287.829 935.843 0 0 0
2 936.762 964.137 377.39 0 0 0
2 492.261 734.962 57.693 0 0 0
2 281.385 882.973 1133.33 0 0 0
2 542.257 430.848 390.862 0 0 0
2 723.773 833.638 175.922 0 0 0
2 415.556 19.658 297.485 0 0 0
2 50.531 609.126 0 0 0 0
2 843.276 438.188 509.028 0 0 0
2 88.001 300.525 239.446 0 0 0
2 41.635 742.634 386.275 0 0 0
2 380.819 312.546 321.723 0 0 0
2 491.778 754.447 203.417 0 0 0
2 278.4 496.752 367.858 0 0 0
2 302.275 690.644 30.394 0 0 0
2 256.165 710.226 1011.58 0 0 0
2 273.853 345.832 239.692 0 0 0
2 183.547 684.063 472.822 0 0 0
2 777.867 783.94 566.938 0 0 0
2 137.285 992.118 482.437 0 0 0
2 653.981 0 863.088 0 0 0
2 282.74 789.676 422.283 0 0 0
2 312.176 25.954 808.247 0 0 0
2 81.893 525.689 755.408 0 0 0
2 915.311 849.28 786.876 0 0 0
2 955.611 881.95 920.147 0 0 0
2 666.842 172.82 247.034 0 0 0
2 812.923 769.348 991.093 0 0 0
2 472.767 819.575 852.429 0 0 0
2 873.715 141.95 728.98 0 0 0
2 967.886 763.504 387.56 0 0 0
2 268.264 500.597 199.017 0 0 0
2 130.601 395.396 613.016 0 0 0
2 58.581 535.392 125.442 0 0 0
2 864.151 270.392 69.401 0 0 0
2 192.775 618.504 223.03 0 0 0
2 779.208 640.53 96.365 0 0 0
2 193.261 872.02 949.333 0 0 0
2 655.458 371.939 266.015 0 0 0
2 44.232 382.764 149.079 0 0 0
2 200.946 294.059 359.394 0 0 0
2 499.851 151.755 180.818 0 0 0
2 770.354 143.601 426.429 0 0 0
2 178.781 1046.87 898.96 0 0 0
2 594.038 820.241 929.63 0 0 0
2 196.044 581.764 617.315 0 0 0
2 708.736 973.619 257.265 0 0 0
2 775.614 865.265 811.884 0 0 0
2 4.393 89.287 953.629 0 0 0
2 768.606 202.597 5.48 0 0 0
2 758.507 493.703 116.127 0 0 0
2 500.236 440.356 692.838 0 0 0
2 710.601 178.124 611.23 0 0 0
2 863.313 376.405 180.58 0 0 0
2 567.152 608.347 664.717 0 0 0
2 360.977 116.874 885.375 0 0 0
2 546.391 361.199 9.503 0 0 0
2 142.728 926.887 45.561 0 0 0
2 327.841 394.373 84.865 0 0 0
2 451.954 554.425 805.85 0 0 0
2 574.155 792.212 781.938 0 0 0
2 88.017 677.97 756.226 0 0 0
2 804.31 14.037 922.328 0 0 0
2 814.872 738.377 272.24 0 0 0
2 3171.14 762.025 608.07 0 0 0
2 2887.03 401.756 740.338 0 0 0
2 3274.54 60.176 15.527 0 0 0
2 3091.51 857.417 181.059 0 0 0
2 3058.41 636.596 82.446 0 0 0
2 3020.03 472.445 174.321 0 0 0
2 2530.13 687.502 0 0 0 0
2 2546.1 420.889 882.531 0 0 0
2 2956.38 474.564 9.003 0 0 0
2 2641.45 914.19 758.692 0 0 0
2 2653.5 264.026 52.911 0 0 0
2 2896.66 793.829 246.859 0 0 0
2 2826.96 925.618 250.586 0 0 0
2 2810.99 720.995 296.398 0 0 0
2 2886.9 59.061 303.534 0 0 0
2 2668.26 215.824 734.338 0 0 0
2 2452.93 847.979 50.252 0 0 0
2 3141.75 636.906 361.68 0 0 0
2 3132.37 835.261 29.137 0 0 0
2 2904.95 389.798 258.642 0 0 0
2 2795.87 756.138 442.304 0 0 0
2 3205.6 0 243.051 0 0 0
2 2946.15 659.44 164.604 0 0 0
2 2693.36 561.247 852.327 0 0 0
2 2539.65 778.844 143.226 0 0 0
2 3065.28 705.37 651.953 0 0 0
2 2770.95 496.655 381.585 0 0 0
2 3241.54 921.574 502.246 0 0 0
2 2753.87 289.481 261.036 0 0 0
2 2697.77 317.803 915.757 0 0 0
2 2897.14 53.271 753.597 0 0 0
2 3159.74 548.855 598.495 0 0 0
2 3102.11 467.911 292.216 0 0 0
2 3053.6 711.888 439.461 0 0 0
2 2776.56 705.355 5.489 0 0 0
2 2477.72 304.009 147.362 0 0 0
2 2333.61 681.875 845.674 0 0 0
2 3120.12 827.913 519.342 0 0 0
2 3275.56 321.169 272.485 0 0 0
2 2529.83 171.577 358.955 0 0 0
2 2442.95 183.647 156.164 0 0 0
2 2597.99 877.657 189.359 0 0 0
2 3318.43 517.481 781.058 0 0 0
2 2630.9 614.3 140.781 0 0 0
2 2863.39 597.675 291.351 0 0 0
2 3005.33 992.968 318.093 0 0 0
2 2652.6 487.242 765.594 0 0 0
2 2585.32 928.168 557.234 0 0 0
2 2672.62 454.125 287.736 0 0 0
2 2580.07 678.039 648.212 0 0 0
2 2495.97 582.524 750.615 0 0 0
2 3174.03 620.282 762.375 0 0 0
2 3068.32 89.863 556.179 0 0 0
2 2766.04 459.286 647.686 0 0 0
2 3174.06 223.223 512.286 0 0 0
2 2641.95 615.446 754.038 0 0 0
2 2816.08 175.308 858.901 0 0 0
2 2696.71 275.037 623.446 0 0 0
2 2929.97 813.301 708.45 0 0 0
2 3265.95 733.877 865.245 0 0 0
2 2497.82 960.162 854.867 0 0 0
2 3191.63 211.497 950.314 0 0 0
2 2665.79 332.764 152.386 0 0 0
2 2978.53 280.974 537.825 0 0 0
2 3275.91 951.169 66.297 0 0 0
2 2621.43 90.979 185.089 0 0 0
2 2678.17 972.522 333.959 0 0 0
2 3135.45 0 507.565 0 0 0
2 2772.39 472.798 892.993 0 0 0
2 3130.61 134.147 198.332 0 0 0
2 3253.9 552.096 677.137 0 0 0
2 2647.47 1.534 289.467 0 0 0
2 2494.49 510.404 413.954 0 0 0
2 2729.76 792.714 800.03 0 0 0
2 2574.57 262.379 855.276 0 0 0
2 2562.36 204.081 136.204 0 0 0
2 2648 45.794 725.797 0 0 0
2 2670.54 78.071 73.063 0 0 0
2 3004.58 23.588 843.521 0 0 0
2 3168.61 723.106 213.332 0 0 0
2 2807.3 100.826 162.438 0 0 0
2 2697.22 879.968 481.949 0 0 0
2 2651.1 200.48 469.081 0 0 0
2 3035.19 554.583 852.199 0 0 0
2 2962.16 205.698 886.094 0 0 0
2 2444.79 228.927 288.485 0 0 0
2 2393.64 1038.89 576.253 0 0 0
2 2341.65 59.21 374.431 0 0 0
2 2441.86 227.748 556.742 0 0 0
2 2451.95 80.798 676.208 0 0 0
2 2518.57 407.346 542.119 0 0 0
2 3229.58 130.045 456.522 0 0 0
2 2791.46 22.889 848.937 0 0 0
2 2484.77 930.431 211.073 0 0 0
2 2481.66 350.023 369.832 0 0 0
2 2825.66 295.861 490.178 0 0 0
2 3224.35 287.417 793.993 0 0 0
2 2957.2 815.608 62.105 0 0 0
2 2876.08 281.217 639.666 0 0 0
2 2692.31 630.175 464.714 0 0 0
2 2511.09 313.887 721.589 0 0 0
2 2486.23 703.721 436.838 0 0 0
2 2815.79 843.601 894.995 0 0 0
2 2606.39 788.538 792.413 0 0 0
2 2994.09 543.116 379.241 0 0 0
2 2800.36 76.047 390.908 0 0 0
2 2843.85 233.995 756.419 0 0 0
2 2931.65 50.635 47.605 0 0 0
2 3056.83 150.337 999.097 0 0 0
2 2753.84 782.867 127.738 0 0 0
2 2757.58 691.899 642.154 0 0 0
2 2892.55 219.232 394.547 0 0 0
2 1.445 2444.96 478.102 0 0 0
2 119.74 2642.1 670.753 0 0 0
2 34.14 3087.59 899.623 0 0 0
2 290.507 2943.35 437.189 0 0 0
2 969.535 2646.45 772.73 0 0 0
2 648.051 2507.64 867.95 0 0 0
2 120.788 3107.78 0.018 0 0 0
2 786.731 3093.66 651.447 0 0 0
2 590.134 3164.34 253.328 0 0 0
2 358.155 2734.94 674.802 0 0 0
2 848.787 2999.19 696.164 0 0 0
2 416.866 2922.71 59.036 0 0 0
2 872.453 2713.57 867.778 0 0 0
2 181.192 2552.01 586.953 0 0 0
2 556.624 2979.01 658.575 0 0 0
2 304.069 2848.16 148.442 0 0 0
2 941.034 2444.47 221.44 0 0 0
2 92.744 2771.3 719.888 0 0 0
2 612.641 2443.57 526.043 0 0 0
2 178.436 2878.99 757.833 0 0 0
2 495.216 2572.55 495.679 0 0 0
2 758.164 2668.76 704.425 0 0 0
2 819.329 3030.2 157.489 0 0 0
2 740.644 2988.51 926.14 0 0 0
2 207.094 2481.11 486.165 0 0 0
2 220.486 2904.31 221.736 0 0 0
2 774.95 2987.42 289.304 0 0 0
2 489.193 2636.33 797.128 0 0 0
2 351.453 2495.77 548.285 0 0 0
2 961.389 3000.94 240.809 0 0 0
2 920.319 3117.69 607.584 0 0 0
2 157.859 2919.04 497.191 0 0 0
2 394.228 2494.1 932.982 0 0 0
2 57.505 2572.16 447.992 0 0 0
2 250.308 3111.11 477.875 0 0 0
2 968.713 2685.98 66.711 0 0 0
2 729.696 3115.2 936.286 0 0 0
2 615.91 2924.58 288.183 0 0 0
2 483.255 2428.21 600.939 0 0 0
2 708.994 2531.55 637.013 0 0 0
2 47.181 2974.52 968.168 0 0 0
2 630.685 3040.58 13.258 0 0 0
2 828.989 2485.76 368.382 0 0 0
2 101.599 2890.3 103.299 0 0 0
2 684.368 2798.81 588.104 0 0 0
2 238.249 2649.16 154.525 0 0 0
2 365.859 2577.15 381.564 0 0 0
2 908.959 2933.35 553.487 0 0 0
2 288.231 2639.58 638.986 0 0 0
2 547.515 2671.2 604.135 0 0 0
2 218.405 2703.72 766.067 0 0 0
2 437.53 3166.6 41.005 0 0 0
2 725.005 3063.24 435.013 0 0 0
2 499.711 2858.75 955.355 0 0 0
2 433.752 2567.66 669.939 0 0 0
2 882.199 2563.54 127.944 0 0 0
2 503.988 3073.39 1.09 0 0 0
2 838.289 2811.76 543.26 0 0 0
2 258.346 2580.83 751.806 0 0 0
2 986.051 2853.22 925.356 0 0 0
2 722.394 2662.7 959.488 0 0 0
2 474.815 2958.81 492.606 0 0 0
2 55.967 2850.8 981.106 0 0 0
2 452.734 3192.63 769.879 0 0 0
2 417.279 2861.86 607.639 0 0 0
2 141.808 3132.72 400.005 0 0 0
2 840.005 2802.53 945.873 0 0 0
2 487.891 3079.4 266.149 0 0 0
2 291.153 2828.84 15.286 0 0 0
2 772.541 2593.73 454.844 0 0 0
2 328.687 3004.01 941.096 0 0 0
2 282.587 2884.91 329.043 0 0 0
2 774.902 2780.76 126.193 0 0 0
2 698.534 2405.51 660.282 0 0 0
2 372.956 3046.56 187.804 0 0 0
2 506.175 2940.91 360.842 0 0 0
2 584.009 2710.1 952.79 0 0 0
2 102.413 2378.06 485.1 0 0 0
2 63.798 2469.76 579.053 0 0 0
2 976.522 2789.29 596.892 0 0 0
2 1016.26 3037.84 726.439 0 0 0
2 32.097 3112.99 305.183 0 0 0
2 88.639 2940.52 358.357 0 0 0
2 822.399 2673.17 167.71 0 0 0
2 865.785 2736.26 671.027 0 0 0
2 858.1 2533.01 3.033 0 0 0
2 75.496 2736.35 927.048 0 0 0
2 161.64 2706.27 389.16 0 0 0
2 884.189 2924.69 933.461 0 0 0
2 249.436 2439.91 663.323 0 0 0
2 483.37 3057.58 602.388 0 0 0
2 70.13 2687.06 243.757 0 0 0
2 694.07 2899.82 189.719 0 0 0
2 260.073 2950.87 816.883 0 0 0
2 163.45 2960.21 7.947 0 0 0
2 41.736 2779.77 356.665 0 0 0
2 53.255 2835.28 845.884 0 0 0
2 44.397 2523.32 891.72 0 0 0
2 448.94 3073.4 984.877 0 0 0
2 966.851 2778.6 332.348 0 0 0
2 650.317 2866.22 402.348 0 0 0
2 125.077 2989.38 236.481 0 0 0
2 923.257 2833.59 224.384 0 0 0
2 574.488 2563.41 716.039 0 0 0
2 943.298 2429.21 927.65 0 0 0
2 416.861 2773.28 196.231 0 0 0
2 791.33 2563.96 804.068 0 0 0
2 228.863 2657.15 280.765 0 0 0
2 0.006 2902.42 220.907 0 0 0
2 910.457 2504.99 491.97 0 0 0
2 499.38 3059.77 858.728 0 0 0
2 609.594 3152.99 125.151 0 0 0
2 638.385 2803.87 875.756 0 0 0
2 6.225 1887.21 3240.23 0 0 0
2 710.529 141.527 3018.4 0 0 0
2 483.152 403.634 2705.33 0 0 0
2 5.857 1086.38 3113.03 0 0 0
2 601.377 192.721 3991.55 0 0 0
2 437.002 49.502 2954.72 0 0 0
2 629.156 458.1 2885.33 0 0 0
2 834.781 375.977 2805.29 0 0 0
2 207.939 808.964 2881.93 0 0 0
2 293.66 594.183 2951.22 0 0 0
2 468.619 703.763 2581.85 0 0 0
2 68.935 19.736 3039.14 0 0 0
2 816.268 510.21 2514.11 0 0 0
2 69.796 777.882 2545.51 0 0 0
2 0.204 167.299 2790.15 0 0 0
2 524.024 785.455 2449.24 0 0 0
2 127.961 633.662 2922.65 0 0 0
2 819.616 849.621 2949.19 0 0 0
2 87.489 51.786 2693.18 0 0 0
2 616.224 607.89 2684.34 0 0 0
2 308.813 424.82 2471.78 0 0 0
2 487.292 458.497 2460.94 0 0 0
2 1122.39 1019.98 2007.74 0 0 0
2 181.078 461.326 3103.75 0 0 0
2 355.759 738.38 2663.98 0 0 0
2 268.524 837.835 2680.47 0 0 0
2 363.911 464.115 2815.62 0 0 0
2 778.948 930.62 2763.66 0 0 0
2 352.161 304.062 3114.46 0 0 0
2 823.88 966.722 2870.58 0 0 0
2 1834.28 6.213 2002.52 0 0 0
2 1009.56 346.877 2850.51 0 0 0
2 358.651 956.187 2495.7 0 0 0
2 403.883 357.226 2572.02 0 0 0
2 659.825 231.744 3156.87 0 0 0
2 966.787 830.664 2695.85 0 0 0
2 551.834 978.943 2774.43 0 0 0
2 386.295 536.882 2420.34 0 0 0
2 670.28 577.002 2575.28 0 0 0
2 845.594 9.871 2452.65 0 0 0
2 603.25 375.799 2660.91 0 0 0
2 562.49 326.83 2935.74 0 0 0
2 507.909 262.117 2438.1 0 0 0
2 498.947 796.567 3897.35 0 0 0
2 833.491 721.413 2817.16 0 0 0
2 250.487 736.39 3102.64 0 0 0
2 991.041 522.498 2300.32 0 0 0
2 36.341 306.617 3090.49 0 0 0
2 923.897 944.259 2606.22 0 0 0
2 64.71 421.225 2381.74 0 0 0
2 131.678 754.252 2774.86 0 0 0
2 23.335 959.345 2407.69 0 0 0
2 110.289 409.847 2564.57 0 0 0
2 930.486 447.297 2668.87 0 0 0
2 831.692 236.246 2717.11 0 0 0
2 1597.46 3.403 2070.53 0 0 0
2 511.448 961.531 3130.47 0 0 0
2 592.155 385.604 2427.86 0 0 0
2 230.71 386.059 2722.66 0 0 0
2 982.284 662.798 2823.7 0 0 0
2 0.235 783.18 2644.41 0 0 0
2 541.198 587.797 2931.53 0 0 0
2 651.229 789.382 3045.67 0 0 0
2 423.637 183.732 2475.73 0 0 0
2 110.862 499.734 2721.16 0 0 0
2 966.796 434.694 2456.93 0 0 0
2 659.489 50.086 2427.62 0 0 0
2 701.502 400.371 2791.28 0 0 0
2 611.07 553.059 3025.32 0 0 0
2 609.682 186.059 2475.39 0 0 0
2 793.519 987.395 2412.62 0 0 0
2 661.074 900.462 3104.53 0 0 0
2 335.788 344.651 2858.92 0 0 0
2 140.565 867.26 3176.59 0 0 0
2 717.12 603.709 3182.83 0 0 0
2 433.942 919.448 2755.27 0 0 0
2 769.113 706.429 3095.85 0 0 0
2 518.139 84.135 2728.02 0 0 0
2 121.671 1053.95 2551.01 0 0 0
2 292.652 220.435 2702.11 0 0 0
2 54.397 227.182 2912.25 0 0 0
2 303.874 93.765 2719.22 0 0 0
2 67.136 57.25 2545.24 0 0 0
2 136.531 904.152 2613.85 0 0 0
2 977.289 860.516 2845.9 0 0 0
2 353.553 672.824 2479.99 0 0 0
2 294.874 588.912 2717.15 0 0 0
2 641.697 143.194 2606.44 0 0 0
2 382.38 511.739 2949.68 0 0 0
2 146.592 197.948 3039.17 0 0 0
2 455.085 858.394 2621.42 0 0 0
2 630.137 361.633 3245.63 0 0 0
2 199.729 394.68 2916.98 0 0 0
2 318.78 835.683 2554.04 0 0 0
2 418.069 776.008 3169.26 0 0 0
2 17.556 976.572 3994.53 0 0 0
2 1.155 1208.87 2600.79 0 0 0
2 112.285 770.291 3055.32 0 0 0
2 5.556 389.019 2906.86 0 0 0
2 291.888 259.787 2531.96 0 0 0
2 476.815 502.569 2776.83 0 0 0
2 975.633 285.899 2997.28 0 0 0
2 844.652 357.467 2440.17 0 0 0
2 460.31 694.891 3086.8 0 0 0
2 630.408 166.015 2827.85 0 0 0
2 1320.94 758.242 2395.77 0 0 0
2 244.585 0.082 2780.45 0 0 0
2 899.436 146.234 2410.03 0 0 0
2 617.393 414.067 3114.78 0 0 0
2 587.758 32.49 2994.69 0 0 0
2 267.036 0.244 2540.41 0 0 0
2 933.798 456.466 3112.36 0 0 0
2 2911.52 2518.99 635.2 0 0 0
2 2667.38 2810.45 918.975 0 0 0
2 3002.62 2454.06 492.182 0 0 0
2 2374.82 2596.98 570.037 0 0 0
2 2696.63 2968.05 401.752 0 0 0
2 3077.64 2497.03 746.08 0 0 0
2 2925.36 2867.35 908.879 0 0 0
2 2848.3 2956.49 635.134 0 0 0
2 3013.98 2406.89 617.734 0 0 0
2 3044.73 3030.63 483.986 0 0 0
2 2852.76 2466.57 48.853 0 0 0
2 2872.48 2540.5 474.229 0 0 0
2 2420.86 2358.92 477.853 0 0 0
2 3033.19 2526.25 629.148 0 0 0
2 2770.2 2407.57 481.088 0 0 0
2 2625.64 2960.61 939.641 0 0 0
2 2603.35 2550.86 415.056 0 0 0
2 2546.79 2803.67 140.788 0 0 0
2 2808.89 2560.61 703.345 0 0 0
2 2770.5 2762.77 554.818 0 0 0
2 2989.74 2677.81 82.392 0 0 0
2 2652.22 2602.99 912.885 0 0 0
2 3059.82 2717.86 707.388 0 0 0
2 2861.74 2438.61 555.87 0 0 0
2 2912.53 2618.52 155.78 0 0 0
2 2411.66 2500.72 414.386 0 0 0
2 2913.59 2872.1 523.443 0 0 0
2 2713.99 2560.22 566.743 0 0 0
2 2855.43 2772.14 195.8 0 0 0
2 2787.75 2375.99 334.199 0 0 0
2 2616.79 2333.69 785.697 0 0 0
2 2758.12 2907.44 916.845 0 0 0
2 2410.09 2613.05 918.156 0 0 0
2 2466.71 3139.77 682.944 0 0 0
2 3027.68 2460.01 370.805 0 0 0
2 2588.99 2724.11 838.595 0 0 0
2 3047.68 3038.25 358.453 0 0 0
2 2826.31 3058.5 953.094 0 0 0
2 2455.18 3005.1 78.335 0 0 0
2 2407.59 2885.22 264.824 0 0 0
2 2432.57 2635.64 764.443 0 0 0
2 2445.01 2425.35 41.233 0 0 0
2 2908.71 2980.91 855.717 0 0 0
2 2654 2697.98 319.413 0 0 0
2 2461.63 3002.31 251.332 0 0 0
2 2464.65 2515.36 303.077 0 0 0
2 2707.77 2896.32 625.147 0 0 0
2 3035.79 2992.45 22.428 0 0 0
2 2773.05 2449.88 138.452 0 0 0
2 2764.46 3093.72 610.487 0 0 0
2 2354.63 2908.22 981.597 0 0 0
2 2792.41 2919.09 155.686 0 0 0
2 2535.13 2947.83 155.509 0 0 0
2 2300.82 2773.84 904.151 0 0 0
2 2851.01 2738.2 412.551 0 0 0
2 2810.35 2865.82 413.441 0 0 0
2 2985.74 2524.03 944.038 0 0 0
2 2895.69 2372.2 654.911 0 0 0
2 2678.78 2913.79 49.773 0 0 0
2 2726.43 2473.5 786.078 0 0 0
2 3011.63 2510.68 189.085 0 0 0
2 2559.22 2615.28 274.386 0 0 0
2 2924.95 2641.68 669.614 0 0 0
2 2963.61 2859.96 663.21 0 0 0
2 2482.93 2437.76 980.053 0 0 0
2 2886.45 2582.34 806.574 0 0 0
2 2798.74 2683.06 744.683 0 0 0
2 2705.95 3060.21 482.553 0 0 0
2 2957.19 3020.51 596.203 0 0 0
2 2379.66 3037.45 807.493 0 0 0
2 2662.23 2680.53 46.304 0 0 0
2 2606.56 2726.76 1011.14 0 0 0
2 2724.36 2587.16 391.509 0 0 0
2 2474.72 3068.71 453.315 0 0 0
2 2980.11 2754.18 416.969 0 0 0
2 2847.22 2545.39 229.84 0 0 0
2 2592.34 2885.32 724.221 0 0 0
2 2536.11 2447.93 429.831 0 0 0
2 2666.77 2817.67 122.902 0 0 0
2 2702.77 2900.32 504.125 0 0 0
2 2715.09 2431.94 967.13 0 0 0
2 2510.35 2977.29 538.861 0 0 0
2 2424.4 2453.44 866.803 0 0 0
2 2400.51 2635.89 444.594 0 0 0
2 2759.72 2829.48 779.87 0 0 0
2 2476.93 2422.96 752.098 0 0 0
2 2847.12 2618.9 347.617 0 0 0
2 2579.98 2523.64 147.076 0 0 0
2 2933.56 2988.75 239.732 0 0 0
2 2702.68 2595.9 231.583 0 0 0
2 2540.41 2858.05 545.088 0 0 0
2 2423.96 2584.6 209.717 0 0 0
2 2957.97 2541.66 311.409 0 0 0
2 2808.16 2750.93 67.816 0 0 0
2 3079.39 3047.38 764.299 0 0 0
2 2883.16 3065.26 687.123 0 0 0
2 2432.61 2706.85 338.914 0 0 0
2 2541.36 3069.07 182.444 0 0 0
2 2391.89 2550.7 688.396 0 0 0
2 2645.15 2415.76 621.755 0 0 0
2 2926.02 2870.49 205.868 0 0 0
2 2496.86 2927.32 901.233 0 0 0
2 2633.4 2664.2 621.935 0 0 0
2 2964.14 2626.65 410.223 0 0 0
2 2538.33 2760.86 632.462 0 0 0
2 2767.51 2740.02 277.584 0 0 0
2 2804.95 2500.26 361.149 0 0 0
2 2848.1 2997.89 468.196 0 0 0
2 2553.32 2979.65 351.434 0 0 0
2 2448.7 2988.66 645.506 0 0 0
2 2719.86 2570.48 76.568 0 0 0
2 3010.29 2581.9 820.086 0 0 0
2 2854.26 2679 521.373 0 0 0
2 3092.07 402.406 3031.27 0 0 0
2 2791.06 489.709 2674.34 0 0 0
2 3237.68 544.774 3040.12 0 0 0
2 3159.88 705.541 2453.36 0 0 0
2 2941.68 294.253 3047.34 0 0 0
2 3265.48 939.405 2798.41 0 0 0
2 3075.85 729.616 2913.54 0 0 0
2 3234.28 856.067 2516.23 0 0 0
2 2934.59 833.935 2883.17 0 0 0
2 2848.28 245.256 2690.39 0 0 0
2 2654.79 748.219 3004.46 0 0 0
2 2405.7 813.676 2773.85 0 0 0
2 2800.8 284.063 3168.42 0 0 0
2 2671.73 777.596 3194.72 0 0 0
2 2584.74 531.747 2406.63 0 0 0
2 3061.77 361.077 2782.53 0 0 0
2 2662.83 49.66 2513.84 0 0 0
2 3142.64 842.176 2973.89 0 0 0
2 2781.78 663.775 2481.78 0 0 0
2 2969.38 570.089 2751.77 0 0 0
2 3191.43 233.709 2538.11 0 0 0
2 2407.13 206.479 3133.66 0 0 0
2 3177.82 549.287 2719.1 0 0 0
2 2839.76 581.018 3096.47 0 0 0
2 2822.42 897.572 3108.16 0 0 0
2 2536.26 877.984 2934.97 0 0 0
2 2741.75 375.828 3073.96 0 0 0
2 2450.89 4.292 3056.52 0 0 0
2 2658.81 144.404 2408.97 0 0 0
2 2412.51 656.664 3057.12 0 0 0
2 2717.67 698.17 2646.59 0 0 0
2 2926.46 950.201 2602.53 0 0 0
2 2453.66 301.149 2708.45 0 0 0
2 2949.11 1015.63 2429.78 0 0 0
2 3220.05 774.63 2848.35 0 0 0
2 2979.34 418.82 2863.02 0 0 0
2 3008.25 645.544 3167.49 0 0 0
2 2847.22 768.529 2517.12 0 0 0
2 2746.66 336.405 2558.99 0 0 0
2 2720.84 984.352 3130.62 0 0 0
2 2905.87 546.08 2975.97 0 0 0
2 3124.92 709.752 2729.22 0 0 0
2 3212.61 672.618 3012.41 0 0 0
2 2873.53 411.386 3033.78 0 0 0
2 3124.41 1064.63 2597.17 0 0 0
2 2756.16 222.676 2961.86 0 0 0
2 2496.34 657.374 3301.79 0 0 0
2 2506.75 828.786 3236.41 0 0 0
2 3207.14 346.968 3214.07 0 0 0
2 2465.15 571.075 2874.64 0 0 0
2 2640.44 481.322 2627.14 0 0 0
2 2995.88 824.461 3000.57 0 0 0
2 2518.39 496.764 3102.64 0 0 0
2 2852.95 721.366 2679.64 0 0 0
2 3054.33 57.448 3124.16 0 0 0
2 2663.53 459.95 3149.45 0 0 0
2 2684.8 702.033 2874.74 0 0 0
2 2834.15 160.255 2428.89 0 0 0
2 2650.33 458.329 2890.64 0 0 0
2 3159.24 652.9 3228.76 0 0 0
2 2771.26 361.92 2752.26 0 0 0
2 2812.4 648.973 2850.99 0 0 0
2 2419.05 207.612 2983.74 0 0 0
2 2503.16 647.73 2766.96 0 0 0
2 2719.44 195.968 2547.66 0 0 0
2 3168.22 104.028 2712.68 0 0 0
2 2712.11 591.506 2916.37 0 0 0
2 3132.61 220.292 2781.65 0 0 0
2 2967.25 680.524 2830.75 0 0 0
2 2480.02 34.576 2920.77 0 0 0
2 2510.6 380.126 3019.5 0 0 0
2 2532.36 176.531 2711.91 0 0 0
2 2861.43 774.116 2972.65 0 0 0
2 2541.81 157.901 3100.48 0 0 0
2 2472.55 1044.21 2711.87 0 0 0
2 2800.53 129.566 3107.28 0 0 0
2 3105.01 455.146 2877.26 0 0 0
2 2499.61 763.396 3111.07 0 0 0
2 3109.31 942.462 2837.37 0 0 0
2 2556.07 328.644 2856.35 0 0 0
2 2526.9 423.88 2568.53 0 0 0
2 2464.49 753.265 2883.68 0 0 0
2 2627.9 982.143 2908.07 0 0 0
2 3111.24 642.854 3101.22 0 0 0
2 2977.91 327.235 2637.86 0 0 0
2 2821.21 138.319 2579.82 0 0 0
2 2832.07 714.604 3197.76 0 0 0
2 2552 572.169 2991.83 0 0 0
2 2693.63 179.451 3219.59 0 0 0
2 3212.92 374.326 2669.87 0 0 0
2 3026.88 630.045 3002.33 0 0 0
2 3203.62 768.439 2604.67 0 0 0
2 3014.59 188.072 2589.38 0 0 0
2 2503.95 960.39 3117.48 0 0 0
2 3192.21 1019.57 2429.74 0 0 0
2 2531.73 832.414 2773.76 0 0 0
2 2884.93 586.878 2618.84 0 0 0
2 2827 169.134 2837.23 0 0 0
2 3026.67 760.168 3235.28 0 0 0
2 2954.35 959.535 2936.97 0 0 0
2 3129.9 568.424 2942.65 0 0 0
2 2500.05 536.789 2639.66 0 0 0
2 2795.66 572.59 3230.26 0 0 0
2 2628.46 904.375 3146.41 0 0 0
2 2540.67 178.857 2530.89 0 0 0
2 2558.91 922.049 2425.47 0 0 0
2 3111.7 816.543 2673.73 0 0 0
2 2886.83 392.898 3193.66 0 0 0
2 2462.3 618.745 2504.74 0 0 0
2 2992.96 600.341 3290.62 0 0 0
2 2612.89 361.462 2654.85 0 0 0
2 3231.04 149.994 3135.14 0 0 0
2 157.732 3261.97 3019.51 0 0 0
2 674.289 3122.95 2687.79 0 0 0
2 311.764 2919.43 3399.75 0 0 0
2 65 2901.68 3065.89 0 0 0
2 172.027 3275.32 2865.93 0 0 0
2 716.434 2580.26 2748.79 0 0 0
2 670.554 3315.01 2902.54 0 0 0
2 894.123 3124.28 3015.93 0 0 0
2 271.082 2875.95 3172.36 0 0 0
2 919.595 3171.39 3345.67 0 0 0
2 91.94 2607.4 2560.28 0 0 0
2 173.615 3034.57 3431.71 0 0 0
2 246.646 2755.14 2730.01 0 0 0
2 204.469 2701.69 2553.26 0 0 0
2 338.499 2967 3262.45 0 0 0
2 642.148 3031.66 2804.02 0 0 0
2 743.379 2634.99 3429.28 0 0 0
2 520.462 2785.32 3076.61 0 0 0
2 16.848 3308.88 2511.23 0 0 0
2 721.73 3303.16 3280.68 0 0 0
2 342.351 3120.23 2691.02 0 0 0
2 842.469 2721.93 2727.53 0 0 0
2 662.583 2774.84 3169.29 0 0 0
2 781.684 2917.01 2594.4 0 0 0
2 299.991 3333.9 3310.16 0 0 0
2 734.818 2675.65 2999.39 0 0 0
2 523.389 2903.49 2944.57 0 0 0
2 929.872 2923.95 2933.2 0 0 0
2 277.737 2956.9 2594.95 0 0 0
2 342.194 2851.88 2710.45 0 0 0
2 411.244 3385.02 2574.78 0 0 0
2 754.471 3035.2 2454.16 0 0 0
2 381.819 2909.65 3000.01 0 0 0
2 745.952 3042.72 3320.09 0 0 0
2 952.989 3436.01 3128.05 0 0 0
2 78.882 3134.77 3090.97 0 0 0
2 42.619 2935.7 2507.71 0 0 0
2 361.475 3289.81 3115.97 0 0 0
2 376.873 2558.42 2697.29 0 0 0
2 637.633 2695.43 2807.1 0 0 0
2 676.717 2996.82 3005.89 0 0 0
2 344.573 3198.54 2990.34 0 0 0
2 183.413 2850.82 2535.27 0 0 0
2 188.112 3197.43 3250.84 0 0 0
2 286.455 3495.09 2648.19 0 0 0
2 836.454 3256.53 2520.37 0 0 0
2 890.59 2941.34 3214.63 0 0 0
2 272.464 3095.44 3258.58 0 0 0
2 546.914 3321.93 2697.44 0 0 0
2 243.295 3222.06 3388.55 0 0 0
2 268.977 2660.19 3462.84 0 0 0
2 62.246 2619.29 2969.5 0 0 0
2 143.417 3119.99 2564.18 0 0 0
2 657.862 3506.92 2978.12 0 0 0
2 888.352 2793.98 2517.98 0 0 0
2 428.523 2940.06 2811.98 0 0 0
2 928.833 2779.82 3238.88 0 0 0
2 15.218 2536.53 3236.35 0 0 0
2 341.375 2512.41 3028.12 0 0 0
2 788.251 3425.07 2680.74 0 0 0
2 238.429 2604.41 3359.19 0 0 0
2 64.169 2606.97 2753.62 0 0 0
2 554.33 2534.52 2819.44 0 0 0
2 758.22 2824.57 3083.83 0 0 0
2 538.76 3250.36 2967.83 0 0 0
2 929.344 3190.03 2833.3 0 0 0
2 391.473 2994.72 2564.28 0 0 0
2 877.386 3310.94 2867.05 0 0 0
2 205.393 3086.68 2898.43 0 0 0
2 242.053 2658.98 3208.06 0 0 0
2 940.568 2521.13 2848.02 0 0 0
2 851.041 3461.45 3287.03 0 0 0
2 158.832 2748.88 2879.93 0 0 0
2 895.9 3093.26 2731.47 0 0 0
2 772.112 2763.33 2544.39 0 0 0
2 187.829 2521.21 3111.41 0 0 0
2 272.613 2961.21 2973.18 0 0 0
2 636.365 2494.05 2983.76 0 0 0
2 600.758 2784.84 2703.43 0 0 0
2 283.176 2872.41 3542.42 0 0 0
2 620.505 3427.11 2749.87 0 0 0
2 356.647 3122.48 3090.85 0 0 0
2 472.427 3131.87 2872 0 0 0
2 492.818 3157.6 3455.53 0 0 0
2 537.48 3060.07 2516.19 0 0 0
2 952.048 3214.95 2494.37 0 0 0
2 375.635 2502.69 3234 0 0 0
2 711.373 3291.42 2682.12 0 0 0
2 2.754 2748.16 2957.68 0 0 0
2 573.218 3242.38 2531.22 0 0 0
2 623.965 3129.8 3387.3 0 0 0
2 625.966 3298.22 3192.08 0 0 0
2 97.067 3123.65 3296.54 0 0 0
2 689.468 2505.54 3267.95 0 0 0
2 680.956 3189.47 3134.13 0 0 0
2 86.546 3352.36 2725.55 0 0 0
2 998.524 2671.68 2882.99 0 0 0
2 6.003 2832.66 3222.36 0 0 0
2 771.72 2584.43 2918.02 0 0 0
2 583.707 2758.97 3317.82 0 0 0
2 862.787 3103.38 3216.4 0 0 0
2 67.525 2598.49 3384.7 0 0 0
2 900.297 2876.81 3071.47 0 0 0
2 40.972 3441.16 2642.65 0 0 0
2 186.621 2762.79 3031.06 0 0 0
2 820.087 2547.42 3081.47 0 0 0
2 530.936 3432.38 3340.26 0 0 0
2 218.908 3134.94 2773.16 0 0 0
2 745.672 3066.01 2888.67 0 0 0
2 588.628 2567.86 3313.72 0 0 0
2 384.406 2668.44 2973.96 0 0 0
2 120.601 2889.29 2663.2 0 0 0
2 447.981 3409.37 2789.99 0 0 0
2 2847.79 2816.03 3191.74 0 0 0
2 2864.01 2813.1 2564.69 0 0 0
2 2655.12 2473.4 2529.24 0 0 0
2 2550.26 2928.49 2487.35 0 0 0
2 2980.98 2839.85 2410.93 0 0 0
2 2694.66 2452.01 2406.65 0 0 0
2 2499.19 2731.38 2945.97 0 0 0
2 2596.48 2741.74 2449.83 0 0 0
2 2975.59 3104.45 2675.51 0 0 0
2 2970.36 2838.79 2932.51 0 0 0
2 2688.61 3023.77 2743.46 0 0 0
2 2379.02 2922.14 2911.11 0 0 0
2 2921.33 2956.78 2526.72 0 0 0
2 2412.96 2986.34 2408.39 0 0 0
2 2404.79 2703.74 2616.42 0 0 0
2 3022.57 2886.39 3034.24 0 0 0
2 2692.8 2746.69 2563.22 0 0 0
2 2862.66 2478.79 2377.32 0 0 0
2 2609.86 2911.4 3017.98 0 0 0
2 2946.09 2454.99 2467.36 0 0 0
2 2913.99 2693.29 2512.98 0 0 0
2 2662.36 2868.78 2536.36 0 0 0
2 2842.21 2587.74 3085.13 0 0 0
2 2401.1 2822.94 2571.67 0 0 0
2 2493.64 2828.78 3148.27 0 0 0
2 2921.84 2624.65 2972.04 0 0 0
2 2953.57 2394.73 2955.7 0 0 0
2 2849.94 2486.5 3010.62 0 0 0
2 2606.99 2941.26 2686.17 0 0 0
2 2328.59 3007.16 2840.99 0 0 0
2 2709.84 3082.46 2983.01 0 0 0
2 2542.81 2428.15 2925.73 0 0 0
2 3002.05 2852.86 2530.08 0 0 0
2 2757.15 2506.78 2667.99 0 0 0
2 2573.94 2976.86 2900.08 0 0 0
2 2745.28 2750.09 2452.41 0 0 0
2 2534.98 3107.17 2536.81 0 0 0
2 2544.15 2545.4 3146.11 0 0 0
2 2718.62 2630.78 2439.61 0 0 0
2 2920.67 2762.3 2836.52 0 0 0
2 2630.12 2597.53 2516.11 0 0 0
2 2404.12 2628.4 2898.79 0 0 0
2 2695.83 2946.29 2928.72 0 0 0
2 3069.04 2787.18 2618.91 0 0 0
2 3020.73 2797.67 2741.79 0 0 0
2 2780.86 2814.36 2784.39 0 0 0
2 2783.87 2935.12 2765.4 0 0 0
2 2449.81 3138.58 2394.08 0 0 0
2 2906.44 2773.59 3015.83 0 0 0
2 2738.88 3108.58 2615.19 0 0 0
2 3071.15 2648.43 3127.34 0 0 0
2 2588.92 2683.18 3190.49 0 0 0
2 2773.76 3210.32 2983.61 0 0 0
2 2526.17 2706.7 2559.75 0 0 0
2 3135.56 2863.94 2430.15 0 0 0
2 2807.18 2974.17 2582.94 0 0 0
2 2685.54 2538.11 2839.87 0 0 0
2 2614.86 3030.66 2592 0 0 0
2 2621.52 2823.4 2655.54 0 0 0
2 3073.17 2564 3019.85 0 0 0
2 2527.6 2562.09 2461.8 0 0 0