ITEM: TIMESTEP
0
ITEM: NUMBER OF ATOMS
900
ITEM: BOX BOUNDS pp pp pp
-1.0000000000000000e+02 5.1000000000000000e+03
-1.0000000000000000e+02 5.1000000000000000e+03
-1.0000000000000000e+02 5.1000000000000000e+03
ITEM: ATOMS type x y z ix iy iz
2 1528.2 0 2544.85 0 0 0
2 821.321 4449.31 2805.97 0 0 0
2 4999.99 1388.17 4057.15 0 0 0
2 1229.29 1002.95 4999.99 0 0 0
2 3936.68 30.442 5000 0 0 0
2 2221.08 0.005 2117.07 0 0 0
2 1299.02 4999.98 4999.99 0 0 0
2 4999.97 1178.69 0.033 0 0 0
2 5000 5000 2612.86 0 0 0
2 0.003 4985.31 4521.48 0 0 0
2 2056.96 0.039 4999.97 0 0 0
2 1603.69 265.075 0 0 0 0
2 237.14 4198.19 5000 0 0 0
2 4850.22 1518.99 108.037 0 0 0
2 1144.26 4540.3 3161.63 0 0 0
2 2620.14 376.494 3008.24 0 0 0
2 1123.62 1011.58 995.932 0 0 0
2 0 1153.89 1479.55 0 0 0
2 3040.26 3770.75 2160.12 0 0 0
2 2316.33 5000 0.005 0 0 0
2 4999.92 4396.49 108.037 0 0 0
2 2831.31 2697.46 5000 0 0 0
2 1796.12 279.353 2764.93 0 0 0
2 2486.17 1114.09 4066.32 0 0 0
2 2256.19 2084.56 2295.88 0 0 0
2 0.04 0.023 0.426 0 0 0
2 4999.99 2308.45 1795.59 0 0 0
2 0.013 734.3 4545.28 0 0 0
2 0.005 4999.99 987.491 0 0 0
2 0.039 0.016 2982.68 0 0 0
2 4896.9 917.943 0 0 0 0
2 1991.07 2522.95 0.091 0 0 0
2 0.153 0.772 4998.59 0 0 0
2 4092.06 3676.79 1820.7 0 0 0
2 3657.77 2536.28 166.818 0 0 0
2 4999.98 2996.19 3191.01 0 0 0
2 5000 1199.31 4820.41 0 0 0
2 4827.45 1341.11 0.027 0 0 0
2 2013.95 2919.77 870.342 0 0 0
2 2697.7 53.287 2378.57 0 0 0
2 3586.47 134.678 4953.81 0 0 0
2 4989.04 4360.34 1892.99 0 0 0
2 4983.18 5000 2916.88 0 0 0
2 0.006 3619.24 3073.24 0 0 0
2 1888.77 553.935 5000 0 0 0
2 0.182 751.355 3314.62 0 0 0
2 3411.47 5000 1918.64 0 0 0
2 12.159 74.956 4846.1 0 0 0
2 2586.77 0.021 2591.84 0 0 0
2 4646.68 4984.96 3075.73 0 0 0
2 2081.99 4174.37 4156.21 0 0 0
2 0.015 0.01 1078.31 0 0 0
2 3834.29 0 3756.41 0 0 0
2 2453.66 1982.21 0 0 0 0
2 601.387 490.183 5000 0 0 0
2 1598.28 0 2299.8 0 0 0
2 1747.69 3778.49 0.437 0 0 0
2 4756.51 0 3280.49 0 0 0
2 4999.95 0.022 3061.95 0 0 0
2 0 862.729 1543.06 0 0 0
2 2073.63 36.942 2040.95 0 0 0
2 403.527 269.376 1368.24 0 0 0
2 0.073 4999.96 4691.1 0 0 0
2 0 3876.61 1755.14 0 0 0
2 2839.2 0.059 0.009 0 0 0
2 2669.82 4996.9 4998 0 0 0
2 1477.85 1812.31 5000 0 0 0
2 2297.46 0 586.292 0 0 0
2 441.891 0 3413.97 0 0 0
2 1311.99 5000 4421.73 0 0 0
2 0.019 2400.89 421.472 0 0 0
2 0 4317.97 33.712 0 0 0
2 0.037 3164.33 108.037 0 0 0
2 333.452 2131.01 0 0 0 0
2 2916.27 909.257 1092.49 0 0 0
2 4170.3 866.13 1883.52 0 0 0
2 1765.64 4442.82 1767.78 0 0 0
2 3483.68 629.394 2478.14 0 0 0
2 622.111 11.615 2203.02 0 0 0
2 1483.86 2046.07 2211.5 0 0 0
2 540.264 1354.71 2821.54 0 0 0
2 0 1752.27 1488.65 0 0 0
2 1231.01 3281.41 2583.39 0 0 0
2 2873.52 0 2898.58 0 0 0
2 4996.85 0 2712.34 0 0 0
2 1726.27 545.929 2925.81 0 0 0
2 0 2008.58 4070.81 0 0 0
2 1766.31 3702.34 151.283 0 0 0
2 172.681 3014.21 4.58 0 0 0
2 3056.18 0 4167.57 0 0 0
2 2454.29 0 5000 0 0 0
2 1482.76 44.94 2179.77 0 0 0
2 625.319 2760.11 0 0 0 0
2 1.896 79.418 2751.19 0 0 0
2 487.474 297.068 3313.27 0 0 0
2 2201.36 4092.79 5000 0 0 0
2 3489.77 93.405 0 0 0 0
2 576.668 0 2977.96 0 0 0
2 2366.63 0 2920.84 0 0 0
2 5000 3030.38 1649.16 0 0 0
2 611.303 0 4253.31 0 0 0
2 2607.59 3488.66 3078.01 0 0 0
2 1918.85 43.275 4098.43 0 0 0
2 750.087 3184.87 1200.81 0 0 0
2 2482.18 4533.82 3723.75 0 0 0
2 4038.29 0.002 496.881 0 0 0
2 45.744 1975.59 305.165 0 0 0
2 0 1756.46 912.931 0 0 0
2 1838.11 4917.45 3322.97 0 0 0
2 1229.07 442.314 824.228 0 0 0
2 1012.38 1863.19 326.916 0 0 0
2 683.033 3236.55 0 0 0 0
2 487.637 5000 2649.8 0 0 0
2 97.167 625.932 4945.36 0 0 0
2 2583.03 4361.07 720.876 0 0 0
2 0 1346.44 1148.07 0 0 0
2 339.276 861.898 1607.51 0 0 0
2 5000 3522.45 2298.61 0 0 0
2 376.435 2550.51 2337.7 0 0 0
2 748.671 1087.11 1587.2 0 0 0
2 0 3522.7 2164.64 0 0 0
2 1038.31 3076.66 1857.99 0 0 0
2 1303.96 1072.88 1085.85 0 0 0
2 197.348 325.349 1113.26 0 0 0
2 402.935 1621.77 167.021 0 0 0
2 551.721 887.723 1866.02 0 0 0
2 1104.13 400.783 1206.62 0 0 0
2 1122.24 1282.98 398.629 0 0 0
2 1528.7 408.214 879.583 0 0 0
2 890.744 712.173 615.266 0 0 0
2 303.076 1221.53 887.652 0 0 0
2 322.721 2177.14 819.935 0 0 0
2 1007.36 1012.4 765.978 0 0 0
2 429.008 890.937 1062.74 0 0 0
2 1515.94 99.864 1114.52 0 0 0
2 1348.32 726.892 1118.89 0 0 0
2 2347.66 24.77 63.619 0 0 0
2 2511.52 1244.94 0 0 0 0
2 788.296 988.217 1209.92 0 0 0
2 2627.01 3545.86 2405.17 0 0 0
2 1574.8 1428.68 596.408 0 0 0
2 97.072 473.044 1121.99 0 0 0
2 222.035 891.621 418.471 0 0 0
2 1125.5 0 641.767 0 0 0
2 1676.96 50.235 815.419 0 0 0
2 1585.1 1106.85 1261.17 0 0 0
2 1328.88 2048.51 970.323 0 0 0
2 464.672 1006.49 452.812 0 0 0
2 0 642.399 4382.94 0 0 0
2 967.312 527.874 880.692 0 0 0
2 4629.79 194.537 0 0 0 0
2 106.842 434.174 318.296 0 0 0
2 0 1719.42 1278.92 0 0 0
2 1201.34 859.638 275.656 0 0 0
2 1384.35 1220.65 361.082 0 0 0
2 897.559 0 1413.33 0 0 0
2 686.228 1254.13 495.837 0 0 0
2 2529.72 4470.46 1169.99 0 0 0
2 2089.52 1030.27 322.477 0 0 0
2 1155.25 702.924 1279.41 0 0 0
2 627.988 1790.96 806.845 0 0 0
2 1728.68 798.723 0 0 0 0
2 1342.19 701.705 485.857 0 0 0
2 222.26 557.181 1820.93 0 0 0
2 675.311 840.6 476.648 0 0 0
2 702.81 2087.53 2242.84 0 0 0
2 456.575 350.087 1552.39 0 0 0
2 719.603 233.458 1824.23 0 0 0
2 759.175 1554 0 0 0 0
2 1684.97 1167.46 0 0 0 0
2 186.487 1188.1 1895.58 0 0 0
2 1529.21 850.016 2442.22 0 0 0
2 1607.66 2221.36 94.972 0 0 0
2 404.263 4032.62 2826.14 0 0 0
2 67.827 2238.4 0.053 0 0 0
2 905.422 902.269 898.583 0 0 0
2 521.184 0 2484.35 0 0 0
2 1689.92 2554.62 4020.11 0 0 0
2 940.444 1225.28 999.279 0 0 0
2 1575.45 651.019 241.516 0 0 0
2 446.038 1478.94 896.469 0 0 0
2 1082.83 1445.86 1083.01 0 0 0
2 532.836 467.649 1070.76 0 0 0
2 922.709 921.782 1098.51 0 0 0
2 537.307 127.634 875.416 0 0 0
2 804.442 794.315 1086.7 0 0 0
2 780.252 993.083 213.614 0 0 0
2 618.156 464.395 923.601 0 0 0
2 583.939 17.483 1600.69 0 0 0
2 132.233 823.656 1078.53 0 0 0
2 1335.12 850.008 402.918 0 0 0
2 597.23 1432.3 215.272 0 0 0
2 1711.05 131.29 64.387 0 0 0
2 971.829 0 0 0 0 0
2 1002.69 639.359 1319.21 0 0 0
2 1014.4 418.388 1045.43 0 0 0
2 122.785 1258.65 2093.7 0 0 0
2 1622.87 965.507 217.997 0 0 0
2 481.123 1619.37 757.603 0 0 0
2 867.109 916.353 1668.12 0 0 0
2 1758.15 1435.14 334.245 0 0 0
2 1785.29 3087.49 1614 0 0 0
2 582.177 958.706 1702.48 0 0 0
2 1038.23 1414.81 470.111 0 0 0
2 207.792 2328.24 1038.12 0 0 0
2 546.465 1308.2 1306.26 0 0 0
2 2247.01 269.174 2286.15 0 0 0
2 4925.62 1056.42 4981.66 0 0 0
2 1755.07 1083.26 2534.93 0 0 0
2 1118 14.287 93.294 0 0 0
2 2056.96 659.308 4998.32 0 0 0
2 4626.25 3355.97 2436.6 0 0 0
2 1288.44 359.92 0 0 0 0
2 1528.64 1094.77 501.867 0 0 0
2 1036.26 743.703 299.496 0 0 0
2 1655.49 952.557 811.785 0 0 0
2 0.28 1635.66 423.363 0 0 0
2 321.319 1060.53 985.816 0 0 0
2 0.032 4829.55 0.226 0 0 0
2 1489.04 2405.73 2721.8 0 0 0
2 1546.16 218.79 539.989 0 0 0
2 419.919 605.555 1378.16 0 0 0
2 1241.09 0 3768.07 0 0 0
2 678.712 1618.99 798.525 0 0 0
2 1129.07 817.797 1139.14 0 0 0
2 1046.86 0 1719.35 0 0 0
2 3102.57 643.497 24.168 0 0 0
2 468.685 1032.82 1197.67 0 0 0
2 244.188 1266.95 687.058 0 0 0
2 1172.29 301.719 257.43 0 0 0
2 241.881 429.635 1963.27 0 0 0
2 1436.31 944.765 911.776 0 0 0
2 187.707 2404.62 886.751 0 0 0
2 432.447 1753.3 592.347 0 0 0
2 0 4517.61 2109.37 0 0 0
2 1356.1 1671.53 119.347 0 0 0
2 1028.87 854.255 671.174 0 0 0
2 1362.86 0 1168.76 0 0 0
2 6.557 130.224 297.166 0 0 0
2 367.312 826.356 835.953 0 0 0
2 1372.96 375.114 1266.15 0 0 0
2 1331.11 1043.88 180.257 0 0 0
2 917.551 292.218 765.879 0 0 0
2 265.707 714.88 1225.94 0 0 0
2 2183.41 1865.5 2144.28 0 0 0
2 348.319 272.273 1197.48 0 0 0
2 1458.79 1028.33 754.568 0 0 0
2 1528.01 347.333 427.785 0 0 0
2 358.904 653.234 886.473 0 0 0
2 401.415 835.365 384.88 0 0 0
2 0 958.106 1010.69 0 0 0
2 607.157 960.435 1130.69 0 0 0
2 4746.4 3647.01 1689.61 0 0 0
2 0 1217.76 1036.89 0 0 0
2 407.41 487.349 432.73 0 0 0
2 0 518.645 430.085 0 0 0
2 1029.15 1488.71 1921.67 0 0 0
2 454.506 871.74 661.704 0 0 0
2 1827.18 972.241 0 0 0 0
2 932.723 679.538 1136.48 0 0 0
2 3078.84 4362.18 2251 0 0 0
2 1164.86 1276.52 1610.07 0 0 0
2 1035.23 668.583 1001.29 0 0 0
2 1614.75 757.06 1095.43 0 0 0
2 1087.46 1117.7 427.668 0 0 0
2 37.2 2426.61 34.956 0 0 0
2 692.639 566.314 3.802 0 0 0
2 114.105 846.36 596.219 0 0 0
2 162.798 190.258 1811.52 0 0 0
2 916.934 172.073 226.855 0 0 0
2 664.559 255.759 523.141 0 0 0
2 258.455 406.387 1663.52 0 0 0
2 3695.99 3055.51 3260.29 0 0 0
2 0 2132.71 421.787 0 0 0
2 467.916 444.568 2026.58 0 0 0
2 170.683 811.221 1410.71 0 0 0
2 1207.55 28.867 1041.21 0 0 0
2 1158.47 1008.79 1253.43 0 0 0
2 1893.4 1371.89 581.007 0 0 0
2 2121.5 2457.31 87.144 0 0 0
2 0 174.953 1016.01 0 0 0
2 1534.45 4863.02 235.628 0 0 0
2 540.219 231.602 0 0 0 0
2 729.563 554.315 1292.03 0 0 0
2 200.228 1012.04 632.9 0 0 0
2 680.586 694.257 980.992 0 0 0
2 288.944 517.669 1162.13 0 0 0
2 387.064 789.514 1985.46 0 0 0
2 544.928 1160.96 536.311 0 0 0
2 318.033 409.4 1445.28 0 0 0
2 756.977 281 364.701 0 0 0
2 1778.65 2765.2 1113.01 0 0 0
2 3098.19 4357.69 1643.27 0 0 0
2 1750.4 148.89 241.124 0 0 0
2 3477.79 2305.27 19.891 0 0 0
2 1351.62 2182.38 2118.26 0 0 0
2 680.888 562.413 1103.92 0 0 0
2 599.458 245.196 1067.01 0 0 0
2 0 3908.52 1259.07 0 0 0
2 0 5000 3151.44 0 0 0
2 882.68 3894.87 4621.61 0 0 0
2 257.043 0.477 1388.92 0 0 0
2 75.73 931.733 834.157 0 0 0
2 1828.1 272.309 622.826 0 0 0
2 519.188 594.324 875.787 0 0 0
2 1358.58 1258.72 980.474 0 0 0
2 439.428 1324.97 973.059 0 0 0
2 494.263 1025.06 105.755 0 0 0
2 0 435.393 702.431 0 0 0
2 397.861 610.365 550.771 0 0 0
2 1575.36 88.634 239.937 0 0 0
2 687.96 1099.24 613.866 0 0 0
2 52.154 765.992 319.582 0 0 0
2 663.73 1453.48 876.011 0 0 0
2 509.801 735.257 469.655 0 0 0
2 1124.27 716.399 2043.31 0 0 0
2 326.419 141.269 1535.43 0 0 0
2 544.733 1320.63 0 0 0 0
2 1699.37 1160.03 1959.57 0 0 0
2 3.004 179.124 1374.67 0 0 0
2 19.513 340.149 1225.74 0 0 0
2 780.24 431.633 629.867 0 0 0
2 405.162 1285.84 1969.16 0 0 0
2 128.878 2708.71 2572.5 0 0 0
2 1617.57 1295.29 2696.22 0 0 0
2 227.743 863.034 744.834 0 0 0
2 18.227 270.856 863.32 0 0 0
2 676.482 1289.64 966.394 0 0 0
2 341.061 2232.09 1155.81 0 0 0
2 436.392 1164.14 1062.74 0 0 0
2 837.521 430.065 302.255 0 0 0
2 295.501 2093 543.696 0 0 0
2 1232.1 1865.45 577.133 0 0 0
2 4952.31 494.946 4968.93 0 0 0
2 1081.65 1260.88 1129.65 0 0 0
2 2108.05 937.895 0 0 0 0
2 1288.45 605.968 1324.64 0 0 0
2 2540.25 3483.12 1236.7 0 0 0
2 607.104 1153.25 1071.36 0 0 0
2 3252.42 0 381.635 0 0 0
2 453.158 1193.33 396.867 0 0 0
2 384.613 1026.88 806.705 0 0 0
2 856.994 618.395 759.872 0 0 0
2 503.674 754.73 1357.52 0 0 0
2 586.21 79.221 592.544 0 0 0
2 1900.1 1550.97 124.15 0 0 0
2 2585.32 1969.4 2421.75 0 0 0
2 205.291 335.014 937.664 0 0 0
2 843.632 695.603 1281.65 0 0 0
2 390.648 636.445 320.824 0 0 0
2 1866.24 248.766 0 0 0 0
2 5000 4217.59 1036.4 0 0 0
2 603.609 285.133 1239.58 0 0 0
2 458.382 1549.17 531.255 0 0 0
2 321.892 827.7 0 0 0 0
2 3168.1 1004.55 3215.15 0 0 0
2 578.996 228.52 250.394 0 0 0
2 1106.39 3332.8 100.954 0 0 0
2 1057.24 785.028 1413.52 0 0 0
2 2186.6 3074.9 1326.61 0 0 0
2 1538.21 1262.2 194.686 0 0 0
2 1662.23 1588.64 508.139 0 0 0
2 298.853 23.871 1011.86 0 0 0
2 114.319 1755.94 239.091 0 0 0
2 726.11 602.308 634.831 0 0 0
2 616.372 1589.66 353.048 0 0 0
2 1179.4 339.635 1066.8 0 0 0
2 767.186 551.972 161.643 0 0 0
2 1097.17 1409.09 105.214 0 0 0
2 434.278 535.646 3299.09 0 0 0
2 15.534 649.413 4213.79 0 0 0
2 0 1797.43 357.878 0 0 0
2 1482.34 861.787 0 0 0 0
2 1945.03 1248.36 0 0 0 0
2 0 2167.65 1743.72 0 0 0
2 636.623 693.906 1264.02 0 0 0
2 2466.44 25.709 2474.54 0 0 0
2 601.517 1333.81 714.489 0 0 0
2 1164.87 518.273 1008.58 0 0 0
2 421.553 347.328 545.27 0 0 0
2 3908.26 5000 391.178 0 0 0
2 1276.75 76.588 616.441 0 0 0
2 89.154 0 472.558 0 0 0
2 4941.27 116.881 18.372 0 0 0
2 1461.77 671.947 1304.71 0 0 0
2 454.598 701.829 682.382 0 0 0
2 1540 820.173 1880.97 0 0 0
2 3267.26 0 2921.66 0 0 0
2 81.367 2283.92 280.486 0 0 0
2 1514.86 1132.65 959.053 0 0 0
2 663.72 1028.81 92.702 0 0 0
2 170.677 732.633 449.859 0 0 0
2 949.647 1169.27 834.251 0 0 0
2 1864.15 1577.63 335.782 0 0 0
2 222.759 630.748 585.35 0 0 0
2 431.545 4.35 1431.23 0 0 0
2 171.288 1441.24 321.994 0 0 0
2 1670.12 2464.64 440.386 0 0 0
2 844.634 1494.84 987.929 0 0 0
2 0 2541.77 3170.51 0 0 0
2 456.678 3920.5 3607.25 0 0 0
2 3476.15 975.096 0 0 0 0
2 967.532 777.936 1610.41 0 0 0
2 610.409 1069.59 273.433 0 0 0
2 192.012 582.464 355.993 0 0 0
2 34.347 1295.89 1567.28 0 0 0
2 135.339 1492.47 963.591 0 0 0
2 591.602 880.15 332.812 0 0 0
2 0 2570.78 2288.57 0 0 0
2 968.568 954.064 535.992 0 0 0
2 1417.63 560.037 201.448 0 0 0
2 839.121 1217.24 1674.39 0 0 0
2 911.042 1340.94 374.992 0 0 0
2 941.734 566.814 2016.67 0 0 0
2 1048.38 404.267 372.157 0 0 0
2 729.083 1411.39 367.837 0 0 0
2 1707.49 363.321 1967.37 0 0 0
2 126.147 290.634 142.493 0 0 0
2 1107.36 216.515 1675.19 0 0 0
2 556.169 579.221 621.101 0 0 0
2 823.516 1623.03 704.985 0 0 0
2 280.503 208.915 844.61 0 0 0
2 1400.14 157.8 1422.76 0 0 0
2 196.428 2879.15 1609.59 0 0 0
2 1066.67 2547.5 525.842 0 0 0
2 1301.37 1215.4 160.033 0 0 0
2 2660.31 835.83 2949.06 0 0 0
2 503.16 916.304 884.84 0 0 0
2 0 2798 4690.42 0 0 0
2 307.551 465.834 162.514 0 0 0
2 212.401 619.079 1026.35 0 0 0
2 2152.65 612.189 4789.49 0 0 0
2 1832.86 411.586 390.687 0 0 0
2 1355.37 1549.21 390.952 0 0 0
2 1332.12 1373.58 284.112 0 0 0
2 457.692 879.735 204.526 0 0 0
2 3523.18 460.923 3158.91 0 0 0
2 281.931 714.744 1535.85 0 0 0
2 807.569 1556.7 296.713 0 0 0
2 1401.24 3794.62 1707.92 0 0 0
2 2761.93 0 4214.6 0 0 0
2 1040.37 630.98 614.169 0 0 0
2 204.191 3851.11 4475.73 0 0 0
2 1332.16 1436.82 856.538 0 0 0
2 659.262 1857.8 1034.45 0 0 0
2 179.988 4359.85 0 0 0 0
2 929.099 1712.8 483.529 0 0 0
2 371.359 0 2271.84 0 0 0
2 594.215 1598.09 945.602 0 0 0
2 567.707 566.812 440.31 0 0 0
2 2934.49 2789.56 2742.17 0 0 0
2 53.061 1095.9 1256.57 0 0 0
2 0 1163.81 80.626 0 0 0
2 1914.65 1088.2 346.49 0 0 0
2 2829.04 3840.8 1662.36 0 0 0
2 0 1517.17 1174.32 0 0 0
2 3343.49 0 1550.92 0 0 0
2 896.648 1661.1 148.341 0 0 0
2 5000 145.087 204.212 0 0 0
2 557.631 689.467 302.281 0 0 0
2 1589.1 227.432 767.552 0 0 0
2 23.034 1947.18 534.181 0 0 0
2 763.956 1096.72 1011.31 0 0 0
2 1319.22 403.796 678.438 0 0 0
2 898.758 1337.96 544.812 0 0 0
2 740.85 900.693 10.672 0 0 0
2 1332.28 1029.4 1366.95 0 0 0
2 1275.13 1419.38 516.154 0 0 0
2 234.733 0 1558.64 0 0 0
2 886.892 1366.8 874.34 0 0 0
2 1149.95 3.878 1244.32 0 0 0
2 512.054 170.25 1504.08 0 0 0
2 1644.01 1393.81 1637.1 0 0 0
2 1724.88 525.553 1901.9 0 0 0
2 2795.37 4597.86 1497.2 0 0 0
2 423.963 2264.06 4657.13 0 0 0
2 1444.29 205.632 675.495 0 0 0
2 2119.75 975.976 694.783 0 0 0
2 1605.85 1839.48 2676.78 0 0 0
2 991.966 1784.57 0 0 0 0
2 1153.74 550.085 347.592 0 0 0
2 692.33 243.443 2294.02 0 0 0
2 2996.71 5000 4344.52 0 0 0
2 564.78 445.616 1399.68 0 0 0
2 866.993 1159.62 18.024 0 0 0
2 142.909 81.213 621.105 0 0 0
2 801.093 2783.16 3166.05 0 0 0
2 1595.16 897.331 991.571 0 0 0
2 58.31 62.022 2090.37 0 0 0
2 1634.48 2183.97 553.032 0 0 0
2 649.165 277.053 1574.44 0 0 0
2 6.262 547.632 232.564 0 0 0
2 13.201 642.917 1300.32 0 0 0
2 1744.29 276.283 901.482 0 0 0
2 2198.17 0 147.233 0 0 0
2 18.224 3466.55 358.437 0 0 0
2 0 2956.95 1699.52 0 0 0
2 431.077 1497.55 360.799 0 0 0
2 856.312 795.526 773.061 0 0 0
2 347.876 1022.12 1317.17 0 0 0
2 225.349 1154.25 336.269 0 0 0
2 522.262 1746.51 1215.7 0 0 0
2 1193.26 271.228 741.27 0 0 0
2 1293.34 426.464 184.68 0 0 0
2 572.958 1276.24 1749.65 0 0 0
2 928.388 234.204 1230.6 0 0 0
2 258.628 574.537 1333.95 0 0 0
2 1147.33 1744.75 2039.89 0 0 0
2 1040.35 1316.31 247.437 0 0 0
2 401.213 0 459.569 0 0 0
2 648.005 500.718 753.611 0 0 0
2 4926.49 2211.18 874.114 0 0 0
2 919.231 1164.44 573.492 0 0 0
2 1611.67 697.422 70.333 0 0 0
2 1101.78 1517.89 743.825 0 0 0
2 853.445 290.825 120.878 0 0 0
2 4925.23 0 4932.82 0 0 0
2 1431.67 832.564 547.43 0 0 0
2 949.973 106.247 1589.68 0 0 0
2 1209.08 1123.3 551.594 0 0 0
2 514.228 748.161 952.055 0 0 0
2 1755.86 358.969 149.681 0 0 0
2 1188.6 3044.38 1785.4 0 0 0
2 4465 567.796 3166.02 0 0 0
2 1118.53 908.469 80.972 0 0 0
2 287.47 1637.34 751.454 0 0 0
2 0 0 1566.76 0 0 0
2 837.603 22.278 1782.21 0 0 0
2 1679.23 778.101 287.124 0 0 0
2 684.547 910.223 970.415 0 0 0
2 3065.32 340.245 0 0 0 0
2 739.33 2943.83 427.258 0 0 0
2 1892.24 2268.05 2628.45 0 0 0
2 1497.46 542.194 667.674 0 0 0
2 925.126 1153.39 255.435 0 0 0
2 496.372 1407.07 1114.2 0 0 0
2 1731.54 575.064 292.33 0 0 0
2 234.084 619.145 161.97 0 0 0
2 1069.2 0 1531.4 0 0 0
2 1757.41 433.808 968.332 0 0 0
2 5000 622.779 89.243 0 0 0
2 1479.63 1392.11 437.035 0 0 0
2 400.317 882.964 1399.69 0 0 0
2 991.959 465.142 545.528 0 0 0
2 1074.48 1493.21 919.252 0 0 0
2 1116.59 578.32 814.878 0 0 0
2 284.493 1365.98 166.562 0 0 0
2 2645.92 14.741 4654.1 0 0 0
2 2660.63 2791.17 45.283 0 0 0
2 1884.74 965.813 461.351 0 0 0
2 2160.1 1155.9 232.117 0 0 0
2 720.785 684.439 1814.62 0 0 0
2 0.019 4999.55 0.085 0 0 0
2 542.414 594.108 1920.52 0 0 0
2 711.447 674.384 481.55 0 0 0
2 658.784 1099.13 1238.77 0 0 0
2 1124.29 290.462 65.316 0 0 0
2 0 4248.5 523.217 0 0 0
2 2524.9 1778.47 1447.67 0 0 0
2 1466.18 1458.98 1392.51 0 0 0
2 144.009 152.077 33.648 0 0 0
2 136.387 2681.22 1117.33 0 0 0
2 250.891 498.397 766.769 0 0 0
2 1501.14 0.05 114.898 0 0 0
2 750.384 982.849 380.658 0 0 0
2 2102.39 2691.32 1178.61 0 0 0
2 1483.7 72.603 476.614 0 0 0
2 1254.84 619.691 905.789 0 0 0
2 83.039 470.441 1725.3 0 0 0
2 788.316 852.205 1318.52 0 0 0
2 716.98 1250.36 1526.58 0 0 0
2 0 9.971 681.059 0 0 0
2 1966.71 3109.71 2920.3 0 0 0
2 716.789 344.623 994.418 0 0 0
2 492.027 0 0 0 0 0
2 1600.92 2424.19 683.217 0 0 0
2 438.472 200.332 1013.9 0 0 0
2 1367.52 109.024 135.463 0 0 0
2 324.805 1345.7 1354.99 0 0 0
2 3968.2 4224.11 3103.05 0 0 0
2 1470.09 805.834 160.82 0 0 0
2 1264.12 471.608 1165.97 0 0 0
2 882.475 644.68 1494.46 0 0 0
2 1922.58 1648.76 2150.22 0 0 0
2 1831.41 0 765.206 0 0 0
2 50.973 439.879 102.287 0 0 0
2 2090.55 0 4413.6 0 0 0
2 544.555 1173.62 710.421 0 0 0
2 4110.73 2775.78 2821.69 0 0 0
2 463.155 1573.94 1380.71 0 0 0
2 1011.91 565.52 198.695 0 0 0
2 4999.99 1663.94 2397.83 0 0 0
2 1139.83 947.449 498.304 0 0 0
2 89.352 1930.63 2372.02 0 0 0
2 1024.2 606.598 445.499 0 0 0
2 1392.97 525.46 805.262 0 0 0
2 1572.19 685.631 615.097 0 0 0
2 2950.9 1815.92 2984.85 0 0 0
2 778.283 535.193 910.287 0 0 0
2 2829.2 2958.87 2844.59 0 0 0
2 456.897 1812.32 2501.29 0 0 0
2 1335.29 718.877 224.656 0 0 0
2 58.257 1604.62 4039.86 0 0 0
2 438.235 1044.63 645.646 0 0 0
2 389.653 418.003 1274.74 0 0 0
2 1286.82 1114.65 0 0 0 0
2 370.209 537.176 1014.09 0 0 0
2 1474.15 750.793 964.75 0 0 0
2 858.005 211.788 953.311 0 0 0
2 1691.56 6.158 625.439 0 0 0
2 5000 478.087 0 0 0 0
2 2873.39 3432.97 0 0 0 0
2 344.252 1214.26 226.999 0 0 0
2 3232.98 0 2078.31 0 0 0
2 1733.65 1213.61 269.39 0 0 0
2 2323.17 2128.75 3192.2 0 0 0
2 645.61 672.606 775.363 0 0 0
2 155.886 0 772.959 0 0 0
2 986.204 942.116 1516.65 0 0 0
2 3032.08 2477.67 1110.83 0 0 0
2 51.077 641.909 535.427 0 0 0
2 436.304 1076.45 274.18 0 0 0
2 893.905 516.01 1270.28 0 0 0
2 0 1304.96 2640.32 0 0 0
2 181.042 1156.31 98.098 0 0 0
2 0 269.488 660.195 0 0 0
2 315.093 0 1892.4 0 0 0
2 647.659 674.884 158.68 0 0 0
2 2971.77 2456.12 2564.16 0 0 0
2 3719.11 822.177 952.786 0 0 0
2 1171.96 659.589 218.839 0 0 0
2 808.799 218.623 1572.65 0 0 0
2 395.835 3763.07 0 0 0 0
2 1063.96 469.064 1724.59 0 0 0
2 202.117 356.284 448.997 0 0 0
2 1267.27 880.839 1227.1 0 0 0
2 103.861 1242.65 2759.61 0 0 0
2 497.554 504.697 276.943 0 0 0
2 164.001 1377.16 29.243 0 0 0
2 479.409 466.085 753.117 0 0 0
2 740.783 567.132 342.554 0 0 0
2 741.328 345.609 771.453 0 0 0
2 689.964 853.383 789.632 0 0 0
2 470.85 128.721 1177.48 0 0 0
2 1009.67 282.742 623.103 0 0 0
2 429.822 736.748 1798.11 0 0 0
2 2209.56 608.298 2071.6 0 0 0
2 3547.36 2892.46 672.326 0 0 0
2 1870.46 264.318 1020.32 0 0 0
2 595.996 1815.64 616.87 0 0 0
2 1890.24 325.921 827.469 0 0 0
2 27.007 1976.86 1848.48 0 0 0
2 541.222 328.258 408.944 0 0 0
2 872.763 672.317 944.983 0 0 0
2 3358.54 421.093 75.313 0 0 0
2 886.258 382.3 915.575 0 0 0
2 1494.4 1842.73 221.196 0 0 0
2 1671.95 3062.95 3071.39 0 0 0
2 2571.88 40.007 52.006 0 0 0
2 1604.15 759.841 1556.9 0 0 0
2 2317.22 0 1056.77 0 0 0
2 5000 3515.99 5000 0 0 0
2 0.001 920.296 0 0 0 0
2 3138.55 1045.23 378.342 0 0 0
2 1353.35 532.042 0 0 0 0
2 1409.6 678.217 66.101 0 0 0
2 889.639 159.016 470.163 0 0 0
2 1680.36 0 344.304 0 0 0
2 1589.74 451.246 143.146 0 0 0
2 1277.7 350.035 439.405 0 0 0
2 3624.04 1777.12 3726.61 0 0 0
2 0 1390.57 949.464 0 0 0
2 1389.29 539.588 510.808 0 0 0
2 919.117 2962.04 1945.85 0 0 0
2 1005.75 1622.68 649.232 0 0 0
2 131.346 810.129 6.982 0 0 0
2 1755.42 620.304 127.762 0 0 0
2 234.206 332.425 269.683 0 0 0
2 1025.95 2030.9 1449.75 0 0 0
2 864.351 2311.36 377.894 0 0 0
2 928.161 1820.89 730.138 0 0 0
2 736.038 398.995 0 0 0 0
2 328.476 223.546 1962.27 0 0 0
2 2534.79 692.903 3317.26 0 0 0
2 318.246 485.995 2332.99 0 0 0
2 698.337 1246.9 277.147 0 0 0
2 411.408 1765.11 899.166 0 0 0
2 601.278 3311.69 863.9 0 0 0
2 4687.65 4081.36 5000 0 0 0
2 129.964 1346.61 457.541 0 0 0
2 329.049 278.57 21.792 0 0 0
2 683.559 1042.21 831.485 0 0 0
2 329.24 1873.13 399.885 0 0 0
2 1737.82 657.538 651.318 0 0 0
2 2276.68 1058.83 1009.38 0 0 0
2 795.013 1873.31 0 0 0 0
2 283.894 697.187 729.484 0 0 0
2 1021.36 2106.06 331.524 0 0 0
2 1098.31 0 3320.15 0 0 0
2 494.095 2036.71 178.648 0 0 0
2 2959.63 1169.75 19.839 0 0 0
2 2231.56 4280.95 0.883 0 0 0
2 4003.02 184.102 1141.26 0 0 0
2 4633.4 1615.39 5000 0 0 0
2 34.416 0 3704.72 0 0 0
2 1184.06 708.52 420.873 0 0 0
2 1892.06 910.208 3215.74 0 0 0
2 707.204 30.701 2632.66 0 0 0
2 3821.8 1985.58 651.584 0 0 0
2 305.621 10.854 4481.09 0 0 0
2 817.881 248.55 596.877 0 0 0
2 4142.62 3128.55 192.61 0 0 0
2 0 2337.93 2237.52 0 0 0
2 2066.92 182.197 5000 0 0 0
2 171.318 977.053 999.304 0 0 0
2 1510.79 200.425 129.242 0 0 0
2 1707.34 199.361 481.58 0 0 0
2 316.105 947.947 287.315 0 0 0
2 284.186 838.065 990.764 0 0 0
2 267.193 794.691 200.428 0 0 0
2 1641.18 280.667 277.92 0 0 0
2 0 1359.53 4758.39 0 0 0
2 424.409 11.376 3062.71 0 0 0
2 4967.68 3261.14 4197.94 0 0 0
2 2620.5 2632.3 0 0 0 0
2 560.963 866.521 1473.43 0 0 0
2 596.508 0 246.68 0 0 0
2 0 2584.17 1146.99 0 0 0
2 1536.76 199.399 975.096 0 0 0
2 229.76 2039.88 325.885 0 0 0
2 203.534 1548.82 182.483 0 0 0
2 3100.78 624.959 1530.27 0 0 0
2 422.927 1381.23 722.552 0 0 0
2 1269.59 1088.85 385.194 0 0 0
2 1007.3 329.717 220.878 0 0 0
2 266.181 1228.58 1221.22 0 0 0
2 718.675 0 1239.61 0 0 0
2 306.324 470.084 589.031 0 0 0
2 1715.7 3023.01 4152.91 0 0 0
2 1053.42 1116.42 1647.76 0 0 0
2 663.888 2331.56 19.254 0 0 0
2 2511.34 792.161 382.751 0 0 0
2 3630.11 475.044 2944.76 0 0 0
2 378.306 0 1656.27 0 0 0
2 2419.08 0 4724.98 0 0 0
2 1360.88 415.79 1520.12 0 0 0
2 1040.31 161.626 997.794 0 0 0
2 904.131 870.49 392.625 0 0 0
2 1508.57 1365.62 805.059 0 0 0
2 1327.29 966.569 526.638 0 0 0
2 301.896 1397.05 1075.74 0 0 0
2 684.094 2678.95 357.127 0 0 0
2 487.758 1194.57 875.27 0 0 0
2 2388.86 3101.13 4539.41 0 0 0
2 4039.76 2385.89 5000 0 0 0
2 710.927 1448.92 563.176 0 0 0
2 714.713 127.771 272.43 0 0 0
2 86.735 1644.6 1082.71 0 0 0
2 3697.71 1072.73 3837.86 0 0 0
2 1734.92 1538.84 703.46 0 0 0
2 1020.65 2186.66 0 0 0 0
2 876.944 1912.7 874.576 0 0 0
2 1136.23 2366.97 1054.71 0 0 0
2 2650.82 2690.55 1830.86 0 0 0
2 984.245 1312.65 0 0 0 0
2 1936.3 182.311 493.342 0 0 0
2 1313.79 492.507 343.984 0 0 0
2 1626.39 0 1196.55 0 0 0
2 1390.23 1448.23 3326.43 0 0 0
2 667.269 0 719.247 0 0 0
2 2462.85 4390.15 312.077 0 0 0
2 1373.97 843.622 737.638 0 0 0
2 174.182 147.096 1643.79 0 0 0
2 336.937 1750.86 1061.43 0 0 0
2 447.046 1.386 165.595 0 0 0
2 427.852 345.9 273.147 0 0 0
2 1551.18 2431.52 1014.4 0 0 0
2 1094.98 312.624 920.205 0 0 0
2 39.517 0.007 3940.82 0 0 0
2 1149.69 715.644 716.477 0 0 0
2 1034.38 781.735 516.004 0 0 0
2 4046.48 0 4321.38 0 0 0
2 1027.04 983.646 312.853 0 0 0
2 500.251 815.132 1198.35 0 0 0
2 1540.55 797.964 815.249 0 0 0
2 68.035 1423.56 2741.83 0 0 0
2 3195.94 2402.43 3313.45 0 0 0
2 604.251 1690.5 489.526 0 0 0
2 759.221 1646.98 546.173 0 0 0
2 829.538 0 471.684 0 0 0
2 53.326 3735.02 736.377 0 0 0
2 2064.51 0 1401.33 0 0 0
2 497.511 191.955 500.656 0 0 0
2 4043.74 2797.12 1514.6 0 0 0
2 2004.03 1216.39 279.09 0 0 0
2 1392.83 1851.65 797.581 0 0 0
2 18.121 341.121 1426.08 0 0 0
2 1351.69 1260.26 659.582 0 0 0
2 1329.99 0.001 474.269 0 0 0
2 413.584 381.799 960.061 0 0 0
2 596.206 1515.06 688.487 0 0 0
2 240.029 2006.7 1315.47 0 0 0
2 843.296 701.213 364.722 0 0 0
2 1453.95 970.648 1143.39 0 0 0
2 1466.3 369.879 596.995 0 0 0
2 0 2803.57 1590.9 0 0 0
2 442.194 1363.25 257.163 0 0 0
2 1139.82 2918.4 158.621 0 0 0
2 126.645 195.113 746.474 0 0 0
2 1345.15 169.541 448.329 0 0 0
2 2992.08 696.713 612.072 0 0 0
2 280.139 297.51 688.567 0 0 0
2 1182.1 3856.65 2755.95 0 0 0
2 3556.29 2829.53 3383.42 0 0 0
2 3554.68 223.083 2646.58 0 0 0
2 749.166 3487.31 1908.01 0 0 0
2 225.809 3852.18 959.422 0 0 0
2 1885.4 29.486 105.457 0 0 0
2 1465.8 39.696 715.891 0 0 0
2 866.346 334.581 1092 0 0 0
2 1195.12 901.597 678.067 0 0 0
2 5000 2184.8 4267.64 0 0 0
2 0 362.847 1035.48 0 0 0
2 1666.38 4110.86 1693.12 0 0 0
2 4568.49 4610.81 2057.21 0 0 0
2 4186.92 2355.76 4080.48 0 0 0
2 3163.97 1246.12 1921.52 0 0 0
2 1108.15 454.833 672.162 0 0 0
2 0 1187.06 820.44 0 0 0
2 0 791.828 1180.52 0 0 0
2 118.281 1012.28 1389.62 0 0 0
2 754.123 936.292 653.313 0 0 0
2 312.266 833.787 576.268 0 0 0
2 578.176 2372.04 1320.01 0 0 0
2 1344.62 381.974 933.545 0 0 0
2 642.325 794.657 1698.85 0 0 0
2 946.136 2575.16 703.813 0 0 0
2 752.582 1289.16 650.479 0 0 0
2 3229.52 0.001 5000 0 0 0
2 131.132 787.805 3416.72 0 0 0
2 290.529 2056.71 153.403 0 0 0
2 1313.61 420.137 2494.26 0 0 0
2 943.63 2056.33 3638.07 0 0 0
2 1131.87 363 525.82 0 0 0
2 0 2749.3 4074.04 0 0 0
2 2721.16 2315.25 0 0 0 0
2 0 3123.68 1563.22 0 0 0
2 3781.78 1117.58 24.43 0 0 0
2 1675.23 3937.65 1665.2 0 0 0
2 0.003 3.105 3152.74 0 0 0
2 3362.3 415.472 4999.98 0 0 0
2 2408.24 3764.29 16.479 0 0 0
2 885.14 1.765 3793.6 0 0 0
2 3207.44 0 146.338 0 0 0
2 525.276 529.01 1255.8 0 0 0
2 2977.4 0 1180.74 0 0 0
2 0.008 0.005 1248.55 0 0 0
2 0 4808.42 377.644 0 0 0
2 4680.42 3775.15 0 0 0 0
2 0.001 3462.19 2680.25 0 0 0
2 2129.35 2476.28 2144.41 0 0 0
2 5000 1745.02 5000 0 0 0
2 1921.59 4013.78 7.902 0 0 0
2 -0 1246.8 507.645 0 0 0
2 690.352 426.023 423.261 0 0 0
2 1835.82 0.012 2241.2 0 0 0
2 867.737 0.001 4999.99 0 0 0
2 5000 2004.19 0.016 0 0 0
2 1153.98 4432.55 4671.79 0 0 0
2 1528.46 1637.7 2084.24 0 0 0
2 1058.13 3080.2 4999.99 0 0 0
2 4641.82 4537.35 5000 0 0 0
2 3512.69 0 421.413 0 0 0
2 3626.64 0.009 3640.09 0 0 0
2 4106.9 3208.34 4155.87 0 0 0
2 3635.54 4999.97 4999.98 0 0 0
2 249.706 18.749 2762.81 0 0 0
2 0.051 0.036 170.426 0 0 0
2 1109.32 2131.71 2307.29 0 0 0
2 2768.11 661.633 2344.28 0 0 0
2 4967.64 3591.37 4803.08 0 0 0
2 46.289 3030.18 2261.72 0 0 0
2 799.961 4999.98 805.041 0 0 0
2 1704.3 2415.97 0 0 0 0
2 1991.67 4999.99 1316.05 0 0 0
2 997.857 0.002 1168.47 0 0 0
2 0 618.798 2281.31 0 0 0
2 2131.24 0 3520.18 0 0 0
2 0.016 2739.36 3361.08 0 0 0
2 16.826 594.695 3250.74 0 0 0
2 1202.28 5000 3291.29 0 0 0
2 809.37 2304.99 1422.1 0 0 0
2 4958.89 4841.44 3518.22 0 0 0
2 613.559 1221.96 5000 0 0 0
2 3946.77 0 1506.69 0 0 0
2 4613.14 1345.63 524.317 0 0 0
2 3633.88 5000 1832.48 0 0 0
2 1163.09 1869.42 3659.29 0 0 0
2 4999.8 3828.41 4291.08 0 0 0
2 530.882 1329.75 499.51 0 0 0
ITEM: TIMESTEP
500
ITEM: NUMBER OF ATOMS
900
ITEM: BOX BOUNDS pp pp pp
-1.0000000000000000e+02 5.1000000000000000e+03
-1.0000000000000000e+02 5.1000000000000000e+03
-1.0000000000000000e+02 5.1000000000000000e+03
ITEM: ATOMS type x y z ix iy iz
2 1528.2 0.0175037 2544.84 0 0 0
2 821.314 4449.32 2805.96 0 0 0
2 4999.98 1388.17 4057.14 0 0 0
2 1229.28 1002.95 4999.99 0 0 0
2 3936.68 30.4443 5000.01 0 0 0
2 2221.06 -0.0123971 2117.07 0 0 0
2 1299.02 4999.99 4999.98 0 0 0
2 4999.96 1178.7 0.0536424 0 0 0
2 4999.99 4999.99 2612.88 0 0 0
2 0.00571566 4985.3 4521.51 0 0 0
2 2056.97 0.0177918 4999.99 0 0 0
2 1603.68 265.076 -0.0136174 0 0 0
2 237.141 4198.18 5000.01 0 0 0
2 4850.2 1518.98 108.042 0 0 0
2 1144.25 4540.32 3161.62 0 0 0
2 2620.14 376.491 3008.23 0 0 0
2 1123.61 1011.57 995.922 0 0 0
2 0.00205969 1153.9 1479.57 0 0 0
2 3040.24 3770.74 2160.14 0 0 0
2 2316.32 5000.02 0.0066638 0 0 0
2 4999.91 4396.5 108.029 0 0 0
2 2831.29 2697.47 5000.01 0 0 0
2 1796.11 279.336 2764.94 0 0 0
2 2486.15 1114.09 4066.3 0 0 0
2 2256.19 2084.56 2295.87 0 0 0
2 0.066706 0.0160127 0.428165 0 0 0
2 4999.98 2308.45 1795.6 0 0 0
2 0.0236964 734.301 4545.29 0 0 0
2 -0.00690519 4999.99 987.481 0 0 0
2 0.0178823 0.0260355 2982.67 0 0 0
2 4896.9 917.938 0.00817958 0 0 0
2 1991.08 2522.97 0.0784409 0 0 0
2 0.157066 0.779464 4998.59 0 0 0
2 4092.06 3676.79 1820.72 0 0 0
2 3657.75 2536.26 166.824 0 0 0
2 4999.99 2996.2 3191.03 0 0 0
2 5000.01 1199.31 4820.41 0 0 0
2 4827.46 1341.12 0.0406235 0 0 0
2 2013.98 2919.77 870.364 0 0 0
2 2697.69 53.2821 2378.56 0 0 0
2 3586.48 134.666 4953.82 0 0 0
2 4989.06 4360.33 1892.99 0 0 0
2 4983.17 4999.99 2916.87 0 0 0
2 0.019667 3619.22 3073.25 0 0 0
2 1888.77 553.944 4999.99 0 0 0
2 0.178414 751.358 3314.63 0 0 0
2 3411.48 4999.96 1918.62 0 0 0
2 12.1646 74.9786 4846.11 0 0 0
2 2586.76 0.0332111 2591.84 0 0 0
2 4646.68 4984.96 3075.75 0 0 0
2 2081.98 4174.38 4156.23 0 0 0
2 0.0167017 0.030306 1078.31 0 0 0
2 3834.28 -0.0102478 3756.41 0 0 0
2 2453.67 1982.23 0.00235561 0 0 0
2 601.371 490.186 5000.01 0 0 0
2 1598.27 0.00158164 2299.79 0 0 0
2 1747.71 3778.49 0.447457 0 0 0
2 4756.52 0.012041 3280.49 0 0 0
2 4999.96 0.0224939 3061.94 0 0 0
2 -0.0111856 862.727 1543.05 0 0 0
2 2073.65 36.9471 2040.94 0 0 0
2 403.534 269.373 1368.27 0 0 0
2 0.0685785 4999.95 4691.09 0 0 0
2 0.00318595 3876.61 1755.15 0 0 0
2 2839.19 0.0550684 0.021317 0 0 0
2 2669.82 4996.91 4997.99 0 0 0
2 1477.86 1812.3 5000.01 0 0 0