ITEM: TIMESTEP
0
ITEM: NUMBER OF ATOMS
996
ITEM: BOX BOUNDS pp pp pp
-1.0000000000000000e+02 5.1000000000000000e+03
-1.0000000000000000e+02 5.1000000000000000e+03
-1.0000000000000000e+02 5.1000000000000000e+03
ITEM: ATOMS type x y z ix iy iz
1 149.965 527.757 840.273 0 0 0
1 0.244 0.084 0.041 0 0 0
1 793.61 507.128 166.225 0 0 0
1 695.612 708.941 590.783 0 0 0
1 286.513 301.416 109.085 0 0 0
1 462.102 538.654 116.143 0 0 0
1 481.664 217.196 176.721 0 0 0
1 69.786 834.087 463.238 0 0 0
1 27.597 354.497 426.314 0 0 0
1 185.507 628.829 82.662 0 0 0
1 730.614 475.348 432.761 0 0 0
1 161.811 416.999 487.48 0 0 0
1 382.468 627.051 775.771 0 0 0
1 87.643 854.779 837.807 0 0 0
1 833.206 74.211 452.854 0 0 0
1 927.193 499.218 131.476 0 0 0
1 887.826 604.978 725.804 0 0 0
1 758.662 856.05 167.786 0 0 0
1 885.417 363.026 849.587 0 0 0
1 606.302 660.093 681.052 0 0 0
1 113.075 952.365 279.735 0 0 0
1 646.455 594.322 61.654 0 0 0
1 30.694 936.833 399.354 0 0 0
1 522.276 199.609 914.335 0 0 0
1 293.39 181.064 5.811 0 0 0
1 280.305 511.166 478.799 0 0 0
1 624.83 395.259 469.065 0 0 0
1 977.742 700.242 293.391 0 0 0
1 298.835 761.92 789.718 0 0 0
1 254.06 620.504 851.595 0 0 0
1 866.917 828.67 928.601 0 0 0
1 183.494 489.706 123.983 0 0 0
1 550.046 341.116 210.765 0 0 0
1 647.246 984.266 847.404 0 0 0
1 842.989 718.582 703.905 0 0 0
1 262.153 427.128 979.081 0 0 0
1 156.414 545.806 549.41 0 0 0
1 68.576 36.817 196.937 0 0 0
1 779.407 720 992.077 0 0 0
1 731.311 674.707 466.145 0 0 0
1 659.713 812.757 446.987 0 0 0
1 836.009 733.527 14.933 0 0 0
1 836.746 485.56 360.276 0 0 0
1 29.628 703.505 883.711 0 0 0
1 756.205 649.255 255.277 0 0 0
1 144.307 447.331 705.709 0 0 0
1 190.409 341.396 602.733 0 0 0
1 688.023 907.759 377.394 0 0 0
1 134.193 614.349 267.396 0 0 0
1 509.421 643.277 838.375 0 0 0
1 307.301 969.791 724.971 0 0 0
1 571.784 528.744 205.158 0 0 0
1 647.233 534.944 784.207 0 0 0
1 49.534 697.499 161.005 0 0 0
1 682.801 93.953 624.065 0 0 0
1 495.1 530.786 319.327 0 0 0
1 887.702 986.178 878.186 0 0 0
1 343.024 701.373 356.542 0 0 0
1 0 486.872 546.257 0 0 0
1 43.945 264.309 789.545 0 0 0
1 379.918 209.65 448.585 0 0 0
1 898.944 855.732 21.26 0 0 0
1 871.165 593.009 294.874 0 0 0
1 412.157 147.478 617.245 0 0 0
1 618.333 854.96 229.44 0 0 0
1 678.132 452.76 319.727 0 0 0
1 136.927 95.305 997.803 0 0 0
1 211.814 419.753 375.325 0 0 0
1 701.721 464.236 695.601 0 0 0
1 8.389 853.156 253.723 0 0 0
1 617.741 709.847 875.604 0 0 0
1 489.459 248.608 303.754 0 0 0
1 289.913 657.153 28.457 0 0 0
1 708.56 282.498 460.887 0 0 0
1 448.1 745.253 743.625 0 0 0
1 772.369 915.565 821.123 0 0 0
1 465.344 850.641 100.901 0 0 0
1 216.891 865.521 783.658 0 0 0
1 237.55 21.327 808.473 0 0 0
1 783.06 67.159 708.466 0 0 0
1 769.816 200.776 142.628 0 0 0
1 203.18 308.907 733.827 0 0 0
1 545.255 666.226 302.469 0 0 0
1 951.091 63.971 381.678 0 0 0
1 908.53 924.659 196.638 0 0 0
1 496.12 229.485 563.286 0 0 0
1 2499.95 1258.42 2388.26 0 0 0
1 307.002 99.243 529.059 0 0 0
1 2500.22 518.844 371.274 0 0 0
1 2500.31 2499.7 2387.04 0 0 0
1 2720.64 311.414 51.522 0 0 0
1 2508.38 66.671 2359.16 0 0 0
1 2650.36 557.314 1153.55 0 0 0
1 2691.47 777.797 823.95 0 0 0
1 2691.96 1295.32 297.176 0 0 0
1 2578.17 2478.33 0.001 0 0 0
1 2501.23 0.935 1951.76 0 0 0
1 2714.77 103.413 202.497 0 0 0
1 2759.97 801.693 942.672 0 0 0
1 4974.65 449.436 0.235 0 0 0
1 2501.66 2.032 583.355 0 0 0
1 2612.38 59.658 2.728 0 0 0
1 2594.58 302.991 68.814 0 0 0
1 2600.81 880.757 589.618 0 0 0
1 2951.79 274.652 347.305 0 0 0
1 2627.67 21.294 2394.44 0 0 0
1 4999.94 0.214 0.092 0 0 0
1 2500.03 667.28 802.759 0 0 0
1 2834.3 645.556 663.19 0 0 0
1 2761.03 527.21 927.97 0 0 0
1 2500.18 1547.86 789.763 0 0 0
1 2907.6 0.244 1095.07 0 0 0
1 2704.17 820.934 673.401 0 0 0
1 2826.83 81.379 1010.87 0 0 0
1 2570.49 975.184 1005.2 0 0 0
1 2500.07 2146.05 1796.33 0 0 0
1 4998.95 1.153 2443.11 0 0 0
1 2500.02 1133.23 102.888 0 0 0
1 2500.01 307.661 1168.77 0 0 0
1 2500.2 43.943 343.814 0 0 0
1 2500.02 1280.72 1413.48 0 0 0
1 3088.54 987.322 968.508 0 0 0
1 2539.02 0.31 753.224 0 0 0
1 3403.12 0.262 0.018 0 0 0
1 2643.89 532.801 375.808 0 0 0
1 4386.54 1.905 2499.2 0 0 0
1 2500.17 536.886 78.295 0 0 0
1 2566.02 71.458 659.12 0 0 0
1 2500.67 0.186 1087.38 0 0 0
1 2518.29 223.879 9.861 0 0 0
1 2502.63 3.294 123.561 0 0 0
1 2691.61 969.378 226.438 0 0 0
1 2607.55 943.188 112.548 0 0 0
1 2606.34 88.595 901.359 0 0 0
1 2752.77 261.637 385.631 0 0 0
1 2777.82 403.422 364.332 0 0 0
1 2500.21 714.168 188.33 0 0 0
1 2649.85 0.26 519.646 0 0 0
1 2998.2 645.878 453.743 0 0 0
1 2564.94 2455.51 141.941 0 0 0
1 2787.91 2.852 1112.64 0 0 0
1 2675.81 667.826 256.041 0 0 0
1 2811.4 0.178 0.681 0 0 0
1 4993.44 1663.39 0.913 0 0 0
1 2572.84 717.808 614.578 0 0 0
1 2500.2 1217.2 190.009 0 0 0
1 4999.92 2499.48 763.32 0 0 0
1 2696.06 601.117 74.38 0 0 0
1 2733.4 253.098 215.652 0 0 0
1 2744.38 940.372 353.481 0 0 0
1 2782.9 736.376 159.053 0 0 0
1 2581.82 645.06 118.927 0 0 0
1 3395.02 121.275 520.59 0 0 0
1 2500.27 745.026 978.387 0 0 0
1 2750.78 416.949 0.57 0 0 0
1 4998.71 1784.58 1.692 0 0 0
1 2823.56 108.879 338.459 0 0 0
1 3193.68 337.834 1134.11 0 0 0
1 2694.58 164.211 1071.94 0 0 0
1 2867.62 652.58 7.106 0 0 0
1 2821.71 175.155 1161.15 0 0 0
1 2694.5 2481.86 11.034 0 0 0
1 2500.13 916.758 532.983 0 0 0
1 2695.89 57.974 615.517 0 0 0
1 4999.45 1905.58 1.737 0 0 0
1 2725.23 683.213 724.691 0 0 0
1 2690.96 773.935 381.302 0 0 0
1 2716.17 683.773 947.48 0 0 0
1 2500.07 340.537 228.28 0 0 0
1 2560.04 1242.94 0.244 0 0 0
1 2595.61 674.572 954.017 0 0 0
1 2897.06 13.827 173.009 0 0 0
1 2675.95 1477.31 1593.26 0 0 0
1 2829.45 767.199 0.295 0 0 0
1 2500.17 960.276 0.005 0 0 0
1 689.526 2860.31 594.133 0 0 0
1 249.838 2675.5 416.826 0 0 0
1 762.58 2841.62 256.062 0 0 0
1 953.006 2688.62 148.683 0 0 0
1 400.972 2731.37 1061.33 0 0 0
1 196.448 2649.7 535.673 0 0 0
1 301.555 2910.98 13.819 0 0 0
1 807.188 2637.14 564.932 0 0 0
1 554.329 2845.49 431.594 0 0 0
1 0.254 2800.82 792.108 0 0 0
1 119.559 2833.28 182.926 0 0 0
1 968.497 2792.3 341.431 0 0 0
1 386.11 2661.54 419.941 0 0 0
1 753.351 2726.92 143.355 0 0 0
1 790.507 2613.39 344.373 0 0 0
1 799.009 2701.95 258.861 0 0 0
1 934.354 2643.56 955.702 0 0 0
1 377.546 2642.34 542.964 0 0 0
1 86.406 2622.21 97.141 0 0 0
1 410.221 2638.66 303.375 0 0 0
1 171.449 2646.33 957.199 0 0 0
1 97.932 2861.29 1.362 0 0 0
1 565.254 2698.12 981.046 0 0 0
1 748.829 2772.73 813.462 0 0 0
1 677.391 2710.62 252.604 0 0 0
1 572.015 2699.47 817.249 0 0 0
1 239.995 2808.3 517.968 0 0 0
1 978.978 2734.04 780.662 0 0 0
1 0.455 2798.99 510.756 0 0 0
1 921.609 2610.73 828.308 0 0 0
1 432.249 2820 797.941 0 0 0
1 982.868 2780.08 499.066 0 0 0
1 946.605 2826.73 223.41 0 0 0
1 768.541 2821.88 489.817 0 0 0
1 213.909 2850.58 103.485 0 0 0
1 251.078 2763.42 278.186 0 0 0
1 780.857 2713.42 993.385 0 0 0
1 822.585 2777.85 390.236 0 0 0
1 123.898 2656.52 426.985 0 0 0
1 30.225 2675.42 299.444 0 0 0
1 0.379 2791.7 19.479 0 0 0
1 469.202 2839.83 119.453 0 0 0
1 258.81 2683.2 3.084 0 0 0
1 186.452 2872.73 930.785 0 0 0
1 105.588 2732.57 50.646 0 0 0
1 977.119 2799.76 664.832 0 0 0
1 520.965 2643.35 472.735 0 0 0
1 522.929 2819.47 245.536 0 0 0
1 598.314 2885.53 850.837 0 0 0
1 223.698 2649.67 712.764 0 0 0
1 487.138 2790.02 531.07 0 0 0
1 631.933 2809.26 972.533 0 0 0
1 412.768 2718.55 47.25 0 0 0
1 573.781 2707.8 174.188 0 0 0
1 335.178 2685.36 148.445 0 0 0
1 248.474 2625.52 836.006 0 0 0
1 926.324 2698.76 578.244 0 0 0
1 334.386 2622.12 951.524 0 0 0
1 630.96 2817.55 305.412 0 0 0
1 533.532 2672.14 324.589 0 0 0
1 302.198 2844.79 765.44 0 0 0
1 241.791 2761.18 885.879 0 0 0
1 946.254 2750.04 33.32 0 0 0
1 435.06 2695.76 784.352 0 0 0
1 950.496 2659.81 380.631 0 0 0
1 427.082 2750.3 218.943 0 0 0
1 645.511 2821.39 160.33 0 0 0
1 892.089 2641.85 704.971 0 0 0
1 597.537 2771.26 11.237 0 0 0
1 317.386 2815.31 382.485 0 0 0
1 780.797 2632.8 875.47 0 0 0
1 695.921 2643.56 479.579 0 0 0
1 304.784 2778.46 624.981 0 0 0
1 269.619 2571.93 49.792 0 0 0
1 164.267 2685.51 203.588 0 0 0
1 255.382 2867.57 216.208 0 0 0
1 538.095 2757.33 654.751 0 0 0
1 384.408 2863.26 519.734 0 0 0
1 78.152 2701.84 533.874 0 0 0
1 407.328 2646.76 676.787 0 0 0
1 116.672 2807.58 406.12 0 0 0
1 512.338 2622.65 893.763 0 0 0
1 610.619 2717.54 538.897 0 0 0
1 282.248 2629.74 264.864 0 0 0
1 25.506 2747.35 186.931 0 0 0
1 841.746 2800.94 686.186 0 0 0
1 63.224 2678.68 913.635 0 0 0
1 644.674 2738.86 421.876 0 0 0
1 313.308 694.415 2501.73 0 0 0
1 354.224 444.928 2742.73 0 0 0
1 585.072 919.045 2631.96 0 0 0
1 484.033 151.361 2611.38 0 0 0
1 917.854 301.794 2601.93 0 0 0
1 736.254 757.017 2599.71 0 0 0
1 913.244 738.612 2692.61 0 0 0
1 229.912 671 2782.56 0 0 0
1 543.094 239.009 2695.44 0 0 0
1 450.893 361.485 2731.77 0 0 0
1 274.66 310.359 2742.19 0 0 0
1 157.643 551.864 2736.01 0 0 0
1 363.804 144.887 2717.63 0 0 0
1 437.851 939.912 2604.23 0 0 0
1 690.874 0 2569.97 0 0 0
1 524.996 548.293 2562.07 0 0 0
1 428.485 622.749 2612.09 0 0 0
1 96.977 48.265 2590.07 0 0 0
1 527.596 0 2586.78 0 0 0
1 938.839 151.009 2618.13 0 0 0
1 680.515 134.854 2667.91 0 0 0
1 767.973 97.28 2549.83 0 0 0
1 762.008 20.886 2700.49 0 0 0
1 232.039 223.895 2540.48 0 0 0
1 479.789 848.305 2700.56 0 0 0
1 952.404 513.648 2615.43 0 0 0
1 759.97 883.804 2533.25 0 0 0
1 570.042 440.703 2514.23 0 0 0
1 350.141 744.371 2762.77 0 0 0
1 932.555 887.464 2672.42 0 0 0
1 224.053 948.389 2644.34 0 0 0
1 825.664 392.282 2628.92 0 0 0
1 251.096 105.185 2737.13 0 0 0
1 179.653 669.389 2662.09 0 0 0
1 507.084 723.057 2699.62 0 0 0
1 363.574 194.584 2564.05 0 0 0
1 684.216 214.755 2549.26 0 0 0
1 27.378 1013.65 2625.99 0 0 0
1 58.976 904.18 2677.65 0 0 0
1 452.617 530.629 2740.63 0 0 0
1 91.418 893.043 2555.74 0 0 0
1 344.38 610.38 2771.85 0 0 0
1 466.217 720.577 2548.14 0 0 0
1 349.656 499.518 2565.78 0 0 0
1 816.588 950.154 2677.73 0 0 0
1 823.554 233.686 2541.7 0 0 0
1 597.382 614.502 2632.91 0 0 0
1 351.772 867.91 2682.19 0 0 0
1 215.01 755.178 2544.84 0 0 0
1 366.804 310.584 2512.11 0 0 0
1 62.699 384.028 2593.87 0 0 0
1 253.172 781.604 2691.72 0 0 0
1 616.882 31.195 2693.15 0 0 0
1 583.167 339.67 2607.35 0 0 0
1 814.682 488.076 2724.11 0 0 0
1 97.131 282.526 2692.87 0 0 0
1 262.937 579.829 2659.23 0 0 0
1 245.484 77.287 2598.59 0 0 0
1 704.668 595.015 2701.8 0 0 0
1 186.239 884.067 2756 0 0 0
1 298.319 853.155 2570.57 0 0 0
1 425.749 260.116 2667.01 0 0 0
1 801.359 161.679 2684.51 0 0 0
1 812.529 656.173 2709.43 0 0 0
1 670.888 522.815 2552.7 0 0 0
1 23.131 539.29 2712.2 0 0 0
1 597.547 108.39 2581.35 0 0 0
1 593.237 498.284 2710.74 0 0 0
1 179.542 389.413 2552.7 0 0 0
1 446.082 416.835 2516.54 0 0 0
1 926.131 241.301 2743.02 0 0 0
1 589.218 769.693 2608.94 0 0 0
1 110.501 572.32 2582.61 0 0 0
1 29.597 786.918 2682.97 0 0 0
1 478.259 300.122 2561.24 0 0 0
1 903.54 38.84 2736.7 0 0 0
1 658.921 716.113 2711.18 0 0 0
1 131.327 443.389 2684.67 0 0 0
1 703.358 886.062 2687.82 0 0 0
1 680.922 352.117 2678.39 0 0 0
1 82.929 694.787 2740.51 0 0 0
1 229.205 214.534 2667.07 0 0 0
1 578.293 371.555 2744.11 0 0 0
1 368.581 751.628 2612.89 0 0 0
1 218.783 595.213 2521.71 0 0 0
1 500.549 452.194 2640.77 0 0 0
1 24.632 189.759 2663.55 0 0 0
1 2909.86 2530.02 904.539 0 0 0
1 4841.81 4878.3 2499.95 0 0 0
1 2500.11 3371.25 2499.9 0 0 0
1 2500 2676.78 411.667 0 0 0
1 4969.2 2583.03 2309.11 0 0 0
1 2810.86 3160.48 0 0 0 0
1 2854.12 4999.98 0.109 0 0 0
1 4480.91 2708.14 2368.1 0 0 0
1 2847.82 2899.78 1629.47 0 0 0
1 2654.55 2506.11 213.618 0 0 0
1 4999.84 2500.07 1158.8 0 0 0
1 2735.59 2508.04 123.39 0 0 0
1 3230.61 2551.17 644.048 0 0 0
1 2637.03 2890.23 1233.98 0 0 0
1 2667.44 2603.22 1033.14 0 0 0
1 2721.62 2748.14 471.517 0 0 0
1 2784.3 3080.24 1688.88 0 0 0
1 2556.1 2715.52 0 0 0 0
1 2676.56 2622.36 470.645 0 0 0
1 2872.68 2757.97 50.826 0 0 0
1 3888.34 2500 0 0 0 0
1 2834.67 3389.69 0 0 0 0
1 2500 3655.59 223.013 0 0 0
1 2594.15 2600.71 379.829 0 0 0
1 2611.49 2827.88 938.662 0 0 0
1 3095.45 2500 252.146 0 0 0
1 3210.77 2805.33 1008.34 0 0 0
1 2888.36 2753.28 559.204 0 0 0
1 2548.05 3319.7 461.066 0 0 0
1 3061.16 2500 539.298 0 0 0
1 3111.55 2500 663.543 0 0 0
1 2684.48 2502.84 580.671 0 0 0
1 3095.91 5000 0.074 0 0 0
1 2799.01 2500 499.722 0 0 0
1 2993.4 3752.2 0.538 0 0 0
1 2624.41 3310.16 0 0 0 0
1 2585.82 3219.49 635.756 0 0 0
1 3144.95 3154.18 530.613 0 0 0
1 2500 3052.14 121.712 0 0 0
1 2500 3165.74 550.084 0 0 0
1 2830.78 3063.03 847.159 0 0 0
1 2568.22 2620.17 805.734 0 0 0
1 4999.66 4461.31 3.868 0 0 0
1 3326.16 2500 0 0 0 0
1 2500 2857.68 0 0 0 0
1 3660.99 2500 617.257 0 0 0
1 2684.07 3165.49 0 0 0 0
1 2637.89 3023.08 1157.85 0 0 0
1 2500 2500 561.342 0 0 0
1 2897.36 2749.57 299.947 0 0 0
1 2886.36 2500 181.403 0 0 0
1 3342.64 2570.53 97.95 0 0 0
1 3133.69 2750.16 2500 0 0 0
1 2873.66 2831.17 658.133 0 0 0
1 3055.79 2707.65 1324.29 0 0 0
1 2501.78 2637.08 163.031 0 0 0
1 2763.46 2773.86 0 0 0 0
1 2500 2525.7 1294.59 0 0 0
1 2545.04 2596.09 954.401 0 0 0
1 2659.68 3028.29 871.665 0 0 0
1 3330.51 2966.58 457.386 0 0 0
1 2500 2500 1035.34 0 0 0
1 2539.53 2500 758.82 0 0 0
1 2775.63 2887.74 703.035 0 0 0
1 3091.62 2853.04 0 0 0 0
1 2966.05 3141.32 967.411 0 0 0
1 2539.85 3103.53 659.43 0 0 0
1 2871.5 2635.16 78.258 0 0 0
1 2708.36 2612.18 0 0 0 0
1 3364.68 2743.36 653.226 0 0 0
1 2883.3 3444.93 988.911 0 0 0
1 3126.36 3028.99 322.796 0 0 0
1 2761.59 2563.67 833.64 0 0 0
1 2654.8 2548.01 746.46 0 0 0
1 2500 2992.14 633.007 0 0 0
1 3075.47 2500 948.617 0 0 0
1 2846.93 2500 320.304 0 0 0
1 2805.74 2500.22 0.071 0 0 0
1 2500 3338.5 625.406 0 0 0
1 2500 2500 330.59 0 0 0
1 2667.2 2731.79 59.556 0 0 0
1 2591.3 2602.24 48.534 0 0 0
1 2532.5 2762.26 155.566 0 0 0
1 2561.25 2500 447.131 0 0 0
1 2845.49 2878.94 801.706 0 0 0
1 3563.01 3267.1 0.348 0 0 0
1 2661.27 3205.24 296.261 0 0 0
1 2500 3398.66 733.723 0 0 0
1 2933.1 1041.81 3503.11 0 0 0
1 2500.1 2482.36 2902.91 0 0 0
1 2615.24 1596.04 2500.23 0 0 0
1 2530.48 1205.36 2500.06 0 0 0
1 2500.14 0.03 4999.9 0 0 0
1 2500.12 422.219 4999.71 0 0 0
1 2940.24 0 2542.63 0 0 0
1 3495.14 2474.24 2500 0 0 0
1 2521.61 80.278 2672.34 0 0 0
1 2500 217.015 2586.64 0 0 0
1 3206 953.707 4937.33 0 0 0
1 2500.21 0.069 3580.51 0 0 0
1 4492.51 1999.91 3089.19 0 0 0
1 2500.18 0.162 4504.87 0 0 0
1 2500.31 906.178 3236.89 0 0 0
1 4823.51 1628.41 4996.51 0 0 0
1 2500.07 621.034 3268.1 0 0 0
1 3574.83 2493.82 2964.49 0 0 0
1 4112.95 0.059 2846.15 0 0 0
1 2500.16 423.445 2913.35 0 0 0
1 2857.32 699.335 2500.11 0 0 0
1 2500.01 623.942 2672.86 0 0 0
1 3719.75 40.516 2500.41 0 0 0
1 2500.28 0.135 4190.47 0 0 0
1 2732.47 890.67 2732.72 0 0 0
1 4004.72 0.139 4999.93 0 0 0
1 3078.73 659.439 2500.05 0 0 0
1 4999.99 0.075 2720.11 0 0 0
1 3766.89 2234.84 3839.75 0 0 0
1 2841.49 1360.38 2869.12 0 0 0
1 2768.12 1167.33 2500.29 0 0 0
1 2500.07 429.216 3085.69 0 0 0
1 4188.83 190.94 2591.39 0 0 0
1 3593.89 0 2500.86 0 0 0
1 2851.09 1030.8 2801.77 0 0 0
1 5000 2206.68 2584.21 0 0 0
1 2572.82 643.513 2841.39 0 0 0
1 2500 311.653 2500 0 0 0
1 2800.67 0.004 2683.43 0 0 0
1 2753.42 0.548 2500 0 0 0
1 2550.3 441.189 2741.91 0 0 0
1 4795.02 592.233 2500.04 0 0 0
1 2500.18 718.256 3181.21 0 0 0
1 3814.69 1305.87 2500.12 0 0 0
1 2500.12 90.015 3238.37 0 0 0
1 2866.71 1198.41 2755.57 0 0 0
1 3008.68 266.483 2500.07 0 0 0
1 2500.31 638.679 3049.68 0 0 0
1 2629.76 45.44 2627.15 0 0 0
1 2500.16 725.166 2766.8 0 0 0
1 3190.58 1522.22 3473.73 0 0 0
1 2582.98 1012.38 2667.79 0 0 0
1 2516.26 43.187 2568.11 0 0 0
1 4196.58 1750.24 3786.67 0 0 0
1 3717.43 426.811 2500.05 0 0 0
1 3141.24 477.63 4582.8 0 0 0
1 3374.38 1005.1 2500.11 0 0 0
1 2500.27 0.247 3459.3 0 0 0
1 3240.29 1001.36 2502.26 0 0 0
1 2500.05 1603.8 2876.03 0 0 0
1 2500.92 0 2929.86 0 0 0
1 3615.71 2498.9 2837.85 0 0 0
1 2953.77 1368.46 3045.77 0 0 0
1 4333.61 2173.52 2500.1 0 0 0
1 2517.58 748.494 2502.71 0 0 0
1 3177.48 323.168 2755.65 0 0 0
1 3139.7 1113.32 2650.78 0 0 0
1 2714.05 339.436 2884.74 0 0 0
1 2871.52 94.065 2500 0 0 0
1 2500.2 496.896 3669.71 0 0 0
1 3064.87 0.067 2500.02 0 0 0
1 4106.28 608.484 2500.13 0 0 0
1 2727.05 0.16 2786.99 0 0 0
1 2500.01 1003.93 3449.43 0 0 0
1 2514.04 441.301 2516.53 0 0 0
1 4189.37 743.138 2500.18 0 0 0
1 4261.38 553.328 3350.3 0 0 0
1 3546.67 230.908 2500.2 0 0 0
1 3308.89 1925.41 3535.83 0 0 0
1 2500.14 1047.53 3313.95 0 0 0
1 3352.83 1289.64 3028.65 0 0 0
1 2552.76 1507.12 2561.56 0 0 0
1 3302.83 1277.08 2500.24 0 0 0
1 2500.2 890.065 3502.52 0 0 0
1 4999.81 1264.6 4999.95 0 0 0
1 2512.14 132.49 2500 0 0 0
1 4866.24 534.412 3385.15 0 0 0
1 89.118 2984.29 3701.86 0 0 0
1 0.127 4999.93 3209.68 0 0 0
1 84.141 2536.7 4940.18 0 0 0
1 926.956 2500.25 4215.7 0 0 0
1 2452.78 4363.7 2535.86 0 0 0
1 2487.36 2598.21 4946.6 0 0 0
1 542.822 2973.21 3451.96 0 0 0
1 1759.87 3358.07 2500.87 0 0 0
1 608.624 2500.9 3206.51 0 0 0
1 168.576 2584.74 4888.12 0 0 0
1 99.715 4643.94 2500.56 0 0 0
1 306.362 2940.34 3356.52 0 0 0
1 606.352 2946.33 2500.5 0 0 0
1 634.472 2500 2865.92 0 0 0
1 177.006 2606.12 2912.99 0 0 0
1 867.161 2931.62 2500.16 0 0 0
1 1107.68 2660.34 2666.17 0 0 0
1 301.325 2968.18 2904.57 0 0 0
1 1725.08 2500.24 2500.04 0 0 0
1 744.645 2500.02 2925.2 0 0 0
1 1298.33 4980.11 3199.93 0 0 0
1 565.813 2807.64 2937.03 0 0 0
1 1413.79 2500.53 3381.29 0 0 0
1 429.636 2871.8 2642.74 0 0 0
1 61.569 2577.57 2778.71 0 0 0
1 422.898 2783.22 2875.94 0 0 0
1 617.385 2500.02 2702.5 0 0 0
1 0.379 3251.62 3378.55 0 0 0
1 550.272 2971.76 3023.31 0 0 0
1 44.369 4975.97 2615.4 0 0 0
1 2320.2 2631.93 2567.8 0 0 0
1 111.854 2893.09 2580.25 0 0 0
1 937.872 2725.62 2594.72 0 0 0
1 326.719 2798.68 2500.66 0 0 0
1 2499.82 2500.51 2500.11 0 0 0
1 748.489 2596.89 2500 0 0 0
1 2.594 2588.16 2974.06 0 0 0
1 0 2815.05 2622.05 0 0 0
1 511.331 2617.73 2853.28 0 0 0
1 395.441 2500.12 2996.26 0 0 0
1 0.135 2501.72 2887.91 0 0 0
1 302.154 2931.96 3141.74 0 0 0
1 546.239 3779.55 2500.06 0 0 0
1 400.212 3036.15 2702.14 0 0 0
1 786.831 2500 2564.76 0 0 0
1 0.068 4999.85 4999.97 0 0 0
1 1399.48 3077.86 4042.28 0 0 0
1 1851.61 2500.33 2500.8 0 0 0
1 108.261 4942.19 2521.4 0 0 0
1 1424.03 2930.05 4225.1 0 0 0
1 758.492 2500.12 3181.39 0 0 0
1 845.786 2729.53 2917.07 0 0 0
1 107.861 2526.83 3009.85 0 0 0
1 630.436 2573.3 2970.69 0 0 0
1 311.483 3803.23 3341.28 0 0 0
1 842.37 3112.32 2500.26 0 0 0
1 36.147 2521.03 2504.77 0 0 0
1 1379.87 2500.01 3796.32 0 0 0
1 0.468 3606.52 3611.78 0 0 0
1 2140.91 2500.17 2500.85 0 0 0
1 96.109 2771.13 2556.47 0 0 0
1 997.052 2860.67 2853.33 0 0 0
1 1045.3 2725.1 2753.08 0 0 0
1 0.122 3223.22 2763.79 0 0 0
1 375.913 2500.11 2500.21 0 0 0
1 784.07 3321.6 2500.44 0 0 0
1 103.872 2734.29 2697.58 0 0 0
1 46.597 4343.42 3619.46 0 0 0
1 1888.83 2948.59 4092.37 0 0 0
1 847.248 2669.99 2529.72 0 0 0
1 984.548 2664.05 2872.26 0 0 0
1 781.432 2596.28 3037.4 0 0 0
1 0.685 2992.07 2601.12 0 0 0
1 160.714 2508.29 2512.82 0 0 0
1 0.124 3376.54 2500.07 0 0 0
1 375.336 2561.22 2724.86 0 0 0
1 1019.14 2855.31 2670.6 0 0 0
1 1662.12 2694.99 3001.22 0 0 0
1 1064.1 2754.73 2898.46 0 0 0
1 0.579 2500.3 3939.36 0 0 0
1 1071.94 4544.24 2500.01 0 0 0
1 231.58 2884.29 2535.89 0 0 0
1 2125.39 2500.18 3054.64 0 0 0
1 807.737 2936.56 2826.1 0 0 0
1 470.202 2500 2892.01 0 0 0
1 804.99 3807.89 3728.31 0 0 0
1 2176.33 2513.84 2927.09 0 0 0
1 1390.17 2500.07 2500.02 0 0 0
1 3472.02 2586.36 2537.06 0 0 0
1 3699.54 3496.2 2500 0 0 0
1 2797.45 2500 2924.82 0 0 0
1 4999.77 2500.53 4999.11 0 0 0
1 2500.08 4877.82 4999.95 0 0 0
1 2795.43 4999.88 2500.11 0 0 0
1 3751.78 3845.48 3497.82 0 0 0
1 3746.25 2500 2763.49 0 0 0
1 3543.95 2500 3630.32 0 0 0
1 4765.36 4946.95 2720.17 0 0 0
1 3604.78 2551.05 4072.54 0 0 0
1 2500 4632.14 4383.64 0 0 0
1 2805.94 2555.85 2500 0 0 0
1 2500 2595.47 2844.79 0 0 0
1 2500 3304.51 4634.46 0 0 0
1 4170.22 4121.81 2500 0 0 0
1 2500 2500 3842.48 0 0 0
1 2553.86 4810.92 2535.47 0 0 0
1 3641.84 2500 2500 0 0 0
1 5000 3170.43 4079.49 0 0 0
1 2607.69 2500 4074.83 0 0 0
1 4338.68 2500 4718.24 0 0 0
1 4431.04 2500 2500 0 0 0
1 4199.52 2500 3884.8 0 0 0
1 4825.16 3144.5 2947.12 0 0 0
1 2912.86 3213.38 2500 0 0 0
1 2704.56 2500 2845.09 0 0 0
1 2800.82 2500 2608.1 0 0 0
1 4226.85 2500 2500 0 0 0
1 2653.48 2500.41 2728.02 0 0 0
1 4089.31 5000 3283.62 0 0 0
1 2500 3090.64 2576.81 0 0 0
1 3599.27 2500 4198.27 0 0 0
1 3244.43 2500 2772.04 0 0 0
1 3714.89 3369.76 3147.03 0 0 0
1 2515.66 2607.3 2580.82 0 0 0
1 4621.3 2825.63 5000 0 0 0
1 2500.02 3440.76 4749.35 0 0 0
1 2500 2527.44 4328.79 0 0 0
1 2500 2735.12 2968.91 0 0 0
1 3006.07 3476.66 2732.49 0 0 0
1 4130.41 2500 2572.21 0 0 0
1 2809.92 4290.61 2595.52 0 0 0
1 2749.32 3834.55 3599.76 0 0 0
1 3426.22 2848.6 2500 0 0 0
1 2529.03 4917.8 2523.32 0 0 0
1 2500 2500 3720.82 0 0 0
1 4971.71 4086.23 2525.65 0 0 0
1 2839.22 4376.51 2500 0 0 0
1 4358.75 4796.59 2544.38 0 0 0
1 2504.66 2505.61 3378.58 0 0 0
1 4844.5 4964.85 2645.89 0 0 0
1 2500 3008.86 4580.06 0 0 0
1 2680.23 2767.66 3551.23 0 0 0
1 4167.88 2639.06 2500 0 0 0
1 2678.9 5000 2797.15 0 0 0
1 2944.99 2500 3018.17 0 0 0
1 2562.72 2515.8 2646.52 0 0 0
1 2500.9 2986.45 2500 0 0 0
1 3205.61 2500 3463.96 0 0 0
1 4426.88 2501.32 2621.74 0 0 0
1 5000 2500 4112.51 0 0 0
1 2590.96 2546.09 2914.92 0 0 0
1 2500 4425.56 2999.01 0 0 0
1 2500.01 3232.34 2635.13 0 0 0
1 3296.85 2500 2500 0 0 0
1 2506.99 2703.93 2500 0 0 0
1 2594.93 3126.33 2500 0 0 0
1 4397.09 2661.74 4148.13 0 0 0
1 2550.54 4989.2 4979.46 0 0 0
1 3894.42 2595.57 2500 0 0 0
1 2500 3215.22 2500.12 0 0 0
1 2500 2508.49 3104.24 0 0 0
1 2557.47 2950.14 3053.01 0 0 0
1 2500 2638.32 3075.47 0 0 0
1 2603.42 2500 3449.83 0 0 0
1 2644.43 5000 2500 0 0 0
1 5000 5000 3395.25 0 0 0
1 5000 3655.88 3946.8 0 0 0
1 2500 3065.78 3682.11 0 0 0
1 2500 3187.44 2956.63 0 0 0
1 2500 2500 3516.76 0 0 0
1 3029.97 4825.8 2924.91 0 0 0
1 5000 2500 2904.05 0 0 0
1 2614.53 2724.76 2697.39 0 0 0
1 3479.32 2500 2766.84 0 0 0
1 2500 3709.55 2500 0 0 0
2 310.594 419.795 746.502 0 0 0
2 0.234 2499.96 1051.39 0 0 0
2 40.705 593.641 780.063 0 0 0
2 863.702 406.223 478.786 0 0 0
2 217.915 685.748 204.114 0 0 0
2 384.083 454.066 21.724 0 0 0
2 481.86 345.673 510.525 0 0 0
2 583.761 2.218 385.103 0 0 0
2 323.445 527.234 241.367 0 0 0
2 419.349 329.979 769.434 0 0 0
2 531.624 614.9 29.047 0 0 0
2 559.727 958.353 359.436 0 0 0
2 73.673 493.905 216.385 0 0 0
2 527.236 137.311 41.647 0 0 0
2 716.676 98.359 91.886 0 0 0
2 936.263 667.495 434.182 0 0 0
2 514.427 821.29 601.95 0 0 0
2 2482.88 113.298 4.825 0 0 0
2 314.83 41.551 209.424 0 0 0
2 940.374 637.795 927.418 0 0 0
2 378.235 231.905 253.595 0 0 0
2 27.007 553.115 398.783 0 0 0
2 898.905 808.51 580.956 0 0 0
2 33.722 198.573 442.924 0 0 0
2 827.313 24.588 325.451 0 0 0
2 657.817 296.636 332.144 0 0 0
2 100.582 160.58 708.454 0 0 0
2 579.447 459.782 67.611 0 0 0
2 965.719 203.839 786.7 0 0 0
2 92.777 565.568 656.985 0 0 0
2 696.546 188.26 542.362 0 0 0
2 439.514 741.108 264.112 0 0 0
2 827.651 709.056 396.585 0 0 0
2 897.081 181.254 71.452 0 0 0
2 857.681 809.316 255.123 0 0 0
2 590.878 0 157.086 0 0 0
2 936.335 695.956 74.51 0 0 0
2 3312.34 67.167 289.399 0 0 0
2 4191.34 218.07 598.75 0 0 0
2 3256.8 813.245 734.521 0 0 0
2 3524.42 938.268 459.905 0 0 0
2 3874.02 67.193 603.962 0 0 0
2 3750.65 441.361 375.629 0 0 0
2 3286.5 708.867 800.612 0 0 0
2 3404.8 561.74 184.855 0 0 0
2 3960.82 440.327 203.554 0 0 0
2 4162.13 355.181 486.202 0 0 0
2 3488.91 835.78 834.232 0 0 0
2 3734.95 441.858 757.214 0 0 0
2 4211.52 316.777 357.608 0 0 0
2 4029.26 543.735 758.236 0 0 0
2 3949.46 926.512 404.983 0 0 0
2 3621.12 295.854 672.837 0 0 0
2 3758.77 603.208 689.155 0 0 0
2 3660.14 809.426 896.262 0 0 0
2 3363.82 818.971 862.728 0 0 0
2 3725.63 625.171 16.41 0 0 0
2 3977.36 288.666 114.384 0 0 0
2 3919.04 369.526 627.186 0 0 0
2 3267.3 881.747 924.482 0 0 0
2 3603.68 376.28 17.636 0 0 0
2 3716.46 950.824 558.736 0 0 0
2 4008.66 684.86 674.546 0 0 0
2 4041.74 87.77 247.429 0 0 0
2 3341.4 364.2 12.165 0 0 0
2 4057.47 623.134 270.966 0 0 0
2 4178.11 441.205 188.479 0 0 0
2 4223.15 214.18 796.285 0 0 0
2 3828.45 75.859 88.043 0 0 0
2 3393.04 419.608 512.502 0 0 0
2 3709.07 307.437 68.386 0 0 0
2 3605.82 890.358 566.763 0 0 0
2 3972.41 903.911 898.084 0 0 0
2 4202.28 32.181 813.886 0 0 0
2 537.194 3429.87 198.937 0 0 0
2 907.493 3238.79 440.479 0 0 0
2 888.313 3272.09 313.816 0 0 0
2 74.533 3430.57 176.122 0 0 0
2 577.596 3071.59 312.694 0 0 0
2 727.738 3535.44 731.687 0 0 0
2 779.723 3463.95 642.484 0 0 0
2 725.992 3616.5 301.61 0 0 0
2 120.794 3496.8 904.182 0 0 0
2 14.95 3358.19 907.544 0 0 0
2 215.51 3169.7 348.762 0 0 0
2 14.988 3519.44 642.687 0 0 0
2 476.728 3303.01 488.341 0 0 0
2 446.728 3072.83 458.901 0 0 0
2 695.143 3163.65 934.254 0 0 0
2 388.901 3358.45 294.254 0 0 0
2 970.308 3506.86 295.506 0 0 0
2 559.39 3162.36 940.209 0 0 0
2 155.432 3084.7 269.904 0 0 0
2 227.165 3387.28 68.1 0 0 0
2 828.107 3363 376.682 0 0 0
2 561.137 3462.13 54.915 0 0 0
2 160.778 3283.96 611.556 0 0 0
2 217.17 3087.33 522.899 0 0 0
2 538.356 3310.36 919.685 0 0 0
2 242.081 3562.76 435.332 0 0 0
2 16.308 3250.03 409.996 0 0 0
2 429.068 3154.87 646.912 0 0 0
2 785.082 3243.09 211.598 0 0 0
2 894.739 3221.9 815.24 0 0 0
2 229.469 3123.06 37.845 0 0 0
2 436.902 3703.16 966.943 0 0 0
2 311.832 3262.64 544.823 0 0 0
2 935.14 3671.41 285.51 0 0 0
2 460.981 3639.93 514.879 0 0 0
2 79.274 3559.16 169.739 0 0 0
2 944.359 3631.94 935.051 0 0 0
2 23.124 81.963 3765.45 0 0 0
2 627.32 556.204 3491.3 0 0 0
2 805.808 808.936 3610.29 0 0 0
2 684.823 866.881 3807.4 0 0 0
2 818.406 860.662 3756.28 0 0 0
2 808.735 371.017 3789.07 0 0 0
2 615.828 221.501 3873.44 0 0 0
2 24.322 275.713 3869.88 0 0 0
2 19.038 355.909 3753.69 0 0 0
2 911.249 124.604 3636.63 0 0 0
2 261.238 800.976 3657.84 0 0 0
2 851.32 399.191 3235.17 0 0 0
2 878.574 112.374 3767.31 0 0 0
2 746.448 570.956 3514.65 0 0 0
2 120.956 323.023 3278.42 0 0 0
2 160.232 629.723 3713.55 0 0 0
2 36.924 191.902 3697.41 0 0 0
2 864.279 13.631 3527.2 0 0 0
2 681.988 85.832 3303.17 0 0 0
2 474.569 305.788 3607.48 0 0 0
2 366.423 317.264 3530.38 0 0 0
2 441.053 144.967 3180.13 0 0 0
2 802.493 58.598 3666.11 0 0 0
2 562.963 123.253 3773.02 0 0 0
2 209.626 310.803 3375.95 0 0 0
2 742.414 375.199 3158.47 0 0 0
2 610.864 186.374 3299.27 0 0 0
2 230.63 341.206 3846.63 0 0 0
2 686.366 91.192 3743.26 0 0 0
2 855.739 616.566 3435.74 0 0 0
2 921.055 812.286 3650.51 0 0 0
2 98.596 826.112 3751.27 0 0 0
2 430.248 293.933 3766.68 0 0 0
2 362.762 495.892 3438.5 0 0 0
2 225.122 729.56 3750.15 0 0 0
2 111.969 758.409 3145.44 0 0 0
2 60.77 885.765 3850.84 0 0 0
2 3224.5 3576.8 670.582 0 0 0
2 3232.7 3056.93 503.325 0 0 0
2 3414.53 3130.4 46.61 0 0 0
2 3587.95 3503.72 200.879 0 0 0
2 3235.99 3383.56 0 0 0 0
2 3555.95 3602.91 840.895 0 0 0
2 3227.51 3274.9 314.658 0 0 0
2 3307.34 3130.42 367.525 0 0 0
2 3543.65 3460.82 557.057 0 0 0
2 3426.37 3269.14 399.457 0 0 0
2 3093.62 3536.74 404.255 0 0 0
2 3267.87 3218.87 523.21 0 0 0
2 3347.7 3465.44 897.616 0 0 0
2 3466.46 3577.59 79.871 0 0 0
2 3118.95 3234.08 959.064 0 0 0
2 3382.04 3197.57 726.336 0 0 0
2 3278.57 3432.06 782.508 0 0 0
2 3467.96 3036.07 280.875 0 0 0
2 3178.07 3563.48 549.923 0 0 0
2 2970.87 3690.99 503.961 0 0 0
2 3042.61 3485.99 185.16 0 0 0
2 3354.41 3298.76 247.832 0 0 0
2 3351.46 3540.77 505.645 0 0 0
2 3065.46 3425.59 911.631 0 0 0
2 3108.79 3134.96 782.016 0 0 0
2 3602.8 3229.01 647.892 0 0 0
2 3279.18 3542.54 167.354 0 0 0
2 3541.34 3153.93 427.242 0 0 0
2 3459.22 3328.25 844.981 0 0 0
2 3528.76 3371.28 662.653 0 0 0
2 3388.39 3412.77 74.582 0 0 0
2 3433.78 3552.08 389.696 0 0 0
2 3341.95 3123.02 168.767 0 0 0
2 3133.65 3381.94 787.024 0 0 0
2 3097.63 3036.88 113.223 0 0 0
2 3128.31 3470.08 42.999 0 0 0
2 3570.66 3308.46 931.854 0 0 0
2 3508.69 336.835 3561.85 0 0 0
2 3211.67 776.607 3485.11 0 0 0
2 3567.72 756.578 3591.07 0 0 0
2 3563.2 801.808 3804.8 0 0 0
2 3687.02 221.28 3210.14 0 0 0
2 3403.06 295.686 3201.08 0 0 0
2 3528.94 355.604 3117.07 0 0 0
2 3769.9 285.392 3652.97 0 0 0
2 3381.89 753.74 3317.08 0 0 0
2 3251.53 467.177 3517.16 0 0 0
2 3557.54 60.823 3240.51 0 0 0
2 3486.59 674.303 3505.38 0 0 0
2 3337.94 461.475 3326.63 0 0 0
2 3342.22 838.898 3646.47 0 0 0
2 3825.41 276.051 3491.52 0 0 0
2 3166.46 89.916 3152.68 0 0 0
2 3720.41 840.646 3202.67 0 0 0
2 3369.53 897.55 3369.75 0 0 0
2 3654.64 582.957 3167.64 0 0 0
2 3363.15 684.644 3521.73 0 0 0
2 3216.32 901.192 3212.92 0 0 0
2 3342.72 555.907 3575.98 0 0 0
2 3335.51 384.582 3445.14 0 0 0
2 3451.78 759.509 3104.91 0 0 0
2 3162.6 517.273 3261.58 0 0 0
2 3630.53 28.534 3566.74 0 0 0
2 3497.52 591.383 3222.79 0 0 0
2 3566.32 622.42 3587.47 0 0 0
2 3835.3 391.534 3717.97 0 0 0
2 3574.2 306.734 3405.98 0 0 0
2 3721.7 509.886 3819.47 0 0 0
2 3156.3 100.078 3747.82 0 0 0
2 3616.94 450.367 3147.58 0 0 0
2 3743.56 39.829 3449.13 0 0 0
2 3469.84 467.598 3138.43 0 0 0
2 3708.19 755.43 3693.04 0 0 0
2 3666.57 728.826 3203.41 0 0 0
2 916.578 3777.95 3122.93 0 0 0
2 893.454 3595.03 3366.03 0 0 0
2 693.66 3501.92 3314.65 0 0 0
2 326.94 3465.95 3625.22 0 0 0
2 974.672 3238.42 3455.54 0 0 0
2 277.21 3491.45 3438.45 0 0 0
2 711.575 3338.85 3261.33 0 0 0
2 650.815 3232.99 3237.76 0 0 0
2 760.086 3744.32 3214.18 0 0 0
2 201.295 3261.5 3740.35 0 0 0
2 767.806 3099.49 3732.86 0 0 0
2 238.63 3388.89 3576.51 0 0 0
2 153.156 3773.78 3543.95 0 0 0
2 641.29 3404.05 3172.83 0 0 0
2 616.648 3608.28 3189.49 0 0 0
2 251.634 3590.89 3302.94 0 0 0
2 901.657 3207.82 3297.11 0 0 0
2 843.756 3464.59 3407.16 0 0 0
2 153.3 3442.65 3166.42 0 0 0
2 171.97 3778.71 3258.58 0 0 0
2 577.949 3793.6 3556.53 0 0 0
2 816.434 3177.89 3624.18 0 0 0
2 578.537 3364.99 3379.43 0 0 0
2 163.494 3438.55 3493.2 0 0 0
2 117.146 3727.66 3125.05 0 0 0
2 549.936 3845.38 3739.47 0 0 0
2 137.35 3656.67 3223.2 0 0 0
2 293.537 3292.93 3517.25 0 0 0
2 701.652 3401.47 3402.87 0 0 0
2 395.754 3810.23 3437.77 0 0 0
2 351.753 3159.52 3287.51 0 0 0
2 837.599 3640.8 3151.4 0 0 0
2 198 3554.22 3143.62 0 0 0
2 589.125 3455.08 3274.53 0 0 0
2 309.376 3643.23 3477.86 0 0 0
2 113.182 3205.87 3224.12 0 0 0
2 232.359 3583.12 3584.07 0 0 0
2 3775.24 3498.77 3600.21 0 0 0
2 3436.36 3296.95 3369.7 0 0 0
2 4174.82 3897.85 3148.6 0 0 0