LAMMPS (23 Jun 2022 - Update 1)
OMP_NUM_THREADS environment is not set. Defaulting to 1 thread. (src/comm.cpp:98)
  using 1 OpenMP thread(s) per MPI task

# Init #
dimension   3
boundary    p p p
units       real
atom_style  atomic

# Atom Definition #
read_data ${input_data}
read_data ./pgnpmf/64/dat64.dat
Reading data file ...
  orthogonal box = (-100 -100 -100) to (5100 5100 5100)
  1 by 1 by 1 MPI processor grid
  reading atoms ...
  1000 atoms
  read_data CPU = 0.017 seconds

# Settings #
pair_style table spline 9941

pair_coeff 1 1 ./pgnpmf/N20.txt DE_GNP 75.6
pair_coeff 2 2 ./pgnpmf/N100.txt DE_GNP 115.92
WARNING: 3 of 9941 force values in table DE_GNP are inconsistent with -dE/dr.
WARNING:  Should only be flagged at inflection points (src/pair_table.cpp:463)
pair_coeff 1 2 ./pgnpmf/mixed_potential.txt DE_GNP 95.66
WARNING: 1562 of 9941 force values in table DE_GNP are inconsistent with -dE/dr.
WARNING:  Should only be flagged at inflection points (src/pair_table.cpp:463)

# Neighbor list calc frequency #
neigh_modify delay 0 every 1 check yes

# Saving frequency #
variable ts_save equal floor(${steps_gen}*0.01)
variable ts_save equal floor(5000*0.01)

# Dump #
dump 1 all custom 5000 ./pgnpmf/${folder}/generation/trajectory/trajectory_${usic}_${trial}.gen.custom type x y z ix iy iz
dump 1 all custom 5000 ./pgnpmf/64/generation/trajectory/trajectory_${usic}_${trial}.gen.custom type x y z ix iy iz
dump 1 all custom 5000 ./pgnpmf/64/generation/trajectory/trajectory_1_${trial}.gen.custom type x y z ix iy iz
dump 1 all custom 5000 ./pgnpmf/64/generation/trajectory/trajectory_1_1.gen.custom type x y z ix iy iz
dump_modify 1 first no sort id
dump 2 all cfg 5000 ./pgnpmf/${folder}/generation/trajectory/dumpgen.tens_*.cfg mass type xs ys zs fx fy fz
dump 2 all cfg 5000 ./pgnpmf/64/generation/trajectory/dumpgen.tens_*.cfg mass type xs ys zs fx fy fz
dump_modify 2 element N20 N100

# Fix #
fix 1 all momentum 1000 linear 1 1 1 angular

variable T equal ${Temp}
variable T equal 300

# Velocity #
velocity all create ${T} ${Vseed} mom yes rot yes dist gaussian
velocity all create 300 ${Vseed} mom yes rot yes dist gaussian
velocity all create 300 57138 mom yes rot yes dist gaussian

fix 2 all nvt temp ${T} 370000 100.0 #iso 1.0 1.0 1000.0
fix 2 all nvt temp 300 370000 100.0 
run ${steps_gen}
run 5000
Generated 0 of 1 mixed pair_coeff terms from geometric mixing rule
Neighbor list info ...
  update every 1 steps, delay 0 steps, check yes
  max neighbors/atom: 2000, page size: 100000
  master list distance cutoff = 117.92
  ghost atom cutoff = 117.92
  binsize = 58.96, bins = 89 89 89
  1 neighbor lists, perpetual/occasional/extra = 1 0 0
  (1) pair table, perpetual
      attributes: half, newton on
      pair build: half/bin/atomonly/newton
      stencil: half/bin/3d
      bin: standard
Per MPI rank memory allocation (min/avg/max) = 8.913 | 8.913 | 8.913 Mbytes
   Step          Temp          E_pair         E_mol          TotEng         Press     
         0   300            0              0              893.34877      0.0002904316 
      5000   357461.68      0              0              1064459.8      0.34606055   
Loop time of 0.110612 on 1 procs for 5000 steps with 1000 atoms

Performance: 3905.531 ns/day, 0.006 hours/ns, 45202.902 timesteps/s
99.0% CPU use with 1 MPI tasks x 1 OpenMP threads

MPI task timing breakdown:
Section |  min time  |  avg time  |  max time  |%varavg| %total
---------------------------------------------------------------
Pair    | 0.013459   | 0.013459   | 0.013459   |   0.0 | 12.17
Neigh   | 0.0084143  | 0.0084143  | 0.0084143  |   0.0 |  7.61
Comm    | 0.0081166  | 0.0081166  | 0.0081166  |   0.0 |  7.34
Output  | 0.0048912  | 0.0048912  | 0.0048912  |   0.0 |  4.42
Modify  | 0.062803   | 0.062803   | 0.062803   |   0.0 | 56.78
Other   |            | 0.01293    |            |       | 11.69

Nlocal:           1000 ave        1000 max        1000 min
Histogram: 1 0 0 0 0 0 0 0 0 0
Nghost:            138 ave         138 max         138 min
Histogram: 1 0 0 0 0 0 0 0 0 0
Neighs:              0 ave           0 max           0 min
Histogram: 1 0 0 0 0 0 0 0 0 0

Total # of neighbors = 0
Ave neighs/atom = 0
Neighbor list builds = 13
Dangerous builds = 0

fix 3 all nvt temp 370000 370000 100.0
run 400000
Generated 0 of 1 mixed pair_coeff terms from geometric mixing rule
WARNING: One or more atoms are time integrated more than once (src/modify.cpp:292)
Per MPI rank memory allocation (min/avg/max) = 8.913 | 8.913 | 8.913 Mbytes
   Step          Temp          E_pair         E_mol          TotEng         Press     
      5000   357461.68      0              0              1064459.8      0.34606055   
    405000   367464.51     -4116.1109      0              1090130.5      0.35554465   
Loop time of 15.4713 on 1 procs for 400000 steps with 1000 atoms

Performance: 2233.811 ns/day, 0.011 hours/ns, 25854.297 timesteps/s
98.7% CPU use with 1 MPI tasks x 1 OpenMP threads

MPI task timing breakdown:
Section |  min time  |  avg time  |  max time  |%varavg| %total
---------------------------------------------------------------
Pair    | 1.3352     | 1.3352     | 1.3352     |   0.0 |  8.63
Neigh   | 1.9008     | 1.9008     | 1.9008     |   0.0 | 12.29
Comm    | 0.81453    | 0.81453    | 0.81453    |   0.0 |  5.26
Output  | 0.48161    | 0.48161    | 0.48161    |   0.0 |  3.11
Modify  | 9.8954     | 9.8954     | 9.8954     |   0.0 | 63.96
Other   |            | 1.044      |            |       |  6.75

Nlocal:           1000 ave        1000 max        1000 min
Histogram: 1 0 0 0 0 0 0 0 0 0
Nghost:            171 ave         171 max         171 min
Histogram: 1 0 0 0 0 0 0 0 0 0
Neighs:              5 ave           5 max           5 min
Histogram: 1 0 0 0 0 0 0 0 0 0

Total # of neighbors = 5
Ave neighs/atom = 0.005
Neighbor list builds = 2875
Dangerous builds = 0

fix 4 all nvt temp 370000 ${T} 100.0
fix 4 all nvt temp 370000 300 100.0
run ${steps_gen}
run 5000
Generated 0 of 1 mixed pair_coeff terms from geometric mixing rule
WARNING: One or more atoms are time integrated more than once (src/modify.cpp:292)
Per MPI rank memory allocation (min/avg/max) = 8.913 | 8.913 | 8.913 Mbytes
   Step          Temp          E_pair         E_mol          TotEng         Press     
    405000   367464.51     -4116.1109      0              1090130.5      0.35554465   
    410000   32897.635     -3659.6466      0              94303.894      0.030767951  
Loop time of 0.252745 on 1 procs for 5000 steps with 1000 atoms

Performance: 1709.236 ns/day, 0.014 hours/ns, 19782.820 timesteps/s
99.4% CPU use with 1 MPI tasks x 1 OpenMP threads

MPI task timing breakdown:
Section |  min time  |  avg time  |  max time  |%varavg| %total
---------------------------------------------------------------
Pair    | 0.014081   | 0.014081   | 0.014081   |   0.0 |  5.57
Neigh   | 0.030053   | 0.030053   | 0.030053   |   0.0 | 11.89
Comm    | 0.0090409  | 0.0090409  | 0.0090409  |   0.0 |  3.58
Output  | 0.0047685  | 0.0047685  | 0.0047685  |   0.0 |  1.89
Modify  | 0.1818     | 0.1818     | 0.1818     |   0.0 | 71.93
Other   |            | 0.013      |            |       |  5.14

Nlocal:           1000 ave        1000 max        1000 min
Histogram: 1 0 0 0 0 0 0 0 0 0
Nghost:            168 ave         168 max         168 min
Histogram: 1 0 0 0 0 0 0 0 0 0
Neighs:              6 ave           6 max           6 min
Histogram: 1 0 0 0 0 0 0 0 0 0

Total # of neighbors = 6
Ave neighs/atom = 0.006
Neighbor list builds = 46
Dangerous builds = 0


# Thermo #
thermo_style custom step temp press pe ke etotal epair lx ly lz xlo xhi ylo yhi zlo zhi vol density dt time

# Run stle #
run_style verlet

# Run #
timestep ${ts}
timestep 1
thermo ${ts_save}
thermo 50
# run ${steps_gen}

# write restart #
write_restart ${write_restart}
write_restart ./pgnpmf/64/genpmf.res
System init for write_restart ...
Generated 0 of 1 mixed pair_coeff terms from geometric mixing rule
WARNING: One or more atoms are time integrated more than once (src/modify.cpp:292)


Total wall time: 0:00:15
