LAMMPS (23 Jun 2022 - Update 1)
OMP_NUM_THREADS environment is not set. Defaulting to 1 thread. (src/comm.cpp:98)
  using 1 OpenMP thread(s) per MPI task
# Read restart
read_restart ${read_res}
read_restart ./pgnpmf/trial2/64/equpmf71.res
Reading restart file ...
  restart file = 23 Jun 2022, LAMMPS = 23 Jun 2022
  restoring atom style atomic from restart
  orthogonal box = (2187.5732 2187.5732 2187.5732) to (2812.4268 2812.4268 2812.4268)
  1 by 2 by 2 MPI processor grid
  restoring pair style table from restart
  1000 atoms
  read_restart CPU = 0.024 seconds

# Settings

pair_style table spline 9941

pair_coeff 1 1 ./pgnpmf/N20.txt DE_GNP 75.6
pair_coeff 2 2 ./pgnpmf/N100.txt DE_GNP 115.92
WARNING: 3 of 9941 force values in table DE_GNP are inconsistent with -dE/dr.
WARNING:  Should only be flagged at inflection points (src/pair_table.cpp:463)
pair_coeff 1 2 ./pgnpmf/mixed_potential.txt DE_GNP 95.66
WARNING: 1562 of 9941 force values in table DE_GNP are inconsistent with -dE/dr.
WARNING:  Should only be flagged at inflection points (src/pair_table.cpp:463)

#Neigh_list Calc Frequency

neigh_modify delay 0 every 1 check yes

# computes
compute vor all voronoi/atom

# Saving Frequency (50 frames)
variable ts_save equal ${steps_equ}
variable ts_save equal 5000

# Dump
dump 1 all custom 100000 ./pgnpmf/${folder}/voronoi/voronoi_${usic}_${trial}.custom type x y z ix iy iz c_vor[1] c_vor[2]
dump 1 all custom 100000 ./pgnpmf/trial2/64/voronoi/voronoi_${usic}_${trial}.custom type x y z ix iy iz c_vor[1] c_vor[2]
dump 1 all custom 100000 ./pgnpmf/trial2/64/voronoi/voronoi_1_${trial}.custom type x y z ix iy iz c_vor[1] c_vor[2]
dump 1 all custom 100000 ./pgnpmf/trial2/64/voronoi/voronoi_1_1.custom type x y z ix iy iz c_vor[1] c_vor[2]
dump_modify 1 first no sort id
#dump 2 all cfg 50000 ./pgnpmf/${folder}/equilibration/trajectory/dumpgen.tens_*.cfg mass type xs ys zs fx fy fz
#dump_modify 2 element N20 N100

# thermo_style
thermo_style custom step temp press pe density ke etotal lx ly lz xlo xhi ylo yhi zlo zhi vol dt time cpu tpcpu spcpu cpuremain

# run info
timestep ${ts}
timestep 0.5
thermo 200

# fix

fix 1 all momentum 1000 linear 1 1 1 angular
variable T equal ${temp}
variable T equal 300
fix 2 all nvt temp ${T} ${T} 100.0
fix 2 all nvt temp 300 ${T} 100.0
fix 2 all nvt temp 300 300 100.0

run 100000
Generated 0 of 1 mixed pair_coeff terms from geometric mixing rule
Unused restart file global fix info:
  fix style: npt, fix ID: 5
Neighbor list info ...
  update every 1 steps, delay 0 steps, check yes
  max neighbors/atom: 2000, page size: 100000
  master list distance cutoff = 117.92
  ghost atom cutoff = 117.92
  binsize = 58.96, bins = 11 11 11
  1 neighbor lists, perpetual/occasional/extra = 1 0 0
  (1) pair table, perpetual
      attributes: half, newton on
      pair build: half/bin/atomonly/newton
      stencil: half/bin/3d
      bin: standard
Per MPI rank memory allocation (min/avg/max) = 3.101 | 3.102 | 3.104 Mbytes
   Step          Temp          Press          PotEng        Density         KinEng         TotEng           Lx             Ly             Lz            Xlo            Xhi            Ylo            Yhi            Zlo            Zhi           Volume           Dt            Time           CPU           T/CPU          S/CPU         CPULeft    
  50110000   302.57767      7.5417749     -27596398       2.0550478      901.02464     -27595497       624.85361      624.85361      624.85361      2187.5732      2812.4268      2187.5732      2812.4268      2187.5732      2812.4268      2.4396911e+08  0.5            25260000       0              0              0              0            
  50110200   301.59007      7.3008577     -27596406       2.0550478      898.08373     -27595508       624.85361      624.85361      624.85361      2187.5732      2812.4268      2187.5732      2812.4268      2187.5732      2812.4268      2.4396911e+08  0.5            25260100       0.018652417    5360.9487      10721.281      9.3090965    
  50110400   289.47911      6.8619441     -27598308       2.0550478      862.01935     -27597446       624.85361      624.85361      624.85361      2187.5732      2812.4268      2187.5732      2812.4268      2187.5732      2812.4268      2.4396911e+08  0.5            25260200       0.034915671    6148.9652      12298.028      8.6946345    
  50110600   285.91789      6.7426651     -27598315       2.0550478      851.41465     -27597463       624.85361      624.85361      624.85361      2187.5732      2812.4268      2187.5732      2812.4268      2187.5732      2812.4268      2.4396911e+08  0.5            25260300       0.05101473     6211.5254      12423.057      8.4518515    
  50110800   309.71613      6.7090595     -27598322       2.0550478      922.28173     -27597400       624.85361      624.85361      624.85361      2187.5732      2812.4268      2187.5732      2812.4268      2187.5732      2812.4268      2.4396911e+08  0.5            25260400       0.06709675     6218.0853      12436.219      8.320319     
  50111000   309.97643      6.7477647     -27598329       2.0550478      923.05686     -27597406       624.85361      624.85361      624.85361      2187.5732      2812.4268      2187.5732      2812.4268      2187.5732      2812.4268      2.4396911e+08  0.5            25260500       0.083212783    6205.0017      12409.941      8.238318     
  50111200   298.73409      6.9008226     -27598335       2.0550478      889.5791      -27597445       624.85361      624.85361      624.85361      2187.5732      2812.4268      2187.5732      2812.4268      2187.5732      2812.4268      2.4396911e+08  0.5            25260600       0.099352957    6195.7953      12391.596      8.1802651    
  50111400   295.35965      7.1532271     -27598341       2.0550478      879.53059     -27597461       624.85361      624.85361      624.85361      2187.5732      2812.4268      2187.5732      2812.4268      2187.5732      2812.4268      2.4396911e+08  0.5            25260700       0.11546357     6207.0692      12414.162      8.1321097    
  50111600   301.28722      7.4515519     -27598347       2.0550478      897.18189     -27597449       624.85361      624.85361      624.85361      2187.5732      2812.4268      2187.5732      2812.4268      2187.5732      2812.4268      2.4396911e+08  0.5            25260800       0.13155863     6213.1066      12426.208      8.0910043    
  50111800   315.41857      7.4922095     -27600248       2.0550478      939.26264     -27599309       624.85361      624.85361      624.85361      2187.5732      2812.4268      2187.5732      2812.4268      2187.5732      2812.4268      2.4396911e+08  0.5            25260900       0.14764578     6216.1461      12432.319      8.0550264    
  50112000   311.43269      7.6926395     -27600254       2.0550478      927.39336     -27599327       624.85361      624.85361      624.85361      2187.5732      2812.4268      2187.5732      2812.4268      2187.5732      2812.4268      2.4396911e+08  0.5            25261000       0.16373796     6214.1942      12428.408      8.0232755    
  50112200   294.86336      7.8508368     -27600261       2.0550478      878.05274     -27599383       624.85361      624.85361      624.85361      2187.5732      2812.4268      2187.5732      2812.4268      2187.5732      2812.4268      2.4396911e+08  0.5            25261100       0.17981338     6220.6866      12441.33       7.9936294    
  50112400   296.59039      7.9400213     -27600267       2.0550478      883.19553     -27599384       624.85361      624.85361      624.85361      2187.5732      2812.4268      2187.5732      2812.4268      2187.5732      2812.4268      2.4396911e+08  0.5            25261200       0.19593389     6203.2989      12406.579      7.9680746    
  50112600   305.58398      7.9265758     -27600272       2.0550478      909.97692     -27599362       624.85361      624.85361      624.85361      2187.5732      2812.4268      2187.5732      2812.4268      2187.5732      2812.4268      2.4396911e+08  0.5            25261300       0.21199599     6225.8212      12451.662      7.9417849    
  50112800   307.8142       7.8242818     -27600277       2.0550478      916.61811     -27599361       624.85361      624.85361      624.85361      2187.5732      2812.4268      2187.5732      2812.4268      2187.5732      2812.4268      2.4396911e+08  0.5            25261400       0.22804294     6231.701       12463.389      7.9164317    
  50113000   290.25957      7.7158198     -27600282       2.0550478      864.34345     -27599417       624.85361      624.85361      624.85361      2187.5732      2812.4268      2187.5732      2812.4268      2187.5732      2812.4268      2.4396911e+08  0.5            25261500       0.24430325     6149.9473      12299.887      7.8992165    
  50113200   291.09861      7.6973017     -27600286       2.0550478      866.84196     -27599419       624.85361      624.85361      624.85361      2187.5732      2812.4268      2187.5732      2812.4268      2187.5732      2812.4268      2.4396911e+08  0.5            25261600       0.26038182     6219.481       12438.996      7.876619     
  50113400   304.71922      7.9456104     -27598397       2.0550478      907.40181     -27597489       624.85361      624.85361      624.85361      2187.5732      2812.4268      2187.5732      2812.4268      2187.5732      2812.4268      2.4396911e+08  0.5            25261700       0.27646767     6216.6403      12433.263      7.8550025    
  50113600   306.60681      7.9523339     -27598402       2.0550478      913.02273     -27597489       624.85361      624.85361      624.85361      2187.5732      2812.4268      2187.5732      2812.4268      2187.5732      2812.4268      2.4396911e+08  0.5            25261800       0.29259976     6198.8248      12397.647      7.8352351    
  50113800   301.79026      7.9549487     -27598408       2.0550478      898.67987     -27597509       624.85361      624.85361      624.85361      2187.5732      2812.4268      2187.5732      2812.4268      2187.5732      2812.4268      2.4396911e+08  0.5            25261900       0.30868552     6216.6821      12433.357      7.8146774    
  50114000   299.49982      7.9646694     -27598413       2.0550478      891.85933     -27597521       624.85361      624.85361      624.85361      2187.5732      2812.4268      2187.5732      2812.4268      2187.5732      2812.4268      2.4396911e+08  0.5            25262000       0.32478703     6210.5703      12421.138      7.7949471    
  50114200   299.60743      8.023778      -27598418       2.0550478      892.17975     -27597526       624.85361      624.85361      624.85361      2187.5732      2812.4268      2187.5732      2812.4268      2187.5732      2812.4268      2.4396911e+08  0.5            25262100       0.34088328     6212.6445      12425.295      7.7754396    
  50114400   299.74805      8.0818807     -27598423       2.0550478      892.59852     -27597531       624.85361      624.85361      624.85361      2187.5732      2812.4268      2187.5732      2812.4268      2187.5732      2812.4268      2.4396911e+08  0.5            25262200       0.35694491     6226.0139      12452.056      7.75549      
  50114600   293.84706      8.0853248     -27598429       2.0550478      875.02637     -27597554       624.85361      624.85361      624.85361      2187.5732      2812.4268      2187.5732      2812.4268      2187.5732      2812.4268      2.4396911e+08  0.5            25262300       0.3730096      6224.8272      12449.655      7.7359429    
  50114800   293.27209      7.8648491     -27598803       2.0550478      873.3142      -27597930       624.85361      624.85361      624.85361      2187.5732      2812.4268      2187.5732      2812.4268      2187.5732      2812.4268      2.4396911e+08  0.5            25262400       0.38909784     6215.7292      12431.438      7.7171543    
  50115000   305.49266      7.7202453     -27598808       2.0550478      909.70497     -27597898       624.85361      624.85361      624.85361      2187.5732      2812.4268      2187.5732      2812.4268      2187.5732      2812.4268      2.4396911e+08  0.5            25262500       0.40522297     6201.5008      12403.031      7.6992794    
  50115200   310.44594      7.4909818     -27598811       2.0550478      924.45499     -27597887       624.85361      624.85361      624.85361      2187.5732      2812.4268      2187.5732      2812.4268      2187.5732      2812.4268      2.4396911e+08  0.5            25262600       0.42127351     6230.3208      12460.589      7.6801832    
  50115400   293.26175      7.2043491     -27598814       2.0550478      873.28342     -27597941       624.85361      624.85361      624.85361      2187.5732      2812.4268      2187.5732      2812.4268      2187.5732      2812.4268      2.4396911e+08  0.5            25262700       0.43733601     6225.6763      12451.388      7.6615208    
  50115600   290.91685      6.8660546     -27600344       2.0550478      866.30071     -27599477       624.85361      624.85361      624.85361      2187.5732      2812.4268      2187.5732      2812.4268      2187.5732      2812.4268      2.4396911e+08  0.5            25262800       0.45340614     6222.7099      12445.415      7.6431724    
  50115800   300.27113      6.7026859     -27600347       2.0550478      894.15616     -27599453       624.85361      624.85361      624.85361      2187.5732      2812.4268      2187.5732      2812.4268      2187.5732      2812.4268      2.4396911e+08  0.5            25262900       0.46948971     6217.532       12435.053      7.6251989    
  50116000   304.51108      6.6729786     -27600352       2.0550478      906.78199     -27599445       624.85361      624.85361      624.85361      2187.5732      2812.4268      2187.5732      2812.4268      2187.5732      2812.4268      2.4396911e+08  0.5            25263000       0.48557852     6215.5213      12431.043      7.6074329    
  50116200   300.20536      6.7157813     -27600356       2.0550478      893.96029     -27599462       624.85361      624.85361      624.85361      2187.5732      2812.4268      2187.5732      2812.4268      2187.5732      2812.4268      2.4396911e+08  0.5            25263100       0.50172205     6194.4048      12388.8        7.5906061    
  50116400   285.08202      6.7346579     -27600362       2.0550478      848.92557     -27599513       624.85361      624.85361      624.85361      2187.5732      2812.4268      2187.5732      2812.4268      2187.5732      2812.4268      2.4396911e+08  0.5            25263200       0.5177949      6221.6898      12443.392      7.5727852    
  50116600   280.80092      6.6426139     -27600367       2.0550478      836.17719     -27599531       624.85361      624.85361      624.85361      2187.5732      2812.4268      2187.5732      2812.4268      2187.5732      2812.4268      2.4396911e+08  0.5            25263300       0.53386452     6222.902       12445.776      7.5550261    
  50116800   304.73051      6.4017451     -27600373       2.0550478      907.43541     -27599465       624.85361      624.85361      624.85361      2187.5732      2812.4268      2187.5732      2812.4268      2187.5732      2812.4268      2.4396911e+08  0.5            25263400       0.5499444      6218.972       12437.933      7.5375061    
  50117000   305.18486      6.1143614     -27600377       2.0550478      908.78841     -27599469       624.85361      624.85361      624.85361      2187.5732      2812.4268      2187.5732      2812.4268      2187.5732      2812.4268      2.4396911e+08  0.5            25263500       0.56631437     6108.718       12217.405      7.5239261    
  50117200   296.18547      5.9009325     -27600381       2.0550478      881.98975     -27599499       624.85361      624.85361      624.85361      2187.5732      2812.4268      2187.5732      2812.4268      2187.5732      2812.4268      2.4396911e+08  0.5            25263600       0.58241682     6210.2663      12420.576      7.5067373    
  50117400   292.83172      5.695574      -27600385       2.0550478      872.00286     -27599513       624.85361      624.85361      624.85361      2187.5732      2812.4268      2187.5732      2812.4268      2187.5732      2812.4268      2.4396911e+08  0.5            25263700       0.5985608      6194.221       12388.449      7.4901306    
  50117600   304.63029      5.4631506     -27600387       2.0550478      907.13698     -27599480       624.85361      624.85361      624.85361      2187.5732      2812.4268      2187.5732      2812.4268      2187.5732      2812.4268      2.4396911e+08  0.5            25263800       0.61377326     6573.621       13147.418      7.4622154    
  50117800   315.59612      5.3019826     -27600388       2.0550478      939.79135     -27599448       624.85361      624.85361      624.85361      2187.5732      2812.4268      2187.5732      2812.4268      2187.5732      2812.4268      2.4396911e+08  0.5            25263900       0.62793382     7061.8711      14123.723      7.4225235    
  50118000   296.27443      5.3829737     -27600388       2.0550478      882.25466     -27599505       624.85361      624.85361      624.85361      2187.5732      2812.4268      2187.5732      2812.4268      2187.5732      2812.4268      2.4396911e+08  0.5            25264000       0.64212288     7047.6877      14095.405      7.3844358    
  50118200   291.77539      5.773033      -27600388       2.0550478      868.85728     -27599519       624.85361      624.85361      624.85361      2187.5732      2812.4268      2187.5732      2812.4268      2187.5732      2812.4268      2.4396911e+08  0.5            25264100       0.65629147     7057.8833      14115.755      7.3472847    
  50118400   301.08912      6.2575975     -27600388       2.0550478      896.59198     -27599492       624.85361      624.85361      624.85361      2187.5732      2812.4268      2187.5732      2812.4268      2187.5732      2812.4268      2.4396911e+08  0.5            25264200       0.67044297     7066.3673      14132.688      7.3110431    
  50118600   307.38813      7.039724      -27598494       2.0550478      915.34937     -27597579       624.85361      624.85361      624.85361      2187.5732      2812.4268      2187.5732      2812.4268      2187.5732      2812.4268      2.4396911e+08  0.5            25264300       0.68460358     7061.8342      14123.736      7.275924     
  50118800   298.20778      7.6647362     -27598494       2.0550478      888.01185     -27597606       624.85361      624.85361      624.85361      2187.5732      2812.4268      2187.5732      2812.4268      2187.5732      2812.4268      2.4396911e+08  0.5            25264400       0.69882018     7034.0277      14068.03       7.2423393    
  50119000   283.85232      8.3304449     -27598494       2.0550478      845.26373     -27597649       624.85361      624.85361      624.85361      2187.5732      2812.4268      2187.5732      2812.4268      2187.5732      2812.4268      2.4396911e+08  0.5            25264500       0.71302376     7040.4899      14080.952      7.2094824    
  50119200   296.34998      8.9787351     -27598495       2.0550478      882.47963     -27597612       624.85361      624.85361      624.85361      2187.5732      2812.4268      2187.5732      2812.4268      2187.5732      2812.4268      2.4396911e+08  0.5            25264600       0.7272181      7045.0706      14090.165      7.1773457    
  50119400   304.74201      9.4906634     -27598496       2.0550478      907.46966     -27597588       624.85361      624.85361      624.85361      2187.5732      2812.4268      2187.5732      2812.4268      2187.5732      2812.4268      2.4396911e+08  0.5            25264700       0.74138846     7056.9763      14113.951      7.1457419    
  50119600   301.025        9.7901396     -27598497       2.0550478      896.40103     -27597601       624.85361      624.85361      624.85361      2187.5732      2812.4268      2187.5732      2812.4268      2187.5732      2812.4268      2.4396911e+08  0.5            25264800       0.75555875     7057.0241      14114.115      7.1148628    
  50119800   294.88655      9.8692132     -27598498       2.0550478      878.12181     -27597620       624.85361      624.85361      624.85361      2187.5732      2812.4268      2187.5732      2812.4268      2187.5732      2812.4268      2.4396911e+08  0.5            25264900       0.76969954     7071.7472      14143.436      7.0843955    
  50120000   295.86853      9.8425472     -27598500       2.0550478      881.04595     -27597619       624.85361      624.85361      624.85361      2187.5732      2812.4268      2187.5732      2812.4268      2187.5732      2812.4268      2.4396911e+08  0.5            25265000       0.78459584     6713.0836      13426.172      7.0613803    
  50120200   311.25967      9.7930121     -27598501       2.0550478      926.87814     -27597574       624.85361      624.85361      624.85361      2187.5732      2812.4268      2187.5732      2812.4268      2187.5732      2812.4268      2.4396911e+08  0.5            25265100       0.79922773     6834.3847      13668.726      7.0363561    
  50120400   311.45973      9.7158687     -27598502       2.0550478      927.47389     -27597575       624.85361      624.85361      624.85361      2187.5732      2812.4268      2187.5732      2812.4268      2187.5732      2812.4268      2.4396911e+08  0.5            25265200       0.81338497     7063.5092      14127.041      7.0076413    
  50120600   293.47505      9.6142497     -27598504       2.0550478      873.91858     -27597630       624.85361      624.85361      624.85361      2187.5732      2812.4268      2187.5732      2812.4268      2187.5732      2812.4268      2.4396911e+08  0.5            25265300       0.82754471     7062.2781      14124.593      6.979497     
  50120800   295.40656      9.5327618     -27598506       2.0550478      879.67029     -27597626       624.85361      624.85361      624.85361      2187.5732      2812.4268      2187.5732      2812.4268      2187.5732      2812.4268      2.4396911e+08  0.5            25265400       0.84171646     7056.3095      14112.594      6.9519701    
  50121000   303.28923      9.4641443     -27598508       2.0550478      903.14355     -27597605       624.85361      624.85361      624.85361      2187.5732      2812.4268      2187.5732      2812.4268      2187.5732      2812.4268      2.4396911e+08  0.5            25265500       0.85591271     7044.1033      14088.232      6.9251276    
  50121200   305.70758      9.4241745     -27598509       2.0550478      910.34496     -27597599       624.85361      624.85361      624.85361      2187.5732      2812.4268      2187.5732      2812.4268      2187.5732      2812.4268      2.4396911e+08  0.5            25265600       0.87008544     7055.7922      14111.565      6.8985502    
  50121400   290.38976      9.3878556     -27598511       2.0550478      864.73112     -27597646       624.85361      624.85361      624.85361      2187.5732      2812.4268      2187.5732      2812.4268      2187.5732      2812.4268      2.4396911e+08  0.5            25265700       0.88465454     6863.8382      13727.662      6.8754887    
  50121600   285.50976      9.3521946     -27598512       2.0550478      850.19931     -27597662       624.85361      624.85361      624.85361      2187.5732      2812.4268      2187.5732      2812.4268      2187.5732      2812.4268      2.4396911e+08  0.5            25265800       0.89888802     7025.6917      14051.383      6.8501618    
  50121800   301.74416      9.3207525     -27598515       2.0550478      898.54258     -27597616       624.85361      624.85361      624.85361      2187.5732      2812.4268      2187.5732      2812.4268      2187.5732      2812.4268      2.4396911e+08  0.5            25265900       0.91302927     7071.5032      14143          6.8245223    
  50122000   305.02826      9.2532201     -27598519       2.0550478      908.32206     -27597610       624.85361      624.85361      624.85361      2187.5732      2812.4268      2187.5732      2812.4268      2187.5732      2812.4268      2.4396911e+08  0.5            25266000       0.92720103     7056.2936      14112.59       6.7994887    
  50122200   299.823        9.1619909     -27598522       2.0550478      892.8217      -27597630       624.85361      624.85361      624.85361      2187.5732      2812.4268      2187.5732      2812.4268      2187.5732      2812.4268      2.4396911e+08  0.5            25266100       0.94165373     6919.1047      13838.151      6.7768352    
  50122400   294.16845      9.0734745     -27598526       2.0550478      875.98342     -27597650       624.85361      624.85361      624.85361      2187.5732      2812.4268      2187.5732      2812.4268      2187.5732      2812.4268      2.4396911e+08  0.5            25266200       0.95585174     7043.2654      14086.551      6.7526442    
  50122600   295.84549      9.0286111     -27598530       2.0550478      880.97735     -27597649       624.85361      624.85361      624.85361      2187.5732      2812.4268      2187.5732      2812.4268      2187.5732      2812.4268      2.4396911e+08  0.5            25266300       0.97005138     7042.4226      14084.893      6.728783     
  50122800   311.22054      9.0699144     -27598532       2.0550478      926.76161     -27597605       624.85361      624.85361      624.85361      2187.5732      2812.4268      2187.5732      2812.4268      2187.5732      2812.4268      2.4396911e+08  0.5            25266400       0.98423222     7051.7839      14103.573      6.7050951    
  50123000   308.43274      9.1624427     -27598534       2.0550478      918.46002     -27597615       624.85361      624.85361      624.85361      2187.5732      2812.4268      2187.5732      2812.4268      2187.5732      2812.4268      2.4396911e+08  0.5            25266500       0.99846808     7024.5107      14049.014      6.6820685    
  50123200   292.7857       9.2618196     -27598534       2.0550478      871.86582     -27597662       624.85361      624.85361      624.85361      2187.5732      2812.4268      2187.5732      2812.4268      2187.5732      2812.4268      2.4396911e+08  0.5            25266600       1.0126344      7059.0092      14118.022      6.658851     
  50123400   294.1632       9.330308      -27598533       2.0550478      875.96779     -27597657       624.85361      624.85361      624.85361      2187.5732      2812.4268      2187.5732      2812.4268      2187.5732      2812.4268      2.4396911e+08  0.5            25266700       1.026807       7055.8524      14111.707      6.6359444    
  50123600   302.83358      9.3368313     -27598532       2.0550478      901.7867      -27597631       624.85361      624.85361      624.85361      2187.5732      2812.4268      2187.5732      2812.4268      2187.5732      2812.4268      2.4396911e+08  0.5            25266800       1.0409885      7051.484       14102.963      6.6133505    
  50123800   303.99039      9.2950578     -27598531       2.0550478      905.23147     -27597626       624.85361      624.85361      624.85361      2187.5732      2812.4268      2187.5732      2812.4268      2187.5732      2812.4268      2.4396911e+08  0.5            25266900       1.055158       7057.4046      14114.846      6.5909261    
  50124000   299.98956      9.2323718     -27598529       2.0550478      893.3177      -27597636       624.85361      624.85361      624.85361      2187.5732      2812.4268      2187.5732      2812.4268      2187.5732      2812.4268      2.4396911e+08  0.5            25267000       1.0693358      7053.3044      14106.577      6.5687881    
  50124200   298.70378      9.1516449     -27598527       2.0550478      889.48886     -27597637       624.85361      624.85361      624.85361      2187.5732      2812.4268      2187.5732      2812.4268      2187.5732      2812.4268      2.4396911e+08  0.5            25267100       1.0834899      7065.0892      14130.189      6.5467317    
  50124400   299.64863      9.0638243     -27598524       2.0550478      892.30246     -27597631       624.85361      624.85361      624.85361      2187.5732      2812.4268      2187.5732      2812.4268      2187.5732      2812.4268      2.4396911e+08  0.5            25267200       1.097683       7045.6454      14091.223      6.5251273    
  50124600   303.17509      9.228832      -27596626       2.0550478      902.80366     -27595723       624.85361      624.85361      624.85361      2187.5732      2812.4268      2187.5732      2812.4268      2187.5732      2812.4268      2.4396911e+08  0.5            25267300       1.1118393      7063.9912      14128.036      6.5035094    
  50124800   308.2151       9.2099754     -27596623       2.0550478      917.81194     -27595705       624.85361      624.85361      624.85361      2187.5732      2812.4268      2187.5732      2812.4268      2187.5732      2812.4268      2.4396911e+08  0.5            25267400       1.1259903      7066.6439      14133.305      6.482063     
  50125000   301.17045      9.2504097     -27596621       2.0550478      896.83417     -27595724       624.85361      624.85361      624.85361      2187.5732      2812.4268      2187.5732      2812.4268      2187.5732      2812.4268      2.4396911e+08  0.5            25267500       1.1401563      7059.1747      14118.357      6.460896     
  50125200   289.12012      9.3328799     -27596620       2.0550478      860.95036     -27595759       624.85361      624.85361      624.85361      2187.5732      2812.4268      2187.5732      2812.4268      2187.5732      2812.4268      2.4396911e+08  0.5            25267600       1.1543067      7066.9001      14133.828      6.4398267    
  50125400   296.46234      9.4276681     -27596620       2.0550478      882.81422     -27595737       624.85361      624.85361      624.85361      2187.5732      2812.4268      2187.5732      2812.4268      2187.5732      2812.4268      2.4396911e+08  0.5            25267700       1.1684441      7073.4794      14146.921      6.4188651    
  50125600   311.03978      9.4789786     -27596621       2.0550478      926.22335     -27595694       624.85361      624.85361      624.85361      2187.5732      2812.4268      2187.5732      2812.4268      2187.5732      2812.4268      2.4396911e+08  0.5            25267800       1.1825949      7066.7458      14133.509      6.3981515    
  50125800   305.61017      9.5629789     -27596253       2.0550478      910.05489     -27595342       624.85361      624.85361      624.85361      2187.5732      2812.4268      2187.5732      2812.4268      2187.5732      2812.4268      2.4396911e+08  0.5            25267900       1.1967848      7047.2516      14094.437      6.3778127    
  50126000   298.77909      9.3560659     -27596252       2.0550478      889.7131      -27595363       624.85361      624.85361      624.85361      2187.5732      2812.4268      2187.5732      2812.4268      2187.5732      2812.4268      2.4396911e+08  0.5            25268000       1.210944       7062.5434      14125.124      6.3574657    
  50126200   297.32362      9.0936973     -27596252       2.0550478      885.37897     -27595366       624.85361      624.85361      624.85361      2187.5732      2812.4268      2187.5732      2812.4268      2187.5732      2812.4268      2.4396911e+08  0.5            25268100       1.2250666      7080.8331      14161.703      6.3370825    
  50126400   302.11156      8.8590954     -27596252       2.0550478      899.63663     -27595352       624.85361      624.85361      624.85361      2187.5732      2812.4268      2187.5732      2812.4268      2187.5732      2812.4268      2.4396911e+08  0.5            25268200       1.2392121      7069.3955      14138.766      6.3169687    
  50126600   315.95866      8.6545107     -27596252       2.0550478      940.87093     -27595311       624.85361      624.85361      624.85361      2187.5732      2812.4268      2187.5732      2812.4268      2187.5732      2812.4268      2.4396911e+08  0.5            25268300       1.2533455      7075.4543      14150.915      6.2969378    
  50126800   309.08251      8.4387365     -27596252       2.0550478      920.39495     -27595332       624.85361      624.85361      624.85361      2187.5732      2812.4268      2187.5732      2812.4268      2187.5732      2812.4268      2.4396911e+08  0.5            25268400       1.2675036      7063.0836      14126.166      6.2771699    
  50127000   292.74507      8.2227509     -27596253       2.0550478      871.74484     -27595381       624.85361      624.85361      624.85361      2187.5732      2812.4268      2187.5732      2812.4268      2187.5732      2812.4268      2.4396911e+08  0.5            25268500       1.2816764      7055.7897      14111.635      6.2576049    
  50127200   296.2001       8.0328333     -27596253       2.0550478      882.03332     -27595371       624.85361      624.85361      624.85361      2187.5732      2812.4268      2187.5732      2812.4268      2187.5732      2812.4268      2.4396911e+08  0.5            25268600       1.2958602      7050.2784      14100.49       6.2382196    
  50127400   306.45272      7.8921495     -27596254       2.0550478      912.56386     -27595342       624.85361      624.85361      624.85361      2187.5732      2812.4268      2187.5732      2812.4268      2187.5732      2812.4268      2.4396911e+08  0.5            25268700       1.3100185      7063.0033      14126.037      6.2188319    
  50127600   306.41168      7.8041042     -27596256       2.0550478      912.44166     -27595343       624.85361      624.85361      624.85361      2187.5732      2812.4268      2187.5732      2812.4268      2187.5732      2812.4268      2.4396911e+08  0.5            25268800       1.3241762      7063.2837      14126.586      6.1995607    
  50127800   285.51246      7.7420139     -27596257       2.0550478      850.20736     -27595407       624.85361      624.85361      624.85361      2187.5732      2812.4268      2187.5732      2812.4268      2187.5732      2812.4268      2.4396911e+08  0.5            25268900       1.3383367      7061.8766      14123.724      6.1804176    
  50128000   290.24826      7.7492626     -27596260       2.0550478      864.30975     -27595396       624.85361      624.85361      624.85361      2187.5732      2812.4268      2187.5732      2812.4268      2187.5732      2812.4268      2.4396911e+08  0.5            25269000       1.3525203      7050.432       14100.853      6.1614894    
  50128200   303.49438      7.8536092     -27596264       2.0550478      903.75445     -27595360       624.85361      624.85361      624.85361      2187.5732      2812.4268      2187.5732      2812.4268      2187.5732      2812.4268      2.4396911e+08  0.5            25269100       1.3666888      7057.9116      14115.822      6.1425985    
  50128400   305.01363      8.0541651     -27596269       2.0550478      908.2785      -27595360       624.85361      624.85361      624.85361      2187.5732      2812.4268      2187.5732      2812.4268      2187.5732      2812.4268      2.4396911e+08  0.5            25269200       1.380845       7063.9817      14127.959      6.123756     
  50128600   297.95476      8.2763867     -27596274       2.0550478      887.25841     -27595386       624.85361      624.85361      624.85361      2187.5732      2812.4268      2187.5732      2812.4268      2187.5732      2812.4268      2.4396911e+08  0.5            25269300       1.3950512      7039.2004      14078.433      6.1052323    
  50128800   290.7618       8.4258685     -27596279       2.0550478      865.83899     -27595413       624.85361      624.85361      624.85361      2187.5732      2812.4268      2187.5732      2812.4268      2187.5732      2812.4268      2.4396911e+08  0.5            25269400       1.4091929      7071.3221      14142.612      6.0865219    
  50129000   288.22026      8.4334006     -27596285       2.0550478      858.27073     -27595426       624.85361      624.85361      624.85361      2187.5732      2812.4268      2187.5732      2812.4268      2187.5732      2812.4268      2.4396911e+08  0.5            25269500       1.4233408      7068.1783      14136.386      6.0679344    
  50129200   304.45191      8.2695283     -27596290       2.0550478      906.6058      -27595384       624.85361      624.85361      624.85361      2187.5732      2812.4268      2187.5732      2812.4268      2187.5732      2812.4268      2.4396911e+08  0.5            25269600       1.4374848      7070.1193      14140.19       6.0494234    
  50129400   311.38952      7.9456237     -27596295       2.0550478      927.26481     -27595368       624.85361      624.85361      624.85361      2187.5732      2812.4268      2187.5732      2812.4268      2187.5732      2812.4268      2.4396911e+08  0.5            25269700       1.4516584      7055.3765      14110.754      6.0311246    
  50129600   297.69095      7.5581369     -27596299       2.0550478      886.4728      -27595412       624.85361      624.85361      624.85361      2187.5732      2812.4268      2187.5732      2812.4268      2187.5732      2812.4268      2.4396911e+08  0.5            25269800       1.4658186      7062.0816      14124.171      6.012855     
  50129800   292.73147      7.4310254     -27594407       2.0550478      871.70433     -27593535       624.85361      624.85361      624.85361      2187.5732      2812.4268      2187.5732      2812.4268      2187.5732      2812.4268      2.4396911e+08  0.5            25269900       1.4799755      7063.6649      14127.352      5.9946557    
  50130000   299.82265      7.1027423     -27594410       2.0550478      892.82065     -27593517       624.85361      624.85361      624.85361      2187.5732      2812.4268      2187.5732      2812.4268      2187.5732      2812.4268      2.4396911e+08  0.5            25270000       1.4941888      7035.6846      14071.369      5.9767623    
  50130200   305.09972      6.7458361     -27594412       2.0550478      908.53487     -27593503       624.85361      624.85361      624.85361      2187.5732      2812.4268      2187.5732      2812.4268      2187.5732      2812.4268      2.4396911e+08  0.5            25270100       1.5083587      7057.1565      14114.293      5.9587712    
  50130400   300.37935      6.3267095     -27594413       2.0550478      894.47842     -27593519       624.85361      624.85361      624.85361      2187.5732      2812.4268      2187.5732      2812.4268      2187.5732      2812.4268      2.4396911e+08  0.5            25270200       1.5227537      6946.8454      13893.639      5.9417334    
  50130600   275.47453      5.8673755     -27594414       2.0550478      820.31611     -27593594       624.85361      624.85361      624.85361      2187.5732      2812.4268      2187.5732      2812.4268      2187.5732      2812.4268      2.4396911e+08  0.5            25270300       1.5368354      7101.4506      14202.96       5.9235381    
  50130800   284.87112      5.4395402     -27594415       2.0550478      848.29755     -27593567       624.85361      624.85361      624.85361      2187.5732      2812.4268      2187.5732      2812.4268      2187.5732      2812.4268      2.4396911e+08  0.5            25270400       1.5509139      7103.0057      14206.033      5.9054104    
  50131000   301.05872      5.0578166     -27594416       2.0550478      896.50146     -27593519       624.85361      624.85361      624.85361      2187.5732      2812.4268      2187.5732      2812.4268      2187.5732      2812.4268      2.4396911e+08  0.5            25270500       1.5650079      7095.25        14190.438      5.8874181    
  50131200   306.58677      5.3294058     -27587038       2.0550478      912.96305     -27586125       624.85361      624.85361      624.85361      2187.5732      2812.4268      2187.5732      2812.4268      2187.5732      2812.4268      2.4396911e+08  0.5            25270600       1.5790906      7100.9005      14201.874      5.869457     
  50131400   299.38101      5.1888972     -27587037       2.0550478      891.50554     -27586146       624.85361      624.85361      624.85361      2187.5732      2812.4268      2187.5732      2812.4268      2187.5732      2812.4268      2.4396911e+08  0.5            25270700       1.5932183      7078.314       14156.555      5.8517341    
  50131600   289.53028      5.1746561     -27587037       2.0550478      862.17172     -27586175       624.85361      624.85361      624.85361      2187.5732      2812.4268      2187.5732      2812.4268      2187.5732      2812.4268      2.4396911e+08  0.5            25270800       1.6073603      7071.1216      14142.28       5.8341297    
  50131800   298.61724      5.263783      -27587037       2.0550478      889.23114     -27586148       624.85361      624.85361      624.85361      2187.5732      2812.4268      2187.5732      2812.4268      2187.5732      2812.4268      2.4396911e+08  0.5            25270900       1.6214563      7094.2131      14188.441      5.8164235    
  50132000   314.98045      5.3926172     -27587039       2.0550478      937.958       -27586101       624.85361      624.85361      624.85361      2187.5732      2812.4268      2187.5732      2812.4268      2187.5732      2812.4268      2.4396911e+08  0.5            25271000       1.6355596      7090.5486      14181.106      5.7988088    
  50132200   304.97795      5.442946      -27587041       2.0550478      908.17227     -27586133       624.85361      624.85361      624.85361      2187.5732      2812.4268      2187.5732      2812.4268      2187.5732      2812.4268      2.4396911e+08  0.5            25271100       1.649658       7092.9753      14185.944      5.7812407    
  50132400   297.13389      5.3780865     -27587044       2.0550478      884.81399     -27586160       624.85361      624.85361      624.85361      2187.5732      2812.4268      2187.5732      2812.4268      2187.5732      2812.4268      2.4396911e+08  0.5            25271200       1.6637597      7091.3798      14182.775      5.7637454    
  50132600   297.99464      4.9815569     -27588943       2.0550478      887.37716     -27588056       624.85361      624.85361      624.85361      2187.5732      2812.4268      2187.5732      2812.4268      2187.5732      2812.4268      2.4396911e+08  0.5            25271300       1.677866       7088.9965      14177.981      5.7463264    
  50132800   303.86038      4.7710186     -27588947       2.0550478      904.84434     -27588042       624.85361      624.85361      624.85361      2187.5732      2812.4268      2187.5732      2812.4268      2187.5732      2812.4268      2.4396911e+08  0.5            25271400       1.6919957      7077.2796      14154.56       5.7290446    
  50133000   312.18628      4.6150139     -27588950       2.0550478      929.63742     -27588021       624.85361      624.85361      624.85361      2187.5732      2812.4268      2187.5732      2812.4268      2187.5732      2812.4268      2.4396911e+08  0.5            25271500       1.7061262      7076.8999      14153.75       5.7118205    
  50133200   302.64327      4.6396262     -27588953       2.0550478      901.21999     -27588052       624.85361      624.85361      624.85361      2187.5732      2812.4268      2187.5732      2812.4268      2187.5732      2812.4268      2.4396911e+08  0.5            25271600       1.7202258      7092.4159      14184.89       5.6945468    
  50133400   290.57709      4.8427974     -27588955       2.0550478      865.28894     -27588090       624.85361      624.85361      624.85361      2187.5732      2812.4268      2187.5732      2812.4268      2187.5732      2812.4268      2.4396911e+08  0.5            25271700       1.7343048      7102.7918      14205.57       5.6772604    
  50133600   297.18172      5.1297739     -27588956       2.0550478      884.9564      -27588071       624.85361      624.85361      624.85361      2187.5732      2812.4268      2187.5732      2812.4268      2187.5732      2812.4268      2.4396911e+08  0.5            25271800       1.7483922      7098.5566      14197.132      5.6600552    
  50133800   309.59419      5.3978725     -27588958       2.0550478      921.91863     -27588036       624.85361      624.85361      624.85361      2187.5732      2812.4268      2187.5732      2812.4268      2187.5732      2812.4268      2.4396911e+08  0.5            25271900       1.7624729      7101.9136      14203.819      5.6428813    
  50134000   303.76831      5.5594732     -27588960       2.0550478      904.57015     -27588055       624.85361      624.85361      624.85361      2187.5732      2812.4268      2187.5732      2812.4268      2187.5732      2812.4268      2.4396911e+08  0.5            25272000       1.7765771      7090.0786      14180.159      5.6258333    
  50134200   283.71109      5.7601301     -27588593       2.0550478      844.84319     -27587749       624.85361      624.85361      624.85361      2187.5732      2812.4268      2187.5732      2812.4268      2187.5732      2812.4268      2.4396911e+08  0.5            25272100       1.7906754      7093.0528      14186.099      5.6088156    
  50134400   291.72034      5.7187395     -27588596       2.0550478      868.69334     -27587727       624.85361      624.85361      624.85361      2187.5732      2812.4268      2187.5732      2812.4268      2187.5732      2812.4268      2.4396911e+08  0.5            25272200       1.8047804      7089.677       14179.297      5.5918667    
  50134600   304.59367      5.6368104     -27588598       2.0550478      907.02794     -27587691       624.85361      624.85361      624.85361      2187.5732      2812.4268      2187.5732      2812.4268      2187.5732      2812.4268      2.4396911e+08  0.5            25272300       1.8188865      7089.1221      14178.323      5.5749668    
  50134800   306.59079      5.5971331     -27588600       2.0550478      912.97503     -27587687       624.85361      624.85361      624.85361      2187.5732      2812.4268      2187.5732      2812.4268      2187.5732      2812.4268      2.4396911e+08  0.5            25272400       1.8329707      7100.1392      14200.245      5.5580459    
  50135000   293.98004      5.6325578     -27588602       2.0550478      875.42236     -27587727       624.85361      624.85361      624.85361      2187.5732      2812.4268      2187.5732      2812.4268      2187.5732      2812.4268      2.4396911e+08  0.5            25272500       1.847086       7084.5056      14169.03       5.5412638    
  50135200   288.43487      5.7130019     -27588604       2.0550478      858.90979     -27587745       624.85361      624.85361      624.85361      2187.5732      2812.4268      2187.5732      2812.4268      2187.5732      2812.4268      2.4396911e+08  0.5            25272600       1.8611725      7099.0313      14198.03       5.5244382    
  50135400   310.676        5.8038013     -27588606       2.0550478      925.14008     -27587680       624.85361      624.85361      624.85361      2187.5732      2812.4268      2187.5732      2812.4268      2187.5732      2812.4268      2.4396911e+08  0.5            25272700       1.8752551      7100.964       14201.919      5.5076446    
  50135600   313.02633      5.871182      -27588607       2.0550478      932.13895     -27587675       624.85361      624.85361      624.85361      2187.5732      2812.4268      2187.5732      2812.4268      2187.5732      2812.4268      2.4396911e+08  0.5            25272800       1.889339       7100.2833      14200.631      5.4908968    
  50135800   299.40935      5.931184      -27588609       2.0550478      891.58992     -27587717       624.85361      624.85361      624.85361      2187.5732      2812.4268      2187.5732      2812.4268      2187.5732      2812.4268      2.4396911e+08  0.5            25272900       1.9034243      7099.6114      14199.168      5.4741948    
  50136000   293.76145      6.0163733     -27588611       2.0550478      874.77143     -27587736       624.85361      624.85361      624.85361      2187.5732      2812.4268      2187.5732      2812.4268      2187.5732      2812.4268      2.4396911e+08  0.5            25273000       1.9174746      7117.2969      14234.604      5.457433     
  50136200   300.36622      6.1469116     -27588613       2.0550478      894.43931     -27587718       624.85361      624.85361      624.85361      2187.5732      2812.4268      2187.5732      2812.4268      2187.5732      2812.4268      2.4396911e+08  0.5            25273100       1.9315224      7118.5407      14237.084      5.4407059    
  50136400   314.3157       6.3636521     -27588615       2.0550478      935.97847     -27587679       624.85361      624.85361      624.85361      2187.5732      2812.4268      2187.5732      2812.4268      2187.5732      2812.4268      2.4396911e+08  0.5            25273200       1.9455802      7113.4704      14226.915      5.4240472    
  50136600   306.88126      6.6085523     -27588617       2.0550478      913.83998     -27587703       624.85361      624.85361      624.85361      2187.5732      2812.4268      2187.5732      2812.4268      2187.5732      2812.4268      2.4396911e+08  0.5            25273300       1.9596485      7108.194       14216.416      5.4074563    
  50136800   290.16152      6.8311738     -27588620       2.0550478      864.05146     -27587756       624.85361      624.85361      624.85361      2187.5732      2812.4268      2187.5732      2812.4268      2187.5732      2812.4268      2.4396911e+08  0.5            25273400       1.9737212      7105.9726      14211.934      5.3909153    
  50137000   297.57856      7.0643747     -27588624       2.0550478      886.13814     -27587738       624.85361      624.85361      624.85361      2187.5732      2812.4268      2187.5732      2812.4268      2187.5732      2812.4268      2.4396911e+08  0.5            25273500       1.9878212      7092.1991      14184.37       5.3744848    
  50137200   308.80252      7.2716863     -27588628       2.0550478      919.56117     -27587709       624.85361      624.85361      624.85361      2187.5732      2812.4268      2187.5732      2812.4268      2187.5732      2812.4268      2.4396911e+08  0.5            25273600       2.0019485      7078.4884      14157.055      5.3581611    
  50137400   303.41627      7.3702222     -27588633       2.0550478      903.52185     -27587729       624.85361      624.85361      624.85361      2187.5732      2812.4268      2187.5732      2812.4268      2187.5732      2812.4268      2.4396911e+08  0.5            25273700       2.0160158      7108.6958      14217.364      5.341711     
  50137600   287.58281      7.344165      -27588637       2.0550478      856.37249     -27587781       624.85361      624.85361      624.85361      2187.5732      2812.4268      2187.5732      2812.4268      2187.5732      2812.4268      2.4396911e+08  0.5            25273800       2.0300945      7102.928       14205.849      5.3253252    
  50137800   293.71291      7.2071407     -27588642       2.0550478      874.6269      -27587768       624.85361      624.85361      624.85361      2187.5732      2812.4268      2187.5732      2812.4268      2187.5732      2812.4268      2.4396911e+08  0.5            25273900       2.0441847      7097.0966      14194.178      5.3090026    
  50138000   302.20814      6.9450199     -27588647       2.0550478      899.92425     -27587747       624.85361      624.85361      624.85361      2187.5732      2812.4268      2187.5732      2812.4268      2187.5732      2812.4268      2.4396911e+08  0.5            25274000       2.0583165      7076.2274      14152.462      5.2928189    
  50138200   304.15759      6.5990109     -27588652       2.0550478      905.72937     -27587746       624.85361      624.85361      624.85361      2187.5732      2812.4268      2187.5732      2812.4268      2187.5732      2812.4268      2.4396911e+08  0.5            25274100       2.0724131      7093.9243      14187.868      5.2765743    
  50138400   295.08921      6.267677      -27588656       2.0550478      878.72527     -27587777       624.85361      624.85361      624.85361      2187.5732      2812.4268      2187.5732      2812.4268      2187.5732      2812.4268      2.4396911e+08  0.5            25274200       2.086515       7091.2299      14182.436      5.2603737    
  50138600   282.60141      6.0682537     -27588659       2.0550478      841.53874     -27587818       624.85361      624.85361      624.85361      2187.5732      2812.4268      2187.5732      2812.4268      2187.5732      2812.4268      2.4396911e+08  0.5            25274300       2.1006391      7080.0946      14160.213      5.2442577    
  50138800   300.25217      6.0780234     -27588663       2.0550478      894.0997      -27587769       624.85361      624.85361      624.85361      2187.5732      2812.4268      2187.5732      2812.4268      2187.5732      2812.4268      2.4396911e+08  0.5            25274400       2.1147221      7100.8016      14201.627      5.2280675    
  50139000   310.12242      6.2071728     -27588666       2.0550478      923.49161     -27587742       624.85361      624.85361      624.85361      2187.5732      2812.4268      2187.5732      2812.4268      2187.5732      2812.4268      2.4396911e+08  0.5            25274500       2.129084       6962.8341      13925.591      5.21259      
  50139200   299.93488      6.3126197     -27588668       2.0550478      893.15486     -27587775       624.85361      624.85361      624.85361      2187.5732      2812.4268      2187.5732      2812.4268      2187.5732      2812.4268      2.4396911e+08  0.5            25274600       2.143168       7100.2491      14200.55       5.1964532    
  50139400   292.60911      6.0560028     -27590564       2.0550478      871.33997     -27589693       624.85361      624.85361      624.85361      2187.5732      2812.4268      2187.5732      2812.4268      2187.5732      2812.4268      2.4396911e+08  0.5            25274700       2.1572383      7107.1968      14214.372      5.1803115    
  50139600   299.26737      5.8588829     -27590565       2.0550478      891.16713     -27589674       624.85361      624.85361      624.85361      2187.5732      2812.4268      2187.5732      2812.4268      2187.5732      2812.4268      2.4396911e+08  0.5            25274800       2.171306       7108.4745      14216.969      5.1641918    
  50139800   316.09136      5.5754959     -27590565       2.0550478      941.2661      -27589624       624.85361      624.85361      624.85361      2187.5732      2812.4268      2187.5732      2812.4268      2187.5732      2812.4268      2.4396911e+08  0.5            25274900       2.1854057      7092.3394      14184.659      5.1481751    
  50140000   305.07306      5.3316359     -27590565       2.0550478      908.45548     -27589657       624.85361      624.85361      624.85361      2187.5732      2812.4268      2187.5732      2812.4268      2187.5732      2812.4268      2.4396911e+08  0.5            25275000       2.1995435      7073.2698      14146.58       5.1322726    
  50140200   290.27672      5.2157244     -27590565       2.0550478      864.39452     -27589701       624.85361      624.85361      624.85361      2187.5732      2812.4268      2187.5732      2812.4268      2187.5732      2812.4268      2.4396911e+08  0.5            25275100       2.213627       7100.4734      14200.956      5.116268     
  50140400   298.97299      5.2475337     -27590566       2.0550478      890.29052     -27589676       624.85361      624.85361      624.85361      2187.5732      2812.4268      2187.5732      2812.4268      2187.5732      2812.4268      2.4396911e+08  0.5            25275200       2.2277137      7098.8882      14197.654      5.1002967    
  50140600   308.29279      5.3076472     -27590567       2.0550478      918.04329     -27589649       624.85361      624.85361      624.85361      2187.5732      2812.4268      2187.5732      2812.4268      2187.5732      2812.4268      2.4396911e+08  0.5            25275300       2.2417981      7100.0459      14200.218      5.0843438    
  50140800   302.18227      5.2413077     -27590569       2.0550478      899.84719     -27589669       624.85361      624.85361      624.85361      2187.5732      2812.4268      2187.5732      2812.4268      2187.5732      2812.4268      2.4396911e+08  0.5            25275400       2.2558569      7113.0089      14225.95       5.0683583    
  50141000   288.21499      5.1244991     -27590571       2.0550478      858.25502     -27589712       624.85361      624.85361      624.85361      2187.5732      2812.4268      2187.5732      2812.4268      2187.5732      2812.4268      2.4396911e+08  0.5            25275500       2.2699578      7091.767       14183.532      5.0524909    
  50141200   294.69558      5.0620995     -27590574       2.0550478      877.55312     -27589696       624.85361      624.85361      624.85361      2187.5732      2812.4268      2187.5732      2812.4268      2187.5732      2812.4268      2.4396911e+08  0.5            25275600       2.2840565      7092.8319      14185.721      5.0366414    
  50141400   309.27012      5.0775063     -27590577       2.0550478      920.95362     -27589656       624.85361      624.85361      624.85361      2187.5732      2812.4268      2187.5732      2812.4268      2187.5732      2812.4268      2.4396911e+08  0.5            25275700       2.2981995      7070.6541      14141.276      5.0209113    
  50141600   305.96197      5.1294009     -27590579       2.0550478      911.1025      -27589668       624.85361      624.85361      624.85361      2187.5732      2812.4268      2187.5732      2812.4268      2187.5732      2812.4268      2.4396911e+08  0.5            25275800       2.3122946      7094.6586      14189.321      5.0050974    
  50141800   297.05848      5.1730732     -27590581       2.0550478      884.58942     -27589697       624.85361      624.85361      624.85361      2187.5732      2812.4268      2187.5732      2812.4268      2187.5732      2812.4268      2.4396911e+08  0.5            25275900       2.3263738      7102.6642      14205.292      4.9892712    
  50142000   293.54534      5.1443473     -27590583       2.0550478      874.12788     -27589709       624.85361      624.85361      624.85361      2187.5732      2812.4268      2187.5732      2812.4268      2187.5732      2812.4268      2.4396911e+08  0.5            25276000       2.3404746      7091.8158      14183.633      4.9735125    
  50142200   303.59174      5.1620458     -27590584       2.0550478      904.04435     -27589680       624.85361      624.85361      624.85361      2187.5732      2812.4268      2187.5732      2812.4268      2187.5732      2812.4268      2.4396911e+08  0.5            25276100       2.3545792      7089.8836      14179.779      4.9577825    
  50142400   315.46172      5.2466662     -27590587       2.0550478      939.39114     -27589647       624.85361      624.85361      624.85361      2187.5732      2812.4268      2187.5732      2812.4268      2187.5732      2812.4268      2.4396911e+08  0.5            25276200       2.3686777      7092.9577      14185.945      4.9420598    
  50142600   297.75052      5.5363375     -27588695       2.0550478      886.65019     -27587809       624.85361      624.85361      624.85361      2187.5732      2812.4268      2187.5732      2812.4268      2187.5732      2812.4268      2.4396911e+08  0.5            25276300       2.382753       7104.6236      14209.219      4.9263092    
  50142800   292.13926      5.5172884     -27588699       2.0550478      869.94084     -27587829       624.85361      624.85361      624.85361      2187.5732      2812.4268      2187.5732      2812.4268      2187.5732      2812.4268      2.4396911e+08  0.5            25276400       2.3968639      7086.7508      14173.525      4.9106518    
  50143000   301.34112      5.4325993     -27588703       2.0550478      897.34239     -27587806       624.85361      624.85361      624.85361      2187.5732      2812.4268      2187.5732      2812.4268      2187.5732      2812.4268      2.4396911e+08  0.5            25276500       2.410984       7082.0456      14164.083      4.895032     
  50143200   307.71745      5.3320089     -27588705       2.0550478      916.33002     -27587789       624.85361      624.85361      624.85361      2187.5732      2812.4268      2187.5732      2812.4268      2187.5732      2812.4268      2.4396911e+08  0.5            25276600       2.4250757      7096.4121      14192.816      4.879373     
  50143400   297.10102      5.2100363     -27588708       2.0550478      884.71612     -27587823       624.85361      624.85361      624.85361      2187.5732      2812.4268      2187.5732      2812.4268      2187.5732      2812.4268      2.4396911e+08  0.5            25276700       2.4391617      7099.2303      14198.464      4.8637215    
  50143600   284.99737      4.9604354     -27588710       2.0550478      848.67349     -27587862       624.85361      624.85361      624.85361      2187.5732      2812.4268      2187.5732      2812.4268      2187.5732      2812.4268      2.4396911e+08  0.5            25276800       2.4532425      7101.8672      14203.758      4.8480782    
  50143800   296.43245      4.6803206     -27588714       2.0550478      882.72523     -27587831       624.85361      624.85361      624.85361      2187.5732      2812.4268      2187.5732      2812.4268      2187.5732      2812.4268      2.4396911e+08  0.5            25276900       2.4673202      7103.427       14206.812      4.8324476    
  50144000   302.93271      4.504445      -27588717       2.0550478      902.08189     -27587815       624.85361      624.85361      624.85361      2187.5732      2812.4268      2187.5732      2812.4268      2187.5732      2812.4268      2.4396911e+08  0.5            25277000       2.4816672      6970.0958      13940.179      4.8173578    
  50144200   301.58677      4.3315141     -27588720       2.0550478      898.0739      -27587822       624.85361      624.85361      624.85361      2187.5732      2812.4268      2187.5732      2812.4268      2187.5732      2812.4268      2.4396911e+08  0.5            25277100       2.4958117      7069.9163      14139.827      4.8018872    
  50144400   296.04705      4.0614909     -27588722       2.0550478      881.57757     -27587840       624.85361      624.85361      624.85361      2187.5732      2812.4268      2187.5732      2812.4268      2187.5732      2812.4268      2.4396911e+08  0.5            25277200       2.5099573      7069.3136      14138.65       4.786434     
  50144600   291.02868      3.8179922     -27588723       2.0550478      866.63371     -27587857       624.85361      624.85361      624.85361      2187.5732      2812.4268      2187.5732      2812.4268      2187.5732      2812.4268      2.4396911e+08  0.5            25277300       2.5240948      7073.3874      14146.816      4.7709805    
  50144800   299.7368       3.8151732     -27588725       2.0550478      892.56502     -27587832       624.85361      624.85361      624.85361      2187.5732      2812.4268      2187.5732      2812.4268      2187.5732      2812.4268      2.4396911e+08  0.5            25277400       2.5382154      7081.8942      14163.777      4.7555104    
  50145000   312.26015      4.050221      -27588727       2.0550478      929.85741     -27587797       624.85361      624.85361      624.85361      2187.5732      2812.4268      2187.5732      2812.4268      2187.5732      2812.4268      2.4396911e+08  0.5            25277500       2.552354       7072.7805      14145.553      4.7400895    
  50145200   302.11452      4.2370545     -27588728       2.0550478      899.64544     -27587828       624.85361      624.85361      624.85361      2187.5732      2812.4268      2187.5732      2812.4268      2187.5732      2812.4268      2.4396911e+08  0.5            25277600       2.5664612      7088.6161      14177.28       4.7246251    
  50145400   291.78079      4.4227966     -27588729       2.0550478      868.87338     -27587860       624.85361      624.85361      624.85361      2187.5732      2812.4268      2187.5732      2812.4268      2187.5732      2812.4268      2.4396911e+08  0.5            25277700       2.5805707      7087.4003      14174.753      4.7091806    
  50145600   296.70816      4.6776897     -27588729       2.0550478      883.54623     -27587846       624.85361      624.85361      624.85361      2187.5732      2812.4268      2187.5732      2812.4268      2187.5732      2812.4268      2.4396911e+08  0.5            25277800       2.5947294      7062.7968      14125.642      4.6938398    
  50145800   302.20143      5.0072895     -27588730       2.0550478      899.90426     -27587830       624.85361      624.85361      624.85361      2187.5732      2812.4268      2187.5732      2812.4268      2187.5732      2812.4268      2.4396911e+08  0.5            25277900       2.6088619      7075.8849      14151.77       4.6784652    
  50146000   302.13668      5.3400892     -27588730       2.0550478      899.71145     -27587831       624.85361      624.85361      624.85361      2187.5732      2812.4268      2187.5732      2812.4268      2187.5732      2812.4268      2.4396911e+08  0.5            25278000       2.6230075      7069.3755      14138.69       4.6631277    
  50146200   298.36951      5.625523      -27588731       2.0550478      888.49346     -27587843       624.85361      624.85361      624.85361      2187.5732      2812.4268      2187.5732      2812.4268      2187.5732      2812.4268      2.4396911e+08  0.5            25278100       2.6371237      7084.0258      14168.081      4.6477517    
  50146400   286.6534       5.8538623     -27588733       2.0550478      853.60489     -27587879       624.85361      624.85361      624.85361      2187.5732      2812.4268      2187.5732      2812.4268      2187.5732      2812.4268      2.4396911e+08  0.5            25278200       2.6512355      7086.2572      14172.51       4.6323819    
  50146600   283.49883      6.0591645     -27588734       2.0550478      844.21111     -27587890       624.85361      624.85361      624.85361      2187.5732      2812.4268      2187.5732      2812.4268      2187.5732      2812.4268      2.4396911e+08  0.5            25278300       2.6653425      7088.7286      14177.425      4.6170173    
  50146800   303.273        6.334232      -27588736       2.0550478      903.09521     -27587833       624.85361      624.85361      624.85361      2187.5732      2812.4268      2187.5732      2812.4268      2187.5732      2812.4268      2.4396911e+08  0.5            25278400       2.6794462      7090.3325      14180.699      4.6016608    
  50147000   307.14489      6.5245853     -27589107       2.0550478      914.62505     -27588192       624.85361      624.85361      624.85361      2187.5732      2812.4268      2187.5732      2812.4268      2187.5732      2812.4268      2.4396911e+08  0.5            25278500       2.69362        7055.1963      14110.357      4.5864375    
  50147200   297.40969      6.9984204     -27589109       2.0550478      885.63526     -27588223       624.85361      624.85361      624.85361      2187.5732      2812.4268      2187.5732      2812.4268      2187.5732      2812.4268      2.4396911e+08  0.5            25278600       2.7077627      7070.8241      14141.668      4.5711726    
  50147400   290.75148      7.5480884     -27589110       2.0550478      865.80825     -27588244       624.85361      624.85361      624.85361      2187.5732      2812.4268      2187.5732      2812.4268      2187.5732      2812.4268      2.4396911e+08  0.5            25278700       2.7219109      7068.0309      14136.097      4.5559289    
  50147600   305.53467      8.0741507     -27589111       2.0550478      909.83009     -27588201       624.85361      624.85361      624.85361      2187.5732      2812.4268      2187.5732      2812.4268      2187.5732      2812.4268      2.4396911e+08  0.5            25278800       2.736045       7075.0979      14150.159      4.5406736    
  50147800   317.14623      8.4901601     -27589112       2.0550478      944.40733     -27588168       624.85361      624.85361      624.85361      2187.5732      2812.4268      2187.5732      2812.4268      2187.5732      2812.4268      2.4396911e+08  0.5            25278900       2.7501691      7080.0731      14160.189      4.5254136    
  50148000   303.31934      8.9284314     -27588745       2.0550478      903.23319     -27587842       624.85361      624.85361      624.85361      2187.5732      2812.4268      2187.5732      2812.4268      2187.5732      2812.4268      2.4396911e+08  0.5            25279000       2.7642856      7083.946       14167.819      4.5101534    
  50148200   296.36411      9.340218      -27586852       2.0550478      882.52171     -27585970       624.85361      624.85361      624.85361      2187.5732      2812.4268      2187.5732      2812.4268      2187.5732      2812.4268      2.4396911e+08  0.5            25279100       2.7783983      7085.7998      14171.602      4.4948989    
  50148400   298.05233      9.3845384     -27586854       2.0550478      887.54895     -27585967       624.85361      624.85361      624.85361      2187.5732      2812.4268      2187.5732      2812.4268      2187.5732      2812.4268      2.4396911e+08  0.5            25279200       2.7925176      7082.5221      14165.053      4.4796667    
  50148600   307.2319       8.8496518     -27590647       2.0550478      914.88412     -27589732       624.85361      624.85361      624.85361      2187.5732      2812.4268      2187.5732      2812.4268      2187.5732      2812.4268      2.4396911e+08  0.5            25279300       2.8066453      7078.301       14156.611      4.4644594    
  50148800   314.82612      8.8693118     -27590281       2.0550478      937.49843     -27589344       624.85361      624.85361      624.85361      2187.5732      2812.4268      2187.5732      2812.4268      2187.5732      2812.4268      2.4396911e+08  0.5            25279400       2.8207522      7088.7251      14177.512      4.4492306    
  50149000   296.40479      8.5808604     -27590283       2.0550478      882.64285     -27589401       624.85361      624.85361      624.85361      2187.5732      2812.4268      2187.5732      2812.4268      2187.5732      2812.4268      2.4396911e+08  0.5            25279500       2.8348317      7102.5169      14204.994      4.4339705    
  50149200   291.39833      8.1234338     -27590285       2.0550478      867.73447     -27589417       624.85361      624.85361      624.85361      2187.5732      2812.4268      2187.5732      2812.4268      2187.5732      2812.4268      2.4396911e+08  0.5            25279600       2.8489009      7107.7095      14215.412      4.4187065    
  50149400   301.98332      7.4955997     -27590287       2.0550478      899.25477     -27589388       624.85361      624.85361      624.85361      2187.5732      2812.4268      2187.5732      2812.4268      2187.5732      2812.4268      2.4396911e+08  0.5            25279700       2.8629834      7101.0195      14202.051      4.4034748    
  50149600   308.86848      6.8152184     -27590289       2.0550478      919.7576      -27589369       624.85361      624.85361      624.85361      2187.5732      2812.4268      2187.5732      2812.4268      2187.5732      2812.4268      2.4396911e+08  0.5            25279800       2.8770607      7103.6052      14207.185      4.388247     
  50149800   294.54514      6.2449131     -27590291       2.0550478      877.10513     -27589414       624.85361      624.85361      624.85361      2187.5732      2812.4268      2187.5732      2812.4268      2187.5732      2812.4268      2.4396911e+08  0.5            25279900       2.8911532      7096.0053      14191.994      4.3730538    
  50150000   283.48875      5.8201256     -27590292       2.0550478      844.18108     -27589448       624.85361      624.85361      624.85361      2187.5732      2812.4268      2187.5732      2812.4268      2187.5732      2812.4268      2.4396911e+08  0.5            25280000       2.9052786      7079.4285      14158.888      4.3579208    
  50150200   295.62738      5.5076907     -27590294       2.0550478      880.32785     -27589413       624.85361      624.85361      624.85361      2187.5732      2812.4268      2187.5732      2812.4268      2187.5732      2812.4268      2.4396911e+08  0.5            25280100       2.9193761      7093.4573      14186.928      4.3427564    
  50150400   304.93875      5.3089497     -27590296       2.0550478      908.05554     -27589388       624.85361      624.85361      624.85361      2187.5732      2812.4268      2187.5732      2812.4268      2187.5732      2812.4268      2.4396911e+08  0.5            25280200       2.9337389      6962.4598      13924.924      4.3279939    
  50150600   303.57012      5.2508701     -27590298       2.0550478      903.97997     -27589394       624.85361      624.85361      624.85361      2187.5732      2812.4268      2187.5732      2812.4268      2187.5732      2812.4268      2.4396911e+08  0.5            25280300       2.9478255      7098.9471      14197.849      4.3128312    
  50150800   291.03098      5.3412108     -27590299       2.0550478      866.64057     -27589433       624.85361      624.85361      624.85361      2187.5732      2812.4268      2187.5732      2812.4268      2187.5732      2812.4268      2.4396911e+08  0.5            25280400       2.9619257      7092.1055      14184.233      4.2976988    
  50151000   285.91376      5.321774      -27592196       2.0550478      851.40235     -27591344       624.85361      624.85361      624.85361      2187.5732      2812.4268      2187.5732      2812.4268      2187.5732      2812.4268      2.4396911e+08  0.5            25280500       2.9760569      7076.5303      14153.044      4.2826212    
  50151200   309.89238      5.6875913     -27592198       2.0550478      922.80659     -27591275       624.85361      624.85361      624.85361      2187.5732      2812.4268      2187.5732      2812.4268      2187.5732      2812.4268      2.4396911e+08  0.5            25280600       2.9901985      7071.3036      14142.638      4.2675676    
  50151400   309.45365      6.186774      -27592199       2.0550478      921.50014     -27591278       624.85361      624.85361      624.85361      2187.5732      2812.4268      2187.5732      2812.4268      2187.5732      2812.4268      2.4396911e+08  0.5            25280700       3.0043731      7054.8922      14109.759      4.2525694    
  50151600   296.02743      6.7624084     -27592201       2.0550478      881.51913     -27591319       624.85361      624.85361      624.85361      2187.5732      2812.4268      2187.5732      2812.4268      2187.5732      2812.4268      2.4396911e+08  0.5            25280800       3.0185167      7070.3332      14140.675      4.2375356    
  50151800   293.96722      7.3237348     -27592203       2.0550478      875.38418     -27591327       624.85361      624.85361      624.85361      2187.5732      2812.4268      2187.5732      2812.4268      2187.5732      2812.4268      2.4396911e+08  0.5            25280900       3.0326694      7065.7926      14131.588      4.2225231    
  50152000   304.1719       7.7771141     -27592205       2.0550478      905.77197     -27591299       624.85361      624.85361      624.85361      2187.5732      2812.4268      2187.5732      2812.4268      2187.5732      2812.4268      2.4396911e+08  0.5            25281000       3.0468121      7070.7986      14141.584      4.207505     
  50152200   317.59515      8.064544      -27592207       2.0550478      945.74413     -27591261       624.85361      624.85361      624.85361      2187.5732      2812.4268      2187.5732      2812.4268      2187.5732      2812.4268      2.4396911e+08  0.5            25281100       3.0609426      7076.8744      14153.774      4.1924785    
  50152400   304.63243      8.1870555     -27592209       2.0550478      907.14335     -27591302       624.85361      624.85361      624.85361      2187.5732      2812.4268      2187.5732      2812.4268      2187.5732      2812.4268      2.4396911e+08  0.5            25281200       3.0750721      7077.3858      14154.784      4.177459     
  50152600   290.97787      8.2266891     -27592212       2.0550478      866.48241     -27591345       624.85361      624.85361      624.85361      2187.5732      2812.4268      2187.5732      2812.4268      2187.5732      2812.4268      2.4396911e+08  0.5            25281300       3.0891875      7084.4825      14168.928      4.162429     
  50152800   297.99109      8.2919493     -27592214       2.0550478      887.36658     -27591327       624.85361      624.85361      624.85361      2187.5732      2812.4268      2187.5732      2812.4268      2187.5732      2812.4268      2.4396911e+08  0.5            25281400       3.1033229      7074.4382      14148.882      4.1474341    
  50153000   309.09188      8.3959841     -27592216       2.0550478      920.42283     -27591296       624.85361      624.85361      624.85361      2187.5732      2812.4268      2187.5732      2812.4268      2187.5732      2812.4268      2.4396911e+08  0.5            25281500       3.1174498      7078.6999      14157.407      4.1324359    
  50153200   303.23844      8.4861483     -27592217       2.0550478      902.99229     -27591314       624.85361      624.85361      624.85361      2187.5732      2812.4268      2187.5732      2812.4268      2187.5732      2812.4268      2.4396911e+08  0.5            25281600       3.1315018      7116.3913      14232.788      4.1173475    
  50153400   286.85732      8.5584036     -27592218       2.0550478      854.21213     -27591364       624.85361      624.85361      624.85361      2187.5732      2812.4268      2187.5732      2812.4268      2187.5732      2812.4268      2.4396911e+08  0.5            25281700       3.1455797      7103.3372      14206.65       4.1023023    
  50153600   292.57848      8.5619981     -27592220       2.0550478      871.24875     -27591348       624.85361      624.85361      624.85361      2187.5732      2812.4268      2187.5732      2812.4268      2187.5732      2812.4268      2.4396911e+08  0.5            25281800       3.1596421      7111.19        14222.31       4.087246     
  50153800   300.64649      8.4698292     -27592222       2.0550478      895.27391     -27591327       624.85361      624.85361      624.85361      2187.5732      2812.4268      2187.5732      2812.4268      2187.5732      2812.4268      2.4396911e+08  0.5            25281900       3.1737238      7101.3987      14202.858      4.0722234    
  50154000   303.57814      8.3675249     -27592226       2.0550478      904.00385     -27591322       624.85361      624.85361      624.85361      2187.5732      2812.4268      2187.5732      2812.4268      2187.5732      2812.4268      2.4396911e+08  0.5            25282000       3.1878321      7088.0111      14176.034      4.0572434    
  50154200   298.89268      8.3055013     -27592231       2.0550478      890.05136     -27591341       624.85361      624.85361      624.85361      2187.5732      2812.4268      2187.5732      2812.4268      2187.5732      2812.4268      2.4396911e+08  0.5            25282100       3.2019776      7069.405       14138.811      4.0423179    
  50154400   286.54877      8.2596559     -27592236       2.0550478      853.29329     -27591382       624.85361      624.85361      624.85361      2187.5732      2812.4268      2187.5732      2812.4268      2187.5732      2812.4268      2.4396911e+08  0.5            25282200       3.2160758      7093.1011      14186.273      4.0273405    
  50154600   290.57215      8.1806198     -27592240       2.0550478      865.27425     -27591375       624.85361      624.85361      624.85361      2187.5732      2812.4268      2187.5732      2812.4268      2187.5732      2812.4268      2.4396911e+08  0.5            25282300       3.2301639      7098.1998      14196.346      4.0123584    
[...]
  50199200   300.72431      13.686105     -27597933       2.0550478      895.50564     -27597038       624.85361      624.85361      624.85361      2187.5732      2812.4268      2187.5732      2812.4268      2187.5732      2812.4268      2.4396911e+08  0.5            25304600       6.3819966      7051.6014      14103.253      0.77270833   
  50199400   290.9658       13.502784     -27597938       2.0550478      866.44646     -27597072       624.85361      624.85361      624.85361      2187.5732      2812.4268      2187.5732      2812.4268      2187.5732      2812.4268      2.4396911e+08  0.5            25304700       6.3961995      7040.8399      14081.688      0.75838629   
  50199600   297.80292      13.344272     -27597942       2.0550478      886.80624     -27597056       624.85361      624.85361      624.85361      2187.5732      2812.4268      2187.5732      2812.4268      2187.5732      2812.4268      2.4396911e+08  0.5            25304800       6.4103891      7047.3976      14094.751      0.74406324   
  50199800   320.95515      13.324257     -27597946       2.0550478      955.74963     -27596991       624.85361      624.85361      624.85361      2187.5732      2812.4268      2187.5732      2812.4268      2187.5732      2812.4268      2.4396911e+08  0.5            25304900       6.4245574      7058.0083      14116.08       0.72973835   
  50200000   312.8409       13.318667     -27597950       2.0550478      931.58677     -27597018       624.85361      624.85361      624.85361      2187.5732      2812.4268      2187.5732      2812.4268      2187.5732      2812.4268      2.4396911e+08  0.5            25305000       6.4541303      3381.4458      6762.8701      0.71712583   
  50200200   301.00415      13.221357     -27597951       2.0550478      896.33895     -27597055       624.85361      624.85361      624.85361      2187.5732      2812.4268      2187.5732      2812.4268      2187.5732      2812.4268      2.4396911e+08  0.5            25305100       6.4683419      7036.5767      14073.185      0.70276907   
  50200400   293.74061      13.011259     -27597951       2.0550478      874.70939     -27597077       624.85361      624.85361      624.85361      2187.5732      2812.4268      2187.5732      2812.4268      2187.5732      2812.4268      2.4396911e+08  0.5            25305200       6.4825081      7059.089       14118.145      0.68840815   
  50200600   297.75338      12.781943     -27597950       2.0550478      886.65873     -27597064       624.85361      624.85361      624.85361      2187.5732      2812.4268      2187.5732      2812.4268      2187.5732      2812.4268      2.4396911e+08  0.5            25305300       6.4967097      7041.4636      14082.993      0.67405175   
  50200800   311.21863      12.723433     -27597950       2.0550478      926.75594     -27597024       624.85361      624.85361      624.85361      2187.5732      2812.4268      2187.5732      2812.4268      2187.5732      2812.4268      2.4396911e+08  0.5            25305400       6.5108928      7050.6259      14101.213      0.65969418   
  50201000   307.3068       12.849069     -27597951       2.0550478      915.10719     -27597036       624.85361      624.85361      624.85361      2187.5732      2812.4268      2187.5732      2812.4268      2187.5732      2812.4268      2.4396911e+08  0.5            25305500       6.5250767      7050.2685      14100.578      0.64533744   
  50201200   287.74467      12.956639     -27597952       2.0550478      856.85449     -27597096       624.85361      624.85361      624.85361      2187.5732      2812.4268      2187.5732      2812.4268      2187.5732      2812.4268      2.4396911e+08  0.5            25305600       6.5392446      7058.215       14116.409      0.63097992   
  50201400   294.53756      12.979791     -27597953       2.0550478      877.08256     -27597076       624.85361      624.85361      624.85361      2187.5732      2812.4268      2187.5732      2812.4268      2187.5732      2812.4268      2.4396911e+08  0.5            25305700       6.5534131      7057.9012      14115.816      0.61662329   
  50201600   305.39423      12.911407     -27597954       2.0550478      909.41186     -27597045       624.85361      624.85361      624.85361      2187.5732      2812.4268      2187.5732      2812.4268      2187.5732      2812.4268      2.4396911e+08  0.5            25305800       6.5675865      7055.4786      14110.952      0.60226793   
  50201800   304.90141      12.785172     -27597956       2.0550478      907.94433     -27597048       624.85361      624.85361      624.85361      2187.5732      2812.4268      2187.5732      2812.4268      2187.5732      2812.4268      2.4396911e+08  0.5            25305900       6.5817852      7042.8884      14085.793      0.58791562   
  50202000   291.13621      12.56592      -27597959       2.0550478      866.95391     -27597092       624.85361      624.85361      624.85361      2187.5732      2812.4268      2187.5732      2812.4268      2187.5732      2812.4268      2.4396911e+08  0.5            25306000       6.5960174      7026.3408      14052.643      0.57356689   
  50202200   283.43074      12.333479     -27597962       2.0550478      844.00836     -27597118       624.85361      624.85361      624.85361      2187.5732      2812.4268      2187.5732      2812.4268      2187.5732      2812.4268      2.4396911e+08  0.5            25306100       6.6102229      7039.4868      14079.036      0.55921641   
  50202400   309.89378      12.244141     -27597596       2.0550478      922.81076     -27596673       624.85361      624.85361      624.85361      2187.5732      2812.4268      2187.5732      2812.4268      2187.5732      2812.4268      2.4396911e+08  0.5            25306200       6.6244372      7035.2153      14070.397      0.54486728   
  50202600   309.54975      12.068233     -27597600       2.0550478      921.7863      -27596678       624.85361      624.85361      624.85361      2187.5732      2812.4268      2187.5732      2812.4268      2187.5732      2812.4268      2.4396911e+08  0.5            25306300       6.6389009      6913.8019      13827.57       0.53053868   
  50202800   295.36875      11.951772     -27597603       2.0550478      879.5577      -27596723       624.85361      624.85361      624.85361      2187.5732      2812.4268      2187.5732      2812.4268      2187.5732      2812.4268      2.4396911e+08  0.5            25306400       6.6530811      7052.1141      14104.254      0.51618748   
  50203000   293.21954      11.784305     -27597606       2.0550478      873.15771     -27596733       624.85361      624.85361      624.85361      2187.5732      2812.4268      2187.5732      2812.4268      2187.5732      2812.4268      2.4396911e+08  0.5            25306500       6.6672954      7035.1807      14070.37       0.50183958   
  50203200   304.8628       11.535396     -27597609       2.0550478      907.82937     -27596701       624.85361      624.85361      624.85361      2187.5732      2812.4268      2187.5732      2812.4268      2187.5732      2812.4268      2.4396911e+08  0.5            25306600       6.6815021      7038.9076      14077.798      0.48749171   
  50203400   313.47353      11.388689     -27597611       2.0550478      933.47063     -27596677       624.85361      624.85361      624.85361      2187.5732      2812.4268      2187.5732      2812.4268      2187.5732      2812.4268      2.4396911e+08  0.5            25306700       6.6957267      7030.1157      14060.264      0.4731457    
  50203600   292.13413      11.55695      -27597611       2.0550478      869.92556     -27596742       624.85361      624.85361      624.85361      2187.5732      2812.4268      2187.5732      2812.4268      2187.5732      2812.4268      2.4396911e+08  0.5            25306800       6.7099391      7036.091       14072.115      0.45879939   
  50203800   289.66561      11.762279     -27597614       2.0550478      862.57471     -27596752       624.85361      624.85361      624.85361      2187.5732      2812.4268      2187.5732      2812.4268      2187.5732      2812.4268      2.4396911e+08  0.5            25306900       6.7241051      7059.1443      14118.344      0.44445057   
  50204000   303.16169      11.87463      -27597616       2.0550478      902.76374     -27596714       624.85361      624.85361      624.85361      2187.5732      2812.4268      2187.5732      2812.4268      2187.5732      2812.4268      2.4396911e+08  0.5            25307000       6.7382913      7049.1229      14098.225      0.43010382   
  50204200   307.44881      12.221525     -27597618       2.0550478      915.53006     -27596702       624.85361      624.85361      624.85361      2187.5732      2812.4268      2187.5732      2812.4268      2187.5732      2812.4268      2.4396911e+08  0.5            25307100       6.7524626      7056.4838      14112.992      0.41575684   
  50204400   297.15931      12.556354     -27597620       2.0550478      884.88968     -27596736       624.85361      624.85361      624.85361      2187.5732      2812.4268      2187.5732      2812.4268      2187.5732      2812.4268      2.4396911e+08  0.5            25307200       6.7666375      7054.7683      14109.541      0.40141081   
  50204600   286.3132       12.607492     -27597624       2.0550478      852.59183     -27596771       624.85361      624.85361      624.85361      2187.5732      2812.4268      2187.5732      2812.4268      2187.5732      2812.4268      2.4396911e+08  0.5            25307300       6.7808303      7045.8017      14091.608      0.38706653   
  50204800   304.32344      12.587196     -27597626       2.0550478      906.22323     -27596720       624.85361      624.85361      624.85361      2187.5732      2812.4268      2187.5732      2812.4268      2187.5732      2812.4268      2.4396911e+08  0.5            25307400       6.7950574      7028.8359      14057.665      0.37272477   
  50205000   314.79906      12.557999     -27597629       2.0550478      937.41784     -27596692       624.85361      624.85361      624.85361      2187.5732      2812.4268      2187.5732      2812.4268      2187.5732      2812.4268      2.4396911e+08  0.5            25307500       6.8092984      7021.9541      14043.878      0.35838423   
  50205200   299.17931      12.65333      -27597632       2.0550478      890.9049      -27596741       624.85361      624.85361      624.85361      2187.5732      2812.4268      2187.5732      2812.4268      2187.5732      2812.4268      2.4396911e+08  0.5            25307600       6.8235115      7035.8157      14071.657      0.34404269   
  50205400   292.74297      12.718986     -27597635       2.0550478      871.73857     -27596763       624.85361      624.85361      624.85361      2187.5732      2812.4268      2187.5732      2812.4268      2187.5732      2812.4268      2.4396911e+08  0.5            25307700       6.8377234      7036.3529      14072.696      0.32970164   
  50205600   300.39305      12.713063     -27597637       2.0550478      894.5192      -27596742       624.85361      624.85361      624.85361      2187.5732      2812.4268      2187.5732      2812.4268      2187.5732      2812.4268      2.4396911e+08  0.5            25307800       6.851917       7045.4165      14090.823      0.31536028   
  50205800   312.25212      12.677383     -27597640       2.0550478      929.83348     -27596711       624.85361      624.85361      624.85361      2187.5732      2812.4268      2187.5732      2812.4268      2187.5732      2812.4268      2.4396911e+08  0.5            25307900       6.8661309      7035.3579      14070.726      0.30102043   
  50206000   300.46414      12.64256      -27597643       2.0550478      894.73092     -27596748       624.85361      624.85361      624.85361      2187.5732      2812.4268      2187.5732      2812.4268      2187.5732      2812.4268      2.4396911e+08  0.5            25308000       6.8803403      7037.6107      14075.229      0.28668092   
  50206200   287.73031      12.546199     -27597646       2.0550478      856.81173     -27596789       624.85361      624.85361      624.85361      2187.5732      2812.4268      2187.5732      2812.4268      2187.5732      2812.4268      2.4396911e+08  0.5            25308100       6.8945513      7036.8079      14073.631      0.27234202   
  50206400   299.27099      12.36521      -27597649       2.0550478      891.17789     -27596758       624.85361      624.85361      624.85361      2187.5732      2812.4268      2187.5732      2812.4268      2187.5732      2812.4268      2.4396911e+08  0.5            25308200       6.90876        7037.8841      14075.756      0.25800356   
  50206600   308.02991      12.357341     -27597652       2.0550478      917.26048     -27596735       624.85361      624.85361      624.85361      2187.5732      2812.4268      2187.5732      2812.4268      2187.5732      2812.4268      2.4396911e+08  0.5            25308300       6.9229395      7052.4508      14104.915      0.2436646    
  50206800   301.04286      12.580303     -27597654       2.0550478      896.45423     -27596757       624.85361      624.85361      624.85361      2187.5732      2812.4268      2187.5732      2812.4268      2187.5732      2812.4268      2.4396911e+08  0.5            25308400       6.9371158      7054.0497      14108.031      0.2293262    
  50207000   287.54155      12.564223     -27597655       2.0550478      856.24963     -27596799       624.85361      624.85361      624.85361      2187.5732      2812.4268      2187.5732      2812.4268      2187.5732      2812.4268      2.4396911e+08  0.5            25308500       6.9515544      6925.8658      13851.811      0.21499659   
  50207200   293.96883      12.468619     -27597656       2.0550478      875.38897     -27596780       624.85361      624.85361      624.85361      2187.5732      2812.4268      2187.5732      2812.4268      2187.5732      2812.4268      2.4396911e+08  0.5            25308600       6.9657384      7050.2302      14100.44       0.20065919   
  50207400   314.76007      12.514526     -27597657       2.0550478      937.30173     -27596720       624.85361      624.85361      624.85361      2187.5732      2812.4268      2187.5732      2812.4268      2187.5732      2812.4268      2.4396911e+08  0.5            25308700       6.9798905      7066.0532      14132.085      0.18632156   
  50207600   303.3951       12.823082     -27597660       2.0550478      903.45879     -27596757       624.85361      624.85361      624.85361      2187.5732      2812.4268      2187.5732      2812.4268      2187.5732      2812.4268      2.4396911e+08  0.5            25308800       6.994047       7063.8864      14127.757      0.17198481   
  50207800   292.21456      13.167849     -27597662       2.0550478      870.16505     -27596792       624.85361      624.85361      624.85361      2187.5732      2812.4268      2187.5732      2812.4268      2187.5732      2812.4268      2.4396911e+08  0.5            25308900       7.0082283      7051.5462      14103.105      0.15764935   
  50208000   296.73834      13.460617     -27597663       2.0550478      883.63611     -27596779       624.85361      624.85361      624.85361      2187.5732      2812.4268      2187.5732      2812.4268      2187.5732      2812.4268      2.4396911e+08  0.5            25309000       7.0224053      7053.6581      14107.339      0.14331443   
  50208200   310.14035      13.742119     -27597666       2.0550478      923.545       -27596742       624.85361      624.85361      624.85361      2187.5732      2812.4268      2187.5732      2812.4268      2187.5732      2812.4268      2.4396911e+08  0.5            25309100       7.0365649      7062.3973      14124.796      0.12897984   
  50208400   306.15168      13.988979     -27597669       2.0550478      911.66743     -27596757       624.85361      624.85361      624.85361      2187.5732      2812.4268      2187.5732      2812.4268      2187.5732      2812.4268      2.4396911e+08  0.5            25309200       7.0507266      7061.2772      14122.513      0.11464599   
  50208600   286.09252      14.409159     -27597672       2.0550478      851.93467     -27596820       624.85361      624.85361      624.85361      2187.5732      2812.4268      2187.5732      2812.4268      2187.5732      2812.4268      2.4396911e+08  0.5            25309300       7.0648736      7068.646       14137.241      0.10031263   
  50208800   295.45015      14.650612     -27597676       2.0550478      879.80009     -27596796       624.85361      624.85361      624.85361      2187.5732      2812.4268      2187.5732      2812.4268      2187.5732      2812.4268      2.4396911e+08  0.5            25309400       7.0790285      7064.6674      14129.401      0.085980126  
  50209000   307.00115      14.776906     -27597680       2.0550478      914.19701     -27596766       624.85361      624.85361      624.85361      2187.5732      2812.4268      2187.5732      2812.4268      2187.5732      2812.4268      2.4396911e+08  0.5            25309500       7.0931956      7058.6231      14117.275      0.071648459  
  50209200   303.9775       15.00505      -27597683       2.0550478      905.19309     -27596778       624.85361      624.85361      624.85361      2187.5732      2812.4268      2187.5732      2812.4268      2187.5732      2812.4268      2.4396911e+08  0.5            25309600       7.1073676      7056.1407      14112.324      0.057317496  
  50209400   290.09189      15.09132      -27597685       2.0550478      863.84412     -27596821       624.85361      624.85361      624.85361      2187.5732      2812.4268      2187.5732      2812.4268      2187.5732      2812.4268      2.4396911e+08  0.5            25309700       7.1215177      7067.0864      14134.112      0.04298704   
  50209600   290.25932      14.894054     -27597687       2.0550478      864.3427      -27596822       624.85361      624.85361      624.85361      2187.5732      2812.4268      2187.5732      2812.4268      2187.5732      2812.4268      2.4396911e+08  0.5            25309800       7.1356682      7066.9091      14133.854      0.028657309  
  50209800   316.27043      14.613483     -27597689       2.0550478      941.79934     -27596747       624.85361      624.85361      624.85361      2187.5732      2812.4268      2187.5732      2812.4268      2187.5732      2812.4268      2.4396911e+08  0.5            25309900       7.1497976      7077.4814      14154.892      0.014328255  
  50210000   306.86551      14.306726     -27597691       2.0550478      913.79309     -27596777       624.85361      624.85361      624.85361      2187.5732      2812.4268      2187.5732      2812.4268      2187.5732      2812.4268      2.4396911e+08  0.5            25310000       7.163953       7064.3979      14128.815      0            
Loop time of 7.16397 on 4 procs for 100000 steps with 1000 atoms

Performance: 603.018 ns/day, 0.040 hours/ns, 13958.746 timesteps/s
99.9% CPU use with 4 MPI tasks x 1 OpenMP threads

MPI task timing breakdown:
Section |  min time  |  avg time  |  max time  |%varavg| %total
---------------------------------------------------------------
Pair    | 3.9783     | 4.3566     | 4.6265     |  13.0 | 60.81
Neigh   | 0.0028519  | 0.0031239  | 0.00337    |   0.4 |  0.04
Comm    | 1.5853     | 1.8781     | 2.2487     |  20.0 | 26.22
Output  | 0.026976   | 0.028161   | 0.031673   |   1.2 |  0.39
Modify  | 0.58012    | 0.607      | 0.6549     |   3.7 |  8.47
Other   |            | 0.291      |            |       |  4.06

Nlocal:            250 ave         269 max         227 min
Histogram: 1 0 0 1 0 0 0 0 1 1
Nghost:         778.75 ave         809 max         761 min
Histogram: 1 1 0 1 0 0 0 0 0 1
Neighs:           1702 ave        1819 max        1559 min
Histogram: 1 0 0 1 0 0 0 0 1 1

Total # of neighbors = 6808
Ave neighs/atom = 6.808
Neighbor list builds = 16
Dangerous builds = 0

# run_style
run_style verlet


Total wall time: 0:00:07
