LAMMPS (23 Jun 2022 - Update 1)
OMP_NUM_THREADS environment is not set. Defaulting to 1 thread. (src/comm.cpp:98)
  using 1 OpenMP thread(s) per MPI task
# Read restart
read_restart ${read_res}
read_restart ./pgnpmf/3070/equpmf27.res
Reading restart file ...
  restart file = 23 Jun 2022, LAMMPS = 23 Jun 2022
  restoring atom style atomic from restart
  orthogonal box = (1586.038 1586.038 1586.038) to (2413.962 2413.962 2413.962)
  1 by 2 by 2 MPI processor grid
  restoring pair style table from restart
  1000 atoms
  read_restart CPU = 0.005 seconds

# Settings

pair_style table spline 9941

pair_coeff 1 1 ./pgnpmf/N20.txt DE_GNP 75.6
pair_coeff 2 2 ./pgnpmf/N100.txt DE_GNP 115.92
WARNING: 3 of 9941 force values in table DE_GNP are inconsistent with -dE/dr.
WARNING:  Should only be flagged at inflection points (src/pair_table.cpp:463)
pair_coeff 1 2 ./pgnpmf/mixed_potential.txt DE_GNP 95.66
WARNING: 1562 of 9941 force values in table DE_GNP are inconsistent with -dE/dr.
WARNING:  Should only be flagged at inflection points (src/pair_table.cpp:463)

#Neigh_list Calc Frequency

neigh_modify delay 0 every 1 check yes

# Saving Frequency (50 frames)

variable ts_save equal ${steps_equ}
variable ts_save equal 5000

# Dump
#dump 1 all custom ${ts_save} ./pgnpmf/${folder}/equilibration/trajectory/trajectory_${usic}_${trial}.equ.custom type x y z ix iy iz
#dump_modify 1 first no sort id
dump 2 all cfg 50000 ./pgnpmf/${folder}/equilibration/trajectory/dumpgen.tens_*.cfg mass type xs ys zs fx fy fz
dump 2 all cfg 50000 ./pgnpmf/3070/equilibration/trajectory/dumpgen.tens_*.cfg mass type xs ys zs fx fy fz
dump_modify 2 element N20 N100

# thermo_style
thermo_style custom step temp press pe density ke etotal lx ly lz xlo xhi ylo yhi zlo zhi vol dt time cpu tpcpu spcpu cpuremain

# run info
timestep ${ts}
timestep 0.25
thermo 200

# fix

fix 1 all momentum 1000 linear 1 1 1 angular
variable T equal ${temp}
variable T equal 300
fix 2 all nvt temp ${T} 370000 100.0
fix 2 all nvt temp 300 370000 100.0

run 100000
Generated 0 of 1 mixed pair_coeff terms from geometric mixing rule
Unused restart file global fix info:
  fix style: npt, fix ID: 5
Neighbor list info ...
  update every 1 steps, delay 0 steps, check yes
  max neighbors/atom: 2000, page size: 100000
  master list distance cutoff = 117.92
  ghost atom cutoff = 117.92
  binsize = 58.96, bins = 15 15 15
  1 neighbor lists, perpetual/occasional/extra = 1 0 0
  (1) pair table, perpetual
      attributes: half, newton on
      pair build: half/bin/atomonly/newton
      stencil: half/bin/3d
      bin: standard
Per MPI rank memory allocation (min/avg/max) = 3.079 | 3.082 | 3.085 Mbytes
   Step          Temp          Press          PotEng        Density         KinEng         TotEng           Lx             Ly             Lz            Xlo            Xhi            Ylo            Yhi            Zlo            Zhi           Volume           Dt            Time           CPU           T/CPU          S/CPU         CPULeft    
  28010000   309.9436       0.029506724   -37783378       1.0591938      922.95912     -37782455       827.924        827.924        827.924        1586.038       2413.962       1586.038       2413.962       1586.038       2413.962       5.6750725e+08  0.25           7760000        0              0              0              0            
  28010200   377.55473     -0.32729311    -37783510       1.0591938      1124.2935     -37782386       827.924        827.924        827.924        1586.038       2413.962       1586.038       2413.962       1586.038       2413.962       5.6750725e+08  0.25           7760050        0.009692518    5158.2962      20631.667      4.8376089    
  28010400   481.83031     -0.70467525    -37783658       1.0591938      1434.8084     -37782223       827.924        827.924        827.924        1586.038       2413.962       1586.038       2413.962       1586.038       2413.962       5.6750725e+08  0.25           7760100        0.018820172    5477.9044      21911.702      4.6867051    
  28010600   631.11857     -1.1117283     -37783825       1.0591938      1879.3633     -37781946       827.924        827.924        827.924        1586.038       2413.962       1586.038       2413.962       1586.038       2413.962       5.6750725e+08  0.25           7760150        0.028083699    5397.5827      21590.38       4.6528307    
  28010800   832.58058     -1.5623547     -37784017       1.0591938      2479.2828     -37781538       827.924        827.924        827.924        1586.038       2413.962       1586.038       2413.962       1586.038       2413.962       5.6750725e+08  0.25           7760200        0.038659991    4727.5423      18910.194      4.7940574    
  28011000   1099.0998     -2.080362      -37784236       1.0591938      3272.9315     -37780963       827.924        827.924        827.924        1586.038       2413.962       1586.038       2413.962       1586.038       2413.962       5.6750725e+08  0.25           7760250        0.04795854     5377.1848      21508.691      4.7480768    
  28011200   1449.1572     -2.6911929     -37784487       1.0591938      4315.3428     -37780172       827.924        827.924        827.924        1586.038       2413.962       1586.038       2413.962       1586.038       2413.962       5.6750725e+08  0.25           7760300        0.056957817    5556.0031      22224.062      4.6896718    
  28011400   1903.4421     -3.4138285     -37784774       1.0591938      5668.1256     -37779106       827.924        827.924        827.924        1586.038       2413.962       1586.038       2413.962       1586.038       2413.962       5.6750725e+08  0.25           7760350        0.066250255    5380.7129      21522.824      4.6660392    
  28011600   2486.0537     -4.2671284     -37785103       1.0591938      7403.0434     -37777700       827.924        827.924        827.924        1586.038       2413.962       1586.038       2413.962       1586.038       2413.962       5.6750725e+08  0.25           7760400        0.075442023    5439.6416      21758.512      4.6397965    
  28011800   3222.481      -5.2541278     -37785478       1.0591938      9595.9982     -37775882       827.924        827.924        827.924        1586.038       2413.962       1586.038       2413.962       1586.038       2413.962       5.6750725e+08  0.25           7760450        0.084733392    5381.3325      21525.328      4.6227775    
  28012000   4135.656      -6.4150262     -37785904       1.0591938      12315.277     -37773588       827.924        827.924        827.924        1586.038       2413.962       1586.038       2413.962       1586.038       2413.962       5.6750725e+08  0.25           7760500        0.093816789    5504.5692      22018.32       4.5971112    
  28012200   5243.7248     -7.6535147     -37784490       1.0591938      15614.917     -37768875       827.924        827.924        827.924        1586.038       2413.962       1586.038       2413.962       1586.038       2413.962       5.6750725e+08  0.25           7760550        0.10305706     5411.0633      21644.26       4.5814369    
  28012400   6547.9939     -9.0451444     -37785031       1.0591938      19498.808     -37765532       827.924        827.924        827.924        1586.038       2413.962       1586.038       2413.962       1586.038       2413.962       5.6750725e+08  0.25           7760600        0.11212356     5514.8225      22059.341      4.5597627    
  28012600   8024.2133     -10.680322     -37793009       1.0591938      23894.737     -37769114       827.924        827.924        827.924        1586.038       2413.962       1586.038       2413.962       1586.038       2413.962       5.6750725e+08  0.25           7760650        0.12128352     5458.5743      21834.249      4.5435334    
  28012800   9610.6707     -11.830968     -37791770       1.0591938      28618.936     -37763151       827.924        827.924        827.924        1586.038       2413.962       1586.038       2413.962       1586.038       2413.962       5.6750725e+08  0.25           7760700        0.13061523     5358.0777      21432.253      4.5342752    
  28013000   11198.81      -13.111146     -37792477       1.0591938      33348.145     -37759129       827.924        827.924        827.924        1586.038       2413.962       1586.038       2413.962       1586.038       2413.962       5.6750725e+08  0.25           7760750        0.14017229     5231.7509      20927.126      4.5322906    
  28013200   12640.369     -14.766021     -37793232       1.0591938      37640.86      -37755592       827.924        827.924        827.924        1586.038       2413.962       1586.038       2413.962       1586.038       2413.962       5.6750725e+08  0.25           7760800        0.14934242     5452.4598      21809.725      4.5176615    
  28013400   13763.098     -16.371389     -37786649       1.0591938      40984.155     -37745665       827.924        827.924        827.924        1586.038       2413.962       1586.038       2413.962       1586.038       2413.962       5.6750725e+08  0.25           7760850        0.15861917     5389.8488      21559.463      4.5066985    
  28013600   14442.011     -18.519198     -37787470       1.0591938      43005.844     -37744464       827.924        827.924        827.924        1586.038       2413.962       1586.038       2413.962       1586.038       2413.962       5.6750725e+08  0.25           7760900        0.16766465     5527.6141      22110.469      4.4897315    
  28013800   14708.353     -20.62599      -37786404       1.0591938      43798.965     -37742605       827.924        827.924        827.924        1586.038       2413.962       1586.038       2413.962       1586.038       2413.962       5.6750725e+08  0.25           7760950        0.17689419     5417.3975      21669.559      4.4782586    
  28014000   14793.423     -22.816008     -37787228       1.0591938      44052.286     -37743176       827.924        827.924        827.924        1586.038       2413.962       1586.038       2413.962       1586.038       2413.962       5.6750725e+08  0.25           7761000        0.18613936     5408.2276      21632.85       4.4673862    
  28014200   15014.284     -25.031687     -37788050       1.0591938      44709.972     -37743340       827.924        827.924        827.924        1586.038       2413.962       1586.038       2413.962       1586.038       2413.962       5.6750725e+08  0.25           7761050        0.19539718     5400.8663      21603.559      4.4569534    
  28014400   15612.905     -26.938193     -37788877       1.0591938      46492.565     -37742385       827.924        827.924        827.924        1586.038       2413.962       1586.038       2413.962       1586.038       2413.962       5.6750725e+08  0.25           7761100        0.2046372      5411.1828      21644.614      4.4462467    
  28014600   16663.974     -29.109488     -37789723       1.0591938      49622.469     -37740100       827.924        827.924        827.924        1586.038       2413.962       1586.038       2413.962       1586.038       2413.962       5.6750725e+08  0.25           7761150        0.21372482     5501.9924      22007.902      4.432504     
  28014800   18018.261     -30.894734     -37788700       1.0591938      53655.306     -37735045       827.924        827.924        827.924        1586.038       2413.962       1586.038       2413.962       1586.038       2413.962       5.6750725e+08  0.25           7761200        0.22297251     5406.7802      21627.235      4.4223228    
  28015000   19377.53      -32.71908      -37789597       1.0591938      57702.975     -37731894       827.924        827.924        827.924        1586.038       2413.962       1586.038       2413.962       1586.038       2413.962       5.6750725e+08  0.25           7761250        0.23251149     5241.6489      20966.644      4.4177498    
  28015200   20454.462     -34.639617     -37790511       1.0591938      60909.895     -37729601       827.924        827.924        827.924        1586.038       2413.962       1586.038       2413.962       1586.038       2413.962       5.6750725e+08  0.25           7761300        0.24175643     5408.3575      21633.374      4.4074375    
  28015400   21083.501     -36.927885     -37791067       1.0591938      62783.066     -37728283       827.924        827.924        827.924        1586.038       2413.962       1586.038       2413.962       1586.038       2413.962       5.6750725e+08  0.25           7761350        0.25090068     5467.9248      21871.792      4.3954377    
  28015600   21311.982     -39.894691     -37806757       1.0591938      63463.443     -37743293       827.924        827.924        827.924        1586.038       2413.962       1586.038       2413.962       1586.038       2413.962       5.6750725e+08  0.25           7761400        0.26001443     5486.2069      21944.673      4.3831305    
  28015800   21386.171     -42.013426     -37807687       1.0591938      63684.365     -37744002       827.924        827.924        827.924        1586.038       2413.962       1586.038       2413.962       1586.038       2413.962       5.6750725e+08  0.25           7761450        0.26900232     5563.0453      22252.27       4.3689971    
  28016000   21622.098     -43.822485     -37806711       1.0591938      64386.915     -37742324       827.924        827.924        827.924        1586.038       2413.962       1586.038       2413.962       1586.038       2413.962       5.6750725e+08  0.25           7761500        0.27828171     5388.298       21553.238      4.3597734    
  28016200   22258.447     -45.925271     -37807622       1.0591938      66281.854     -37741340       827.924        827.924        827.924        1586.038       2413.962       1586.038       2413.962       1586.038       2413.962       5.6750725e+08  0.25           7761550        0.28746258     5446.0998      21784.331      4.3490565    
  28016400   23359.557     -48.428132     -37808548       1.0591938      69560.772     -37738987       827.924        827.924        827.924        1586.038       2413.962       1586.038       2413.962       1586.038       2413.962       5.6750725e+08  0.25           7761600        0.29655173     5501.0802      22004.422      4.3370929    
  28016600   24760.448     -50.590974     -37809490       1.0591938      73732.385     -37735758       827.924        827.924        827.924        1586.038       2413.962       1586.038       2413.962       1586.038       2413.962       5.6750725e+08  0.25           7761650        0.30581424     5398.0739      21592.114      4.3277598    
  28016800   26143.775     -52.842407     -37810442       1.0591938      77851.697     -37732590       827.924        827.924        827.924        1586.038       2413.962       1586.038       2413.962       1586.038       2413.962       5.6750725e+08  0.25           7761700        0.31505539     5410.5949      21642.464      4.3181358    
  28017000   27197.146     -55.181216     -37811768       1.0591938      80988.457     -37730779       827.924        827.924        827.924        1586.038       2413.962       1586.038       2413.962       1586.038       2413.962       5.6750725e+08  0.25           7761750        0.3241893      5474.0967      21896.473      4.307109     
  28017200   27758.993     -57.632073     -37812724       1.0591938      82661.542     -37730063       827.924        827.924        827.924        1586.038       2413.962       1586.038       2413.962       1586.038       2413.962       5.6750725e+08  0.25           7761800        0.33370367     5255.2148      21020.826      4.3010908    
  28017400   27907.71      -60.368569     -37813681       1.0591938      83104.394     -37730577       827.924        827.924        827.924        1586.038       2413.962       1586.038       2413.962       1586.038       2413.962       5.6750725e+08  0.25           7761850        0.34293473     5416.5078      21665.998      4.2913394    
  28017600   27926.464     -62.654738     -37814986       1.0591938      83160.242     -37731826       827.924        827.924        827.924        1586.038       2413.962       1586.038       2413.962       1586.038       2413.962       5.6750725e+08  0.25           7761900        0.35207923     5467.7478      21871.01       4.2805634    
  28017800   28160.593     -64.870141     -37819496       1.0591938      83857.437     -37735639       827.924        827.924        827.924        1586.038       2413.962       1586.038       2413.962       1586.038       2413.962       5.6750725e+08  0.25           7761950        0.36127875     5435.0898      21740.409      4.2705193    
  28018000   28847.285     -66.819639     -37820403       1.0591938      85902.29      -37734500       827.924        827.924        827.924        1586.038       2413.962       1586.038       2413.962       1586.038       2413.962       5.6750725e+08  0.25           7762000        0.37040202     5480.4448      21921.604      4.2596444    
  28018200   30027.75      -69.148615     -37819410       1.0591938      89417.512     -37729992       827.924        827.924        827.924        1586.038       2413.962       1586.038       2413.962       1586.038       2413.962       5.6750725e+08  0.25           7762050        0.37964807     5407.7304      21631.034      4.2502256    
  28018400   31505         -71.645155     -37818429       1.0591938      93816.509     -37724612       827.924        827.924        827.924        1586.038       2413.962       1586.038       2413.962       1586.038       2413.962       5.6750725e+08  0.25           7762100        0.38882487     5448.5485      21794.173      4.2400615    
  28018600   32925.699     -73.780042     -37819350       1.0591938      98047.11      -37721303       827.924        827.924        827.924        1586.038       2413.962       1586.038       2413.962       1586.038       2413.962       5.6750725e+08  0.25           7762150        0.39812701     5375.0835      21500.269      4.2312756    
  28018800   33953.384     -75.826584     -37822158       1.0591938      101107.38     -37721050       827.924        827.924        827.924        1586.038       2413.962       1586.038       2413.962       1586.038       2413.962       5.6750725e+08  0.25           7762200        0.40734717     5422.8988      21691.628      4.2216164    
  28019000   34433.616     -77.779345     -37823057       1.0591938      102537.43     -37720519       827.924        827.924        827.924        1586.038       2413.962       1586.038       2413.962       1586.038       2413.962       5.6750725e+08  0.25           7762250        0.41641624     5513.2499      22053.044      4.2104482    
  28019200   34484.309     -80.106774     -37825824       1.0591938      102688.38     -37723136       827.924        827.924        827.924        1586.038       2413.962       1586.038       2413.962       1586.038       2413.962       5.6750725e+08  0.25           7762300        0.42554292     5478.4548      21913.829      4.1999406    
  28019400   34443.458     -82.404959     -37826679       1.0591938      102566.74     -37724112       827.924        827.924        827.924        1586.038       2413.962       1586.038       2413.962       1586.038       2413.962       5.6750725e+08  0.25           7762350        0.43505835     5254.6183      21018.464      4.1932385    
  28019600   34681.526     -84.093485     -37820136       1.0591938      103275.66     -37716860       827.924        827.924        827.924        1586.038       2413.962       1586.038       2413.962       1586.038       2413.962       5.6750725e+08  0.25           7762400        0.44422366     5455.379       21821.535      4.1831214    
  28019800   35434.605     -86.214146     -37822841       1.0591938      105518.2      -37717322       827.924        827.924        827.924        1586.038       2413.962       1586.038       2413.962       1586.038       2413.962       5.6750725e+08  0.25           7762450        0.45327381     5524.7679      22099.067      4.1719845    
  28020000   36712.117     -88.647343     -37825536       1.0591938      109322.42     -37716214       827.924        827.924        827.924        1586.038       2413.962       1586.038       2413.962       1586.038       2413.962       5.6750725e+08  0.25           7762500        0.46244101     5454.2013      21816.784      4.1619845    
  28020200   38267.511     -90.337799     -37826327       1.0591938      113954.11     -37712373       827.924        827.924        827.924        1586.038       2413.962       1586.038       2413.962       1586.038       2413.962       5.6750725e+08  0.25           7762550        0.47182613     5327.5699      21310.209      4.1539362    
  28020400   39707.224     -91.882339     -37827102       1.0591938      118241.33     -37708860       827.924        827.924        827.924        1586.038       2413.962       1586.038       2413.962       1586.038       2413.962       5.6750725e+08  0.25           7762600        0.48098758     5457.6698      21830.815      4.1439077    
  28020600   40687.14      -93.776512     -37827484       1.0591938      121159.36     -37706324       827.924        827.924        827.924        1586.038       2413.962       1586.038       2413.962       1586.038       2413.962       5.6750725e+08  0.25           7762650        0.4901843      5436.7239      21746.827      4.1342108    
  28020800   41081.253     -95.853861     -37820839       1.0591938      122332.96     -37698506       827.924        827.924        827.924        1586.038       2413.962       1586.038       2413.962       1586.038       2413.962       5.6750725e+08  0.25           7762700        0.4994266      5409.9258      21639.792      4.1249074    
  28021000   41048.169     -97.386538     -37816063       1.0591938      122234.44     -37693829       827.924        827.924        827.924        1586.038       2413.962       1586.038       2413.962       1586.038       2413.962       5.6750725e+08  0.25           7762750        0.50849479     5513.7625      22055.038      4.1141987    
  28021200   40963.805     -99.547567     -37818634       1.0591938      121983.22     -37696650       827.924        827.924        827.924        1586.038       2413.962       1586.038       2413.962       1586.038       2413.962       5.6750725e+08  0.25           7762800        0.51778687     5380.9127      21523.544      4.105324     
  28021400   41219.821     -101.73735     -37819282       1.0591938      122745.59     -37696537       827.924        827.924        827.924        1586.038       2413.962       1586.038       2413.962       1586.038       2413.962       5.6750725e+08  0.25           7762850        0.52696444     5448.0795      21792.384      4.0955441    
  28021600   42050.416     -103.6318      -37821808       1.0591938      125218.96     -37696589       827.924        827.924        827.924        1586.038       2413.962       1586.038       2413.962       1586.038       2413.962       5.6750725e+08  0.25           7762900        0.53647247     5258.6996      21034.803      4.0883031    
  28021800   43421.565     -104.92169     -37822411       1.0591938      129302.01     -37693109       827.924        827.924        827.924        1586.038       2413.962       1586.038       2413.962       1586.038       2413.962       5.6750725e+08  0.25           7762950        0.54566843     5437.1821      21748.759      4.0786529    
  28022000   45038.453     -106.19498     -37824890       1.0591938      134116.82     -37690773       827.924        827.924        827.924        1586.038       2413.962       1586.038       2413.962       1586.038       2413.962       5.6750725e+08  0.25           7763000        0.55513367     5282.494       21129.86       4.070993     
  28022200   46480.867     -107.52669     -37823558       1.0591938      138412.08     -37685146       827.924        827.924        827.924        1586.038       2413.962       1586.038       2413.962       1586.038       2413.962       5.6750725e+08  0.25           7763050        0.56430489     5451.8124      21807.281      4.0611577    
  28022400   47403.099     -109.78657     -37824090       1.0591938      141158.33     -37682932       827.924        827.924        827.924        1586.038       2413.962       1586.038       2413.962       1586.038       2413.962       5.6750725e+08  0.25           7763100        0.57352286     5424.2142      21696.918      4.0516735    
  28022600   47708.97      -112.11466     -37824602       1.0591938      142069.16     -37682533       827.924        827.924        827.924        1586.038       2413.962       1586.038       2413.962       1586.038       2413.962       5.6750725e+08  0.25           7763150        0.5827873      5396.9634      21587.809      4.0425206    
  28022800   47602.346     -113.65292     -37826981       1.0591938      141751.66     -37685229       827.924        827.924        827.924        1586.038       2413.962       1586.038       2413.962       1586.038       2413.962       5.6750725e+08  0.25           7763200        0.5920163      5417.7045      21670.762      4.0331231    
  28023000   47490.373     -115.55226     -37827433       1.0591938      141418.22     -37686015       827.924        827.924        827.924        1586.038       2413.962       1586.038       2413.962       1586.038       2413.962       5.6750725e+08  0.25           7763250        0.60132895     5369.0405      21476.312      4.0242897    
  28023200   47780.444     -116.85558     -37825963       1.0591938      142282        -37683681       827.924        827.924        827.924        1586.038       2413.962       1586.038       2413.962       1586.038       2413.962       5.6750725e+08  0.25           7763300        0.61044141     5487.0154      21948.028      4.0141257    
  28023400   48687.108     -118.52376     -37826351       1.0591938      144981.89     -37681369       827.924        827.924        827.924        1586.038       2413.962       1586.038       2413.962       1586.038       2413.962       5.6750725e+08  0.25           7763350        0.61972457     5386.0952      21544.367      4.0050965    
  28023600   50147.318     -120.36415     -37830512       1.0591938      149330.15     -37681182       827.924        827.924        827.924        1586.038       2413.962       1586.038       2413.962       1586.038       2413.962       5.6750725e+08  0.25           7763400        0.62916991     5293.6011      21174.279      3.9970907    
  28023800   51815.209     -121.96405     -37823477       1.0591938      154296.84     -37669180       827.924        827.924        827.924        1586.038       2413.962       1586.038       2413.962       1586.038       2413.962       5.6750725e+08  0.25           7763450        0.63892028     5128.0032      20512.107      3.9909477    
  28024000   53246.214     -123.89072     -37825696       1.0591938      158558.13     -37667138       827.924        827.924        827.924        1586.038       2413.962       1586.038       2413.962       1586.038       2413.962       5.6750725e+08  0.25           7763500        0.64806121     5469.9281      21879.755      3.9809577    
  28024200   54108.045     -125.24354     -37826005       1.0591938      161124.52     -37664880       827.924        827.924        827.924        1586.038       2413.962       1586.038       2413.962       1586.038       2413.962       5.6750725e+08  0.25           7763550        0.65732177     5399.2299      21596.943      3.9717151    
  28024400   54326.995     -126.38428     -37833661       1.0591938      161776.51     -37671885       827.924        827.924        827.924        1586.038       2413.962       1586.038       2413.962       1586.038       2413.962       5.6750725e+08  0.25           7763600        0.66641899     5496.193       21984.84       3.9615007    
  28024600   54151.329     -127.72485     -37832015       1.0591938      161253.41     -37670762       827.924        827.924        827.924        1586.038       2413.962       1586.038       2413.962       1586.038       2413.962       5.6750725e+08  0.25           7763650        0.67552836     5488.8411      21955.242      3.9513883    
  28024800   54024.339     -128.94291     -37832239       1.0591938      160875.26     -37671363       827.924        827.924        827.924        1586.038       2413.962       1586.038       2413.962       1586.038       2413.962       5.6750725e+08  0.25           7763700        0.68486262     5356.6196      21426.419      3.9425973    
  28025000   54356.71      -130.49306     -37832438       1.0591938      161865        -37670573       827.924        827.924        827.924        1586.038       2413.962       1586.038       2413.962       1586.038       2413.962       5.6750725e+08  0.25           7763750        0.69403335     5452.118       21808.565      3.9328653    
  28025200   55351.812     -132.28643     -37832616       1.0591938      164828.24     -37667788       827.924        827.924        827.924        1586.038       2413.962       1586.038       2413.962       1586.038       2413.962       5.6750725e+08  0.25           7763800        0.7035725      5241.5352      20965.969      3.9252042    
  28025400   56898.07      -133.94895     -37840160       1.0591938      169432.74     -37670727       827.924        827.924        827.924        1586.038       2413.962       1586.038       2413.962       1586.038       2413.962       5.6750725e+08  0.25           7763850        0.71266213     5500.7703      22003.241      3.9150234    
  28025600   58606.901     -134.62944     -37833300       1.0591938      174521.34     -37658779       827.924        827.924        827.924        1586.038       2413.962       1586.038       2413.962       1586.038       2413.962       5.6750725e+08  0.25           7763900        0.72190431     5409.989       21639.935      3.9056971    
  28025800   60013.466     -135.98519     -37840814       1.0591938      178709.85     -37662104       827.924        827.924        827.924        1586.038       2413.962       1586.038       2413.962       1586.038       2413.962       5.6750725e+08  0.25           7763950        0.73114473     5411.01        21644.075      3.8963628    
  28026000   60794.328     -137.05774     -37840934       1.0591938      181035.13     -37659899       827.924        827.924        827.924        1586.038       2413.962       1586.038       2413.962       1586.038       2413.962       5.6750725e+08  0.25           7764000        0.74085567     5148.8528      20595.384      3.8895012    
  28026200   60921.076     -138.54206     -37848409       1.0591938      181412.56     -37666996       827.924        827.924        827.924        1586.038       2413.962       1586.038       2413.962       1586.038       2413.962       5.6750725e+08  0.25           7764050        0.74987765     5542.0416      22168.154      3.8790053    
  28026400   60687.117     -139.53894     -37848489       1.0591938      180715.87     -37667774       827.924        827.924        827.924        1586.038       2413.962       1586.038       2413.962       1586.038       2413.962       5.6750725e+08  0.25           7764100        0.75906709     5440.9924      21763.958      3.8693998    
  28026600   60562.857     -141.05539     -37848561       1.0591938      180345.85     -37668215       827.924        827.924        827.924        1586.038       2413.962       1586.038       2413.962       1586.038       2413.962       5.6750725e+08  0.25           7764150        0.76826518     5435.9301      21743.794      3.8598468    
  28026800   60961.483     -142.30352     -37848626       1.0591938      181532.89     -37667093       827.924        827.924        827.924        1586.038       2413.962       1586.038       2413.962       1586.038       2413.962       5.6750725e+08  0.25           7764200        0.77771799     5289.414       21157.622      3.8515645    
  28027000   62049.973     -143.23792     -37848673       1.0591938      184774.23     -37663899       827.924        827.924        827.924        1586.038       2413.962       1586.038       2413.962       1586.038       2413.962       5.6750725e+08  0.25           7764250        0.78700329     5384.8568      21539.369      3.8424364    
  28027200   63671.108     -144.26386     -37848707       1.0591938      189601.69     -37659106       827.924        827.924        827.924        1586.038       2413.962       1586.038       2413.962       1586.038       2413.962       5.6750725e+08  0.25           7764300        0.79617707     5450.3208      21801.319      3.8327677    
  28027400   65403.4       -144.9818      -37843264       1.0591938      194760.16     -37648504       827.924        827.924        827.924        1586.038       2413.962       1586.038       2413.962       1586.038       2413.962       5.6750725e+08  0.25           7764350        0.80550629     5359.4957      21437.985      3.8238485    
  28027600   66768.731     -145.74017     -37845196       1.0591938      198825.88     -37646370       827.924        827.924        827.924        1586.038       2413.962       1586.038       2413.962       1586.038       2413.962       5.6750725e+08  0.25           7764400        0.81466627     5458.5218      21834.042      3.8141276    
  28027800   67467.086     -145.9132      -37824995       1.0591938      200905.46     -37624090       827.924        827.924        827.924        1586.038       2413.962       1586.038       2413.962       1586.038       2413.962       5.6750725e+08  0.25           7764450        0.82383156     5455.3838      21821.545      3.8044437    
  28028000   67506.999     -146.94457     -37825027       1.0591938      201024.32     -37624003       827.924        827.924        827.924        1586.038       2413.962       1586.038       2413.962       1586.038       2413.962       5.6750725e+08  0.25           7764500        0.83344428     5201.4539      20805.841      3.7968094    
  28028200   67222.396     -148.42073     -37825053       1.0591938      200176.82     -37624876       827.924        827.924        827.924        1586.038       2413.962       1586.038       2413.962       1586.038       2413.962       5.6750725e+08  0.25           7764550        0.84284609     5318.1181      21272.445      3.7881842    
  28028400   67110.376     -150.27112     -37826986       1.0591938      199843.24     -37627142       827.924        827.924        827.924        1586.038       2413.962       1586.038       2413.962       1586.038       2413.962       5.6750725e+08  0.25           7764600        0.85203083     5443.7844      21775.126      3.7785795    
  28028600   67573.916     -151.44305     -37819640       1.0591938      201223.58     -37618417       827.924        827.924        827.924        1586.038       2413.962       1586.038       2413.962       1586.038       2413.962       5.6750725e+08  0.25           7764650        0.86111713     5502.8087      22011.198      3.7685525    
  28028800   68760.908     -152.81145     -37828953       1.0591938      204758.24     -37624195       827.924        827.924        827.924        1586.038       2413.962       1586.038       2413.962       1586.038       2413.962       5.6750725e+08  0.25           7764700        0.87031708     5434.8121      21739.431      3.7590364    
  28029000   70458.631     -153.39707     -37821613       1.0591938      209813.77     -37611800       827.924        827.924        827.924        1586.038       2413.962       1586.038       2413.962       1586.038       2413.962       5.6750725e+08  0.25           7764750        0.87953318     5425.3066      21701.21       3.749596     
  28029200   72205.213     -154.74304     -37821658       1.0591938      215014.79     -37606643       827.924        827.924        827.924        1586.038       2413.962       1586.038       2413.962       1586.038       2413.962       5.6750725e+08  0.25           7764800        0.88885271     5365.0659      21460.303      3.7405954    
  28029400   73520.554     -156.39701     -37823608       1.0591938      218931.66     -37604677       827.924        827.924        827.924        1586.038       2413.962       1586.038       2413.962       1586.038       2413.962       5.6750725e+08  0.25           7764850        0.89802964     5448.4464      21793.693      3.7309962    
  28029600   74124.021     -157.08893     -37821770       1.0591938      220728.68     -37601041       827.924        827.924        827.924        1586.038       2413.962       1586.038       2413.962       1586.038       2413.962       5.6750725e+08  0.25           7764900        0.90803927     4995.1417      19980.491      3.7248218    
  28029800   74067.229     -158.26396     -37814440       1.0591938      220559.56     -37593880       827.924        827.924        827.924        1586.038       2413.962       1586.038       2413.962       1586.038       2413.962       5.6750725e+08  0.25           7764950        0.91742267     5328.5947      21314.442      3.7160323    
  28030000   73737.396     -160.25124     -37812615       1.0591938      219577.38     -37593038       827.924        827.924        827.924        1586.038       2413.962       1586.038       2413.962       1586.038       2413.962       5.6750725e+08  0.25           7765000        0.92661799     5437.5776      21750.377      3.7064787    
  28030200   73643.246     -161.45979     -37805314       1.0591938      219297.01     -37586017       827.924        827.924        827.924        1586.038       2413.962       1586.038       2413.962       1586.038       2413.962       5.6750725e+08  0.25           7765050        0.93616521     5237.125       20948.502      3.6983225    
  28030400   74186.136     -162.76666     -37805391       1.0591938      220913.64     -37584477       827.924        827.924        827.924        1586.038       2413.962       1586.038       2413.962       1586.038       2413.962       5.6750725e+08  0.25           7765100        0.94558977     5305.3043      21221.226      3.6896607    
  28030600   75476.668     -163.66804     -37805469       1.0591938      224756.63     -37580712       827.924        827.924        827.924        1586.038       2413.962       1586.038       2413.962       1586.038       2413.962       5.6750725e+08  0.25           7765150        0.9547998      5428.8345      21715.263      3.6801573    
  28030800   77255.478     -164.45108     -37803659       1.0591938      230053.62     -37573605       827.924        827.924        827.924        1586.038       2413.962       1586.038       2413.962       1586.038       2413.962       5.6750725e+08  0.25           7765200        0.96411424     5368.0265      21472.115      3.6710568    
  28031000   79010.732     -165.55654     -37813011       1.0591938      235280.47     -37577730       827.924        827.924        827.924        1586.038       2413.962       1586.038       2413.962       1586.038       2413.962       5.6750725e+08  0.25           7765250        0.97321572     5493.6084      21974.525      3.661151     
  28031200   80266.23      -167.03381     -37813105       1.0591938      239019.13     -37574086       827.924        827.924        827.924        1586.038       2413.962       1586.038       2413.962       1586.038       2413.962       5.6750725e+08  0.25           7765300        0.98249038     5391.0291      21563.975      3.6519046    
  28031400   80774.027     -168.12161     -37810953       1.0591938      240531.26     -37570422       827.924        827.924        827.924        1586.038       2413.962       1586.038       2413.962       1586.038       2413.962       5.6750725e+08  0.25           7765350        0.99191247     5306.6552      21226.539      3.6431991    
  28031600   80626.85      -169.17506     -37811070       1.0591938      240092.99     -37570977       827.924        827.924        827.924        1586.038       2413.962       1586.038       2413.962       1586.038       2413.962       5.6750725e+08  0.25           7765400        1.0011818      5394.1657      21576.772      3.6339253    
  28031800   80241.95      -171.28286     -37813084       1.0591938      238946.83     -37574137       827.924        827.924        827.924        1586.038       2413.962       1586.038       2413.962       1586.038       2413.962       5.6750725e+08  0.25           7765450        1.0102763      5497.8265      21991.34       3.6240245    
  28032000   80158.877     -173.86836     -37820584       1.0591938      238699.45     -37581885       827.924        827.924        827.924        1586.038       2413.962       1586.038       2413.962       1586.038       2413.962       5.6750725e+08  0.25           7765500        1.0195011      5420.1852      21680.687      3.6146009    
  28032200   80780.651     -175.11279     -37820705       1.0591938      240550.98     -37580154       827.924        827.924        827.924        1586.038       2413.962       1586.038       2413.962       1586.038       2413.962       5.6750725e+08  0.25           7765550        1.02877        5394.3601      21577.454      3.6053351    
  28032400   82184.649     -176.13378     -37822711       1.0591938      244731.85     -37577979       827.924        827.924        827.924        1586.038       2413.962       1586.038       2413.962       1586.038       2413.962       5.6750725e+08  0.25           7765600        1.0384073      5188.1783      20752.778      3.5973454    
  28032600   84053.374     -176.95401     -37822824       1.0591938      250296.6      -37572527       827.924        827.924        827.924        1586.038       2413.962       1586.038       2413.962       1586.038       2413.962       5.6750725e+08  0.25           7765650        1.0477165      5371.0666      21484.234      3.5882028    
  28032800   85830.803     -178.06259     -37822943       1.0591938      255589.47     -37567353       827.924        827.924        827.924        1586.038       2413.962       1586.038       2413.962       1586.038       2413.962       5.6750725e+08  0.25           7765700        1.0568078      5499.755       21999.02       3.5783196    
  28033000   87023.204     -179.47595     -37825316       1.0591938      259140.24     -37566176       827.924        827.924        827.924        1586.038       2413.962       1586.038       2413.962       1586.038       2413.962       5.6750725e+08  0.25           7765750        1.0663305      5250.5797      21002.284      3.5698947    
  28033200   87417.586     -180.62965     -37825428       1.0591938      260314.64     -37565113       827.924        827.924        827.924        1586.038       2413.962       1586.038       2413.962       1586.038       2413.962       5.6750725e+08  0.25           7765800        1.0753906      5518.737       22075.028      3.5599191    
  28033400   87147.327     -181.91173     -37825140       1.0591938      259509.86     -37565630       827.924        827.924        827.924        1586.038       2413.962       1586.038       2413.962       1586.038       2413.962       5.6750725e+08  0.25           7765850        1.084589       5435.7161      21742.749      3.5504125    
  28033600   86695.598     -183.54391     -37825593       1.0591938      258164.69     -37567429       827.924        827.924        827.924        1586.038       2413.962       1586.038       2413.962       1586.038       2413.962       5.6750725e+08  0.25           7765900        1.0938095      5422.6959      21690.802      3.540982     
  28033800   86627.511     -184.87477     -37829448       1.0591938      257961.94     -37571487       827.924        827.924        827.924        1586.038       2413.962       1586.038       2413.962       1586.038       2413.962       5.6750725e+08  0.25           7765950        1.1030036      5438.2702      21753.175      3.5314707    
  28034000   87355.93      -186.12189     -37829129       1.0591938      260131.04     -37568998       827.924        827.924        827.924        1586.038       2413.962       1586.038       2413.962       1586.038       2413.962       5.6750725e+08  0.25           7766000        1.1123024      5377.0367      21508.034      3.5222962    
  28034200   88923.348     -186.71748     -37829163       1.0591938      264798.55     -37564365       827.924        827.924        827.924        1586.038       2413.962       1586.038       2413.962       1586.038       2413.962       5.6750725e+08  0.25           7766050        1.1213706      5513.7649      22055.06       3.5123977    
  28034400   90908.938     -187.59446     -37829185       1.0591938      270711.29     -37558474       827.924        827.924        827.924        1586.038       2413.962       1586.038       2413.962       1586.038       2413.962       5.6750725e+08  0.25           7766100        1.1308513      5273.8332      21095.251      3.5037908    
  28034600   92676.383     -189.3103      -37823696       1.0591938      275974.44     -37547721       827.924        827.924        827.924        1586.038       2413.962       1586.038       2413.962       1586.038       2413.962       5.6750725e+08  0.25           7766150        1.140415       5228.1393      20912.634      3.4954238    
  28034800   93765.583     -190.69097     -37823679       1.0591938      279217.9      -37544461       827.924        827.924        827.924        1586.038       2413.962       1586.038       2413.962       1586.038       2413.962       5.6750725e+08  0.25           7766200        1.149606       5440.1222      21760.515      3.4859072    
  28035000   94010.542     -191.28728     -37816245       1.0591938      279947.34     -37536298       827.924        827.924        827.924        1586.038       2413.962       1586.038       2413.962       1586.038       2413.962       5.6750725e+08  0.25           7766250        1.1587222      5484.7733      21939.204      3.4761712    
  28035200   93614.453     -191.74357     -37816163       1.0591938      278767.85     -37537395       827.924        827.924        827.924        1586.038       2413.962       1586.038       2413.962       1586.038       2413.962       5.6750725e+08  0.25           7766300        1.1678515      5476.84        21907.293      3.4664849    
  28035400   93091.627     -193.16        -37816052       1.0591938      277210.97     -37538841       827.924        827.924        827.924        1586.038       2413.962       1586.038       2413.962       1586.038       2413.962       5.6750725e+08  0.25           7766350        1.1769898      5471.4814      21885.937      3.4568332    
  28035600   93061.062     -194.59935     -37814024       1.0591938      277119.95     -37536904       827.924        827.924        827.924        1586.038       2413.962       1586.038       2413.962       1586.038       2413.962       5.6750725e+08  0.25           7766400        1.186253       5397.7027      21590.715      3.4475527    
  28035800   93966.993     -195.18016     -37821233       1.0591938      279817.66     -37541415       827.924        827.924        827.924        1586.038       2413.962       1586.038       2413.962       1586.038       2413.962       5.6750725e+08  0.25           7766450        1.1956111      5342.9569      21371.853      3.4385454    
  28036000   95810.272     -196.07508     -37822929       1.0591938      285306.63     -37537623       827.924        827.924        827.924        1586.038       2413.962       1586.038       2413.962       1586.038       2413.962       5.6750725e+08  0.25           7766500        1.2049261      5367.6934      21470.808      3.4294098    
  28036200   97942.24      -196.37856     -37822697       1.0591938      291655.27     -37531042       827.924        827.924        827.924        1586.038       2413.962       1586.038       2413.962       1586.038       2413.962       5.6750725e+08  0.25           7766550        1.2141354      5429.2996      21717.22       3.4199738    
  28036400   99579.183     -196.29353     -37822441       1.0591938      296529.8      -37525912       827.924        827.924        827.924        1586.038       2413.962       1586.038       2413.962       1586.038       2413.962       5.6750725e+08  0.25           7766600        1.2233553      5423.037       21692.233      3.4105709    
  28036600   100368.75     -196.55628     -37822126       1.0591938      298881.01     -37523245       827.924        827.924        827.924        1586.038       2413.962       1586.038       2413.962       1586.038       2413.962       5.6750725e+08  0.25           7766650        1.2325281      5450.9108      21803.536      3.4010409    
  28036800   100350.84     -197.74127     -37823671       1.0591938      298827.66     -37524843       827.924        827.924        827.924        1586.038       2413.962       1586.038       2413.962       1586.038       2413.962       5.6750725e+08  0.25           7766700        1.2422393      5148.6991      20594.851      3.3929865    
  28037000   99779.839     -198.57939     -37815905       1.0591938      297127.32     -37518777       827.924        827.924        827.924        1586.038       2413.962       1586.038       2413.962       1586.038       2413.962       5.6750725e+08  0.25           7766750        1.25149        5404.9146      21619.464      3.3836632    
  28037200   99130.303     -199.3439      -37817368       1.0591938      295193.12     -37522175       827.924        827.924        827.924        1586.038       2413.962       1586.038       2413.962       1586.038       2413.962       5.6750725e+08  0.25           7766800        1.2606012      5487.779       21951.297      3.3739668    
  28037400   99170.727     -200.21961     -37815011       1.0591938      295313.49     -37519698       827.924        827.924        827.924        1586.038       2413.962       1586.038       2413.962       1586.038       2413.962       5.6750725e+08  0.25           7766850        1.2697582      5460.3531      21841.393      3.3644001    
  28037600   100914.42     -200.07955     -37821898       1.0591938      300505.9      -37521392       827.924        827.924        827.924        1586.038       2413.962       1586.038       2413.962       1586.038       2413.962       5.6750725e+08  0.25           7766900        1.2789394      5445.9201      21783.721      3.3549034    
  28037800   104163.57     -199.58529     -37821355       1.0591938      310181.32     -37511173       827.924        827.924        827.924        1586.038       2413.962       1586.038       2413.962       1586.038       2413.962       5.6750725e+08  0.25           7766950        1.2882209      5387.0318      21548.109      3.3456716    
  28038000   106424.72     -199.50993     -37818879       1.0591938      316914.66     -37501964       827.924        827.924        827.924        1586.038       2413.962       1586.038       2413.962       1586.038       2413.962       5.6750725e+08  0.25           7767000        1.2973655      5467.7424      21871.027      3.3360869    
  28038200   106880.99     -200.04323     -37803500       1.0591938      318273.35     -37485227       827.924        827.924        827.924        1586.038       2413.962       1586.038       2413.962       1586.038       2413.962       5.6750725e+08  0.25           7767050        1.3067536      5325.8771      21303.431      3.3271287    
  28038400   106143.51     -200.63414     -37804739       1.0591938      316077.25     -37488661       827.924        827.924        827.924        1586.038       2413.962       1586.038       2413.962       1586.038       2413.962       5.6750725e+08  0.25           7767100        1.3159597      5431.1685      21724.608      3.3177056    
  28038600   104919.72     -200.61499     -37804418       1.0591938      312433        -37491985       827.924        827.924        827.924        1586.038       2413.962       1586.038       2413.962       1586.038       2413.962       5.6750725e+08  0.25           7767150        1.3250056      5527.3984      22109.703      3.3078851    
  28038800   103915.45     -202.4699      -37825826       1.0591938      309442.47     -37516384       827.924        827.924        827.924        1586.038       2413.962       1586.038       2413.962       1586.038       2413.962       5.6750725e+08  0.25           7767200        1.3345625      5231.8292      20927.255      3.2993392    
  28039000   104123.04     -201.77426     -37809959       1.0591938      310060.63     -37499899       827.924        827.924        827.924        1586.038       2413.962       1586.038       2413.962       1586.038       2413.962       5.6750725e+08  0.25           7767250        1.3438291      5395.7042      21582.894      3.2900683    
  28039200   107444.59     -201.35608     -37816544       1.0591938      319951.64     -37496593       827.924        827.924        827.924        1586.038       2413.962       1586.038       2413.962       1586.038       2413.962       5.6750725e+08  0.25           7767300        1.3528886      5519.0824      22076.344      3.2802955    
  28039400   111377.15     -200.82471     -37810222       1.0591938      331662.12     -37478560       827.924        827.924        827.924        1586.038       2413.962       1586.038       2413.962       1586.038       2413.962       5.6750725e+08  0.25           7767350        1.3623318      5294.7822      21179.104      3.2714538    
  28039600   112729.43     -199.86468     -37803862       1.0591938      335688.98     -37468173       827.924        827.924        827.924        1586.038       2413.962       1586.038       2413.962       1586.038       2413.962       5.6750725e+08  0.25           7767400        1.3712743      5591.3301      22365.285      3.2614131    
  28039800   112325.78     -200.44683     -37818075       1.0591938      334486.98     -37483588       827.924        827.924        827.924        1586.038       2413.962       1586.038       2413.962       1586.038       2413.962       5.6750725e+08  0.25           7767450        1.3803892      5485.4846      21941.876      3.2517934    
  28040000   110961.46     -200.71717     -37817131       1.0591938      330424.29     -37486707       827.924        827.924        827.924        1586.038       2413.962       1586.038       2413.962       1586.038       2413.962       5.6750725e+08  0.25           7767500        1.3896234      5414.6466      21658.64       3.2424586    
  28040200   109503.47     -200.80311     -37805205       1.0591938      326082.63     -37479122       827.924        827.924        827.924        1586.038       2413.962       1586.038       2413.962       1586.038       2413.962       5.6750725e+08  0.25           7767550        1.3987339      5488.164       21952.629      3.2328393    
  28040400   108965.33     -200.742       -37794956       1.0591938      324480.13     -37470476       827.924        827.924        827.924        1586.038       2413.962       1586.038       2413.962       1586.038       2413.962       5.6750725e+08  0.25           7767600        1.4080368      5374.6589      21498.608      3.2236672    
  28040600   110670.29     -200.16059     -37808715       1.0591938      329557.24     -37479158       827.924        827.924        827.924        1586.038       2413.962       1586.038       2413.962       1586.038       2413.962       5.6750725e+08  0.25           7767650        1.4171724      5473.111       21892.554      3.2141138    
  28040800   114932.6      -198.57845     -37807680       1.0591938      342249.67     -37465430       827.924        827.924        827.924        1586.038       2413.962       1586.038       2413.962       1586.038       2413.962       5.6750725e+08  0.25           7767700        1.4262359      5516.646       22066.599      3.2044039    
  28041000   117527.72     -197.23687     -37799236       1.0591938      349977.47     -37449258       827.924        827.924        827.924        1586.038       2413.962       1586.038       2413.962       1586.038       2413.962       5.6750725e+08  0.25           7767750        1.4357738      5242.2562      20968.952      3.1957583    
  28041200   117732.58     -197.42227     -37801926       1.0591938      350587.51     -37451339       827.924        827.924        827.924        1586.038       2413.962       1586.038       2413.962       1586.038       2413.962       5.6750725e+08  0.25           7767800        1.4450419      5394.8374      21579.361      3.1865062    
  28041400   116873.36     -197.70111     -37808197       1.0591938      348028.91     -37460168       827.924        827.924        827.924        1586.038       2413.962       1586.038       2413.962       1586.038       2413.962       5.6750725e+08  0.25           7767850        1.4542441      5433.4561      21733.815      3.1771103    
  28041600   115819.66     -198.012       -37814473       1.0591938      344891.17     -37469582       827.924        827.924        827.924        1586.038       2413.962       1586.038       2413.962       1586.038       2413.962       5.6750725e+08  0.25           7767900        1.463523       5388.5854      21554.349      3.1678826    
  28041800   115334.18     -198.13928     -37813364       1.0591938      343445.49     -37469919       827.924        827.924        827.924        1586.038       2413.962       1586.038       2413.962       1586.038       2413.962       5.6750725e+08  0.25           7767950        1.472551       5538.3258      22153.284      3.1581161    
  28042000   116396.37     -196.98957     -37797869       1.0591938      346608.52     -37451260       827.924        827.924        827.924        1586.038       2413.962       1586.038       2413.962       1586.038       2413.962       5.6750725e+08  0.25           7768000        1.4817177      5454.5119      21818.083      3.1486538    
  28042200   120274.48     -195.47114     -37796742       1.0591938      358156.87     -37438585       827.924        827.924        827.924        1586.038       2413.962       1586.038       2413.962       1586.038       2413.962       5.6750725e+08  0.25           7768050        1.4909899      5392.46        21569.931      3.1394171    
  28042400   124008.23     -194.50383     -37801070       1.0591938      369275.33     -37431795       827.924        827.924        827.924        1586.038       2413.962       1586.038       2413.962       1586.038       2413.962       5.6750725e+08  0.25           7768100        1.5003617      5335.1641      21340.511      3.1303879    
  28042600   124543.91     -194.31922     -37798385       1.0591938      370870.49     -37427514       827.924        827.924        827.924        1586.038       2413.962       1586.038       2413.962       1586.038       2413.962       5.6750725e+08  0.25           7768150        1.5094886      5478.3078      21913.267      3.1208481    
  28042800   123241.75     -194.37686     -37788332       1.0591938      366992.88     -37421339       827.924        827.924        827.924        1586.038       2413.962       1586.038       2413.962       1586.038       2413.962       5.6750725e+08  0.25           7768200        1.5186465      5459.7884      21839.201      3.1113767    
  28043000   121486.25     -194.10562     -37794583       1.0591938      361765.32     -37432818       827.924        827.924        827.924        1586.038       2413.962       1586.038       2413.962       1586.038       2413.962       5.6750725e+08  0.25           7768250        1.5277842      5471.8257      21887.291      3.1018683    
  28043200   120327.98     -193.6394      -37793463       1.0591938      358316.18     -37435146       827.924        827.924        827.924        1586.038       2413.962       1586.038       2413.962       1586.038       2413.962       5.6750725e+08  0.25           7768300        1.5373425      5231.0514      20924.159      3.0932106    
  28043400   120507.65     -193.49124     -37792370       1.0591938      358851.21     -37433518       827.924        827.924        827.924        1586.038       2413.962       1586.038       2413.962       1586.038       2413.962       5.6750725e+08  0.25           7768350        1.5467472      5316.5235      21266.053      3.0842357    
  28043600   122879.92     -192.52115     -37791284       1.0591938      365915.41     -37425369       827.924        827.924        827.924        1586.038       2413.962       1586.038       2413.962       1586.038       2413.962       5.6750725e+08  0.25           7768400        1.555916       5453.2311      21812.996      3.0747899    
  28043800   127756.14     -191.52036     -37806844       1.0591938      380435.97     -37426408       827.924        827.924        827.924        1586.038       2413.962       1586.038       2413.962       1586.038       2413.962       5.6750725e+08  0.25           7768450        1.5650993      5444.6979      21778.872      3.0653752    
  28044000   130334.85     -190.51721     -37800271       1.0591938      388114.92     -37412156       827.924        827.924        827.924        1586.038       2413.962       1586.038       2413.962       1586.038       2413.962       5.6750725e+08  0.25           7768500        1.5742074      5489.6306      21958.469      3.0558176    
  28044200   129743.17     -189.46475     -37791812       1.0591938      386352.99     -37405459       827.924        827.924        827.924        1586.038       2413.962       1586.038       2413.962       1586.038       2413.962       5.6750725e+08  0.25           7768550        1.5833971      5440.8361      21763.323      3.0464223    
  28044400   128197.68     -189.67121     -37809312       1.0591938      381750.79     -37427561       827.924        827.924        827.924        1586.038       2413.962       1586.038       2413.962       1586.038       2413.962       5.6750725e+08  0.25           7768600        1.5928042      5315.1484      21260.589      3.0374438    
  28044600   126676.44     -190.65358     -37808283       1.0591938      377220.8      -37431062       827.924        827.924        827.924        1586.038       2413.962       1586.038       2413.962       1586.038       2413.962       5.6750725e+08  0.25           7768650        1.6019442      5470.4505      21881.776      3.0279556    
  28044800   125950.38     -191.07458     -37809170       1.0591938      375058.71     -37434111       827.924        827.924        827.924        1586.038       2413.962       1586.038       2413.962       1586.038       2413.962       5.6750725e+08  0.25           7768700        1.6111319      5442.0809      21768.354      3.0185606    
  28045000   126760.68     -190.46699     -37793435       1.0591938      377471.66     -37415964       827.924        827.924        827.924        1586.038       2413.962       1586.038       2413.962       1586.038       2413.962       5.6750725e+08  0.25           7768750        1.6202153      5504.5722      22018.272      3.0089743    
  28045200   129738.15     -189.13494     -37777718       1.0591938      386338.05     -37391380       827.924        827.924        827.924        1586.038       2413.962       1586.038       2413.962       1586.038       2413.962       5.6750725e+08  0.25           7768800        1.6293169      5493.5161      21974.045      2.9994275    
  28045400   133591.22     -186.84496     -37760118       1.0591938      397811.85     -37362306       827.924        827.924        827.924        1586.038       2413.962       1586.038       2413.962       1586.038       2413.962       5.6750725e+08  0.25           7768850        1.639045       5139.6991      20558.735      2.9910289    
  28045600   135360.95     -185.35277     -37759178       1.0591938      403081.79     -37356096       827.924        827.924        827.924        1586.038       2413.962       1586.038       2413.962       1586.038       2413.962       5.6750725e+08  0.25           7768900        1.6482285      5444.5639      21778.336      2.98163      
  28045800   134978.89     -185.70501     -37754660       1.0591938      401944.08     -37352716       827.924        827.924        827.924        1586.038       2413.962       1586.038       2413.962       1586.038       2413.962       5.6750725e+08  0.25           7768950        1.6573231      5497.7764      21991.171      2.972074     
  28046000   133772.31     -186.62798     -37766607       1.0591938      398351.11     -37368256       827.924        827.924        827.924        1586.038       2413.962       1586.038       2413.962       1586.038       2413.962       5.6750725e+08  0.25           7769000        1.6664874      5455.9547      21823.797      2.9626473    
  28046200   132805.77     -187.61576     -37787862       1.0591938      395472.9      -37392389       827.924        827.924        827.924        1586.038       2413.962       1586.038       2413.962       1586.038       2413.962       5.6750725e+08  0.25           7769050        1.6754741      5563.7999      22255.165      2.9529103    
  28046400   132617.94     -187.42851     -37794391       1.0591938      394913.59     -37399477       827.924        827.924        827.924        1586.038       2413.962       1586.038       2413.962       1586.038       2413.962       5.6750725e+08  0.25           7769100        1.6848378      5339.7496      21358.955      2.9438406    
  28046600   133340.7      -186.56873     -37784283       1.0591938      397065.84     -37387217       827.924        827.924        827.924        1586.038       2413.962       1586.038       2413.962       1586.038       2413.962       5.6750725e+08  0.25           7769150        1.6941062      5394.6918      21578.7        2.9346023    
  28046800   134770.83     -186.8707      -37785362       1.0591938      401324.53     -37384038       827.924        827.924        827.924        1586.038       2413.962       1586.038       2413.962       1586.038       2413.962       5.6750725e+08  0.25           7769200        1.7033016      5437.4759      21749.949      2.9252384    
  28047000   136303        -187.2959      -37784557       1.0591938      405887.06     -37378670       827.924        827.924        827.924        1586.038       2413.962       1586.038       2413.962       1586.038       2413.962       5.6750725e+08  0.25           7769250        1.7125702      5394.5743      21578.316      2.9160008    
  28047200   137283.91     -186.42936     -37793033       1.0591938      408808.06     -37384225       827.924        827.924        827.924        1586.038       2413.962       1586.038       2413.962       1586.038       2413.962       5.6750725e+08  0.25           7769300        1.7216373      5514.4508      22057.898      2.9064228    
  28047400   137720.72     -185.8802      -37792238       1.0591938      410108.8      -37382129       827.924        827.924        827.924        1586.038       2413.962       1586.038       2413.962       1586.038       2413.962       5.6750725e+08  0.25           7769350        1.7309864      5348.0666      21392.131      2.8973225    
  28047600   138108.28     -185.02831     -37791464       1.0591938      411262.88     -37380201       827.924        827.924        827.924        1586.038       2413.962       1586.038       2413.962       1586.038       2413.962       5.6750725e+08  0.25           7769400        1.7406173      5191.694       20766.851      2.8886867    
  28047800   138803.16     -184.65682     -37792590       1.0591938      413332.12     -37379258       827.924        827.924        827.924        1586.038       2413.962       1586.038       2413.962       1586.038       2413.962       5.6750725e+08  0.25           7769450        1.7496231      5551.9468      22207.763      2.8790123    
  28048000   139989        -185.42371     -37791822       1.0591938      416863.34     -37374959       827.924        827.924        827.924        1586.038       2413.962       1586.038       2413.962       1586.038       2413.962       5.6750725e+08  0.25           7769500        1.7588167      5438.5831      21754.349      2.869651     
  28048200   141701.84     -185.03726     -37776311       1.0591938      421963.87     -37354347       827.924        827.924        827.924        1586.038       2413.962       1586.038       2413.962       1586.038       2413.962       5.6750725e+08  0.25           7769550        1.7679057      5501.1425      22004.594      2.8601223    
  28048400   143819.01     -184.38466     -37777446       1.0591938      428268.44     -37349177       827.924        827.924        827.924        1586.038       2413.962       1586.038       2413.962       1586.038       2413.962       5.6750725e+08  0.25           7769600        1.7770631      5460.0776      21840.291      2.8507081    
  28048600   146198.47     -184.17021     -37783703       1.0591938      435354.07     -37348349       827.924        827.924        827.924        1586.038       2413.962       1586.038       2413.962       1586.038       2413.962       5.6750725e+08  0.25           7769650        1.7864033      5353.1912      21412.701      2.8415872    
  28048800   148843.92     -183.44095     -37780674       1.0591938      443231.79     -37337442       827.924        827.924        827.924        1586.038       2413.962       1586.038       2413.962       1586.038       2413.962       5.6750725e+08  0.25           7769700        1.7956143      5428.3064      21713.36       2.8322602    
  28049000   151410.34     -182.81784     -37781803       1.0591938      450874.15     -37330928       827.924        827.924        827.924        1586.038       2413.962       1586.038       2413.962       1586.038       2413.962       5.6750725e+08  0.25           7769750        1.804786       5451.5122      21806.023      2.822873     
  28049200   152062.65     -181.9425      -37781012       1.0591938      452816.6      -37328196       827.924        827.924        827.924        1586.038       2413.962       1586.038       2413.962       1586.038       2413.962       5.6750725e+08  0.25           7769800        1.8138026      5545.3355      22181.369      2.8132474    
  28049400   148902.55     -182.50782     -37780212       1.0591938      443406.37     -37336806       827.924        827.924        827.924        1586.038       2413.962       1586.038       2413.962       1586.038       2413.962       5.6750725e+08  0.25           7769850        1.823179       5332.5484      21330.055      2.8041815    
  28049600   143670.61     -182.65801     -37772031       1.0591938      427826.54     -37344205       827.924        827.924        827.924        1586.038       2413.962       1586.038       2413.962       1586.038       2413.962       5.6750725e+08  0.25           7769900        1.8326662      5270.2055      21080.789      2.7952815    
  28049800   140883.07     -183.49018     -37763839       1.0591938      419525.72     -37344314       827.924        827.924        827.924        1586.038       2413.962       1586.038       2413.962       1586.038       2413.962       5.6750725e+08  0.25           7769950        1.8422869      5197.1648      20788.776      2.7865772    
  28050000   141447.43     -183.58806     -37770410       1.0591938      421206.3      -37349203       827.924        827.924        827.924        1586.038       2413.962       1586.038       2413.962       1586.038       2413.962       5.6750725e+08  0.25           7770000        1.8537692      4354.4653      17417.788      2.7806568    
  28050200   144927.17     -182.69092     -37775417       1.0591938      431568.36     -37343849       827.924        827.924        827.924        1586.038       2413.962       1586.038       2413.962       1586.038       2413.962       5.6750725e+08  0.25           7770050        1.8629195      5464.408       21857.682      2.7712112    
  28050400   148821.44     -181.19089     -37774181       1.0591938      443164.83     -37331016       827.924        827.924        827.924        1586.038       2413.962       1586.038       2413.962       1586.038       2413.962       5.6750725e+08  0.25           7770100        1.8721202      5434.3632      21737.517      2.7618432    
  28050600   150807.16     -179.89969     -37767780       1.0591938      449077.96     -37318702       827.924        827.924        827.924        1586.038       2413.962       1586.038       2413.962       1586.038       2413.962       5.6750725e+08  0.25           7770150        1.8815327      5312.0929      21248.317      2.7527869    
  28050800   151556.75     -179.67652     -37768733       1.0591938      451310.12     -37317422       827.924        827.924        827.924        1586.038       2413.962       1586.038       2413.962       1586.038       2413.962       5.6750725e+08  0.25           7770200        1.8906227      5500.5767      22002.355      2.7432589    
  28051000   151841.59     -179.3403      -37775119       1.0591938      452158.32     -37322960       827.924        827.924        827.924        1586.038       2413.962       1586.038       2413.962       1586.038       2413.962       5.6750725e+08  0.25           7770250        1.8998623      5411.4873      21645.949      2.7339506    
  28051200   152122.48     -178.6202      -37783358       1.0591938      452994.78     -37330364       827.924        827.924        827.924        1586.038       2413.962       1586.038       2413.962       1586.038       2413.962       5.6750725e+08  0.25           7770300        1.9093499      5270.0006      21080.071      2.7249969    
  28051400   152832.32     -178.52589     -37782652       1.0591938      455108.55     -37327543       827.924        827.924        827.924        1586.038       2413.962       1586.038       2413.962       1586.038       2413.962       5.6750725e+08  0.25           7770350        1.9189709      5196.9482      20787.681      2.716227     
  28051600   154631.01     -177.09492     -37773790       1.0591938      460464.74     -37313326       827.924        827.924        827.924        1586.038       2413.962       1586.038       2413.962       1586.038       2413.962       5.6750725e+08  0.25           7770400        1.9283795      5314.2807      21257.141      2.7071506    
  28051800   158269.93     -176.39698     -37780000       1.0591938      471300.83     -37308699       827.924        827.924        827.924        1586.038       2413.962       1586.038       2413.962       1586.038       2413.962       5.6750725e+08  0.25           7770450        1.9378288      5291.4868      21165.936      2.6981275    
  28052000   162238.76     -174.18305     -37766261       1.0591938      483119.32     -37283142       827.924        827.924        827.924        1586.038       2413.962       1586.038       2413.962       1586.038       2413.962       5.6750725e+08  0.25           7770500        1.9472301      5318.3795      21273.52       2.6890343    
  28052200   163490.49     -173.10386     -37776125       1.0591938      486846.75     -37289278       827.924        827.924        827.924        1586.038       2413.962       1586.038       2413.962       1586.038       2413.962       5.6750725e+08  0.25           7770550        1.9562478      5544.6388      22178.639      2.6794128    
  28052400   160932.52     -173.52537     -37784050       1.0591938      479229.55     -37304820       827.924        827.924        827.924        1586.038       2413.962       1586.038       2413.962       1586.038       2413.962       5.6750725e+08  0.25           7770600        1.9653769      5477.0326      21908.082      2.6699482    
  28052600   154920.32     -174.14368     -37788161       1.0591938      461326.24     -37326835       827.924        827.924        827.924        1586.038       2413.962       1586.038       2413.962       1586.038       2413.962       5.6750725e+08  0.25           7770650        1.9747744      5320.5464      21282.082      2.6608485    
  28052800   150476.75     -174.46786     -37794159       1.0591938      448094.06     -37346065       827.924        827.924        827.924        1586.038       2413.962       1586.038       2413.962       1586.038       2413.962       5.6750725e+08  0.25           7770700        1.9839087      5473.8372      21895.538      2.6513943    
  28053000   150458.08     -174.28063     -37794630       1.0591938      448038.48     -37346592       827.924        827.924        827.924        1586.038       2413.962       1586.038       2413.962       1586.038       2413.962       5.6750725e+08  0.25           7770750        1.993044       5473.289       21893.139      2.6419442    
  28053200   153093.21     -172.23898     -37793176       1.0591938      455885.43     -37337291       827.924        827.924        827.924        1586.038       2413.962       1586.038       2413.962       1586.038       2413.962       5.6750725e+08  0.25           7770800        2.00233        5384.4393      21537.694      2.6326954    
  28053400   156048.86     -170.21581     -37784312       1.0591938      464686.87     -37319625       827.924        827.924        827.924        1586.038       2413.962       1586.038       2413.962       1586.038       2413.962       5.6750725e+08  0.25           7770850        2.0113926      5517.1927      22068.851      2.6231547    
  28053600   158733.16     -167.15255     -37760281       1.0591938      472680.25     -37287601       827.924        827.924        827.924        1586.038       2413.962       1586.038       2413.962       1586.038       2413.962       5.6750725e+08  0.25           7770900        2.0205559      5456.5513      21826.134      2.6137488    
  28053800   161316.03     -165.67718     -37760611       1.0591938      480371.58     -37280240       827.924        827.924        827.924        1586.038       2413.962       1586.038       2413.962       1586.038       2413.962       5.6750725e+08  0.25           7770950        2.0297844      5418.0103      21672.135      2.6044286    
  28054000   163579.32     -164.84609     -37760893       1.0591938      487111.28     -37273782       827.924        827.924        827.924        1586.038       2413.962       1586.038       2413.962       1586.038       2413.962       5.6750725e+08  0.25           7771000        2.0393046      5251.9911      21007.883      2.5954807    
  28054200   165216.12     -163.376       -37759252       1.0591938      491985.39     -37267267       827.924        827.924        827.924        1586.038       2413.962       1586.038       2413.962       1586.038       2413.962       5.6750725e+08  0.25           7771050        2.0485696      5396.6611      21586.619      2.5862054    
  28054400   166104.36     -162.6246      -37764947       1.0591938      494630.41     -37270317       827.924        827.924        827.924        1586.038       2413.962       1586.038       2413.962       1586.038       2413.962       5.6750725e+08  0.25           7771100        2.0574954      5601.7287      22406.968      2.5765053    
  28054600   166375.09     -160.81112     -37750360       1.0591938      495436.6      -37254924       827.924        827.924        827.924        1586.038       2413.962       1586.038       2413.962       1586.038       2413.962       5.6750725e+08  0.25           7771150        2.0667284      5415.3439      21661.261      2.5671939    
  28054800   166384.97     -159.09591     -37748636       1.0591938      495466.02     -37253170       827.924        827.924        827.924        1586.038       2413.962       1586.038       2413.962       1586.038       2413.962       5.6750725e+08  0.25           7771200        2.0759719      5409.2252      21636.894      2.5578961    
[...]
  28999400   310.23725      2.29599       -38304127       1.1179369      923.83356     -38303203       813.16094      813.16094      813.16094      1593.4195      2406.5805      1593.4195      2406.5805      1593.4195      2406.5805      5.3768699e+08  0.25           8007350        15.92094       4554.9035      18219.612      0.58314438   
  28999600   310.26158      1.2095165     -38304253       1.1179144      923.90599     -38303329       813.1664       813.1664       813.1664       1593.4168      2406.5832      1593.4168      2406.5832      1593.4168      2406.5832      5.3769783e+08  0.25           8007400        15.931891      4565.6638      18262.662      0.57213981   
  28999800   310.22555     -0.52787891    -38304379       1.1178716      923.79871     -38303455       813.17679      813.17679      813.17679      1593.4116      2406.5884      1593.4116      2406.5884      1593.4116      2406.5884      5.3771844e+08  0.25           8007450        15.942685      4632.3335      18529.281      0.56112976   
  29000000   309.90874      2.0072903     -38304504       1.1179633      922.8553      -38303581       813.15455      813.15455      813.15455      1593.4227      2406.5773      1593.4227      2406.5773      1593.4227      2406.5773      5.3767431e+08  0.25           8007500        15.955441      3919.7084      15678.834      0.55018769   
  29000200   310.1106       1.972513      -38304629       1.1179743      923.45643     -38303706       813.15189      813.15189      813.15189      1593.4241      2406.5759      1593.4241      2406.5759      1593.4241      2406.5759      5.3766904e+08  0.25           8007550        15.966434      4548.1491      18192.53       0.53918359   
  29000400   310.24317     -0.42562099    -38304755       1.1179108      923.85119     -38303831       813.16728      813.16728      813.16728      1593.4164      2406.5836      1593.4164      2406.5836      1593.4164      2406.5836      5.3769957e+08  0.25           8007600        15.977462      4534.0765      18136.276      0.52818063   
  29000600   310.27169      0.22158623    -38304881       1.1179433      923.93612     -38303957       813.15938      813.15938      813.15938      1593.4203      2406.5797      1593.4203      2406.5797      1593.4203      2406.5797      5.376839e+08   0.25           8007650        15.988378      4580.3036      18321.385      0.51717403   
  29000800   310.25307      2.4811849     -38305006       1.118027       923.88066     -38304082       813.13911      813.13911      813.13911      1593.4304      2406.5696      1593.4304      2406.5696      1593.4304      2406.5696      5.3764369e+08  0.25           8007700        15.999344      4559.4849      18237.858      0.50616915   
  29001000   309.91196      2.3006367     -38305132       1.1180336      922.86491     -38304209       813.13749      813.13749      813.13749      1593.4313      2406.5687      1593.4313      2406.5687      1593.4313      2406.5687      5.3764048e+08  0.25           8007750        16.010247      4586.168       18344.729      0.49516233   
  29001200   310.09783      0.057823991   -38305258       1.1179751      923.41839     -38304334       813.1517       813.1517       813.1517       1593.4242      2406.5758      1593.4242      2406.5758      1593.4242      2406.5758      5.3766865e+08  0.25           8007800        16.021054      4626.6429      18506.527      0.48415278   
  29001400   310.23559     -1.1431322     -38305383       1.1179494      923.82862     -38304459       813.15792      813.15792      813.15792      1593.421       2406.579       1593.421       2406.579       1593.421       2406.579       5.37681e+08    0.25           8007850        16.031929      4597.7878      18391.107      0.47314551   
  29001600   310.26763      0.14910736    -38305509       1.1180026      923.92402     -38304585       813.14502      813.14502      813.14502      1593.4275      2406.5725      1593.4275      2406.5725      1593.4275      2406.5725      5.3765541e+08  0.25           8007900        16.042902      4556.2906      18225.209      0.46214128   
  29001800   310.24663      1.8447122     -38305634       1.1180686      923.86149     -38304710       813.12901      813.12901      813.12901      1593.4355      2406.5645      1593.4355      2406.5645      1593.4355      2406.5645      5.3762365e+08  0.25           8007950        16.0541        4465.1584      17860.637      0.45114338   
  29002000   309.88658     -1.8946908     -38305760       1.1179625      922.78931     -38304837       813.15475      813.15475      813.15475      1593.4226      2406.5774      1593.4226      2406.5774      1593.4226      2406.5774      5.3767471e+08  0.25           8008000        16.065459      4401.9168      17607.705      0.44014961   
  29002200   310.10764      1.1357337     -38307780       1.1180739      923.4476      -38306857       813.12773      813.12773      813.12773      1593.4361      2406.5639      1593.4361      2406.5639      1593.4361      2406.5639      5.3762112e+08  0.25           8008050        16.076402      4569.2328      18276.906      0.42914425   
  29002400   310.26169      1.2655157     -38307906       1.1180901      923.90634     -38306982       813.12382      813.12382      813.12382      1593.4381      2406.5619      1593.4381      2406.5619      1593.4381      2406.5619      5.3761335e+08  0.25           8008100        16.087499      4505.6601      18022.624      0.41814298   
  29002600   310.30624      3.9810487     -38315408       1.118196       924.03901     -38314484       813.09813      813.09813      813.09813      1593.4509      2406.5491      1593.4509      2406.5491      1593.4509      2406.5491      5.375624e+08   0.25           8008150        16.098475      4555.3073      18221.201      0.40713852   
  29002800   310.28602      5.6454006     -38315532       1.1182608      923.97879     -38314608       813.08242      813.08242      813.08242      1593.4588      2406.5412      1593.4588      2406.5412      1593.4588      2406.5412      5.3753124e+08  0.25           8008200        16.109458      4552.2995      18209.145      0.39613428   
  29003000   309.94539      4.5621187     -38315659       1.1182386      922.96446     -38314736       813.08782      813.08782      813.08782      1593.4561      2406.5439      1593.4561      2406.5439      1593.4561      2406.5439      5.3754195e+08  0.25           8008250        16.120352      4589.9461      18359.817      0.38512791   
  29003200   310.11966      1.2539692     -38315787       1.1181459      923.4834      -38314863       813.11029      813.11029      813.11029      1593.4449      2406.5551      1593.4449      2406.5551      1593.4449      2406.5551      5.3758652e+08  0.25           8008300        16.131312      4561.8182      18247.346      0.37412325   
  29003400   310.24898     -1.6732698     -38315912       1.1180655      923.86849     -38314988       813.12978      813.12978      813.12978      1593.4351      2406.5649      1593.4351      2406.5649      1593.4351      2406.5649      5.3762518e+08  0.25           8008350        16.141984      4685.2026      18740.846      0.36311216   
  29003600   310.27695     -2.5313512     -38316037       1.1180508      923.95179     -38315114       813.13334      813.13334      813.13334      1593.4333      2406.5667      1593.4333      2406.5667      1593.4333      2406.5667      5.3763223e+08  0.25           8008400        16.153242      4441.5154      17765.975      0.35211431   
  29003800   310.2631      -1.1818077     -38316164       1.1181062      923.91055     -38315240       813.1199       813.1199       813.1199       1593.44        2406.56        1593.44        2406.56        1593.44        2406.56        5.3760558e+08  0.25           8008450        16.1643        4521.5892      18086.26       0.34111188   
  29004000   309.96105      1.3263447     -38316290       1.1181984      923.01107     -38315367       813.09757      813.09757      813.09757      1593.4512      2406.5488      1593.4512      2406.5488      1593.4512      2406.5488      5.3756129e+08  0.25           8008500        16.175359      4521.092       18084.427      0.33010941   
  29004200   310.1665       3.2221504     -38316415       1.1182709      923.62288     -38315492       813.07999      813.07999      813.07999      1593.46        2406.54        1593.46        2406.54        1593.46        2406.54        5.3752642e+08  0.25           8008550        16.186321      4561.3338      18245.347      0.31910494   
  29004400   310.30317      2.688999      -38316542       1.1182663      924.02986     -38315618       813.0811       813.0811       813.0811       1593.4594      2406.5406      1593.4594      2406.5406      1593.4594      2406.5406      5.3752863e+08  0.25           8008600        16.197366      4526.6771      18106.769      0.30810212   
  29004600   310.30962      0.0475518     -38316669       1.1181949      924.04907     -38315744       813.0984       813.0984       813.0984       1593.4508      2406.5492      1593.4508      2406.5492      1593.4508      2406.5492      5.3756294e+08  0.25           8008650        16.208246      4595.6039      18382.415      0.2970962    
  29004800   310.27081     -0.55636204    -38316795       1.1181877      923.9335      -38315871       813.10015      813.10015      813.10015      1593.4499      2406.5501      1593.4499      2406.5501      1593.4499      2406.5501      5.3756641e+08  0.25           8008700        16.219273      4534.5831      18138.326      0.28609304   
  29005000   309.95565      2.2284536     -38316921       1.1182868      922.995       -38315998       813.07613      813.07613      813.07613      1593.4619      2406.5381      1593.4619      2406.5381      1593.4619      2406.5381      5.3751876e+08  0.25           8008750        16.230254      4553.0242      18212.077      0.27508909   
  29005200   310.12986      1.3468691     -38317047       1.1182701      923.51377     -38316123       813.08019      813.08019      813.08019      1593.4599      2406.5401      1593.4599      2406.5401      1593.4599      2406.5401      5.3752681e+08  0.25           8008800        16.241165      4582.9077      18331.649      0.26408401   
  29005400   310.24686     -0.28763081    -38317173       1.1182294      923.86217     -38316249       813.09004      813.09004      813.09004      1593.455       2406.545       1593.455       2406.545       1593.455       2406.545       5.3754635e+08  0.25           8008850        16.252548      4392.1872      17568.736      0.25308643   
  29005600   310.27386      2.4051839     -38317298       1.118324       923.94256     -38316374       813.0671       813.0671       813.0671       1593.4664      2406.5336      1593.4664      2406.5336      1593.4664      2406.5336      5.3750087e+08  0.25           8008900        16.263518      4558.1639      18232.706      0.24208216   
  29005800   310.21323     -0.18422411    -38317425       1.1182527      923.76203     -38316501       813.08439      813.08439      813.08439      1593.4578      2406.5422      1593.4578      2406.5422      1593.4578      2406.5422      5.3753515e+08  0.25           8008950        16.274524      4542.861       18171.353      0.23107846   
  29006000   309.8695      -0.43511611    -38317551       1.1182542      922.73847     -38316628       813.08403      813.08403      813.08403      1593.458       2406.542       1593.458       2406.542       1593.458       2406.542       5.3753444e+08  0.25           8009000        16.285536      4540.4427      18161.777      0.22007484   
  29006200   310.07762     -0.75253834    -38325422       1.1182634      923.3582      -38324499       813.08181      813.08181      813.08181      1593.4591      2406.5409      1593.4591      2406.5409      1593.4591      2406.5409      5.3753003e+08  0.25           8009050        16.296582      4526.5431      18106.257      0.20907164   
  29006400   310.22391      2.7882119     -38325547       1.1183826      923.79382     -38324623       813.05291      813.05291      813.05291      1593.4735      2406.5265      1593.4735      2406.5265      1593.4735      2406.5265      5.3747271e+08  0.25           8009100        16.307502      4578.8192      18315.278      0.19806685   
  29006600   310.19248     -0.83915512    -38325673       1.1182781      923.70025     -38324749       813.07824      813.07824      813.07824      1593.4609      2406.5391      1593.4609      2406.5391      1593.4609      2406.5391      5.3752296e+08  0.25           8009150        16.318445      4568.9848      18275.894      0.18706244   
  29006800   310.15894      2.910945      -38325797       1.1184038      923.60035     -38324874       813.04777      813.04777      813.04777      1593.4761      2406.5239      1593.4761      2406.5239      1593.4761      2406.5239      5.3746253e+08  0.25           8009200        16.329422      4555.0031      18220.057      0.17605848   
  29007000   309.7928      -1.0118704     -38325923       1.1182902      922.51005     -38325000       813.0753       813.0753       813.0753       1593.4623      2406.5377      1593.4623      2406.5377      1593.4623      2406.5377      5.3751713e+08  0.25           8009250        16.340242      4621.4027      18485.602      0.16505296   
  29007200   310.00972      3.1458472     -38326046       1.1184289      923.15602     -38325123       813.04168      813.04168      813.04168      1593.4792      2406.5208      1593.4792      2406.5208      1593.4792      2406.5208      5.3745045e+08  0.25           8009300        16.351352      4500.4322      18001.729      0.15405044   
  29007400   310.12426     -1.3129275     -38326172       1.1182988      923.49708     -38325248       813.07321      813.07321      813.07321      1593.4634      2406.5366      1593.4634      2406.5366      1593.4634      2406.5366      5.3751298e+08  0.25           8009350        16.362639      4429.8837      17719.485      0.14304931   
  29007600   310.17116      3.4777266     -38326295       1.1184579      923.63674     -38325371       813.03466      813.03466      813.03466      1593.4827      2406.5173      1593.4827      2406.5173      1593.4827      2406.5173      5.3743653e+08  0.25           8009400        16.373574      4572.1676      18288.716      0.13204497   
  29007800   310.10574     -1.5170459     -38326421       1.1183115      923.44193     -38325497       813.07015      813.07015      813.07015      1593.4649      2406.5351      1593.4649      2406.5351      1593.4649      2406.5351      5.3750692e+08  0.25           8009450        16.384679      4502.6872      18010.783      0.12104197   
  29008000   309.80076      3.1162723     -38326544       1.1184666      922.53376     -38325621       813.03256      813.03256      813.03256      1593.4837      2406.5163      1593.4837      2406.5163      1593.4837      2406.5163      5.3743237e+08  0.25           8009500        16.395588      4583.2488      18332.95       0.11003752   
  29008200   309.97891      0.21108995    -38326669       1.1183862      923.06425     -38325746       813.05205      813.05205      813.05205      1593.474       2406.526       1593.474       2406.526       1593.474       2406.526       5.3747101e+08  0.25           8009550        16.406613      4535.0145      18140.07       0.099033895  
  29008400   310.11914     -0.60447399    -38326793       1.1183717      923.48185     -38325870       813.05555      813.05555      813.05555      1593.4722      2406.5278      1593.4722      2406.5278      1593.4722      2406.5278      5.3747796e+08  0.25           8009600        16.417466      4607.2643      18429.09       0.088029318  
  29008600   310.17787      4.6661824     -38326915       1.118549       923.65674     -38325991       813.0126       813.0126       813.0126       1593.4937      2406.5063      1593.4937      2406.5063      1593.4937      2406.5063      5.3739277e+08  0.25           8009650        16.428473      4542.5514      18170.161      0.077025669  
  29008800   310.11519     -1.5003259     -38327041       1.1183672      923.47009     -38326118       813.05664      813.05664      813.05664      1593.4717      2406.5283      1593.4717      2406.5283      1593.4717      2406.5283      5.3748011e+08  0.25           8009700        16.439232      4647.1438      18588.613      0.06602102   
  29009000   309.80902     -1.1620026     -38327165       1.1183903      922.55835     -38326243       813.05105      813.05105      813.05105      1593.4745      2406.5255      1593.4745      2406.5255      1593.4745      2406.5255      5.3746903e+08  0.25           8009750        16.450182      4566.1471      18264.592      0.055017338  
  29009200   310.03515      4.8960169     -38327287       1.118594       923.23173     -38326364       813.0017       813.0017       813.0017       1593.4992      2406.5008      1593.4992      2406.5008      1593.4992      2406.5008      5.3737116e+08  0.25           8009800        16.461685      4346.798       17387.118      0.044015206  
  29009400   310.16125      2.3762942     -38327413       1.1185273      923.60723     -38326490       813.01784      813.01784      813.01784      1593.4911      2406.5089      1593.4911      2406.5089      1593.4911      2406.5089      5.3740318e+08  0.25           8009850        16.472569      4593.9449      18375.82       0.033011164  
  29009600   310.15493     -2.7602916     -38327537       1.1183781      923.58843     -38326614       813.05401      813.05401      813.05401      1593.473       2406.527       1593.473       2406.527       1593.473       2406.527       5.374749e+08   0.25           8009900        16.483721      4483.5771      17934.349      0.02200764   
  29009800   310.13416     -1.0049758     -38327662       1.1184462      923.52658     -38326739       813.03749      813.03749      813.03749      1593.4813      2406.5187      1593.4813      2406.5187      1593.4813      2406.5187      5.3744214e+08  0.25           8009950        16.494578      4605.3284      18421.275      0.011003722  
  29010000   309.86649      3.6928185     -38327785       1.1186074      922.72951     -38326863       812.99844      812.99844      812.99844      1593.5008      2406.4992      1593.5008      2406.4992      1593.5008      2406.4992      5.3736471e+08  0.25           8010000        16.505681      4503.0428      18012.183      0            
Loop time of 16.5057 on 4 procs for 300000 steps with 1000 atoms

Performance: 392.592 ns/day, 0.061 hours/ns, 18175.548 timesteps/s
99.5% CPU use with 4 MPI tasks x 1 OpenMP threads

MPI task timing breakdown:
Section |  min time  |  avg time  |  max time  |%varavg| %total
---------------------------------------------------------------
Pair    | 6.8996     | 7.9974     | 9.042      |  26.9 | 48.45
Neigh   | 0.0073406  | 0.0082423  | 0.0091661  |   0.7 |  0.05
Comm    | 3.3783     | 4.3558     | 5.4254     |  34.8 | 26.39
Output  | 0.039776   | 0.042481   | 0.049766   |   2.0 |  0.26
Modify  | 3.3865     | 3.4889     | 3.5638     |   3.5 | 21.14
Other   |            | 0.6128     |            |       |  3.71

Nlocal:            250 ave         263 max         218 min
Histogram: 1 0 0 0 0 0 0 0 1 2
Nghost:         560.75 ave         579 max         539 min
Histogram: 1 0 0 0 0 1 1 0 0 1
Neighs:        1330.75 ave        1536 max        1124 min
Histogram: 1 0 0 0 0 2 0 0 0 1

Total # of neighbors = 5323
Ave neighs/atom = 5.323
Neighbor list builds = 52
Dangerous builds = 19

# run_style
run_style verlet

# write restart
write_restart ${write_res}
write_restart ./pgnpmf/3070/equpmf28.res
System init for write_restart ...
Generated 0 of 1 mixed pair_coeff terms from geometric mixing rule

Total wall time: 0:00:48
