LAMMPS data file, Author: Jerry Qin

1000 atoms
0 bonds
0 angles

2 atom types

-100 4100 xlo xhi
-100 4100 ylo yhi
-100 4100 zlo zhi

Masses

1 221851
2 422051

Atoms

1 1  230.498 414.099 168.205
2 1  597.492 471.409 326.646
3 1  5.353 574.993 309.849
4 1  620.153 653.521 826.771
5 1  143.171 359.521 789.895
6 1  679.177 19.626 752.303
7 1  386.633 699.359 539.797
8 1  671.747 258.188 728.784
9 1  548.836 532.559 453.389
10 1  314.666 544.853 568.956
11 1  211.233 684.025 191.511
12 1  462.510 528.695 721.408
13 1  922.336 502.707 762.632
14 1  525.623 92.475 245.379
15 1  786.078 152.226 969.559
16 1  537.530 629.707 8.010
17 1  331.589 484.027 66.072
18 1  48.438 295.068 4.638
19 1  667.829 58.830 436.857
20 1  257.487 659.421 23.809
21 1  480.927 249.217 176.203
22 1  118.231 49.724 513.997
23 1  846.806 575.014 560.931
24 1  313.794 692.631 345.342
25 1  351.998 634.362 727.684
26 1  2494.337 4.931 877.305
27 1  2992.093 617.295 582.383
28 1  2722.777 572.212 246.443
29 1  2861.748 44.268 697.546
30 1  2825.850 790.352 807.072
31 1  2747.998 388.497 561.667
32 1  2891.734 520.276 390.872
33 1  2444.480 424.601 340.942
34 1  3032.298 302.427 250.699
35 1  2393.992 306.667 357.002
36 1  3062.961 179.502 944.669
37 1  3084.959 961.272 441.438
38 1  3066.421 611.582 73.172
39 1  3020.657 198.931 680.970
40 1  2398.362 920.504 600.140
41 1  2651.189 421.089 458.961
42 1  2824.377 523.694 187.383
43 1  2996.431 820.327 285.086
44 1  2762.651 143.768 641.602
45 1  2811.076 393.326 338.502
46 1  2561.230 792.734 813.401
47 1  2521.054 922.728 370.588
48 1  2694.713 544.535 938.197
49 1  2622.422 221.406 707.926
50 1  3002.788 792.457 404.460
51 1  283.347 2290.943 56.046
52 1  504.979 2546.127 289.472
53 1  630.494 2591.999 382.629
54 1  384.509 2483.465 41.553
55 1  405.645 2314.269 342.505
56 1  516.656 2317.187 506.097
57 1  594.398 2238.178 176.611
58 1  379.841 2255.789 547.548
59 1  185.277 2252.537 216.771
60 1  158.366 2304.578 56.633
61 1  232.498 2487.613 612.558
62 1  725.689 2421.930 744.343
63 1  801.397 2320.397 274.601
64 1  160.828 2498.539 7.327
65 1  285.688 2316.270 305.325
66 1  443.306 2098.782 160.372
67 1  311.467 2240.795 648.329
68 1  681.708 2272.114 370.590
69 1  0.209 2312.949 591.486
70 1  378.420 2493.032 658.344
71 1  355.700 2336.878 454.440
72 1  469.639 2214.866 431.652
73 1  661.016 2417.749 474.588
74 1  621.726 2492.307 289.670
75 1  415.496 2497.287 541.911
76 1  266.358 801.243 3066.425
77 1  927.262 1180.689 2963.365
78 1  1861.701 1068.104 2409.573
79 1  394.347 509.388 2671.585
80 1  1195.728 2.235 2469.263
81 1  0.817 2.053 3535.551
82 1  22.402 2.087 3412.289
83 1  397.309 647.680 2677.438
84 1  539.432 621.569 3143.624
85 1  3.117 583.133 3078.586
86 1  184.912 688.902 2934.961
87 1  28.400 984.792 2736.021
88 1  859.656 625.304 2725.757
89 1  346.080 1882.255 2000.429
90 1  183.372 466.343 3157.631
91 1  178.676 648.686 3104.989
92 1  860.241 446.790 3212.984
93 1  599.311 853.007 2563.516
94 1  434.196 486.857 2553.833
95 1  504.292 672.251 2912.432
96 1  771.940 779.035 2984.803
97 1  46.451 1830.688 2779.920
98 1  91.082 485.409 2523.227
99 1  772.894 523.470 2809.590
100 1  1238.373 1246.538 2095.823
101 1  2402.067 2664.006 64.273
102 1  2611.389 2493.936 572.910
103 1  2875.639 2935.406 60.810
104 1  2592.066 2671.251 628.872
105 1  2766.946 2532.957 624.513
106 1  2380.835 2421.083 111.154
107 1  2794.295 2739.886 186.109
108 1  2814.967 2959.509 322.514
109 1  2441.590 2577.422 416.139
110 1  2921.295 2476.863 164.784
111 1  2427.938 2426.025 440.977
112 1  2356.649 2598.999 527.339
113 1  2556.134 3011.424 263.685
114 1  3041.826 2604.779 952.088
115 1  2429.182 2694.862 365.402
116 1  3074.892 2903.688 601.565
117 1  2427.931 2473.883 314.579
118 1  2662.609 2508.343 246.305
119 1  2377.304 2661.082 783.900
120 1  2742.776 2433.950 725.326
121 1  2554.297 2419.106 821.582
122 1  2312.170 2441.636 595.847
123 1  2677.503 2604.570 174.464
124 1  2785.179 2824.498 467.507
125 1  2817.055 2920.315 665.481
126 1  2822.889 25.785 3222.125
127 1  2960.457 815.514 2854.929
128 1  3049.746 894.512 3189.087
129 1  3321.911 338.603 3187.658
130 1  2642.206 404.662 3232.130
131 1  3359.484 871.850 2991.252
132 1  2805.400 614.746 2491.548
133 1  2576.887 43.552 2675.271
134 1  3077.508 265.730 2666.333
135 1  2767.953 165.850 3292.722
136 1  2638.454 891.338 2901.137
137 1  2566.927 910.073 2723.728
138 1  2584.661 946.338 2544.491
139 1  3309.736 151.569 3154.894
140 1  2992.111 298.573 3188.513
141 1  2643.097 498.288 2687.518
142 1  2761.233 272.279 2485.018
143 1  3336.669 803.540 3277.418
144 1  3249.730 450.687 3213.945
145 1  2724.267 425.323 2628.911
146 1  3004.506 745.647 2961.311
147 1  2850.741 179.208 2884.302
148 1  3301.133 562.987 3022.687
149 1  2628.376 100.218 3257.311
150 1  3299.771 307.113 2917.363
151 1  154.152 2466.676 2288.757
152 1  530.704 2610.975 2673.623
153 1  719.087 2620.044 2229.451
154 1  673.585 2422.721 2323.101
155 1  112.933 2591.011 2204.430
156 1  563.031 2391.250 2605.812
157 1  513.697 2138.991 2327.574
158 1  785.268 2527.223 2345.127
159 1  23.852 2387.199 2684.514
160 1  358.228 2536.854 2611.457
161 1  16.965 2736.233 2287.186
162 1  96.217 2638.593 2341.054
163 1  474.307 2285.859 2674.909
164 1  262.052 2330.380 2268.386
165 1  584.238 2222.620 2452.276
166 1  599.925 2554.885 2220.174
167 1  787.962 2754.719 2663.016
168 1  645.002 2210.212 2683.485
169 1  38.145 2360.644 2308.919
170 1  377.251 2331.182 2179.745
171 1  243.602 2577.938 2307.342
172 1  145.330 2320.465 2233.354
173 1  374.868 2252.722 2544.274
174 1  612.787 2725.547 2253.873
175 1  0.026 2591.168 2564.122
176 1  2433.493 2972.491 2819.619
177 1  2933.127 2962.477 2495.416
178 1  2390.952 2659.509 3008.845
179 1  2697.038 2916.101 2827.483
180 1  2962.689 2679.796 2921.861
181 1  2669.168 2449.861 2977.498
182 1  2450.309 3017.073 3043.811
183 1  2698.361 2732.587 3075.739
184 1  2570.177 2694.452 2439.043
185 1  2612.306 2403.299 2580.087
186 1  2449.935 2569.004 2730.384
187 1  3026.746 2988.133 2753.392
188 1  2518.874 2603.971 2849.250
189 1  2562.857 2899.404 2702.225
190 1  2368.317 2904.393 2657.053
191 1  2773.989 2679.679 2677.430
192 1  3049.718 2544.669 2428.418
193 1  2548.473 2473.740 3084.955
194 1  3018.663 2789.764 2499.019
195 1  2798.639 3016.940 2765.028
196 1  2592.239 2412.409 2350.083
197 1  3059.723 2409.881 2709.623
198 1  2151.759 2891.977 2588.465
199 1  2997.456 2765.053 2669.699
200 1  2308.029 2848.180 2840.737
201 2  572.449 627.299 1032.832
202 2  189.878 14.164 107.909
203 2  430.761 326.833 617.786
204 2  786.394 727.835 307.001
205 2  555.474 758.589 616.045
206 2  590.698 854.059 509.140
207 2  853.614 552.902 110.734
208 2  828.973 797.396 477.755
209 2  380.106 947.794 599.588
210 2  20.098 516.063 186.230
211 2  543.682 947.530 897.249
212 2  830.410 117.378 836.294
213 2  846.614 788.278 172.115
214 2  183.255 317.092 468.433
215 2  493.118 0.000 590.035
216 2  0.483 979.120 792.047
217 2  87.483 451.702 512.003
218 2  739.727 570.142 409.991
219 2  315.935 329.412 925.441
220 2  291.056 603.944 427.286
221 2  662.577 701.769 538.173
222 2  237.781 1019.520 160.399
223 2  362.186 591.911 971.220
224 2  0.000 716.038 561.109
225 2  144.297 514.328 171.959
226 2  132.033 365.496 585.998
227 2  170.954 136.010 211.555
228 2  420.098 486.242 361.035
229 2  620.664 716.141 176.656
230 2  554.970 135.098 388.750
231 2  438.096 896.291 20.061
232 2  695.587 798.876 129.930
233 2  461.177 726.526 928.345
234 2  634.036 645.016 655.148
235 2  697.130 285.045 373.808
236 2  665.423 973.938 382.166
237 2  246.494 898.784 91.608
238 2  317.078 21.389 525.738
239 2  932.022 681.610 402.274
240 2  707.559 244.269 500.414
241 2  610.935 531.158 723.011
242 2  8.903 359.233 173.704
243 2  275.349 914.351 816.764
244 2  80.289 797.217 497.120
245 2  923.707 290.346 613.372
246 2  17.077 536.080 20.046
247 2  843.411 856.338 675.207
248 2  479.066 606.749 574.143
249 2  626.646 511.609 964.056
250 2  291.459 427.518 421.934
251 2  168.421 469.489 367.196
252 2  792.568 5.245 869.023
253 2  696.843 304.877 208.607
254 2  735.601 608.425 111.265
255 2  1.346 301.764 788.096
256 2  508.985 137.420 604.415
257 2  466.697 239.566 50.129
258 2  716.046 812.882 726.921
259 2  908.486 728.480 84.020
260 2  412.668 837.706 939.026
261 2  145.574 915.734 817.213
262 2  254.241 644.780 842.022
263 2  741.555 493.509 59.827
264 2  303.877 273.740 599.518
265 2  125.847 649.197 673.909
266 2  749.606 691.319 0.000
267 2  869.827 538.007 315.039
268 2  680.166 32.874 958.785
269 2  859.394 37.863 712.330
270 2  343.751 503.370 266.255
271 2  31.362 226.464 344.038
272 2  640.079 932.368 68.199
273 2  763.554 366.781 510.804
274 2  399.828 225.765 865.144
275 2  490.491 373.229 13.350
276 2  832.083 261.958 474.928
277 2  708.894 379.984 932.040
278 2  57.861 618.559 517.310
279 2  578.940 815.906 389.762
280 2  640.071 644.936 307.341
281 2  887.682 361.118 253.766
282 2  887.456 375.679 997.089
283 2  861.561 938.827 23.201
284 2  529.315 189.208 846.329
285 2  711.663 890.796 495.077
286 2  93.754 774.150 856.747
287 2  917.035 84.592 921.344
288 2  175.483 568.092 507.497
289 2  682.215 154.586 622.718
290 2  785.528 984.905 192.203
291 2  688.914 120.261 275.038
292 2  3.854 510.441 735.619
293 2  189.804 625.837 349.617
294 2  454.246 645.180 121.104
295 2  418.295 114.639 79.705
296 2  863.695 1000.282 684.841
297 2  534.662 444.090 188.794
298 2  789.699 263.167 837.821
299 2  435.178 13.333 482.929
300 2  791.653 729.422 798.721
301 2  2484.807 433.868 579.749
302 2  2971.101 54.458 592.671
303 2  2867.297 289.296 209.953
304 2  2340.714 846.815 470.148
305 2  2542.445 231.383 301.226
306 2  2417.767 87.122 86.585
307 2  2464.574 1025.669 400.612
308 2  2730.836 734.354 434.660
309 2  2584.789 394.824 650.097
310 2  2716.834 813.849 279.817
311 2  2701.814 837.085 814.399
312 2  2577.412 782.669 623.646
313 2  2486.939 239.652 948.879
314 2  2636.395 492.777 761.298
315 2  2525.164 92.743 446.883
316 2  2896.615 18.026 482.756
317 2  2780.789 740.731 647.300
318 2  2287.070 1034.567 548.564
319 2  2583.135 466.797 329.147
320 2  2937.612 249.046 448.257
321 2  2899.005 111.981 824.912
322 2  2748.972 880.540 972.113
323 2  2409.329 794.795 866.685
324 2  2484.251 977.054 820.610
325 2  2789.924 644.697 785.176
326 2  2840.222 724.056 178.094
327 2  2569.216 894.054 241.637
328 2  2941.007 250.463 318.381
329 2  2404.093 151.906 229.396
330 2  2851.122 730.079 422.209
331 2  2485.958 92.876 561.639
332 2  2490.197 824.282 150.935
333 2  2406.995 345.059 550.293
334 2  2423.858 282.322 228.681
335 2  2515.179 434.310 943.590
336 2  2445.895 756.152 444.937
337 2  2494.489 352.988 155.791
338 2  2413.748 838.751 696.149
339 2  2563.383 150.291 66.255
340 2  2368.743 612.875 464.500
341 2  2629.702 840.657 368.407
342 2  2786.084 249.452 505.959
343 2  2313.411 741.746 756.711
344 2  2654.802 887.537 1.532
345 2  2401.146 767.673 210.218
346 2  2291.421 0.286 24.971
347 2  2898.928 181.950 575.361
348 2  2420.994 561.963 619.032
349 2  2845.524 191.170 128.280
350 2  2935.301 94.974 154.448
351 2  2883.945 449.714 497.539
352 2  2727.023 266.142 9.893
353 2  2531.063 840.791 7.933
354 2  2909.895 829.780 166.713
355 2  2362.190 790.713 329.334
356 2  2696.612 935.143 193.936
357 2  2613.664 163.253 503.453
358 2  2949.630 887.894 611.750
359 2  2345.636 385.119 970.614
360 2  2467.210 495.052 209.056
361 2  2459.584 137.807 354.680
362 2  2976.388 620.638 414.815
363 2  2951.824 497.870 188.260
364 2  2388.413 6.153 323.657
365 2  2644.959 533.779 1.415
366 2  2633.252 767.494 27.593
367 2  2437.524 207.427 525.881
368 2  2916.516 525.373 632.072
369 2  2951.684 377.005 193.968
370 2  2671.085 8.484 636.108
371 2  2901.468 528.655 968.450
372 2  2505.420 502.944 455.390
373 2  2985.316 354.653 792.712
374 2  2733.542 638.742 12.832
375 2  2387.030 244.643 9.215
376 2  2301.330 965.956 196.554
377 2  2685.265 322.033 156.628
378 2  2284.206 210.913 672.803
379 2  2660.977 166.424 815.114
380 2  2782.486 542.243 510.274
381 2  2939.545 287.745 91.830
382 2  2477.290 341.203 439.795
383 2  2828.651 516.786 66.612
384 2  2535.578 600.808 311.697
385 2  2465.007 723.005 658.926
386 2  2448.506 794.182 561.497
387 2  2596.379 524.409 580.215
388 2  2747.948 621.361 386.721
389 2  2251.073 87.253 887.188
390 2  2876.406 911.521 309.865
391 2  2621.757 353.233 312.980
392 2  2387.092 649.116 130.409
393 2  2600.427 260.122 906.038
394 2  2560.187 137.708 646.027
395 2  2877.301 327.182 925.437
396 2  2589.424 0.025 403.120
397 2  2746.728 166.134 903.401
398 2  2787.186 9.024 810.428
399 2  2592.905 914.962 471.913
400 2  2840.583 670.580 913.608
401 2  659.179 3016.267 473.944
402 2  514.178 2487.755 922.582
403 2  864.006 2793.191 641.179
404 2  771.165 2837.367 218.760
405 2  676.221 3138.895 225.898
406 2  121.798 2596.852 651.632
407 2  479.914 3108.186 5.782
408 2  92.923 2734.101 175.771
409 2  683.085 2563.257 715.605
410 2  610.578 2504.725 575.349
411 2  136.055 2936.983 544.085
412 2  291.707 2692.370 275.629
413 2  387.489 2684.962 627.160
414 2  6.885 2597.778 766.593
415 2  268.385 2921.099 405.984
416 2  928.786 2896.396 244.896
417 2  238.092 2946.987 940.345
418 2  109.205 2837.356 450.843
419 2  6.199 2660.399 350.132
420 2  690.521 3063.616 587.325
421 2  474.990 2943.039 530.409
422 2  920.174 2904.058 534.311
423 2  490.460 2347.755 637.799
424 2  1.174 2444.117 104.875
425 2  50.005 3121.725 881.225
426 2  769.605 2612.350 408.063
427 2  190.097 2923.886 827.687
428 2  883.508 2752.409 128.983
429 2  450.573 2498.107 810.114
430 2  927.355 3101.828 972.559
431 2  539.456 2782.500 401.582
432 2  349.572 2899.667 732.156
433 2  410.404 2732.527 261.484
434 2  385.975 2895.986 463.130
435 2  966.498 2450.848 137.457
436 2  831.734 2984.744 573.468
437 2  216.962 2425.856 337.393
438 2  293.639 2601.575 403.710
439 2  171.328 2516.527 819.949
440 2  398.974 3111.762 368.317
441 2  875.088 2817.694 380.947
442 2  306.885 2496.358 804.825
443 2  932.444 2582.618 253.722
444 2  194.097 2661.106 169.134
445 2  82.088 2597.444 249.913
446 2  713.827 2951.665 240.331
447 2  35.225 2334.199 447.682
448 2  194.566 3023.374 42.087
449 2  292.896 2559.477 1.330
450 2  84.754 2527.902 131.513
451 2  286.070 3014.989 199.698
452 2  235.260 2719.193 629.895
453 2  512.497 2614.377 625.105
454 2  94.072 2633.728 867.833
455 2  907.192 2484.364 405.344
456 2  214.920 3098.300 523.334
457 2  128.023 2516.090 517.654
458 2  751.013 2709.969 732.346
459 2  367.238 2396.064 241.065
460 2  514.442 2799.673 537.441
461 2  909.580 2410.727 553.021
462 2  376.448 2692.137 439.773
463 2  480.915 2882.006 345.177
464 2  11.276 2988.820 955.005
465 2  657.783 2693.479 919.934
466 2  792.089 2942.268 416.619
467 2  90.210 3009.286 311.590
468 2  235.858 2869.161 261.802
469 2  40.974 2513.622 614.387
470 2  397.595 2513.590 201.830
471 2  47.930 2791.990 567.377
472 2  851.431 3109.671 247.838
473 2  819.063 3115.953 107.674
474 2  854.051 2502.953 126.747
475 2  440.518 3090.280 183.585
476 2  904.431 3100.301 828.167
477 2  957.791 2921.143 865.000
478 2  162.233 2719.570 771.769
479 2  756.777 2350.152 120.086
480 2  811.694 2966.087 949.744
481 2  959.503 3055.237 271.963
482 2  35.206 3083.529 150.504
483 2  18.456 3021.366 492.887
484 2  881.218 2575.846 877.137
485 2  269.428 2417.077 971.030
486 2  448.023 2814.435 657.805
487 2  619.159 2864.148 361.136
488 2  193.877 2547.111 302.787
489 2  197.857 2610.499 547.243
490 2  642.410 2816.040 520.091
491 2  521.335 2622.643 40.558
492 2  497.031 2625.444 460.778
493 2  874.600 2724.979 0.000
494 2  1025.802 2791.675 571.417
495 2  309.735 3139.880 886.679
496 2  723.924 2764.344 89.285
497 2  625.067 2386.085 596.511
498 2  26.165 2610.867 458.709
499 2  38.460 2829.681 918.543
500 2  585.775 2571.718 847.157
501 2  23.041 158.708 2476.726
502 2  2.328 249.493 2280.088
503 2  482.543 778.876 2782.881
504 2  823.781 661.268 2343.925
505 2  161.511 233.825 2317.455
506 2  497.436 461.133 2719.952
507 2  594.571 332.522 2695.162
508 2  63.831 392.489 2837.883
509 2  253.715 715.632 2680.460
510 2  559.619 873.573 2911.072
511 2  576.692 661.812 2414.152
512 2  344.370 390.051 2828.130
513 2  0.209 314.269 2392.551
514 2  655.847 1.514 2680.775
515 2  548.523 525.809 2546.335
516 2  120.103 536.900 2807.635
517 2  210.813 494.887 2583.780
518 2  135.051 32.534 2603.081
519 2  835.469 649.221 2879.384
520 2  635.980 212.192 2445.951
521 2  258.154 805.513 2883.632
522 2  349.423 753.889 2560.081
523 2  220.174 1.275 2479.802
524 2  11.260 244.712 2864.806
525 2  614.595 6.447 2819.974
526 2  588.259 1038.557 2757.459
527 2  245.735 539.692 2736.780
528 2  285.890 886.574 2454.992
529 2  31.059 718.407 2878.486
530 2  744.894 482.576 2668.676
531 2  517.814 940.778 2734.398
532 2  462.876 585.653 2343.009
533 2  582.233 640.229 2633.049
534 2  240.390 808.618 2548.071
535 2  358.726 686.885 2303.096
536 2  89.493 372.401 2619.757
537 2  774.532 729.885 2796.001
538 2  175.791 344.413 2498.200
539 2  712.603 638.172 2700.535
540 2  382.914 464.681 2368.154
541 2  509.539 771.509 2606.925
542 2  539.743 793.239 2461.821
543 2  706.634 1.271 2523.435
544 2  373.286 592.776 2784.672
545 2  19.261 273.882 2651.543
546 2  768.879 53.341 2742.560
547 2  785.748 163.623 2581.693
548 2  155.953 610.452 2678.200
549 2  201.916 936.615 2553.971
550 2  513.961 455.867 2366.601
551 2  769.419 912.774 2331.632
552 2  737.224 312.921 2858.108
553 2  420.751 279.266 2686.204
554 2  228.756 18.686 2762.944
555 2  353.262 398.690 2482.857
556 2  261.463 350.971 2603.822
557 2  737.897 476.015 2542.642
558 2  673.931 429.721 2306.010
559 2  732.801 792.129 2303.846
560 2  91.562 836.492 2525.934
561 2  304.929 179.537 2376.691
562 2  493.293 321.936 2296.124
563 2  248.084 219.842 2744.833
564 2  712.374 63.958 2317.484
565 2  485.912 933.290 2384.499
566 2  566.603 322.421 2425.606
567 2  861.598 452.984 2858.807
568 2  754.694 882.857 2537.633
569 2  665.657 197.702 2635.725
570 2  817.986 142.201 2450.952
571 2  838.839 219.990 2355.264
572 2  296.877 144.639 2621.573
573 2  954.568 442.277 2688.613
574 2  786.168 38.295 2863.602
575 2  901.587 169.843 2833.028
576 2  755.370 842.762 2853.022
577 2  698.328 114.515 2481.195
578 2  933.450 750.441 2596.340
579 2  797.233 348.004 2650.257
580 2  392.322 903.206 2702.728
581 2  564.667 104.564 2890.055
582 2  514.165 222.132 2600.576
583 2  299.496 712.552 2423.742
584 2  584.784 567.928 2846.383
585 2  504.566 199.688 2416.332
586 2  934.515 500.274 2540.397
587 2  963.884 704.772 2483.552
588 2  384.122 553.253 2458.666
589 2  349.534 297.070 2406.027
590 2  68.029 779.908 2303.260
591 2  1002.708 234.017 2547.957
592 2  150.705 218.252 2863.342
593 2  11.371 923.883 2870.964
594 2  657.029 738.699 2829.481
595 2  642.252 548.736 2427.823
596 2  982.798 632.420 2802.311
597 2  837.927 275.951 2561.577
598 2  179.720 803.702 2790.154
599 2  607.384 423.438 2579.215
600 2  489.960 108.871 2732.500
601 2  2915.143 2804.005 409.130
602 2  2670.359 2374.937 514.666
603 2  2493.695 2688.561 702.231
604 2  2929.805 2756.039 684.172
605 2  2899.806 2862.545 291.461
606 2  2467.401 2333.799 164.442
607 2  2475.662 2719.470 490.998
608 2  2576.679 2924.632 0.000
609 2  2392.788 2700.997 250.168
610 2  2880.262 2882.031 761.337
611 2  2345.662 2880.405 365.564
612 2  2813.767 2730.540 661.114
613 2  2895.886 2799.281 573.541
614 2  2659.035 2275.343 419.692
615 2  2357.389 2869.992 113.158
616 2  2635.857 2779.782 736.300
617 2  2600.931 2857.977 169.383
618 2  2744.187 2620.120 61.305
619 2  2514.429 2831.472 765.750
620 2  2550.477 2879.805 955.209
621 2  2681.978 2616.305 373.233
622 2  2878.967 2986.120 534.623
623 2  2912.954 2683.270 880.350
624 2  2891.282 2486.920 646.655
625 2  2575.975 2489.108 691.414
626 2  2536.595 2580.835 3.870
627 2  2591.094 2352.412 125.398
628 2  2636.699 2778.673 995.163
629 2  2924.620 2331.022 502.206
630 2  2503.626 2945.821 510.477
631 2  2318.099 2932.177 916.409
632 2  2685.119 2283.902 596.028
633 2  3025.724 2457.140 492.303
634 2  2725.026 2542.343 882.937
635 2  2442.656 2461.694 718.897
636 2  2502.099 2790.982 353.372
637 2  2779.314 2478.032 2.510
638 2  2519.681 2813.895 69.292
639 2  2970.955 2249.210 814.595
640 2  2848.235 2719.610 483.163
641 2  2799.419 2388.138 590.522
642 2  2846.464 2432.849 833.194
643 2  2573.620 2661.746 108.904
644 2  2757.210 2377.044 225.910
645 2  2811.165 2388.903 459.154
646 2  2384.398 2855.005 783.697
647 2  2562.912 2699.540 254.421
648 2  2698.902 2727.570 458.932
649 2  2438.240 2344.478 557.175
650 2  2699.737 2278.815 294.271
651 2  2634.773 2913.754 334.031
652 2  2420.090 2539.606 626.221
653 2  2702.313 2722.904 284.765
654 2  2620.803 2604.039 484.027
655 2  2371.492 2448.809 997.963
656 2  2276.935 2714.114 438.704
657 2  2848.445 2895.569 918.454
658 2  2393.577 2500.582 826.978
659 2  2605.647 2732.178 378.072
660 2  2470.615 2824.744 237.674
661 2  2534.920 2959.277 723.868
662 2  2780.723 2289.784 521.530
663 2  2663.242 2892.673 487.596
664 2  2839.850 2567.321 367.138
665 2  2451.565 2603.293 209.599
666 2  2758.519 2824.740 842.480
667 2  2375.993 2298.470 452.685
668 2  2516.943 2747.825 872.822
669 2  2368.992 2787.729 3.298
670 2  2427.213 2835.424 628.495
671 2  2919.852 2414.731 1007.408
672 2  2740.205 2687.337 776.349
673 2  2314.338 2796.101 235.667
674 2  2554.266 2371.145 473.157
675 2  2339.144 2357.394 835.902
676 2  2528.895 2644.622 809.390
677 2  2600.391 2399.936 270.556
678 2  2588.502 2775.078 521.806
679 2  2578.090 2714.546 0.123
680 2  2654.252 2631.740 841.490
681 2  2598.510 2837.004 852.592
682 2  2695.220 2774.024 14.900
683 2  2352.989 2576.980 301.202
684 2  2693.901 2773.193 584.214
685 2  2957.204 2502.909 816.725
686 2  2456.445 2462.014 196.335
687 2  2508.365 2548.363 536.433
688 2  2676.363 2401.199 0.000
689 2  2388.919 2713.441 604.142
690 2  2985.718 2628.588 291.946
691 2  2338.905 2270.699 620.713
692 2  2294.727 2649.405 645.106
693 2  2628.778 2477.295 929.165
694 2  2741.208 2421.885 893.374
695 2  2265.053 2646.110 134.241
696 2  2741.128 2440.725 332.186
697 2  2342.109 2831.616 491.673
698 2  2557.851 2615.979 363.399
699 2  2886.838 2564.299 981.401
700 2  2893.551 2553.411 477.605
701 2  2526.756 796.684 2691.785
702 2  2781.527 112.154 2446.277
703 2  2542.405 1.855 2917.540
704 2  2638.773 714.634 2810.299
705 2  2719.966 514.628 2497.118
706 2  2359.810 805.219 2412.102
707 2  2819.985 116.678 2778.897
708 2  2882.520 330.526 2566.671
709 2  2546.996 539.655 2620.765
710 2  2882.332 683.188 2592.885
711 2  2654.901 806.467 2558.581
712 2  2412.589 118.733 2730.297
713 2  2724.758 45.306 2737.825
714 2  2639.020 690.845 2506.536
715 2  2824.491 427.828 2834.418
716 2  2517.584 266.813 2672.645
717 2  2926.599 557.328 2848.815
718 2  2423.310 755.095 2310.224
719 2  2755.658 849.775 2649.426
720 2  2787.844 741.882 2705.812
721 2  2536.052 646.678 2768.122
722 2  2368.904 390.148 2445.526
723 2  2631.165 707.927 2630.360
724 2  2297.067 210.380 2869.948
725 2  2505.087 16.780 2407.513
726 2  2451.559 83.115 2916.830
727 2  2407.664 403.175 2870.601
728 2  2711.304 657.468 2890.387
729 2  2760.689 83.821 2315.611
730 2  2358.133 633.230 2331.437
731 2  2542.655 418.247 2440.310
732 2  2509.240 391.623 2298.809
733 2  2581.688 245.399 2499.312
734 2  2623.005 518.733 2424.356
735 2  2850.759 610.669 2759.998
736 2  2869.562 862.627 2748.221
737 2  2767.327 19.665 2523.049
738 2  2348.189 684.293 2743.770
739 2  2552.517 704.741 2352.955
740 2  2435.618 854.180 2597.539
741 2  2607.827 433.876 2805.883
742 2  2359.310 502.419 2385.902
743 2  2322.907 498.915 2559.579
744 2  2881.597 435.721 2382.461
745 2  2592.885 223.684 2837.302
746 2  2570.187 506.951 2250.361
747 2  2668.473 827.302 2730.418
748 2  2292.968 4.440 2821.469
749 2  2855.277 114.095 2633.033
750 2  2889.411 249.563 2727.253
751 2  2543.790 815.891 2427.362
752 2  2334.076 463.131 2794.964
753 2  2340.765 331.902 2775.890
754 2  2658.141 441.963 2303.449
755 2  2251.481 593.780 2468.315
756 2  2596.863 336.456 2610.620
757 2  2777.860 374.075 2394.252
758 2  2734.612 936.969 2754.466
759 2  2862.000 811.817 2500.672
760 2  2329.570 272.705 2625.526
761 2  2898.332 4.187 2605.735
762 2  2545.942 158.888 2619.570
763 2  2478.084 473.212 2784.160
764 2  2577.325 129.567 2428.946
765 2  2451.288 951.014 2509.753
766 2  2688.630 196.362 2558.327
767 2  2310.439 229.265 2500.649
768 2  2365.914 9.261 2445.664
769 2  2406.382 248.638 2716.744
770 2  2468.565 809.740 2838.093
771 2  2835.604 349.097 2677.222
772 2  2924.054 449.194 2719.481
773 2  2437.587 741.995 2488.240
774 2  2805.511 494.921 2685.482
775 2  2875.068 1.989 2784.964
776 2  2688.904 142.733 2853.593
777 2  2452.553 287.909 2549.163
778 2  2731.616 134.218 2653.917
779 2  2726.705 623.114 2641.602
780 2  2824.194 436.856 2503.442
781 2  2796.269 223.811 2296.107
782 2  2537.825 934.044 2847.599
783 2  2369.698 884.912 2853.251
784 2  2510.861 521.427 2378.944
785 2  2483.763 305.875 2801.732
786 2  2488.641 162.788 2828.356
787 2  2530.688 88.915 2306.613
788 2  2639.949 204.060 2318.658
789 2  2459.963 191.085 2442.474
790 2  2448.501 649.891 2670.052
791 2  2744.522 333.566 2817.527
792 2  2495.096 395.066 2686.933
793 2  2710.575 210.264 2745.708
794 2  2600.114 369.902 2911.466
795 2  2552.916 550.348 2839.781
796 2  2238.187 321.006 2386.388
797 2  2660.787 329.328 2427.631
798 2  2458.104 107.045 2552.140
799 2  2616.271 315.840 2744.104
800 2  2301.554 876.510 2315.862
801 2  484.129 2639.535 2879.776
802 2  915.042 2406.801 2382.955
803 2  755.112 2659.003 2914.594
804 2  151.614 2681.214 2918.222
805 2  446.885 2861.960 2496.667
806 2  719.030 2453.404 2939.190
807 2  914.113 2426.639 2573.884
808 2  321.015 2488.096 2721.758
809 2  317.245 2746.997 2377.985
810 2  437.625 2705.002 2404.516
811 2  267.512 2934.350 2857.641
812 2  258.420 2780.103 2953.917
813 2  187.222 2369.809 2459.811
814 2  635.711 2582.590 2353.249
815 2  838.121 2653.513 2380.069
816 2  24.311 2626.790 2677.202
817 2  547.466 2954.905 2586.663
818 2  691.996 2517.290 2769.671
819 2  128.880 2751.876 2471.011
820 2  690.708 2714.733 2791.948
821 2  695.463 2912.489 2669.300
822 2  260.258 2590.997 2457.419
823 2  654.374 2903.725 2533.488
824 2  347.504 2931.788 2644.251
825 2  835.145 2898.928 2690.074
826 2  798.033 2493.031 2615.133
827 2  775.819 2628.314 2797.471
828 2  518.315 2578.791 2393.658
829 2  12.377 2868.721 2450.599
830 2  507.069 2306.790 2372.080
831 2  362.552 2806.477 2897.852
832 2  240.150 2355.973 2746.611
833 2  71.038 2378.853 2852.964
834 2  829.602 2787.916 2771.804
835 2  98.457 2476.876 2543.714
836 2  248.010 2669.282 2748.906
837 2  1008.527 2595.365 2698.751
838 2  568.738 2637.956 2516.540
839 2  240.138 2810.491 2454.784
840 2  231.350 2358.193 2930.644
841 2  738.431 2402.283 2434.823
842 2  281.563 2434.705 2607.889
843 2  677.645 2391.575 2815.923
844 2  547.137 2834.065 2416.174
845 2  928.136 2375.571 2900.598
846 2  76.209 2323.761 2532.842
847 2  852.262 2686.129 2504.659
848 2  773.022 2921.502 2910.334
849 2  630.419 2487.532 2448.213
850 2  715.407 2738.279 2338.761
851 2  957.703 2864.224 2331.100
852 2  501.520 2769.504 2324.527
853 2  425.166 2374.537 2838.528
854 2  847.707 2919.322 2494.818
855 2  660.851 2616.727 2708.158
856 2  486.974 2406.158 2481.283
857 2  101.133 2590.618 2497.429
858 2  893.733 2562.320 2477.856
859 2  17.136 2745.165 2423.519
860 2  216.379 2817.029 2777.728
861 2  182.428 2786.350 2587.364
862 2  374.044 2732.968 2695.030
863 2  306.248 2841.199 2574.613
864 2  227.879 2488.441 2399.563
865 2  939.045 2913.361 2942.146
866 2  329.961 2323.974 2405.117
867 2  268.188 2552.612 2865.972
868 2  503.077 2284.644 2811.523
869 2  764.373 2360.648 2687.515
870 2  915.735 2720.512 2648.060
871 2  143.503 2468.374 2688.465
872 2  112.516 2751.562 2796.053
873 2  33.661 2714.389 2590.336
874 2  777.812 2320.298 2529.067
875 2  389.499 2643.063 2524.020
876 2  168.524 2833.453 2335.229
877 2  405.046 2899.295 2791.255
878 2  689.378 2775.870 2905.330
879 2  974.914 2672.760 2497.844
880 2  192.772 2477.957 2804.031
881 2  643.866 2379.179 2516.523
882 2  59.142 2816.388 2651.152
883 2  3.134 2389.307 2455.317
884 2  924.338 2784.984 2440.986
885 2  148.147 2910.968 2550.905
886 2  964.329 2905.450 2595.048
887 2  986.555 2677.984 2357.874
888 2  622.642 2528.000 2610.677
889 2  903.521 2816.105 2865.165
890 2  587.649 2361.854 2740.697
891 2  779.087 2509.930 2496.816
892 2  868.651 2571.500 2722.653
893 2  611.085 2743.650 2661.730
894 2  410.212 2427.540 2581.263
895 2  515.376 2803.876 2741.262
896 2  488.073 2529.528 2585.553
897 2  2.052 2607.999 2427.206
898 2  410.341 2440.005 2393.915
899 2  474.349 2411.260 2692.033
900 2  144.906 2591.957 2730.864
901 2  3025.041 2288.995 2850.133
902 2  2847.773 2967.364 2959.000
903 2  2691.212 3038.198 3002.736
904 2  2507.553 2822.737 2966.500
905 2  2527.286 2733.729 2569.200
906 2  3003.008 2575.702 2785.913
907 2  3065.336 2533.482 2637.170
908 2  2320.160 2804.097 2536.443
909 2  2813.078 2971.392 2414.573
910 2  2908.052 2864.463 3033.500
911 2  2305.134 2495.648 2868.411
912 2  2502.541 2409.889 2668.441
913 2  2925.510 2995.423 2846.225
914 2  2854.169 2765.562 2915.638
915 2  2644.240 2814.368 2674.113
916 2  2881.669 2826.459 2450.516
917 2  2579.567 2545.340 2662.152
918 2  2836.585 2328.152 2474.414
919 2  2629.242 2735.640 2905.889
920 2  2548.592 2859.347 2537.692
921 2  2524.482 2704.946 2761.322
922 2  2331.245 2957.711 2494.871
923 2  2963.756 2995.669 3026.804
924 2  2455.498 2717.099 2872.719
925 2  2791.459 2795.490 2538.739
926 2  2595.563 2966.890 2954.361
927 2  2522.033 2982.918 2298.986
928 2  2571.658 3037.349 2796.755
929 2  3007.456 2833.086 2924.768
930 2  2515.693 2654.209 3120.990