LAMMPS (23 Jun 2022 - Update 1)
OMP_NUM_THREADS environment is not set. Defaulting to 1 thread. (src/comm.cpp:98)
  using 1 OpenMP thread(s) per MPI task

# Init #
dimension   3
boundary    p p p
units       real
atom_style  atomic

# Atom Definition #
read_data ${input_data}
read_data ./pgnpmf/28/dat28.dat
Reading data file ...
  orthogonal box = (-100 -100 -100) to (4100 4100 4100)
  1 by 2 by 2 MPI processor grid
  reading atoms ...
  1000 atoms
  read_data CPU = 0.007 seconds

# Settings #
pair_style table spline 9941

pair_coeff 1 1 ./pgnpmf/N20.txt DE_GNP 75.6
pair_coeff 2 2 ./pgnpmf/N100.txt DE_GNP 115.92
WARNING: 3 of 9941 force values in table DE_GNP are inconsistent with -dE/dr.
WARNING:  Should only be flagged at inflection points (src/pair_table.cpp:463)
pair_coeff 1 2 ./pgnpmf/mixed_potential.txt DE_GNP 95.66
WARNING: 1562 of 9941 force values in table DE_GNP are inconsistent with -dE/dr.
WARNING:  Should only be flagged at inflection points (src/pair_table.cpp:463)

# Neighbor list calc frequency #
neigh_modify delay 0 every 1 check yes

# Saving frequency #
variable ts_save equal floor(${steps_gen}*0.01)
variable ts_save equal floor(5000*0.01)

# Dump #
dump 1 all custom 10000 ./pgnpmf/${folder}/generation/trajectory/trajectory_${usic}_${trial}.gen.custom type x y z ix iy iz
dump 1 all custom 10000 ./pgnpmf/28/generation/trajectory/trajectory_${usic}_${trial}.gen.custom type x y z ix iy iz
dump 1 all custom 10000 ./pgnpmf/28/generation/trajectory/trajectory_1_${trial}.gen.custom type x y z ix iy iz
dump 1 all custom 10000 ./pgnpmf/28/generation/trajectory/trajectory_1_1.gen.custom type x y z ix iy iz
dump_modify 1 first no sort id
dump 2 all cfg 10000 ./pgnpmf/${folder}/generation/trajectory/dumpgen.tens_*.cfg mass type xs ys zs fx fy fz
dump 2 all cfg 10000 ./pgnpmf/28/generation/trajectory/dumpgen.tens_*.cfg mass type xs ys zs fx fy fz
dump_modify 2 element N20 N100

# Fix #
fix 1 all momentum 1000 linear 1 1 1 angular

variable T equal ${Temp}
variable T equal 300

variable nts equal ${steps_gen}/${ts}
variable nts equal 5000/${ts}
variable nts equal 5000/1
variable long equal ${nts}*5
variable long equal 5000*5

# Velocity #
velocity all create ${T} ${Vseed} mom yes rot yes dist gaussian
velocity all create 300 ${Vseed} mom yes rot yes dist gaussian
velocity all create 300 97531 mom yes rot yes dist gaussian

fix 2 all nvt temp ${T} 370000 100.0 #iso 1.0 1.0 1000.0
fix 2 all nvt temp 300 370000 100.0 
run ${nts}
run 5000
Generated 0 of 1 mixed pair_coeff terms from geometric mixing rule
Neighbor list info ...
  update every 1 steps, delay 0 steps, check yes
  max neighbors/atom: 2000, page size: 100000
  master list distance cutoff = 117.92
  ghost atom cutoff = 117.92
  binsize = 58.96, bins = 72 72 72
  1 neighbor lists, perpetual/occasional/extra = 1 0 0
  (1) pair table, perpetual
      attributes: half, newton on
      pair build: half/bin/atomonly/newton
      stencil: half/bin/3d
      bin: standard
Per MPI rank memory allocation (min/avg/max) = 6.141 | 6.144 | 6.146 Mbytes
   Step          Temp          E_pair         E_mol          TotEng         Press     
         0   300            0              0              893.34877      0.00055119596
      5000   357464.88     -37418.493      0              1027050.9      0.64769688   
Loop time of 0.0746122 on 4 procs for 5000 steps with 1000 atoms

Performance: 5789.939 ns/day, 0.004 hours/ns, 67013.183 timesteps/s
99.8% CPU use with 4 MPI tasks x 1 OpenMP threads

MPI task timing breakdown:
Section |  min time  |  avg time  |  max time  |%varavg| %total
---------------------------------------------------------------
Pair    | 0.0059885  | 0.006074   | 0.0062197  |   0.1 |  8.14
Neigh   | 0.0015495  | 0.0015734  | 0.0015994  |   0.0 |  2.11
Comm    | 0.017892   | 0.019571   | 0.021269   |   0.9 | 26.23
Output  | 2.0152e-05 | 2.4702e-05 | 3.7955e-05 |   0.0 |  0.03
Modify  | 0.031321   | 0.034174   | 0.037549   |   1.3 | 45.80
Other   |            | 0.0132     |            |       | 17.69

Nlocal:            250 ave         250 max         250 min
Histogram: 4 0 0 0 0 0 0 0 0 0
Nghost:          17.75 ave          29 max          10 min
Histogram: 1 0 0 2 0 0 0 0 0 1
Neighs:           5.25 ave           7 max           4 min
Histogram: 2 0 0 0 0 0 1 0 0 1

Total # of neighbors = 21
Ave neighs/atom = 0.021
Neighbor list builds = 12
Dangerous builds = 0

unfix 2

fix 3 all nvt temp 370000 370000 100.0
run ${long}
run 25000
Generated 0 of 1 mixed pair_coeff terms from geometric mixing rule
Per MPI rank memory allocation (min/avg/max) = 6.141 | 6.144 | 6.146 Mbytes
   Step          Temp          E_pair         E_mol          TotEng         Press     
      5000   357464.88     -37418.493      0              1027050.9      0.64769688   
     30000   370924.4      -1386833.5      0             -282283.98      0.98831548   
Loop time of 0.382204 on 4 procs for 25000 steps with 1000 atoms

Performance: 5651.434 ns/day, 0.004 hours/ns, 65410.110 timesteps/s
99.6% CPU use with 4 MPI tasks x 1 OpenMP threads

MPI task timing breakdown:
Section |  min time  |  avg time  |  max time  |%varavg| %total
---------------------------------------------------------------
Pair    | 0.045694   | 0.047515   | 0.050921   |   0.9 | 12.43
Neigh   | 0.010818   | 0.011226   | 0.011534   |   0.3 |  2.94
Comm    | 0.084831   | 0.096689   | 0.10649    |   2.5 | 25.30
Output  | 0.0064612  | 0.0065992  | 0.0068386  |   0.2 |  1.73
Modify  | 0.14517    | 0.15629    | 0.17285    |   2.7 | 40.89
Other   |            | 0.06388    |            |       | 16.71

Nlocal:            250 ave         250 max         250 min
Histogram: 4 0 0 0 0 0 0 0 0 0
Nghost:          16.25 ave          24 max           8 min
Histogram: 1 0 0 1 0 0 0 1 0 1
Neighs:          50.25 ave          57 max          42 min
Histogram: 1 0 0 1 0 0 0 0 1 1

Total # of neighbors = 201
Ave neighs/atom = 0.201
Neighbor list builds = 97
Dangerous builds = 0

unfix 3

fix 4 all nvt temp 370000 3700000 $(100*dt)
fix 4 all nvt temp 370000 3700000 100
run ${long}
run 25000
Generated 0 of 1 mixed pair_coeff terms from geometric mixing rule
Per MPI rank memory allocation (min/avg/max) = 6.141 | 6.144 | 6.146 Mbytes
   Step          Temp          E_pair         E_mol          TotEng         Press     
     30000   370924.4      -1386833.5      0             -282283.98      0.98831548   
     55000   3605697       -1516208.8      0              9220941.3      6.899634     
Loop time of 0.410111 on 4 procs for 25000 steps with 1000 atoms

Performance: 5266.862 ns/day, 0.005 hours/ns, 60959.055 timesteps/s
99.8% CPU use with 4 MPI tasks x 1 OpenMP threads

MPI task timing breakdown:
Section |  min time  |  avg time  |  max time  |%varavg| %total
---------------------------------------------------------------
Pair    | 0.056199   | 0.064938   | 0.070573   |   2.2 | 15.83
Neigh   | 0.023214   | 0.023556   | 0.023744   |   0.1 |  5.74
Comm    | 0.10421    | 0.11425    | 0.13218    |   3.2 | 27.86
Output  | 0.0032628  | 0.0033862  | 0.0036112  |   0.2 |  0.83
Modify  | 0.13078    | 0.14546    | 0.1582     |   2.7 | 35.47
Other   |            | 0.05853    |            |       | 14.27

Nlocal:            250 ave         255 max         247 min
Histogram: 2 0 0 0 0 1 0 0 0 1
Nghost:             19 ave          26 max          11 min
Histogram: 1 0 0 0 1 0 0 1 0 1
Neighs:          58.25 ave          74 max          38 min
Histogram: 1 0 0 0 1 0 0 1 0 1

Total # of neighbors = 233
Ave neighs/atom = 0.233
Neighbor list builds = 217
Dangerous builds = 0

unfix 4

fix 5 all nvt temp 3700000 ${T} 100.0
fix 5 all nvt temp 3700000 300 100.0
run ${nts}
run 5000
Generated 0 of 1 mixed pair_coeff terms from geometric mixing rule
Per MPI rank memory allocation (min/avg/max) = 6.141 | 6.144 | 6.146 Mbytes
   Step          Temp          E_pair         E_mol          TotEng         Press     
     55000   3605697       -1516208.8      0              9220941.3      6.899634     
     60000   70539.91      -1532478        0             -1322422.2      0.035184379  
Loop time of 0.084767 on 4 procs for 5000 steps with 1000 atoms

Performance: 5096.324 ns/day, 0.005 hours/ns, 58985.233 timesteps/s
99.1% CPU use with 4 MPI tasks x 1 OpenMP threads

MPI task timing breakdown:
Section |  min time  |  avg time  |  max time  |%varavg| %total
---------------------------------------------------------------
Pair    | 0.010313   | 0.012986   | 0.015288   |   1.6 | 15.32
Neigh   | 0.004316   | 0.0043627  | 0.0044259  |   0.1 |  5.15
Comm    | 0.022408   | 0.025125   | 0.028177   |   1.3 | 29.64
Output  | 0.0018753  | 0.0018804  | 0.0018952  |   0.0 |  2.22
Modify  | 0.027239   | 0.028347   | 0.02962    |   0.5 | 33.44
Other   |            | 0.01207    |            |       | 14.23

Nlocal:            250 ave         255 max         246 min
Histogram: 1 0 1 0 0 1 0 0 0 1
Nghost:          20.75 ave          26 max          13 min
Histogram: 1 0 0 0 0 0 1 1 0 1
Neighs:             59 ave          73 max          36 min
Histogram: 1 0 0 0 0 1 0 0 0 2

Total # of neighbors = 236
Ave neighs/atom = 0.236
Neighbor list builds = 40
Dangerous builds = 0

# Thermo #
thermo_style custom step temp press pe ke etotal epair lx ly lz xlo xhi ylo yhi zlo zhi vol density dt time

# Run stle #
run_style verlet

# Run #
timestep ${ts}
timestep 1
thermo ${ts_save}
thermo 50
# run ${steps_gen}

# write restart #
write_restart ${write_restart}
write_restart ./pgnpmf/28/genpmf.res
System init for write_restart ...
Generated 0 of 1 mixed pair_coeff terms from geometric mixing rule


Total wall time: 0:00:01
