LAMMPS (23 Jun 2022 - Update 1)
OMP_NUM_THREADS environment is not set. Defaulting to 1 thread. (src/comm.cpp:98)
  using 1 OpenMP thread(s) per MPI task
# Read restart
read_restart ${read_res}
read_restart ./pgnpmf/28/equpmf69.res
Reading restart file ...
  restart file = 23 Jun 2022, LAMMPS = 23 Jun 2022
  restoring atom style atomic from restart
  orthogonal box = (1574.709 1574.709 1574.709) to (2425.291 2425.291 2425.291)
  1 by 2 by 2 MPI processor grid
  restoring pair style table from restart
  1000 atoms
  read_restart CPU = 0.006 seconds

# Settings

pair_style table spline 9941

pair_coeff 1 1 ./pgnpmf/N20.txt DE_GNP 75.6
pair_coeff 2 2 ./pgnpmf/N100.txt DE_GNP 115.92
WARNING: 3 of 9941 force values in table DE_GNP are inconsistent with -dE/dr.
WARNING:  Should only be flagged at inflection points (src/pair_table.cpp:463)
pair_coeff 1 2 ./pgnpmf/mixed_potential.txt DE_GNP 95.66
WARNING: 1562 of 9941 force values in table DE_GNP are inconsistent with -dE/dr.
WARNING:  Should only be flagged at inflection points (src/pair_table.cpp:463)

#Neigh_list Calc Frequency

neigh_modify delay 0 every 1 check yes

# Saving Frequency (50 frames)

variable ts_save equal ${steps_equ}
variable ts_save equal 5000

variable nts equal ${steps_equ}/${ts}
variable nts equal 5000/${ts}
variable nts equal 5000/0.25
variable medium equal ${nts}*3
variable medium equal 20000*3
variable long equal ${nts}*5
variable long equal 20000*5

# Dump
#dump 1 all custom ${ts_save} ./pgnpmf/${folder}/equilibration/trajectory/trajectory_${usic}_${trial}.equ.custom type x y z ix iy iz
#dump_modify 1 first no sort id
dump 2 all cfg 50000 ./pgnpmf/${folder}/equilibration/trajectory/dumpequ.tens_*.cfg mass type xs ys zs fx fy fz
dump 2 all cfg 50000 ./pgnpmf/28/equilibration/trajectory/dumpequ.tens_*.cfg mass type xs ys zs fx fy fz
dump_modify 2 element N20 N100

# thermo_style
thermo_style custom step temp press pe density ke etotal lx ly lz xlo xhi ylo yhi zlo zhi vol dt time cpu tpcpu spcpu cpuremain

# run info
timestep ${ts}
timestep 0.25
thermo 5000

# fix

fix 1 all momentum 1000 linear 1 1 1 angular
variable T equal ${temp}
variable T equal 300
fix 2 all nvt temp ${T} 370000 100.0
fix 2 all nvt temp 300 370000 100.0

run ${nts}
run 20000
Generated 0 of 1 mixed pair_coeff terms from geometric mixing rule
Unused restart file global fix info:
  fix style: npt, fix ID: 5
Neighbor list info ...
  update every 1 steps, delay 0 steps, check yes
  max neighbors/atom: 2000, page size: 100000
  master list distance cutoff = 117.92
  ghost atom cutoff = 117.92
  binsize = 58.96, bins = 15 15 15
  1 neighbor lists, perpetual/occasional/extra = 1 0 0
  (1) pair table, perpetual
      attributes: half, newton on
      pair build: half/bin/atomonly/newton
      stencil: half/bin/3d
      bin: standard
Per MPI rank memory allocation (min/avg/max) = 3.075 | 3.075 | 3.075 Mbytes
   Step          Temp          Press          PotEng        Density         KinEng         TotEng           Lx             Ly             Lz            Xlo            Xhi            Ylo            Yhi            Zlo            Zhi           Volume           Dt            Time           CPU           T/CPU          S/CPU         CPULeft    
  13860000   342.4737       0.074342192   -39672490       1.0308044      1019.8282     -39671470       850.58206      850.58206      850.58206      1574.709       2425.291       1574.709       2425.291       1574.709       2425.291       6.1538748e+08  0.25           3510000        0              0              0              0            
  13865000   98564.295     -149.32306     -39828199       1.0308044      293507.64     -39534691       850.58206      850.58206      850.58206      1574.709       2425.291       1574.709       2425.291       1574.709       2425.291       6.1538748e+08  0.25           3511250        0.31469229     3972.1262      15888.459      0.94408399   
  13870000   187969.07     -298.26123     -39923446       1.0308044      559739.78     -39363707       850.58206      850.58206      850.58206      1574.709       2425.291       1574.709       2425.291       1574.709       2425.291       6.1538748e+08  0.25           3512500        0.62937516     3972.2536      15889.013      0.62937756   
  13875000   273678.24     -235.53749     -39863823       1.0308044      814967.06     -39048856       850.58206      850.58206      850.58206      1574.709       2425.291       1574.709       2425.291       1574.709       2425.291       6.1538748e+08  0.25           3513750        0.94497436     3960.7195      15842.877      0.31499227   
  13880000   365164.44      4.432444      -39780808       1.0308044      1087397.3     -38693411       850.58206      850.58206      850.58206      1574.709       2425.291       1574.709       2425.291       1574.709       2425.291       6.1538748e+08  0.25           3515000        1.2598491      3969.8327      15879.336      0            
Loop time of 1.25995 on 4 procs for 20000 steps with 1000 atoms

Performance: 342.870 ns/day, 0.070 hours/ns, 15873.594 timesteps/s
99.6% CPU use with 4 MPI tasks x 1 OpenMP threads

MPI task timing breakdown:
Section |  min time  |  avg time  |  max time  |%varavg| %total
---------------------------------------------------------------
Pair    | 0.54841    | 0.68744    | 0.75987    |   9.9 | 54.56
Neigh   | 0.0014988  | 0.0017899  | 0.0019475  |   0.4 |  0.14
Comm    | 0.31897    | 0.39038    | 0.5276     |  13.0 | 30.98
Output  | 0.0001608  | 0.00019025 | 0.00027739 |   0.0 |  0.02
Modify  | 0.12183    | 0.12387    | 0.12574    |   0.4 |  9.83
Other   |            | 0.05628    |            |       |  4.47

Nlocal:            250 ave         267 max         216 min
Histogram: 1 0 0 0 0 0 0 1 1 1
Nghost:            476 ave         496 max         460 min
Histogram: 1 0 0 2 0 0 0 0 0 1
Neighs:        1314.75 ave        1483 max        1068 min
Histogram: 1 0 0 0 0 0 2 0 0 1

Total # of neighbors = 5259
Ave neighs/atom = 5.259
Neighbor list builds = 11
Dangerous builds = 0

unfix 2

fix 3 all nvt temp 370000 370000 $(100.0*dt) #iso 1.0 1.0 $(1000.0*dt)
fix 3 all nvt temp 370000 370000 25 

run ${long}
run 100000
Generated 0 of 1 mixed pair_coeff terms from geometric mixing rule
Per MPI rank memory allocation (min/avg/max) = 3.075 | 3.075 | 3.075 Mbytes
   Step          Temp          Press          PotEng        Density         KinEng         TotEng           Lx             Ly             Lz            Xlo            Xhi            Ylo            Yhi            Zlo            Zhi           Volume           Dt            Time           CPU           T/CPU          S/CPU         CPULeft    
  13880000   365164.44      4.432444      -39780808       1.0308044      1087397.3     -38693411       850.58206      850.58206      850.58206      1574.709       2425.291       1574.709       2425.291       1574.709       2425.291       6.1538748e+08  0.25           3515000        0              0              0              0            
  13885000   382677.08      263.68618     -39701882       1.0308044      1139547       -38562335       850.58206      850.58206      850.58206      1574.709       2425.291       1574.709       2425.291       1574.709       2425.291       6.1538748e+08  0.25           3516250        0.31617778     3953.4633      15813.805      6.007425     
  13890000   359196.01      405.16642     -39715872       1.0308044      1069624.4     -38646247       850.58206      850.58206      850.58206      1574.709       2425.291       1574.709       2425.291       1574.709       2425.291       6.1538748e+08  0.25           3517500        0.63260527     3950.3522      15801.408      5.6934702    
  13895000   361665.1       455.56121     -39736478       1.0308044      1076976.9     -38659501       850.58206      850.58206      850.58206      1574.709       2425.291       1574.709       2425.291       1574.709       2425.291       6.1538748e+08  0.25           3518750        0.94919544     3948.3228      15793.295      5.3787877    
  13900000   359209.22      456.49883     -39837961       1.0308044      1069663.7     -38768297       850.58206      850.58206      850.58206      1574.709       2425.291       1574.709       2425.291       1574.709       2425.291       6.1538748e+08  0.25           3520000        1.2711231      3882.8599      15531.435      5.0845024    
  13905000   369701.95      437.88186     -39846051       1.0308044      1100909.3     -38745141       850.58206      850.58206      850.58206      1574.709       2425.291       1574.709       2425.291       1574.709       2425.291       6.1538748e+08  0.25           3521250        1.5915888      3900.5752      15602.293      4.7747738    
  13910000   373405.78      412.97695     -39732447       1.0308044      1111938.7     -38620508       850.58206      850.58206      850.58206      1574.709       2425.291       1574.709       2425.291       1574.709       2425.291       6.1538748e+08  0.25           3522500        1.9132351      3886.2544      15545.027      4.4642211    
  13915000   380498.11      365.20264     -39792384       1.0308044      1133058.4     -38659325       850.58206      850.58206      850.58206      1574.709       2425.291       1574.709       2425.291       1574.709       2425.291       6.1538748e+08  0.25           3523750        2.2337672      3899.7624      15599.036      4.1484304    
  13920000   379024.68      283.58422     -39830922       1.0308044      1128670.8     -38702252       850.58206      850.58206      850.58206      1574.709       2425.291       1574.709       2425.291       1574.709       2425.291       6.1538748e+08  0.25           3525000        2.553348       3911.3787      15645.525      3.8300256    
  13925000   353153.99      209.37157     -39734620       1.0308044      1051632.3     -38682987       850.58206      850.58206      850.58206      1574.709       2425.291       1574.709       2425.291       1574.709       2425.291       6.1538748e+08  0.25           3526250        2.8745647      3891.4532      15565.817      3.5133598    
  13930000   356054.28      184.40619     -39641848       1.0308044      1060268.8     -38581580       850.58206      850.58206      850.58206      1574.709       2425.291       1574.709       2425.291       1574.709       2425.291       6.1538748e+08  0.25           3527500        3.1964438      3883.4465      15533.786      3.1964461    
  13935000   365462.24      158.64825     -39610904       1.0308044      1088284.1     -38522619       850.58206      850.58206      850.58206      1574.709       2425.291       1574.709       2425.291       1574.709       2425.291       6.1538748e+08  0.25           3528750        3.5153713      3919.3865      15677.547      2.8762147    
  13940000   371325.87      115.24635     -39585022       1.0308044      1105745       -38479277       850.58206      850.58206      850.58206      1574.709       2425.291       1574.709       2425.291       1574.709       2425.291       6.1538748e+08  0.25           3530000        3.8365889      3891.439       15565.754      2.5577277    
  13945000   362360.55      97.60279      -39542160       1.0308044      1079047.8     -38463112       850.58206      850.58206      850.58206      1574.709       2425.291       1574.709       2425.291       1574.709       2425.291       6.1538748e+08  0.25           3531250        4.1549136      3926.8099      15707.243      2.2372624    
  13950000   370594.01      129.66282     -39375570       1.0308044      1103565.7     -38272005       850.58206      850.58206      850.58206      1574.709       2425.291       1574.709       2425.291       1574.709       2425.291       6.1538748e+08  0.25           3532500        4.4738771      3918.9455      15675.784      1.9173769    
  13955000   365537.49      116.6449      -39348218       1.0308044      1088508.2     -38259710       850.58206      850.58206      850.58206      1574.709       2425.291       1574.709       2425.291       1574.709       2425.291       6.1538748e+08  0.25           3533750        4.7902262      3951.3302      15805.319      1.5967429    
  13960000   374799.19      61.730707     -39374578       1.0308044      1116088       -38258490       850.58206      850.58206      850.58206      1574.709       2425.291       1574.709       2425.291       1574.709       2425.291       6.1538748e+08  0.25           3535000        5.1077175      3937.1163      15748.464      1.2769299    
  13965000   354529.26      34.285672     -39352704       1.0308044      1055727.6     -38296977       850.58206      850.58206      850.58206      1574.709       2425.291       1574.709       2425.291       1574.709       2425.291       6.1538748e+08  0.25           3536250        5.4238076      3954.5674      15818.271      0.95714294   
  13970000   369619.86      44.692808     -39383002       1.0308044      1100664.8     -38282337       850.58206      850.58206      850.58206      1574.709       2425.291       1574.709       2425.291       1574.709       2425.291       6.1538748e+08  0.25           3537500        5.7391509      3963.9351      15855.741      0.63768368   
  13975000   361508.56      41.762077     -39301692       1.0308044      1076510.7     -38225181       850.58206      850.58206      850.58206      1574.709       2425.291       1574.709       2425.291       1574.709       2425.291       6.1538748e+08  0.25           3538750        6.0552396      3954.5855      15818.34       0.31869694   
  13980000   372880.02      45.266655     -39220480       1.0308044      1110373       -38110107       850.58206      850.58206      850.58206      1574.709       2425.291       1574.709       2425.291       1574.709       2425.291       6.1538748e+08  0.25           3540000        6.3721686      3944.1022      15776.41       0            
Loop time of 6.37227 on 4 procs for 100000 steps with 1000 atoms

Performance: 338.969 ns/day, 0.071 hours/ns, 15693.001 timesteps/s
99.6% CPU use with 4 MPI tasks x 1 OpenMP threads

MPI task timing breakdown:
Section |  min time  |  avg time  |  max time  |%varavg| %total
---------------------------------------------------------------
Pair    | 2.8779     | 3.5227     | 3.8318     |  20.3 | 55.28
Neigh   | 0.016088   | 0.01867    | 0.020082   |   1.2 |  0.29
Comm    | 1.6102     | 1.9273     | 2.5752     |  27.7 | 30.24
Output  | 0.0057307  | 0.0058668  | 0.0062677  |   0.3 |  0.09
Modify  | 0.59891    | 0.61721    | 0.63284    |   1.9 |  9.69
Other   |            | 0.2805     |            |       |  4.40

Nlocal:            250 ave         265 max         226 min
Histogram: 1 0 0 0 0 0 0 2 0 1
Nghost:         478.25 ave         489 max         460 min
Histogram: 1 0 0 0 0 0 0 2 0 1
Neighs:         1314.5 ave        1462 max        1115 min
Histogram: 1 0 0 0 0 0 2 0 0 1

Total # of neighbors = 5258
Ave neighs/atom = 5.258
Neighbor list builds = 116
Dangerous builds = 0

unfix 3

fix 4 all nvt temp 370000 ${T} 100.0
fix 4 all nvt temp 370000 300 100.0

run ${nts}
run 20000
Generated 0 of 1 mixed pair_coeff terms from geometric mixing rule
Per MPI rank memory allocation (min/avg/max) = 4.341 | 4.343 | 4.345 Mbytes
   Step          Temp          Press          PotEng        Density         KinEng         TotEng           Lx             Ly             Lz            Xlo            Xhi            Ylo            Yhi            Zlo            Zhi           Volume           Dt            Time           CPU           T/CPU          S/CPU         CPULeft    
  13980000   372880.02      45.266655     -39220480       1.0308044      1110373       -38110107       850.58206      850.58206      850.58206      1574.709       2425.291       1574.709       2425.291       1574.709       2425.291       6.1538748e+08  0.25           3540000        0              0              0              0            
  13985000   281492.6      -1.8692094     -39154987       1.0308044      838236.9      -38316750       850.58206      850.58206      850.58206      1574.709       2425.291       1574.709       2425.291       1574.709       2425.291       6.1538748e+08  0.25           3541250        0.31555746     3961.2352      15844.899      0.9466795    
  13990000   190808.62     -123.78343     -39180475       1.0308044      568195.47     -38612279       850.58206      850.58206      850.58206      1574.709       2425.291       1574.709       2425.291       1574.709       2425.291       6.1538748e+08  0.25           3542500        0.63224295     3947.1344      15788.536      0.63224529   
  13995000   99372.797     -284.70014     -39320816       1.0308044      295915.22     -39024901       850.58206      850.58206      850.58206      1574.709       2425.291       1574.709       2425.291       1574.709       2425.291       6.1538748e+08  0.25           3543750        0.94793168     3959.5967      15838.383      0.31597803   
  14000000   9259.8969     -434.31247     -39390567       1.0308044      27574.392     -39362993       850.58206      850.58206      850.58206      1574.709       2425.291       1574.709       2425.291       1574.709       2425.291       6.1538748e+08  0.25           3545000        1.2645384      3948.1156      15792.464      0            
Loop time of 1.26464 on 4 procs for 20000 steps with 1000 atoms

Performance: 341.600 ns/day, 0.070 hours/ns, 15814.824 timesteps/s
99.6% CPU use with 4 MPI tasks x 1 OpenMP threads

MPI task timing breakdown:
Section |  min time  |  avg time  |  max time  |%varavg| %total
---------------------------------------------------------------
Pair    | 0.5735     | 0.69683    | 0.76149    |   8.7 | 55.10
Neigh   | 0.0019609  | 0.0022445  | 0.0024225  |   0.4 |  0.18
Comm    | 0.31868    | 0.3844     | 0.50758    |  11.7 | 30.40
Output  | 0.0017237  | 0.001748   | 0.0018186  |   0.1 |  0.14
Modify  | 0.12101    | 0.12348    | 0.12655    |   0.6 |  9.76
Other   |            | 0.05592    |            |       |  4.42

Nlocal:            250 ave         265 max         222 min
Histogram: 1 0 0 0 0 0 0 1 1 1
Nghost:          478.5 ave         488 max         459 min
Histogram: 1 0 0 0 0 0 0 1 0 2
Neighs:           1310 ave        1468 max        1090 min
Histogram: 1 0 0 0 0 0 1 1 0 1

Total # of neighbors = 5240
Ave neighs/atom = 5.24
Neighbor list builds = 14
Dangerous builds = 0

unfix 4

fix 5 all npt temp ${T} ${T} $(100.0*dt) iso 1.0 1.0 $(1000.0*dt)
fix 5 all npt temp 300 ${T} $(100.0*dt) iso 1.0 1.0 $(1000.0*dt)
fix 5 all npt temp 300 300 $(100.0*dt) iso 1.0 1.0 $(1000.0*dt)
fix 5 all npt temp 300 300 25 iso 1.0 1.0 $(1000.0*dt)
fix 5 all npt temp 300 300 25 iso 1.0 1.0 250

run ${medium}
run 60000
Generated 0 of 1 mixed pair_coeff terms from geometric mixing rule
Per MPI rank memory allocation (min/avg/max) = 4.341 | 4.343 | 4.345 Mbytes
   Step          Temp          Press          PotEng        Density         KinEng         TotEng           Lx             Ly             Lz            Xlo            Xhi            Ylo            Yhi            Zlo            Zhi           Volume           Dt            Time           CPU           T/CPU          S/CPU         CPULeft    
  14000000   9259.8969     -434.31247     -39390567       1.0308044      27574.392     -39362993       850.58206      850.58206      850.58206      1574.709       2425.291       1574.709       2425.291       1574.709       2425.291       6.1538748e+08  0.25           3545000        0              0              0              0            
  14005000   338.90016      0.99767071    -39753563       1.0533745      1009.1868     -39752554       844.46315      844.46315      844.46315      1577.7684      2422.2316      1577.7684      2422.2316      1577.7684      2422.2316      6.0220188e+08  0.25           3546250        0.38607039     3237.7465      12950.957      4.2467999    
  14010000   339.07384      0.98367054    -39792399       1.0546043      1009.704      -39791389       844.13478      844.13478      844.13478      1577.9326      2422.0674      1577.9326      2422.0674      1577.9326      2422.0674      6.0149965e+08  0.25           3547500        0.76703366     3281.1556      13124.623      3.8351799    
  14015000   339.50921      1.2896708     -39821005       1.0557565      1011.0005     -39819994       843.82758      843.82758      843.82758      1578.0862      2421.9138      1578.0862      2421.9138      1578.0862      2421.9138      6.0084319e+08  0.25           3548750        1.1467629      3291.8208      13167.281      3.4402954    
  14020000   340.35547     -2.724009      -39841320       1.0567013      1013.5205     -39840307       843.57604      843.57604      843.57604      1578.212       2421.788       1578.212       2421.788       1578.212       2421.788       6.0030602e+08  0.25           3550000        1.5260944      3295.2699      13181.081      3.0521934    
  14025000   341.59702      1.1259218     -39877459       1.057957       1017.2176     -39876442       843.24214      843.24214      843.24214      1578.3789      2421.6211      1578.3789      2421.6211      1578.3789      2421.6211      5.9959348e+08  0.25           3551250        1.9050434      3298.5978      13194.389      2.6670639    
  14030000   342.77031      2.0572328     -39910922       1.0590276      1020.7114     -39909901       842.95788      842.95788      842.95788      1578.5211      2421.4789      1578.5211      2421.4789      1578.5211      2421.4789      5.9898732e+08  0.25           3552500        2.2853171      3287.1059      13148.423      2.2853193    
  14035000   343.65297      0.60779226    -39928903       1.0600076      1023.3399     -39927880       842.69803      842.69803      842.69803      1578.651       2421.349       1578.651       2421.349       1578.651       2421.349       5.9843355e+08  0.25           3553750        2.6664482      3279.7115      13118.837      1.9046077    
  14040000   344.0391      -0.9858891     -39955471       1.0609614      1024.4897     -39954447       842.44543      842.44543      842.44543      1578.7773      2421.2227      1578.7773      2421.2227      1578.7773      2421.2227      5.9789558e+08  0.25           3555000        3.0470854      3283.9667      13135.877      1.5235438    
  14045000   343.92744     -0.52625205    -39986888       1.0619825      1024.1572     -39985864       842.17535      842.17535      842.17535      1578.9123      2421.0877      1578.9123      2421.0877      1578.9123      2421.0877      5.9732073e+08  0.25           3556250        3.4284963      3277.3057      13109.223      1.1428329    
  14050000   343.27987      2.052579      -40019608       1.0630879      1022.2288     -40018586       841.88334      841.88334      841.88334      1579.0583      2420.9417      1579.0583      2420.9417      1579.0583      2420.9417      5.9669961e+08  0.25           3557500        3.8131989      3249.2627      12997.046      0.76264027   
  14055000   342.40201     -0.52126536    -40027741       1.0639256      1019.6147     -40026721       841.66233      841.66233      841.66233      1579.1688      2420.8312      1579.1688      2420.8312      1579.1688      2420.8312      5.9622978e+08  0.25           3558750        4.1935458      3286.4739      13145.902      0.38123164   
  14060000   341.33979      4.2074225     -40043064       1.0649875      1016.4516     -40042047       841.38248      841.38248      841.38248      1579.3088      2420.6912      1579.3088      2420.6912      1579.3088      2420.6912      5.9563526e+08  0.25           3560000        4.5757185      3270.7734      13083.093      0            
Loop time of 4.57581 on 4 procs for 60000 steps with 1000 atoms

Performance: 283.228 ns/day, 0.085 hours/ns, 13112.426 timesteps/s
99.6% CPU use with 4 MPI tasks x 1 OpenMP threads

MPI task timing breakdown:
Section |  min time  |  avg time  |  max time  |%varavg| %total
---------------------------------------------------------------
Pair    | 1.8894     | 2.2848     | 2.4818     |  15.3 | 49.93
Neigh   | 0.0058915  | 0.006717   | 0.0071812  |   0.6 |  0.15
Comm    | 0.9624     | 1.1576     | 1.5445     |  21.1 | 25.30
Output  | 0.002058   | 0.0021389  | 0.0023733  |   0.3 |  0.05
Modify  | 0.91021    | 0.93982    | 0.96543    |   2.0 | 20.54
Other   |            | 0.1848     |            |       |  4.04

Nlocal:            250 ave         266 max         222 min
Histogram: 1 0 0 0 0 0 0 2 0 1
Nghost:          486.5 ave         495 max         470 min
Histogram: 1 0 0 0 0 0 0 1 0 2
Neighs:        1328.75 ave        1486 max        1108 min
Histogram: 1 0 0 0 0 0 1 1 0 1

Total # of neighbors = 5315
Ave neighs/atom = 5.315
Neighbor list builds = 42
Dangerous builds = 17

# run_style
run_style verlet

# write restart
write_restart ${write_res}
write_restart ./pgnpmf/28/equpmf70.res
System init for write_restart ...
Generated 0 of 1 mixed pair_coeff terms from geometric mixing rule

Total wall time: 0:00:13
