LAMMPS (23 Jun 2022 - Update 1)
OMP_NUM_THREADS environment is not set. Defaulting to 1 thread. (src/comm.cpp:98)
  using 1 OpenMP thread(s) per MPI task
# Read restart
read_restart ${read_res}
read_restart ./pgnpmf/28/equpmf11.res
Reading restart file ...
  restart file = 23 Jun 2022, LAMMPS = 23 Jun 2022
  restoring atom style atomic from restart
  orthogonal box = (906.2428 906.2428 906.2428) to (3093.7572 3093.7572 3093.7572)
  1 by 2 by 2 MPI processor grid
  restoring pair style table from restart
  1000 atoms
  read_restart CPU = 0.004 seconds

# Settings

pair_style table spline 9941

pair_coeff 1 1 ./pgnpmf/N20.txt DE_GNP 75.6
pair_coeff 2 2 ./pgnpmf/N100.txt DE_GNP 115.92
WARNING: 3 of 9941 force values in table DE_GNP are inconsistent with -dE/dr.
WARNING:  Should only be flagged at inflection points (src/pair_table.cpp:463)
pair_coeff 1 2 ./pgnpmf/mixed_potential.txt DE_GNP 95.66
WARNING: 1562 of 9941 force values in table DE_GNP are inconsistent with -dE/dr.
WARNING:  Should only be flagged at inflection points (src/pair_table.cpp:463)

#Neigh_list Calc Frequency

neigh_modify delay 0 every 1 check yes

# Saving Frequency (50 frames)

variable ts_save equal ${steps_equ}
variable ts_save equal 5000

variable nts equal ${steps_equ}/${ts}
variable nts equal 5000/${ts}
variable nts equal 5000/0.25
variable medium equal ${nts}*3
variable medium equal 20000*3
variable long equal ${nts}*5
variable long equal 20000*5

# Dump
#dump 1 all custom ${ts_save} ./pgnpmf/${folder}/equilibration/trajectory/trajectory_${usic}_${trial}.equ.custom type x y z ix iy iz
#dump_modify 1 first no sort id
dump 2 all cfg 50000 ./pgnpmf/${folder}/equilibration/trajectory/dumpequ.tens_*.cfg mass type xs ys zs fx fy fz
dump 2 all cfg 50000 ./pgnpmf/28/equilibration/trajectory/dumpequ.tens_*.cfg mass type xs ys zs fx fy fz
dump_modify 2 element N20 N100

# thermo_style
thermo_style custom step temp press pe density ke etotal lx ly lz xlo xhi ylo yhi zlo zhi vol dt time cpu tpcpu spcpu cpuremain

# run info
timestep ${ts}
timestep 0.25
thermo 5000

# fix

fix 1 all momentum 1000 linear 1 1 1 angular
variable T equal ${temp}
variable T equal 300
fix 2 all nvt temp ${T} 370000 100.0
fix 2 all nvt temp 300 370000 100.0

run ${nts}
run 20000
Generated 0 of 1 mixed pair_coeff terms from geometric mixing rule
Unused restart file global fix info:
  fix style: npt, fix ID: 5
Neighbor list info ...
  update every 1 steps, delay 0 steps, check yes
  max neighbors/atom: 2000, page size: 100000
  master list distance cutoff = 117.92
  ghost atom cutoff = 117.92
  binsize = 58.96, bins = 38 38 38
  1 neighbor lists, perpetual/occasional/extra = 1 0 0
  (1) pair table, perpetual
      attributes: half, newton on
      pair build: half/bin/atomonly/newton
      stencil: half/bin/3d
      bin: standard
Per MPI rank memory allocation (min/avg/max) = 3.161 | 3.161 | 3.162 Mbytes
   Step          Temp          Press          PotEng        Density         KinEng         TotEng           Lx             Ly             Lz            Xlo            Xhi            Ylo            Yhi            Zlo            Zhi           Volume           Dt            Time           CPU           T/CPU          S/CPU         CPULeft    
   2260000   335.75053      1.0332404     -9786768.9      0.060599936    999.80774     -9785769.1      2187.5144      2187.5144      2187.5144      906.2428       3093.7572      906.2428       3093.7572      906.2428       3093.7572      1.0467736e+10  0.25           610000         0              0              0              0            
   2265000   96348.836     -6.0999463     -9860310.2      0.060599936    286910.38     -9573399.8      2187.5144      2187.5144      2187.5144      906.2428       3093.7572      906.2428       3093.7572      906.2428       3093.7572      1.0467736e+10  0.25           611250         0.13439566     9300.8501      37203.156      0.40319414   
   2270000   182605.83     -12.748694     -9925463.1      0.060599936    543768.99     -9381694.1      2187.5144      2187.5144      2187.5144      906.2428       3093.7572      906.2428       3093.7572      906.2428       3093.7572      1.0467736e+10  0.25           612500         0.27041119     9190.1332      36760.515      0.27041356   
   2275000   272537.75     -6.0477864     -9882665.4      0.060599936    811570.87     -9071094.5      2187.5144      2187.5144      2187.5144      906.2428       3093.7572      906.2428       3093.7572      906.2428       3093.7572      1.0467736e+10  0.25           613750         0.40635323     9195.0949      36780.392      0.13545186   
   2280000   368232.45      5.5988636     -9884365.2      0.060599936    1096533.4     -8787831.9      2187.5144      2187.5144      2187.5144      906.2428       3093.7572      906.2428       3093.7572      906.2428       3093.7572      1.0467736e+10  0.25           615000         0.54321544     9133.2719      36533.081      0            
Loop time of 0.543247 on 4 procs for 20000 steps with 1000 atoms

Performance: 795.219 ns/day, 0.030 hours/ns, 36815.676 timesteps/s
99.6% CPU use with 4 MPI tasks x 1 OpenMP threads

MPI task timing breakdown:
Section |  min time  |  avg time  |  max time  |%varavg| %total
---------------------------------------------------------------
Pair    | 0.14871    | 0.18095    | 0.23087    |   7.2 | 33.31
Neigh   | 0.0011224  | 0.0012233  | 0.0013394  |   0.2 |  0.23
Comm    | 0.15032    | 0.19466    | 0.22643    |   6.3 | 35.83
Output  | 0.0001452  | 0.00016566 | 0.00022005 |   0.0 |  0.03
Modify  | 0.11019    | 0.11834    | 0.12775    |   1.8 | 21.78
Other   |            | 0.04792    |            |       |  8.82

Nlocal:            250 ave         265 max         240 min
Histogram: 1 0 1 0 1 0 0 0 0 1
Nghost:           88.5 ave          97 max          70 min
Histogram: 1 0 0 0 0 0 0 0 1 2
Neighs:         339.25 ave         436 max         271 min
Histogram: 1 0 0 2 0 0 0 0 0 1

Total # of neighbors = 1357
Ave neighs/atom = 1.357
Neighbor list builds = 14
Dangerous builds = 0

unfix 2

fix 3 all nvt temp 370000 370000 $(100.0*dt) #iso 1.0 1.0 $(1000.0*dt)
fix 3 all nvt temp 370000 370000 25 

run ${long}
run 100000
Generated 0 of 1 mixed pair_coeff terms from geometric mixing rule
Per MPI rank memory allocation (min/avg/max) = 3.161 | 3.161 | 3.162 Mbytes
   Step          Temp          Press          PotEng        Density         KinEng         TotEng           Lx             Ly             Lz            Xlo            Xhi            Ylo            Yhi            Zlo            Zhi           Volume           Dt            Time           CPU           T/CPU          S/CPU         CPULeft    
   2280000   368232.45      5.5988636     -9884365.2      0.060599936    1096533.4     -8787831.9      2187.5144      2187.5144      2187.5144      906.2428       3093.7572      906.2428       3093.7572      906.2428       3093.7572      1.0467736e+10  0.25           615000         0              0              0              0            
   2285000   368087.68      10.789677     -9815220.6      0.060599936    1096102.3     -8719118.3      2187.5144      2187.5144      2187.5144      906.2428       3093.7572      906.2428       3093.7572      906.2428       3093.7572      1.0467736e+10  0.25           616250         0.13615538     9180.648       36722.333      2.5869992    
   2290000   370274.38      8.0838452     -9953857.9      0.060599936    1102613.9     -8851244        2187.5144      2187.5144      2187.5144      906.2428       3093.7572      906.2428       3093.7572      906.2428       3093.7572      1.0467736e+10  0.25           617500         0.27307168     9129.6644      36518.658      2.4576672    
   2295000   379586.99      6.2106738     -10025341       0.060599936    1130345.2     -8894996.2      2187.5144      2187.5144      2187.5144      906.2428       3093.7572      906.2428       3093.7572      906.2428       3093.7572      1.0467736e+10  0.25           618750         0.41125993     9045.6315      36182.537      2.3304865    
   2300000   366732.69      6.5380253     -10015727       0.060599936    1092067.3     -8923659.6      2187.5144      2187.5144      2187.5144      906.2428       3093.7572      906.2428       3093.7572      906.2428       3093.7572      1.0467736e+10  0.25           620000         0.55010168     9003.0547      36012.237      2.200416     
   2305000   388048.16      6.5651738     -9963165        0.060599936    1155541.1     -8807623.8      2187.5144      2187.5144      2187.5144      906.2428       3093.7572      906.2428       3093.7572      906.2428       3093.7572      1.0467736e+10  0.25           621250         0.68770725     9083.9344      36335.727      2.0631289    
   2310000   374371.26      6.7729679     -9920744.8      0.060599936    1114813.7     -8805931.1      2187.5144      2187.5144      2187.5144      906.2428       3093.7572      906.2428       3093.7572      906.2428       3093.7572      1.0467736e+10  0.25           622500         0.82476809     9120.0352      36480.121      1.9244647    
   2315000   374570.22      7.5418234     -9880272.2      0.060599936    1115406.2     -8764866.1      2187.5144      2187.5144      2187.5144      906.2428       3093.7572      906.2428       3093.7572      906.2428       3093.7572      1.0467736e+10  0.25           623750         0.96177694     9123.5035      36494.02       1.7861616    
   2320000   368433.29      7.2859977     -9911350.7      0.060599936    1097131.4     -8814219.2      2187.5144      2187.5144      2187.5144      906.2428       3093.7572      906.2428       3093.7572      906.2428       3093.7572      1.0467736e+10  0.25           625000         1.0989465      9112.8117      36451.257      1.6484232    
   2325000   366959.31      6.0022862     -9908722.6      0.060599936    1092742.2     -8815980.4      2187.5144      2187.5144      2187.5144      906.2428       3093.7572      906.2428       3093.7572      906.2428       3093.7572      1.0467736e+10  0.25           626250         1.2356632      9142.9946      36571.977      1.5102578    
   2330000   374918.01      4.6448481     -9902103.8      0.060599936    1116441.8     -8785662        2187.5144      2187.5144      2187.5144      906.2428       3093.7572      906.2428       3093.7572      906.2428       3093.7572      1.0467736e+10  0.25           627500         1.3722745      9150.0423      36600.162      1.3722769    
   2335000   357288.24      3.2382308     -9901794.1      0.060599936    1063943.4     -8837850.8      2187.5144      2187.5144      2187.5144      906.2428       3093.7572      906.2428       3093.7572      906.2428       3093.7572      1.0467736e+10  0.25           628750         1.5084932      9176.4266      36705.717      1.2342235    
   2340000   365363.12      3.538284      -9815091.7      0.060599936    1087989       -8727102.8      2187.5144      2187.5144      2187.5144      906.2428       3093.7572      906.2428       3093.7572      906.2428       3093.7572      1.0467736e+10  0.25           630000         1.6442367      9208.5427      36834.149      1.0961594    
   2345000   380218.89      4.8561195     -9790088.5      0.060599936    1132226.9     -8657861.6      2187.5144      2187.5144      2187.5144      906.2428       3093.7572      906.2428       3093.7572      906.2428       3093.7572      1.0467736e+10  0.25           631250         1.7805793      9168.0793      36672.333      0.95877476   
   2350000   378411.06      4.7227082     -9775285.4      0.060599936    1126843.5     -8648441.9      2187.5144      2187.5144      2187.5144      906.2428       3093.7572      906.2428       3093.7572      906.2428       3093.7572      1.0467736e+10  0.25           632500         1.9196861      8985.9038      35943.634      0.82272356   
   2355000   374074.31      2.4814252     -9837576.6      0.060599936    1113929.4     -8723647.2      2187.5144      2187.5144      2187.5144      906.2428       3093.7572      906.2428       3093.7572      906.2428       3093.7572      1.0467736e+10  0.25           633750         2.0563434      9146.9688      36587.854      0.68544857   
   2360000   361311.91      0.82327195    -9860564.6      0.060599936    1075925.2     -8784639.5      2187.5144      2187.5144      2187.5144      906.2428       3093.7572      906.2428       3093.7572      906.2428       3093.7572      1.0467736e+10  0.25           635000         2.1938089      9093.1869      36372.74       0.54845282   
   2365000   352039.84      0.86252249    -9902711.6      0.060599936    1048314.5     -8854397        2187.5144      2187.5144      2187.5144      906.2428       3093.7572      906.2428       3093.7572      906.2428       3093.7572      1.0467736e+10  0.25           636250         2.3307773      9126.1935      36504.783      0.41131406   
   2370000   351821.51      2.3403371     -9863025.2      0.060599936    1047664.4     -8815360.8      2187.5144      2187.5144      2187.5144      906.2428       3093.7572      906.2428       3093.7572      906.2428       3093.7572      1.0467736e+10  0.25           637500         2.4670881      9170.2233      36680.886      0.27412116   
   2375000   354580.54      3.357271      -9867191.6      0.060599936    1055880.3     -8811311.3      2187.5144      2187.5144      2187.5144      906.2428       3093.7572      906.2428       3093.7572      906.2428       3093.7572      1.0467736e+10  0.25           638750         2.6042446      9113.6729      36454.685      0.13706563   
   2380000   351815.34      2.9020713     -9796238.1      0.060599936    1047646       -8748592.1      2187.5144      2187.5144      2187.5144      906.2428       3093.7572      906.2428       3093.7572      906.2428       3093.7572      1.0467736e+10  0.25           640000         2.7422093      9060.2873      36241.175      0            
Loop time of 2.74225 on 4 procs for 100000 steps with 1000 atoms

Performance: 787.674 ns/day, 0.030 hours/ns, 36466.381 timesteps/s
99.6% CPU use with 4 MPI tasks x 1 OpenMP threads

MPI task timing breakdown:
Section |  min time  |  avg time  |  max time  |%varavg| %total
---------------------------------------------------------------
Pair    | 0.75621    | 0.93103    | 1.1778     |  16.0 | 33.95
Neigh   | 0.0091601  | 0.0096644  | 0.01051    |   0.5 |  0.35
Comm    | 0.74592    | 0.97681    | 1.1523     |  14.8 | 35.62
Output  | 0.0042301  | 0.0043201  | 0.0045766  |   0.2 |  0.16
Modify  | 0.55655    | 0.58505    | 0.62217    |   3.1 | 21.33
Other   |            | 0.2354     |            |       |  8.58

Nlocal:            250 ave         263 max         238 min
Histogram: 1 0 0 0 2 0 0 0 0 1
Nghost:          88.25 ave          97 max          72 min
Histogram: 1 0 0 0 0 0 0 1 1 1
Neighs:         345.25 ave         439 max         273 min
Histogram: 1 0 1 0 1 0 0 0 0 1

Total # of neighbors = 1381
Ave neighs/atom = 1.381
Neighbor list builds = 113
Dangerous builds = 0

unfix 3

fix 4 all nvt temp 370000 ${T} 100.0
fix 4 all nvt temp 370000 300 100.0

run ${nts}
run 20000
Generated 0 of 1 mixed pair_coeff terms from geometric mixing rule
Per MPI rank memory allocation (min/avg/max) = 4.427 | 4.427 | 4.428 Mbytes
   Step          Temp          Press          PotEng        Density         KinEng         TotEng           Lx             Ly             Lz            Xlo            Xhi            Ylo            Yhi            Zlo            Zhi           Volume           Dt            Time           CPU           T/CPU          S/CPU         CPULeft    
   2380000   351815.34      2.9020713     -9796238.1      0.060599936    1047646       -8748592.1      2187.5144      2187.5144      2187.5144      906.2428       3093.7572      906.2428       3093.7572      906.2428       3093.7572      1.0467736e+10  0.25           640000         0              0              0              0            
   2385000   277633.92      0.90330065    -9761465        0.060599936    826746.42     -8934718.6      2187.5144      2187.5144      2187.5144      906.2428       3093.7572      906.2428       3093.7572      906.2428       3093.7572      1.0467736e+10  0.25           641250         0.13600937     9190.505       36761.752      0.4080355    
   2390000   186038.49     -2.9830584     -9751868.6      0.060599936    553990.86     -9197877.7      2187.5144      2187.5144      2187.5144      906.2428       3093.7572      906.2428       3093.7572      906.2428       3093.7572      1.0467736e+10  0.25           642500         0.27085678     9269.7345      37078.963      0.27085913   
   2395000   97784.085     -7.5291342     -9827880        0.060599936    291184.31     -9536695.7      2187.5144      2187.5144      2187.5144      906.2428       3093.7572      906.2428       3093.7572      906.2428       3093.7572      1.0467736e+10  0.25           643750         0.40616318     9238.2903      36953.149      0.13538854   
   2400000   8209.3396     -11.057068     -9848739.9      0.060599936    24446.011     -9824293.9      2187.5144      2187.5144      2187.5144      906.2428       3093.7572      906.2428       3093.7572      906.2428       3093.7572      1.0467736e+10  0.25           645000         0.54380491     9081.5487      36326.228      0            
Loop time of 0.543838 on 4 procs for 20000 steps with 1000 atoms

Performance: 794.354 ns/day, 0.030 hours/ns, 36775.651 timesteps/s
99.6% CPU use with 4 MPI tasks x 1 OpenMP threads

MPI task timing breakdown:
Section |  min time  |  avg time  |  max time  |%varavg| %total
---------------------------------------------------------------
Pair    | 0.15046    | 0.18509    | 0.23155    |   6.9 | 34.03
Neigh   | 0.0011243  | 0.0012     | 0.001306   |   0.2 |  0.22
Comm    | 0.14919    | 0.1938     | 0.22887    |   6.5 | 35.64
Output  | 0.0016961  | 0.0017126  | 0.0017588  |   0.1 |  0.31
Modify  | 0.1109     | 0.11546    | 0.12215    |   1.2 | 21.23
Other   |            | 0.04657    |            |       |  8.56

Nlocal:            250 ave         262 max         238 min
Histogram: 1 0 0 0 1 1 0 0 0 1
Nghost:          88.75 ave          98 max          71 min
Histogram: 1 0 0 0 0 0 1 0 0 2
Neighs:          340.5 ave         430 max         269 min
Histogram: 1 0 0 1 1 0 0 0 0 1

Total # of neighbors = 1362
Ave neighs/atom = 1.362
Neighbor list builds = 14
Dangerous builds = 0

unfix 4

fix 5 all npt temp ${T} ${T} $(100.0*dt) iso 1.0 1.0 $(1000.0*dt)
fix 5 all npt temp 300 ${T} $(100.0*dt) iso 1.0 1.0 $(1000.0*dt)
fix 5 all npt temp 300 300 $(100.0*dt) iso 1.0 1.0 $(1000.0*dt)
fix 5 all npt temp 300 300 25 iso 1.0 1.0 $(1000.0*dt)
fix 5 all npt temp 300 300 25 iso 1.0 1.0 250

run ${medium}
run 60000
Generated 0 of 1 mixed pair_coeff terms from geometric mixing rule
Per MPI rank memory allocation (min/avg/max) = 4.427 | 4.427 | 4.428 Mbytes
   Step          Temp          Press          PotEng        Density         KinEng         TotEng           Lx             Ly             Lz            Xlo            Xhi            Ylo            Yhi            Zlo            Zhi           Volume           Dt            Time           CPU           T/CPU          S/CPU         CPULeft    
   2400000   8209.3396     -11.057068     -9848739.9      0.060599936    24446.011     -9824293.9      2187.5144      2187.5144      2187.5144      906.2428       3093.7572      906.2428       3093.7572      906.2428       3093.7572      1.0467736e+10  0.25           645000         0              0              0              0            
   2405000   320.91836      0.99999067    -10190605       0.064389611    955.64006     -10189650       2143.7281      2143.7281      2143.7281      928.13593      3071.8641      928.13593      3071.8641      928.13593      3071.8641      9.8516535e+09  0.25           646250         0.19703219     6344.1195      25376.365      2.1673809    
   2410000   322.82513      0.99096939    -10239806       0.06466843     961.31812     -10238845       2140.6428      2140.6428      2140.6428      929.6786       3070.3214      929.6786       3070.3214      929.6786       3070.3214      9.8091779e+09  0.25           647500         0.39105496     6442.5429      25770.16       1.9552877    
   2415000   325.68728      0.99419195    -10294035       0.064943676    969.8411      -10293065       2137.6143      2137.6143      2137.6143      931.19283      3068.8072      931.19283      3068.8072      931.19283      3068.8072      9.7676044e+09  0.25           648750         0.58368546     6489.1005      25956.393      1.7510647    
   2420000   329.82848      1.1404478     -10362508       0.065252703    982.17289     -10361526       2134.2345      2134.2345      2134.2345      932.88274      3067.1173      932.88274      3067.1173      932.88274      3067.1173      9.7213465e+09  0.25           650000         0.77646871     6483.9732      25935.908      1.5529423    
   2425000   334.04321      1.0123087     -10391996       0.065478937    994.72362     -10391001       2131.7737      2131.7737      2131.7737      934.11314      3065.8869      934.11314      3065.8869      934.11314      3065.8869      9.6877586e+09  0.25           651250         0.96842527     6511.8913      26047.571      1.3557987    
   2430000   337.77393      1.0018471     -10430317       0.065739163    1005.8331     -10429311       2128.9571      2128.9571      2128.9571      935.52143      3064.4786      935.52143      3064.4786      935.52143      3064.4786      9.6494099e+09  0.25           652500         1.1624355      6442.9621      25771.852      1.1624377    
   2435000   339.21316      0.94765737    -10453524       0.065973064    1010.1189     -10452514       2126.4382      2126.4382      2126.4382      936.78092      3063.2191      936.78092      3063.2191      936.78092      3063.2191      9.6151989e+09  0.25           653750         1.3545341      6507.0765      26028.305      0.96752589   
   2440000   339.34622      1.0167384     -10468892       0.066238429    1010.5151     -10467881       2123.5947      2123.5947      2123.5947      938.20265      3061.7974      938.20265      3061.7974      938.20265      3061.7974      9.5766784e+09  0.25           655000         1.5480277      6460.1606      25840.645      0.77401495   
   2445000   338.86167      0.97597516    -10502445       0.066477327    1009.0722     -10501436       2121.0478      2121.0478      2121.0478      939.47609      3060.5239      939.47609      3060.5239      939.47609      3060.5239      9.542263e+09   0.25           656250         1.7418124      6450.4518      25801.802      0.58060494   
   2450000   337.94877      1.0130133     -10531853       0.066723372    1006.3537     -10530846       2118.4375      2118.4375      2118.4375      940.78127      3059.2187      940.78127      3059.2187      940.78127      3059.2187      9.5070754e+09  0.25           657500         1.9378418      6376.598       25506.392      0.38756882   
   2455000   337.03943      1.088859      -10568275       0.066972415    1003.6459     -10567271       2115.8083      2115.8083      2115.8083      942.09584      3057.9042      942.09584      3057.9042      942.09584      3057.9042      9.4717225e+09  0.25           658750         2.1318168      6444.1292      25776.523      0.19380174   
   2460000   336.60191      1.0027687     -10619174       0.067212434    1002.343      -10618172       2113.2868      2113.2868      2113.2868      943.35661      3056.6434      943.35661      3056.6434      943.35661      3056.6434      9.4378985e+09  0.25           660000         2.3262403      6429.2669      25717.064      0            
Loop time of 2.32631 on 4 procs for 60000 steps with 1000 atoms

Performance: 557.105 ns/day, 0.043 hours/ns, 25791.879 timesteps/s
99.6% CPU use with 4 MPI tasks x 1 OpenMP threads

MPI task timing breakdown:
Section |  min time  |  avg time  |  max time  |%varavg| %total
---------------------------------------------------------------
Pair    | 0.54194    | 0.66627    | 0.81827    |  12.2 | 28.64
Neigh   | 0.0086619  | 0.0090358  | 0.0096725  |   0.4 |  0.39
Comm    | 0.47067    | 0.61053    | 0.73014    |  11.8 | 26.24
Output  | 0.0025244  | 0.0025787  | 0.0027382  |   0.2 |  0.11
Modify  | 0.86853    | 0.88561    | 0.89874    |   1.3 | 38.07
Other   |            | 0.1523     |            |       |  6.55

Nlocal:            250 ave         262 max         238 min
Histogram: 1 0 0 0 1 1 0 0 0 1
Nghost:          92.75 ave         101 max          76 min
Histogram: 1 0 0 0 0 0 1 0 0 2
Neighs:          369.5 ave         469 max         290 min
Histogram: 1 0 0 1 1 0 0 0 0 1

Total # of neighbors = 1478
Ave neighs/atom = 1.478
Neighbor list builds = 107
Dangerous builds = 36

# run_style
run_style verlet

# write restart
write_restart ${write_res}
write_restart ./pgnpmf/28/equpmf12.res
System init for write_restart ...
Generated 0 of 1 mixed pair_coeff terms from geometric mixing rule

Total wall time: 0:00:06
