LAMMPS (23 Jun 2022 - Update 1)
# Read restart
read_restart ${read_res}
read_restart ./pgnpmf/600400/equpmf25.res
Reading restart file ...
  restart file = 23 Jun 2022, LAMMPS = 23 Jun 2022
  restoring atom style atomic from restart
  orthogonal box = (2106.0444 2106.0444 2106.0444) to (2893.9556 2893.9556 2893.9556)
  1 by 2 by 2 MPI processor grid
  restoring pair style table from restart
  1000 atoms
  read_restart CPU = 0.016 seconds

# Settings

pair_style table spline 9941

pair_coeff 1 1 ./pgnpmf/N20.txt DE_GNP 75.6
pair_coeff 2 2 ./pgnpmf/N100.txt DE_GNP 115.92
WARNING: 3 of 9941 force values in table DE_GNP are inconsistent with -dE/dr.
WARNING:  Should only be flagged at inflection points (../pair_table.cpp:463)
pair_coeff 1 2 ./pgnpmf/mixed_potential.txt DE_GNP 95.66
WARNING: 1562 of 9941 force values in table DE_GNP are inconsistent with -dE/dr.
WARNING:  Should only be flagged at inflection points (../pair_table.cpp:463)

#Neigh_list Calc Frequency

neigh_modify delay 0 every 1 check yes

# Saving Frequency (50 frames)

variable ts_save equal ${steps_equ}
variable ts_save equal 5000

# Dump
#dump 1 all custom ${ts_save} ./pgnpmf/${folder}/equilibration/trajectory/trajectory_${usic}_${trial}.equ.custom type x y z ix iy iz
#dump_modify 1 first no sort id
#dump 2 all cfg 50000 ./equilibration/trajectory/ovito/dumpgen.tens_*.cfg mass type xs ys zs fx fy fz

# thermo_style
thermo_style custom step temp press pe density ke etotal lx ly lz xlo xhi ylo yhi zlo zhi vol dt time cpu tpcpu spcpu cpuremain

# run info
timestep ${ts}
timestep 0.5
thermo 200

# fix

fix 1 all momentum 1000 linear 1 1 1 angular
variable T equal ${temp}
variable T equal 300
fix 2 all nvt temp ${T} 370000 100.0
fix 2 all nvt temp 300 370000 100.0

run 100000
Generated 0 of 1 mixed pair_coeff terms from geometric mixing rule
Unused restart file global fix info:
  fix style: npt, fix ID: 5
Neighbor list info ...
  update every 1 steps, delay 0 steps, check yes
  max neighbors/atom: 2000, page size: 100000
  master list distance cutoff = 117.92
  ghost atom cutoff = 117.92
  binsize = 58.96, bins = 14 14 14
  1 neighbor lists, perpetual/occasional/extra = 1 0 0
  (1) pair table, perpetual
      attributes: half, newton on
      pair build: half/bin/atomonly/newton
      stencil: half/bin/3d
      bin: standard
Per MPI rank memory allocation (min/avg/max) = 3.085 | 3.085 | 3.086 Mbytes
   Step          Temp          Press          PotEng        Density         KinEng         TotEng           Lx             Ly             Lz            Xlo            Xhi            Ylo            Yhi            Zlo            Zhi           Volume           Dt            Time           CPU           T/CPU          S/CPU         CPULeft    
  17505000   309.503        4.2371334     -23291311       1.0250029      921.64708     -23290389       787.91111      787.91111      787.91111      2106.0444      2893.9556      2106.0444      2893.9556      2106.0444      2893.9556      4.8913831e+08  0.5            8755000        0              0              0              0            
  17505200   408.75988      3.6890639     -23291438       1.0250029      1217.2171     -23290220       787.91111      787.91111      787.91111      2106.0444      2893.9556      2106.0444      2893.9556      2106.0444      2893.9556      4.8913831e+08  0.5            8755100        0.016699728    5987.911       11975.297      8.3341478    
  17505400   620.06223      3.0787423     -23291590       1.0250029      1846.4394     -23289744       787.91111      787.91111      787.91111      2106.0444      2893.9556      2106.0444      2893.9556      2106.0444      2893.9556      4.8913831e+08  0.5            8755200        0.032214202    6445.6031      12891.235      8.0218169    
  17505600   976.66188      2.4005052     -23291779       1.0250029      2908.3323     -23288871       787.91111      787.91111      787.91111      2106.0444      2893.9556      2106.0444      2893.9556      2106.0444      2893.9556      4.8913831e+08  0.5            8755300        0.046944414    6788.8317      13577.682      7.7774163    
  17505800   1544.1301      1.426669      -23292015       1.0250029      4598.1559     -23287417       787.91111      787.91111      787.91111      2106.0444      2893.9556      2106.0444      2893.9556      2106.0444      2893.9556      4.8913831e+08  0.5            8755400        0.061681363    6785.6655      13571.347      7.6487064    
  17506000   2397.6141      0.57182077    -23291945       1.0250029      7139.6854     -23284805       787.91111      787.91111      787.91111      2106.0444      2893.9556      2106.0444      2893.9556      2106.0444      2893.9556      4.8913831e+08  0.5            8755500        0.076428822    6780.7942      13561.604      7.566626     
  17506200   3575.8141     -0.70406119    -23292303       1.0250029      10648.164     -23281655       787.91111      787.91111      787.91111      2106.0444      2893.9556      2106.0444      2893.9556      2106.0444      2893.9556      4.8913831e+08  0.5            8755600        0.091047607    6840.5021      13680.977      7.4964035    
  17506400   5002.5688     -2.8358279     -23292736       1.0250029      14896.796     -23277840       787.91111      787.91111      787.91111      2106.0444      2893.9556      2106.0444      2893.9556      2106.0444      2893.9556      4.8913831e+08  0.5            8755700        0.10587499     6744.2944      13488.622      7.4567499    
  17506600   6381.4377     -4.8372401     -23293224       1.0250029      19002.832     -23274221       787.91111      787.91111      787.91111      2106.0444      2893.9556      2106.0444      2893.9556      2106.0444      2893.9556      4.8913831e+08  0.5            8755800        0.1210218      6602.0641      13204.127      7.4429484    
  17506800   7276.2461     -7.1074931     -23291866       1.0250029      21667.418     -23270198       787.91111      787.91111      787.91111      2106.0444      2893.9556      2106.0444      2893.9556      2106.0444      2893.9556      4.8913831e+08  0.5            8755900        0.13572428     6801.6032      13603.213      7.4046038    
  17507000   7617.2214     -9.5151065     -23304907       1.0250029      22682.785     -23282224       787.91111      787.91111      787.91111      2106.0444      2893.9556      2106.0444      2893.9556      2106.0444      2893.9556      4.8913831e+08  0.5            8756000        0.15052948     6754.3872      13508.753      7.3760279    
  17507200   8092.4472     -12.248319     -23307355       1.0250029      24097.926     -23283257       787.91111      787.91111      787.91111      2106.0444      2893.9556      2106.0444      2893.9556      2106.0444      2893.9556      4.8913831e+08  0.5            8756100        0.16527539     6781.5424      13563.075      7.3473166    
  17507400   9144.5485     -14.532133     -23307936       1.0250029      27230.904     -23280705       787.91111      787.91111      787.91111      2106.0444      2893.9556      2106.0444      2893.9556      2106.0444      2893.9556      4.8913831e+08  0.5            8756200        0.18022376     6689.6711      13379.361      7.3291687    
  17507600   10231.13      -15.949116     -23299268       1.0250029      30466.558     -23268801       787.91111      787.91111      787.91111      2106.0444      2893.9556      2106.0444      2893.9556      2106.0444      2893.9556      4.8913831e+08  0.5            8756300        0.19491568     6806.4897      13612.977      7.3019026    
  17507800   10783.443     -17.671403     -23292507       1.0250029      32111.252     -23260396       787.91111      787.91111      787.91111      2106.0444      2893.9556      2106.0444      2893.9556      2106.0444      2893.9556      4.8913831e+08  0.5            8756400        0.20977906     6727.9226      13455.814      7.2823916    
  17508000   11116.417     -19.752261     -23294646       1.0250029      33102.791     -23261543       787.91111      787.91111      787.91111      2106.0444      2893.9556      2106.0444      2893.9556      2106.0444      2893.9556      4.8913831e+08  0.5            8756500        0.22503877     6553.2144      13106.469      7.2763064    
  17508200   11921.257     -21.716575     -23289774       1.0250029      35499.468     -23254275       787.91111      787.91111      787.91111      2106.0444      2893.9556      2106.0444      2893.9556      2106.0444      2893.9556      4.8913831e+08  0.5            8756600        0.24103208     6252.587       12505.117      7.291274     
  17508400   13096.983     -24.294993     -23288512       1.0250029      39000.578     -23249511       787.91111      787.91111      787.91111      2106.0444      2893.9556      2106.0444      2893.9556      2106.0444      2893.9556      4.8913831e+08  0.5            8756700        0.25562898     6850.7875      13701.589      7.2629204    
  17508600   13903.954     -26.436387     -23291047       1.0250029      41403.6       -23249643       787.91111      787.91111      787.91111      2106.0444      2893.9556      2106.0444      2893.9556      2106.0444      2893.9556      4.8913831e+08  0.5            8756800        0.27050757     6721.0548      13442.103      7.2436396    
  17508800   14214.66      -27.758604     -23291671       1.0250029      42328.832     -23249342       787.91111      787.91111      787.91111      2106.0444      2893.9556      2106.0444      2893.9556      2106.0444      2893.9556      4.8913831e+08  0.5            8756900        0.28524606     6784.9643      13569.911      7.2212739    
  17509000   14750.806     -30.690848     -23292278       1.0250029      43925.381     -23248353       787.91111      787.91111      787.91111      2106.0444      2893.9556      2106.0444      2893.9556      2106.0444      2893.9556      4.8913831e+08  0.5            8757000        0.30007149     6745.1724      13490.397      7.2017562    
  17509200   15872.898     -32.758331     -23292889       1.0250029      47266.781     -23245622       787.91111      787.91111      787.91111      2106.0444      2893.9556      2106.0444      2893.9556      2106.0444      2893.9556      4.8913831e+08  0.5            8757100        0.31511568     6647.087       13294.177      7.1876777    
  17509400   16936.873     -33.833857     -23293127       1.0250029      50435.116     -23242692       787.91111      787.91111      787.91111      2106.0444      2893.9556      2106.0444      2893.9556      2106.0444      2893.9556      4.8913831e+08  0.5            8757200        0.33001678     6710.9095      13421.876      7.1704       
  17509600   17380.371     -36.456615     -23295601       1.0250029      51755.778     -23243845       787.91111      787.91111      787.91111      2106.0444      2893.9556      2106.0444      2893.9556      2106.0444      2893.9556      4.8913831e+08  0.5            8757300        0.34488324     6726.5419      13453.04       7.1526144    
  17509800   17697.209     -38.661481     -23298421       1.0250029      52699.266     -23245722       787.91111      787.91111      787.91111      2106.0444      2893.9556      2106.0444      2893.9556      2106.0444      2893.9556      4.8913831e+08  0.5            8757400        0.35956331     6811.9664      13623.916      7.1313732    
  17510000   18608.575     -40.245874     -23302757       1.0250029      55413.159     -23247343       787.91111      787.91111      787.91111      2106.0444      2893.9556      2106.0444      2893.9556      2106.0444      2893.9556      4.8913831e+08  0.5            8757500        0.37421883     6823.3834      13646.776      7.11019      
  17510200   19835.729     -42.402373     -23303652       1.0250029      59067.415     -23244585       787.91111      787.91111      787.91111      2106.0444      2893.9556      2106.0444      2893.9556      2106.0444      2893.9556      4.8913831e+08  0.5            8757600        0.38880419     6856.1642      13712.314      7.0882313    
  17510400   20550.064     -44.55235      -23306050       1.0250029      61194.583     -23244856       787.91111      787.91111      787.91111      2106.0444      2893.9556      2106.0444      2893.9556      2106.0444      2893.9556      4.8913831e+08  0.5            8757700        0.40337582     6862.6808      13725.395      7.0665754    
  17510600   20781.069     -46.618589     -23308425       1.0250029      61882.475     -23246543       787.91111      787.91111      787.91111      2106.0444      2893.9556      2106.0444      2893.9556      2106.0444      2893.9556      4.8913831e+08  0.5            8757800        0.41884699     6463.6119      12927.181      7.0605926    
  17510800   21388.37      -48.620362     -23308894       1.0250029      63690.914     -23245203       787.91111      787.91111      787.91111      2106.0444      2893.9556      2106.0444      2893.9556      2106.0444      2893.9556      4.8913831e+08  0.5            8757900        0.43376424     6703.6723      13407.375      7.0449562    
  17511000   22602.3       -49.445382     -23311217       1.0250029      67305.791     -23243911       787.91111      787.91111      787.91111      2106.0444      2893.9556      2106.0444      2893.9556      2106.0444      2893.9556      4.8913831e+08  0.5            8758000        0.44855426     6761.3133      13522.616      7.0273769    
  17511200   23632.584     -51.151788     -23313150       1.0250029      70373.801     -23242777       787.91111      787.91111      787.91111      2106.0444      2893.9556      2106.0444      2893.9556      2106.0444      2893.9556      4.8913831e+08  0.5            8758100        0.46330069     6781.2945      13562.606      7.0093162    
  17511400   23974.018     -52.041564     -23317482       1.0250029      71390.531     -23246091       787.91111      787.91111      787.91111      2106.0444      2893.9556      2106.0444      2893.9556      2106.0444      2893.9556      4.8913831e+08  0.5            8758200        0.47820624     6708.8951      13417.8        6.9937913    
  17511600   24291.454     -53.437823     -23317833       1.0250029      72335.803     -23245497       787.91111      787.91111      787.91111      2106.0444      2893.9556      2106.0444      2893.9556      2106.0444      2893.9556      4.8913831e+08  0.5            8758300        0.49290672     6802.5244      13605.007      6.9754004    
  17511800   25306.743     -54.532608     -23314363       1.0250029      75359.159     -23239004       787.91111      787.91111      787.91111      2106.0444      2893.9556      2106.0444      2893.9556      2106.0444      2893.9556      4.8913831e+08  0.5            8758400        0.507673       6772.1607      13544.334      6.9581303    
  17512000   26564.137     -55.624816     -23310860       1.0250029      79103.463     -23231756       787.91111      787.91111      787.91111      2106.0444      2893.9556      2106.0444      2893.9556      2106.0444      2893.9556      4.8913831e+08  0.5            8758500        0.52271333     6648.8119      13297.633      6.9446425    
  17512200   27189.271     -57.303502     -23310764       1.0250029      80965.006     -23229799       787.91111      787.91111      787.91111      2106.0444      2893.9556      2106.0444      2893.9556      2106.0444      2893.9556      4.8913831e+08  0.5            8758600        0.53768679     6678.455       13356.876      6.9302083    
  17512400   27352.975     -59.949935     -23313249       1.0250029      81452.49      -23231796       787.91111      787.91111      787.91111      2106.0444      2893.9556      2106.0444      2893.9556      2106.0444      2893.9556      4.8913831e+08  0.5            8758700        0.55234532     6821.9814      13644.018      6.9118015    
  17512600   28038.037     -61.932902     -23315356       1.0250029      83492.487     -23231864       787.91111      787.91111      787.91111      2106.0444      2893.9556      2106.0444      2893.9556      2106.0444      2893.9556      4.8913831e+08  0.5            8758800        0.56709626     6779.2193      13558.43       6.8947175    
  17512800   29352.261     -63.774757     -23319346       1.0250029      87406.02      -23231940       787.91111      787.91111      787.91111      2106.0444      2893.9556      2106.0444      2893.9556      2106.0444      2893.9556      4.8913831e+08  0.5            8758900        0.58175272     6822.956       13645.871      6.8766351    
  17513000   30325.182     -64.602224     -23319530       1.0250029      90303.213     -23229227       787.91111      787.91111      787.91111      2106.0444      2893.9556      2106.0444      2893.9556      2106.0444      2893.9556      4.8913831e+08  0.5            8759000        0.59673065     6676.4588      13352.953      6.8624223    
  17513200   30555.355     -66.294565     -23319343       1.0250029      90988.629     -23228355       787.91111      787.91111      787.91111      2106.0444      2893.9556      2106.0444      2893.9556      2106.0444      2893.9556      4.8913831e+08  0.5            8759100        0.61150167     6770.0324      13540.068      6.8458544    
  17513400   30898.691     -68.378615     -23319540       1.0250029      92011.024     -23227529       787.91111      787.91111      787.91111      2106.0444      2893.9556      2106.0444      2893.9556      2106.0444      2893.9556      4.8913831e+08  0.5            8759200        0.62665264     6600.2414      13200.492      6.8335158    
  17513600   32039.984     -68.891013     -23321639       1.0250029      95409.602     -23226230       787.91111      787.91111      787.91111      2106.0444      2893.9556      2106.0444      2893.9556      2106.0444      2893.9556      4.8913831e+08  0.5            8759300        0.64129575     6829.1541      13658.276      6.8156498    
  17513800   33314.674     -70.331138     -23314493       1.0250029      99205.41      -23215288       787.91111      787.91111      787.91111      2106.0444      2893.9556      2106.0444      2893.9556      2106.0444      2893.9556      4.8913831e+08  0.5            8759400        0.65625655     6684.1086      13368.211      6.8012223    
  17514000   33806.518     -71.611242     -23314729       1.0250029      100670.04     -23214059       787.91111      787.91111      787.91111      2106.0444      2893.9556      2106.0444      2893.9556      2106.0444      2893.9556      4.8913831e+08  0.5            8759500        0.67101582     6775.4107      13550.796      6.784734     
  17514200   33920.917     -73.241185     -23313476       1.0250029      101010.7      -23212465       787.91111      787.91111      787.91111      2106.0444      2893.9556      2106.0444      2893.9556      2106.0444      2893.9556      4.8913831e+08  0.5            8759600        0.68592593     6706.8766      13413.783      6.7698074    
  17514400   34723.014     -74.396481     -23316054       1.0250029      103399.21     -23212654       787.91111      787.91111      787.91111      2106.0444      2893.9556      2106.0444      2893.9556      2106.0444      2893.9556      4.8913831e+08  0.5            8759700        0.70178627     6305.0327      12610.099      6.7640408    
  17514600   36129.403     -76.066581     -23316383       1.0250029      107587.19     -23208796       787.91111      787.91111      787.91111      2106.0444      2893.9556      2106.0444      2893.9556      2106.0444      2893.9556      4.8913831e+08  0.5            8759800        0.71715109     6508.3616      13016.7        6.7531891    
  17514800   37016.943     -77.928984     -23316750       1.0250029      110230.13     -23206520       787.91111      787.91111      787.91111      2106.0444      2893.9556      2106.0444      2893.9556      2106.0444      2893.9556      4.8913831e+08  0.5            8759900        0.73199059     6738.772       13477.48       6.737318     
  17515000   37102.153     -79.838567     -23317863       1.0250029      110483.88     -23207379       787.91111      787.91111      787.91111      2106.0444      2893.9556      2106.0444      2893.9556      2106.0444      2893.9556      4.8913831e+08  0.5            8760000        0.74665545     6819.0078      13638.034      6.7199155    
  17515200   37472.343     -81.208472     -23318244       1.0250029      111586.24     -23206658       787.91111      787.91111      787.91111      2106.0444      2893.9556      2106.0444      2893.9556      2106.0444      2893.9556      4.8913831e+08  0.5            8760100        0.76160154     6690.7391      13381.522      6.7050955    
  17515400   38796.868     -83.211443     -23318613       1.0250029      115530.45     -23203083       787.91111      787.91111      787.91111      2106.0444      2893.9556      2106.0444      2893.9556      2106.0444      2893.9556      4.8913831e+08  0.5            8760200        0.77640413     6755.5663      13511.113      6.6890349    
  17515600   40094.814     -85.041874     -23333350       1.0250029      119395.51     -23213955       787.91111      787.91111      787.91111      2106.0444      2893.9556      2106.0444      2893.9556      2106.0444      2893.9556      4.8913831e+08  0.5            8760300        0.79108527     6811.4597      13622.914      6.671998     
  17515800   40402.249     -86.023689     -23333298       1.0250029      120311        -23212987       787.91111      787.91111      787.91111      2106.0444      2893.9556      2106.0444      2893.9556      2106.0444      2893.9556      4.8913831e+08  0.5            8760400        0.80580586     6793.2138      13586.423      6.6553739    
  17516000   40389.1       -86.651503     -23325820       1.0250029      120271.84     -23205548       787.91111      787.91111      787.91111      2106.0444      2893.9556      2106.0444      2893.9556      2106.0444      2893.9556      4.8913831e+08  0.5            8760500        0.8211406      6521.1362      13042.317      6.6437873    
  17516200   41388.468     -87.387669     -23326039       1.0250029      123247.79     -23202791       787.91111      787.91111      787.91111      2106.0444      2893.9556      2106.0444      2893.9556      2106.0444      2893.9556      4.8913831e+08  0.5            8760600        0.8361693      6653.9133      13307.775      6.6296421    
  17516400   43013.42      -87.72016      -23324682       1.0250029      128086.62     -23196595       787.91111      787.91111      787.91111      2106.0444      2893.9556      2106.0444      2893.9556      2106.0444      2893.9556      4.8913831e+08  0.5            8760700        0.85079771     6836.0312      13672.098      6.6123534    
  17516600   43717.094     -88.27814      -23324398       1.0250029      130182.04     -23194216       787.91111      787.91111      787.91111      2106.0444      2893.9556      2106.0444      2893.9556      2106.0444      2893.9556      4.8913831e+08  0.5            8760800        0.86547909     6811.3581      13622.715      6.5955605    
  17516800   43503.057     -88.824693     -23324428       1.0250029      129544.68     -23194883       787.91111      787.91111      787.91111      2106.0444      2893.9556      2106.0444      2893.9556      2106.0444      2893.9556      4.8913831e+08  0.5            8760900        0.88037502     6713.2057      13426.436      6.5804433    
  17517000   43996.475     -88.617012     -23324381       1.0250029      131013.99     -23193367       787.91111      787.91111      787.91111      2106.0444      2893.9556      2106.0444      2893.9556      2106.0444      2893.9556      4.8913831e+08  0.5            8761000        0.89511051     6786.3687      13572.713      6.5641567    
  17517200   46292.382     -88.475689     -23322228       1.0250029      137850.81     -23184377       787.91111      787.91111      787.91111      2106.0444      2893.9556      2106.0444      2893.9556      2106.0444      2893.9556      4.8913831e+08  0.5            8761100        0.90994423     6741.405       13482.755      6.5486277    
  17517400   46975.49      -88.579165     -23322061       1.0250029      139884.99     -23182176       787.91111      787.91111      787.91111      2106.0444      2893.9556      2106.0444      2893.9556      2106.0444      2893.9556      4.8913831e+08  0.5            8761200        0.92514574     6578.2921      13156.637      6.5357192    
  17517600   45850.859     -89.834983     -23316711       1.0250029      136536.03     -23180175       787.91111      787.91111      787.91111      2106.0444      2893.9556      2106.0444      2893.9556      2106.0444      2893.9556      4.8913831e+08  0.5            8761300        0.9399877      6737.66        13475.285      6.5202444    
  17517800   44409.165     -90.669091     -23314534       1.0250029      132242.91     -23182291       787.91111      787.91111      787.91111      2106.0444      2893.9556      2106.0444      2893.9556      2106.0444      2893.9556      4.8913831e+08  0.5            8761400        0.95474309     6777.1652      13554.366      6.5041992    
  17518000   47368.983     -89.606011     -23310990       1.0250029      141056.74     -23169933       787.91111      787.91111      787.91111      2106.0444      2893.9556      2106.0444      2893.9556      2106.0444      2893.9556      4.8913831e+08  0.5            8761500        0.96950381     6774.7253      13549.378      6.4882308    
  17518200   49458.496     -88.508124     -23310233       1.0250029      147278.95     -23162954       787.91111      787.91111      787.91111      2106.0444      2893.9556      2106.0444      2893.9556      2106.0444      2893.9556      4.8913831e+08  0.5            8761600        0.98440309     6711.736       13423.525      6.4732077    
  17518400   50203.432     -88.026997     -23309045       1.0250029      149497.25     -23159547       787.91111      787.91111      787.91111      2106.0444      2893.9556      2106.0444      2893.9556      2106.0444      2893.9556      4.8913831e+08  0.5            8761700        0.99909217     6807.8024      13615.634      6.4568303    
  17518600   50463.579     -87.229892     -23303769       1.0250029      150271.92     -23153497       787.91111      787.91111      787.91111      2106.0444      2893.9556      2106.0444      2893.9556      2106.0444      2893.9556      4.8913831e+08  0.5            8761800        1.0139011      6752.7024      13505.411      6.4412639    
  17518800   51488.379     -86.021764     -23292034       1.0250029      153323.6      -23138711       787.91111      787.91111      787.91111      2106.0444      2893.9556      2106.0444      2893.9556      2106.0444      2893.9556      4.8913831e+08  0.5            8761900        1.0291647      6551.5219      13103.038      6.4285606    
  17519000   53522.366     -85.574865     -23291391       1.0250029      159380.47     -23132011       787.91111      787.91111      787.91111      2106.0444      2893.9556      2106.0444      2893.9556      2106.0444      2893.9556      4.8913831e+08  0.5            8762000        1.0437772      6843.4569      13686.884      6.4117849    
  17519200   53642.219     -85.546269     -23291036       1.0250029      159737.37     -23131299       787.91111      787.91111      787.91111      2106.0444      2893.9556      2106.0444      2893.9556      2106.0444      2893.9556      4.8913831e+08  0.5            8762100        1.0584595      6810.9229      13621.861      6.3954909    
  17519400   50955.465     -85.84511      -23282905       1.0250029      151736.67     -23131169       787.91111      787.91111      787.91111      2106.0444      2893.9556      2106.0444      2893.9556      2106.0444      2893.9556      4.8913831e+08  0.5            8762200        1.073166       6799.7116      13599.395      6.3793863    
  17519600   51312.248     -85.226025     -23274779       1.0250029      152799.11     -23121979       787.91111      787.91111      787.91111      2106.0444      2893.9556      2106.0444      2893.9556      2106.0444      2893.9556      4.8913831e+08  0.5            8762300        1.0880136      6735.1188      13470.287      6.3641438    
  17519800   54633.633     -85.169234     -23265104       1.0250029      162689.63     -23102415       787.91111      787.91111      787.91111      2106.0444      2893.9556      2106.0444      2893.9556      2106.0444      2893.9556      4.8913831e+08  0.5            8762400        1.1026808      6817.9292      13635.819      6.347875     
  17520000   55812.635     -84.961105     -23270028       1.0250029      166200.5      -23103827       787.91111      787.91111      787.91111      2106.0444      2893.9556      2106.0444      2893.9556      2106.0444      2893.9556      4.8913831e+08  0.5            8762500        1.1177823      6621.8789      13243.775      6.3341087    
  17520200   56873.722     -84.176859     -23270791       1.0250029      169360.23     -23101431       787.91111      787.91111      787.91111      2106.0444      2893.9556      2106.0444      2893.9556      2106.0444      2893.9556      4.8913831e+08  0.5            8762600        1.1327266      6691.4827      13382.978      6.3194313    
  17520400   57775.885     -84.232067     -23270055       1.0250029      172046.72     -23098008       787.91111      787.91111      787.91111      2106.0444      2893.9556      2106.0444      2893.9556      2106.0444      2893.9556      4.8913831e+08  0.5            8762700        1.147394       6817.8353      13635.637      6.3032262    
  17520600   58744.323     -85.208671     -23278982       1.0250029      174930.56     -23104052       787.91111      787.91111      787.91111      2106.0444      2893.9556      2106.0444      2893.9556      2106.0444      2893.9556      4.8913831e+08  0.5            8762800        1.162108       6796.2245      13592.453      6.2873121    
  17520800   59826.059     -85.663285     -23273592       1.0250029      178151.79     -23095440       787.91111      787.91111      787.91111      2106.0444      2893.9556      2106.0444      2893.9556      2106.0444      2893.9556      4.8913831e+08  0.5            8762900        1.1768934      6763.4809      13526.937      6.2718082    
  17521000   59741.615     -86.090316     -23282236       1.0250029      177900.33     -23104335       787.91111      787.91111      787.91111      2106.0444      2893.9556      2106.0444      2893.9556      2106.0444      2893.9556      4.8913831e+08  0.5            8763000        1.1918956      6665.6837      13331.394      6.2574606    
  17521200   58804.358     -87.848513     -23285476       1.0250029      175109.34     -23110367       787.91111      787.91111      787.91111      2106.0444      2893.9556      2106.0444      2893.9556      2106.0444      2893.9556      4.8913831e+08  0.5            8763100        1.2065313      6832.5981      13665.192      6.2412015    
  17521400   60303.192     -87.885038     -23289154       1.0250029      179572.61     -23109581       787.91111      787.91111      787.91111      2106.0444      2893.9556      2106.0444      2893.9556      2106.0444      2893.9556      4.8913831e+08  0.5            8763200        1.2216848      6599.1268      13198.269      6.2276215    
  17521600   63249.174     -87.746164     -23289457       1.0250029      188345.24     -23101111       787.91111      787.91111      787.91111      2106.0444      2893.9556      2106.0444      2893.9556      2106.0444      2893.9556      4.8913831e+08  0.5            8763300        1.2367734      6627.5144      13254.996      6.2136776    
  17521800   62842.651     -88.743734     -23290954       1.0250029      187134.68     -23103819       787.91111      787.91111      787.91111      2106.0444      2893.9556      2106.0444      2893.9556      2106.0444      2893.9556      4.8913831e+08  0.5            8763400        1.2515499      6767.5505      13535.13       6.1981601    
  17522000   61326.276     -90.11936      -23290977       1.0250029      182619.18     -23108358       787.91111      787.91111      787.91111      2106.0444      2893.9556      2106.0444      2893.9556      2106.0444      2893.9556      4.8913831e+08  0.5            8763500        1.2662394      6807.5633      13615.132      6.1822356    
  17522200   62423.871     -91.57596      -23291838       1.0250029      185887.63     -23105951       787.91111      787.91111      787.91111      2106.0444      2893.9556      2106.0444      2893.9556      2106.0444      2893.9556      4.8913831e+08  0.5            8763600        1.280932       6806.1279      13612.245      6.1663553    
  17522400   66380.997     -91.106566     -23298934       1.0250029      197671.27     -23101263       787.91111      787.91111      787.91111      2106.0444      2893.9556      2106.0444      2893.9556      2106.0444      2893.9556      4.8913831e+08  0.5            8763700        1.2958313      6711.7125      13423.459      6.1514829    
  17522600   66120.827     -92.259476     -23298643       1.0250029      196896.53     -23101747       787.91111      787.91111      787.91111      2106.0444      2893.9556      2106.0444      2893.9556      2106.0444      2893.9556      4.8913831e+08  0.5            8763800        1.3107547      6700.8917      13401.76       6.1367231    
  17522800   64164.767     -93.024823     -23297970       1.0250029      191071.72     -23106898       787.91111      787.91111      787.91111      2106.0444      2893.9556      2106.0444      2893.9556      2106.0444      2893.9556      4.8913831e+08  0.5            8763900        1.3259008      6602.3941      13204.798      6.1229874    
  17523000   65391.956     -93.778219     -23292923       1.0250029      194726.08     -23098197       787.91111      787.91111      787.91111      2106.0444      2893.9556      2106.0444      2893.9556      2106.0444      2893.9556      4.8913831e+08  0.5            8764000        1.3408844      6673.9613      13347.923      6.1084807    
  17523200   69513.924     -93.080964     -23294834       1.0250029      207000.6      -23087834       787.91111      787.91111      787.91111      2106.0444      2893.9556      2106.0444      2893.9556      2106.0444      2893.9556      4.8913831e+08  0.5            8764100        1.3556105      6790.6559      13581.332      6.092806     
  17523400   68764.466     -95.102304     -23295966       1.0250029      204768.84     -23091197       787.91111      787.91111      787.91111      2106.0444      2893.9556      2106.0444      2893.9556      2106.0444      2893.9556      4.8913831e+08  0.5            8764200        1.3703901      6766.056       13532.052      6.0773898    
  17523600   67419.283     -96.359163     -23297400       1.0250029      200763.11     -23096637       787.91111      787.91111      787.91111      2106.0444      2893.9556      2106.0444      2893.9556      2106.0444      2893.9556      4.8913831e+08  0.5            8764300        1.3854009      6661.8661      13323.785      6.0629986    
  17523800   69621.863     -96.919729     -23296882       1.0250029      207322.02     -23089560       787.91111      787.91111      787.91111      2106.0444      2893.9556      2106.0444      2893.9556      2106.0444      2893.9556      4.8913831e+08  0.5            8764400        1.4001274      6790.4844      13580.984      6.0473659    
  17524000   73354.646     -95.999489     -23296297       1.0250029      218437.61     -23077859       787.91111      787.91111      787.91111      2106.0444      2893.9556      2106.0444      2893.9556      2106.0444      2893.9556      4.8913831e+08  0.5            8764500        1.4150627      6695.5428      13391.062      6.0326428    
  17524200   71483.314     -98.079909     -23298253       1.0250029      212865.1      -23085388       787.91111      787.91111      787.91111      2106.0444      2893.9556      2106.0444      2893.9556      2106.0444      2893.9556      4.8913831e+08  0.5            8764600        1.430425       6509.4305      13018.837      6.0197124    
  17524400   70129.121     -99.162646     -23297497       1.0250029      208832.55     -23088664       787.91111      787.91111      787.91111      2106.0444      2893.9556      2106.0444      2893.9556      2106.0444      2893.9556      4.8913831e+08  0.5            8764700        1.4452124      6762.5378      13525.068      6.0043431    
  17524600   72404.788     -98.060348     -23295166       1.0250029      215609.1      -23079557       787.91111      787.91111      787.91111      2106.0444      2893.9556      2106.0444      2893.9556      2106.0444      2893.9556      4.8913831e+08  0.5            8764800        1.4600187      6753.8964      13507.807      5.989063     
  17524800   75609.321     -96.410469     -23292383       1.0250029      225151.65     -23067231       787.91111      787.91111      787.91111      2106.0444      2893.9556      2106.0444      2893.9556      2106.0444      2893.9556      4.8913831e+08  0.5            8764900        1.4747108      6806.3683      13612.698      5.9733307    
  17525000   74605.723     -97.405406     -23285927       1.0250029      222163.1      -23063764       787.91111      787.91111      787.91111      2106.0444      2893.9556      2106.0444      2893.9556      2106.0444      2893.9556      4.8913831e+08  0.5            8765000        1.4898282      6614.8853      13229.829      5.9593195    
  17525200   73683.402     -97.641483     -23288333       1.0250029      219416.59     -23068916       787.91111      787.91111      787.91111      2106.0444      2893.9556      2106.0444      2893.9556      2106.0444      2893.9556      4.8913831e+08  0.5            8765100        1.5046376      6752.4926      13504.999      5.9440696    
  17525400   75351.904     -97.10609      -23287652       1.0250029      224385.1      -23063267       787.91111      787.91111      787.91111      2106.0444      2893.9556      2106.0444      2893.9556      2106.0444      2893.9556      4.8913831e+08  0.5            8765200        1.5197292      6626.2092      13252.393      5.9299301    
  17525600   78650.439     -95.524753     -23279539       1.0250029      234207.58     -23045332       787.91111      787.91111      787.91111      2106.0444      2893.9556      2106.0444      2893.9556      2106.0444      2893.9556      4.8913831e+08  0.5            8765300        1.5350246      6537.889       13075.767      5.9165575    
  17525800   77967.485     -95.40555      -23271010       1.0250029      232173.86     -23038836       787.91111      787.91111      787.91111      2106.0444      2893.9556      2106.0444      2893.9556      2106.0444      2893.9556      4.8913831e+08  0.5            8765400        1.5497133      6807.9655      13615.924      5.9008376    
  17526000   73677.077     -97.20243      -23267592       1.0250029      219397.75     -23048194       787.91111      787.91111      787.91111      2106.0444      2893.9556      2106.0444      2893.9556      2106.0444      2893.9556      4.8913831e+08  0.5            8765500        1.564556       6737.3137      13474.633      5.8857169    
  17526200   71511.809     -97.502336     -23268386       1.0250029      212949.96     -23055436       787.91111      787.91111      787.91111      2106.0444      2893.9556      2106.0444      2893.9556      2106.0444      2893.9556      4.8913831e+08  0.5            8765600        1.5794847      6698.5069      13397.016      5.8709209    
  17526400   77314.738     -96.076976     -23267661       1.0250029      230230.09     -23037431       787.91111      787.91111      787.91111      2106.0444      2893.9556      2106.0444      2893.9556      2106.0444      2893.9556      4.8913831e+08  0.5            8765700        1.5942771      6760.2264      13520.45       5.8556221    
  17526600   80474.577     -92.354832     -23263361       1.0250029      239639.55     -23023722       787.91111      787.91111      787.91111      2106.0444      2893.9556      2106.0444      2893.9556      2106.0444      2893.9556      4.8913831e+08  0.5            8765800        1.6092981      6657.3482      13314.696      5.8411622    
  17526800   82418.355     -93.068516     -23262265       1.0250029      245427.79     -23016837       787.91111      787.91111      787.91111      2106.0444      2893.9556      2106.0444      2893.9556      2106.0444      2893.9556      4.8913831e+08  0.5            8765900        1.6246913      6496.3742      12992.741      5.8280272    
  17527000   81745.783     -91.254427     -23264947       1.0250029      243424.98     -23021522       787.91111      787.91111      787.91111      2106.0444      2893.9556      2106.0444      2893.9556      2106.0444      2893.9556      4.8913831e+08  0.5            8766000        1.6395531      6728.6496      13457.307      5.8129671    
  17527200   80360.924     -91.284255     -23263107       1.0250029      239301.11     -23023806       787.91111      787.91111      787.91111      2106.0444      2893.9556      2106.0444      2893.9556      2106.0444      2893.9556      4.8913831e+08  0.5            8766100        1.6543361      6764.5566      13529.099      5.7976341    
  17527400   82886.095     -89.772621     -23273926       1.0250029      246820.64     -23027106       787.91111      787.91111      787.91111      2106.0444      2893.9556      2106.0444      2893.9556      2106.0444      2893.9556      4.8913831e+08  0.5            8766200        1.6693526      6659.3072      13318.642      5.7831202    
  17527600   86344.64      -88.257495     -23280566       1.0250029      257119.59     -23023447       787.91111      787.91111      787.91111      2106.0444      2893.9556      2106.0444      2893.9556      2106.0444      2893.9556      4.8913831e+08  0.5            8766300        1.6841707      6748.5172      13497.028      5.7679176    
  17527800   84797.972     -88.204145     -23271278       1.0250029      252513.88     -23018764       787.91111      787.91111      787.91111      2106.0444      2893.9556      2106.0444      2893.9556      2106.0444      2893.9556      4.8913831e+08  0.5            8766400        1.6990106      6738.5822      13477.166      5.752796     
  17528000   82769.795     -88.342186     -23270921       1.0250029      246474.32     -23024447       787.91111      787.91111      787.91111      2106.0444      2893.9556      2106.0444      2893.9556      2106.0444      2893.9556      4.8913831e+08  0.5            8766500        1.7140455      6651.1863      13302.385      5.7383318    
  17528200   87065.241     -84.278304     -23262446       1.0250029      259265.42     -23003180       787.91111      787.91111      787.91111      2106.0444      2893.9556      2106.0444      2893.9556      2106.0444      2893.9556      4.8913831e+08  0.5            8766600        1.729153       6619.2166      13238.415      5.7240985    
  17528400   89962.802     -82.470172     -23260924       1.0250029      267893.86     -22993030       787.91111      787.91111      787.91111      2106.0444      2893.9556      2106.0444      2893.9556      2106.0444      2893.9556      4.8913831e+08  0.5            8766700        1.7439883      6740.708       13481.359      5.7089588    
  17528600   86530.309     -84.645971     -23267516       1.0250029      257672.48     -23009843       787.91111      787.91111      787.91111      2106.0444      2893.9556      2106.0444      2893.9556      2106.0444      2893.9556      4.8913831e+08  0.5            8766800        1.7589529      6682.4502      13364.938      5.6942427    
  17528800   84993.78      -84.367462     -23266716       1.0250029      253096.96     -23013619       787.91111      787.91111      787.91111      2106.0444      2893.9556      2106.0444      2893.9556      2106.0444      2893.9556      4.8913831e+08  0.5            8766900        1.7738233      6724.7741      13449.564      5.6792212    
  17529000   89744.407     -81.468122     -23263695       1.0250029      267243.52     -22996451       787.91111      787.91111      787.91111      2106.0444      2893.9556      2106.0444      2893.9556      2106.0444      2893.9556      4.8913831e+08  0.5            8767000        1.788618       6759.138       13518.254      5.6639625    
  17529200   91140.815     -81.394017     -23261369       1.0250029      271401.78     -22989967       787.91111      787.91111      787.91111      2106.0444      2893.9556      2106.0444      2893.9556      2106.0444      2893.9556      4.8913831e+08  0.5            8767100        1.8036107      6669.9487      13339.93       5.6493311    
  17529400   89769.03      -81.876541     -23264008       1.0250029      267316.84     -22996691       787.91111      787.91111      787.91111      2106.0444      2893.9556      2106.0444      2893.9556      2106.0444      2893.9556      4.8913831e+08  0.5            8767200        1.8187545      6603.3576      13206.681      5.6351626    
  17529600   89864.67      -80.824045     -23257425       1.0250029      267601.64     -22989824       787.91111      787.91111      787.91111      2106.0444      2893.9556      2106.0444      2893.9556      2106.0444      2893.9556      4.8913831e+08  0.5            8767300        1.8337655      6661.7849      13323.606      5.6205708    
  17529800   94828.884     -80.368787     -23263720       1.0250029      282384.22     -22981336       787.91111      787.91111      787.91111      2106.0444      2893.9556      2106.0444      2893.9556      2106.0444      2893.9556      4.8913831e+08  0.5            8767400        1.8488198      6642.6235      13285.224      5.6061037    
  17530000   95984.801     -79.016818     -23258858       1.0250029      285826.35     -22973031       787.91111      787.91111      787.91111      2106.0444      2893.9556      2106.0444      2893.9556      2106.0444      2893.9556      4.8913831e+08  0.5            8767500        1.8636286      6752.7475      13505.502      5.5908906    
  17530200   92382.006     -78.964549     -23241173       1.0250029      275097.84     -22966075       787.91111      787.91111      787.91111      2106.0444      2893.9556      2106.0444      2893.9556      2106.0444      2893.9556      4.8913831e+08  0.5            8767600        1.8784385      6752.241       13504.434      5.5756876    
  17530400   92191.381     -77.936485     -23224308       1.0250029      274530.19     -22949778       787.91111      787.91111      787.91111      2106.0444      2893.9556      2106.0444      2893.9556      2106.0444      2893.9556      4.8913831e+08  0.5            8767700        1.8934098      6679.427       13358.89       5.5609646    
  17530600   94264.919     -77.107437     -23223436       1.0250029      280704.83     -22942731       787.91111      787.91111      787.91111      2106.0444      2893.9556      2106.0444      2893.9556      2106.0444      2893.9556      4.8913831e+08  0.5            8767800        1.9082087      6757.2448      13514.496      5.5457365    
  17530800   96595.383     -77.098412     -23219379       1.0250029      287644.55     -22931734       787.91111      787.91111      787.91111      2106.0444      2893.9556      2106.0444      2893.9556      2106.0444      2893.9556      4.8913831e+08  0.5            8767900        1.9233723      6594.7374      13189.498      5.531564     
  17531000   97373.067     -77.019402     -23220459       1.0250029      289960.37     -22930498       787.91111      787.91111      787.91111      2106.0444      2893.9556      2106.0444      2893.9556      2106.0444      2893.9556      4.8913831e+08  0.5            8768000        1.9385863      6572.899       13145.775      5.5175198    
  17531200   96379.29      -76.813903     -23220368       1.0250029      287001.07     -22933367       787.91111      787.91111      787.91111      2106.0444      2893.9556      2106.0444      2893.9556      2106.0444      2893.9556      4.8913831e+08  0.5            8768100        1.953349       6773.8052      13547.654      5.5021864    
  17531400   95507.507     -77.424072     -23223703       1.0250029      284405.05     -22939298       787.91111      787.91111      787.91111      2106.0444      2893.9556      2106.0444      2893.9556      2106.0444      2893.9556      4.8913831e+08  0.5            8768200        1.9684192      6635.616       13271.158      5.4877191    
  17531600   99041.909     -76.51874      -23222884       1.0250029      294929.89     -22927955       787.91111      787.91111      787.91111      2106.0444      2893.9556      2106.0444      2893.9556      2106.0444      2893.9556      4.8913831e+08  0.5            8768300        1.9831195      6802.6313      13605.317      5.4722214    
  17531800   101879.96     -75.368916     -23222012       1.0250029      303381.12     -22918631       787.91111      787.91111      787.91111      2106.0444      2893.9556      2106.0444      2893.9556      2106.0444      2893.9556      4.8913831e+08  0.5            8768400        1.9979024      6764.541       13529.07       5.4569619    
  17532000   99917.925     -76.063477     -23223688       1.0250029      297538.52     -22926149       787.91111      787.91111      787.91111      2106.0444      2893.9556      2106.0444      2893.9556      2106.0444      2893.9556      4.8913831e+08  0.5            8768500        2.0131936      6539.6899      13079.349      5.4430838    
  17532200   95503.473     -77.473722     -23224937       1.0250029      284393.03     -22940544       787.91111      787.91111      787.91111      2106.0444      2893.9556      2106.0444      2893.9556      2106.0444      2893.9556      4.8913831e+08  0.5            8768600        2.0284378      6559.9107      13119.828      5.4290586    
  17532400   98713.731     -76.031127     -23223522       1.0250029      293952.63     -22929570       787.91111      787.91111      787.91111      2106.0444      2893.9556      2106.0444      2893.9556      2106.0444      2893.9556      4.8913831e+08  0.5            8768700        2.043301       6727.9977      13456.002      5.4140066    
  17532600   104053.75     -73.519865     -23229355       1.0250029      309854.29     -22919500       787.91111      787.91111      787.91111      2106.0444      2893.9556      2106.0444      2893.9556      2106.0444      2893.9556      4.8913831e+08  0.5            8768800        2.0583166      6659.7414      13319.533      5.3993567    
  17532800   103503.32     -73.710947     -23216914       1.0250029      308215.21     -22908698       787.91111      787.91111      787.91111      2106.0444      2893.9556      2106.0444      2893.9556      2106.0444      2893.9556      4.8913831e+08  0.5            8768900        2.0730989      6764.8874      13529.76       5.3840956    
  17533000   101795.36     -72.978552     -23215532       1.0250029      303129.2      -22912403       787.91111      787.91111      787.91111      2106.0444      2893.9556      2106.0444      2893.9556      2106.0444      2893.9556      4.8913831e+08  0.5            8769000        2.0881816      6630.0907      13260.225      5.369614     
  17533200   103878.07     -72.254581     -23212544       1.0250029      309331.14     -22903213       787.91111      787.91111      787.91111      2106.0444      2893.9556      2106.0444      2893.9556      2106.0444      2893.9556      4.8913831e+08  0.5            8769100        2.1029809      6757.0645      13514.05       5.3544027    
  17533400   108834.05     -70.544528     -23199800       1.0250029      324089.21     -22875711       787.91111      787.91111      787.91111      2106.0444      2893.9556      2106.0444      2893.9556      2106.0444      2893.9556      4.8913831e+08  0.5            8769200        2.118123       6604.0946      13208.229      5.3400608    
  17533600   107049.63     -68.319855     -23193973       1.0250029      318775.52     -22875197       787.91111      787.91111      787.91111      2106.0444      2893.9556      2106.0444      2893.9556      2106.0444      2893.9556      4.8913831e+08  0.5            8769300        2.1334883      6508.2087      13016.438      5.3262649    
  17533800   103136.79     -70.020731     -23197723       1.0250029      307123.74     -22890599       787.91111      787.91111      787.91111      2106.0444      2893.9556      2106.0444      2893.9556      2106.0444      2893.9556      4.8913831e+08  0.5            8769400        2.1481841      6804.6315      13609.201      5.3107928    
  17534000   106434.09     -66.459121     -23190844       1.0250029      316942.54     -22873901       787.91111      787.91111      787.91111      2106.0444      2893.9556      2106.0444      2893.9556      2106.0444      2893.9556      4.8913831e+08  0.5            8769500        2.1631192      6695.6409      13391.294      5.2959167    
  17534200   112133.66     -64.211741     -23198263       1.0250029      333914.9      -22864348       787.91111      787.91111      787.91111      2106.0444      2893.9556      2106.0444      2893.9556      2106.0444      2893.9556      4.8913831e+08  0.5            8769600        2.1778594      6784.1873      13568.365      5.2805673    
  17534400   108809.74     -62.253805     -23197499       1.0250029      324016.83     -22873482       787.91111      787.91111      787.91111      2106.0444      2893.9556      2106.0444      2893.9556      2106.0444      2893.9556      4.8913831e+08  0.5            8769700        2.192655       6758.7415      13517.514      5.2653592    
  17534600   105635.67     -61.198133     -23204869       1.0250029      314565        -22890304       787.91111      787.91111      787.91111      2106.0444      2893.9556      2106.0444      2893.9556      2106.0444      2893.9556      4.8913831e+08  0.5            8769800        2.2076794      6655.8443      13311.683      5.2507009    
  17534800   110030.05     -58.808604     -23203733       1.0250029      327650.7      -22876082       787.91111      787.91111      787.91111      2106.0444      2893.9556      2106.0444      2893.9556      2106.0444      2893.9556      4.8913831e+08  0.5            8769900        2.2228646      6585.3664      13170.721      5.2364165    
  17535000   113360.08     -55.23199      -23203731       1.0250029      337566.96     -22866164       787.91111      787.91111      787.91111      2106.0444      2893.9556      2106.0444      2893.9556      2106.0444      2893.9556      4.8913831e+08  0.5            8770000        2.2380433      6588.1743      13176.356      5.222105     
  17535200   111683.35     -53.596893     -23201476       1.0250029      332573.94     -22868902       787.91111      787.91111      787.91111      2106.0444      2893.9556      2106.0444      2893.9556      2106.0444      2893.9556      4.8913831e+08  0.5            8770100        2.2528237      6765.7502      13531.494      5.2068612    
  17535400   110746.49     -51.551791     -23197732       1.0250029      329784.14     -22867948       787.91111      787.91111      787.91111      2106.0444      2893.9556      2106.0444      2893.9556      2106.0444      2893.9556      4.8913831e+08  0.5            8770200        2.2676538      6743.0274      13486.072      5.1917375    
  17535600   116032.55     -47.884476     -23196349       1.0250029      345525.11     -22850824       787.91111      787.91111      787.91111      2106.0444      2893.9556      2106.0444      2893.9556      2106.0444      2893.9556      4.8913831e+08  0.5            8770300        2.2826527      6667.16        13334.279      5.1770004    
  17535800   119322.43     -45.464613     -23200235       1.0250029      355321.82     -22844913       787.91111      787.91111      787.91111      2106.0444      2893.9556      2106.0444      2893.9556      2106.0444      2893.9556      4.8913831e+08  0.5            8770400        2.2974468      6759.4642      13518.96       5.1617997    
  17536000   114531.36     -44.374116     -23191109       1.0250029      341054.85     -22850054       787.91111      787.91111      787.91111      2106.0444      2893.9556      2106.0444      2893.9556      2106.0444      2893.9556      4.8913831e+08  0.5            8770500        2.312564       6614.9422      13229.857      5.1473237    
  17536200   113132.59     -42.288861     -23179432       1.0250029      336889.54     -22842542       787.91111      787.91111      787.91111      2106.0444      2893.9556      2106.0444      2893.9556      2106.0444      2893.9556      4.8913831e+08  0.5            8770600        2.3277514      6584.4172      13168.845      5.132994     
  17536400   115434.11     -39.555182     -23173561       1.0250029      343743.06     -22829818       787.91111      787.91111      787.91111      2106.0444      2893.9556      2106.0444      2893.9556      2106.0444      2893.9556      4.8913831e+08  0.5            8770700        2.3425872      6740.4912      13481.001      5.117885     
  17536600   117702.4      -36.478539     -23172067       1.0250029      350497.66     -22821569       787.91111      787.91111      787.91111      2106.0444      2893.9556      2106.0444      2893.9556      2106.0444      2893.9556      4.8913831e+08  0.5            8770800        2.3576174      6653.2152      13306.442      5.1032008    
  17536800   117844.77     -35.369589     -23174386       1.0250029      350921.6      -22823464       787.91111      787.91111      787.91111      2106.0444      2893.9556      2106.0444      2893.9556      2106.0444      2893.9556      4.8913831e+08  0.5            8770900        2.3723674      6779.7111      13559.403      5.0879109    
  17537000   117706.76     -32.570829     -23172999       1.0250029      350510.63     -22822488       787.91111      787.91111      787.91111      2106.0444      2893.9556      2106.0444      2893.9556      2106.0444      2893.9556      4.8913831e+08  0.5            8771000        2.3872641      6712.8551      13425.69       5.07294      
  17537200   118458.14     -31.56769      -23172695       1.0250029      352748.12     -22819947       787.91111      787.91111      787.91111      2106.0444      2893.9556      2106.0444      2893.9556      2106.0444      2893.9556      4.8913831e+08  0.5            8771100        2.4023385      6633.7584      13267.537      5.0583437    
  17537400   120104.22     -27.974778     -23172445       1.0250029      357649.85     -22814795       787.91111      787.91111      787.91111      2106.0444      2893.9556      2106.0444      2893.9556      2106.0444      2893.9556      4.8913831e+08  0.5            8771200        2.4173118      6678.5746      13357.146      5.0435306    
  17537600   122503.64     -25.893274     -23180270       1.0250029      364794.93     -22815475       787.91111      787.91111      787.91111      2106.0444      2893.9556      2106.0444      2893.9556      2106.0444      2893.9556      4.8913831e+08  0.5            8771300        2.4329302      6402.6893      12805.357      5.0300495    
  17537800   129400.34     -22.078633     -23179076       1.0250029      385332.11     -22793744       787.91111      787.91111      787.91111      2106.0444      2893.9556      2106.0444      2893.9556      2106.0444      2893.9556      4.8913831e+08  0.5            8771400        2.4478568      6699.4619      13398.949      5.0151247    
  17538000   125768.66     -19.535287     -23153373       1.0250029      374517.58     -22778855       787.91111      787.91111      787.91111      2106.0444      2893.9556      2106.0444      2893.9556      2106.0444      2893.9556      4.8913831e+08  0.5            8771500        2.4627456      6716.4837      13432.974      5.0001232    
  17538200   119548.27     -20.279849     -23153556       1.0250029      355994.33     -22797561       787.91111      787.91111      787.91111      2106.0444      2893.9556      2106.0444      2893.9556      2106.0444      2893.9556      4.8913831e+08  0.5            8771600        2.477759       6660.6867      13321.385      4.9853738    
  17538400   121437.85     -15.585025     -23154075       1.0250029      361621.19     -22792454       787.91111      787.91111      787.91111      2106.0444      2893.9556      2106.0444      2893.9556      2106.0444      2893.9556      4.8913831e+08  0.5            8771700        2.4925927      6741.4455      13482.855      4.9702629    
  17538600   125856.32     -13.77891      -23164162       1.0250029      374778.62     -22789383       787.91111      787.91111      787.91111      2106.0444      2893.9556      2106.0444      2893.9556      2106.0444      2893.9556      4.8913831e+08  0.5            8771800        2.5073852      6760.1451      13520.322      4.955074     
  17538800   126289.03     -10.383917     -23154867       1.0250029      376067.18     -22778800       787.91111      787.91111      787.91111      2106.0444      2893.9556      2106.0444      2893.9556      2106.0444      2893.9556      4.8913831e+08  0.5            8771900        2.5228784      6454.462       12908.922      4.941262     
  17539000   124904.24     -7.7383419     -23159937       1.0250029      371943.49     -22787994       787.91111      787.91111      787.91111      2106.0444      2893.9556      2106.0444      2893.9556      2106.0444      2893.9556      4.8913831e+08  0.5            8772000        2.5379962      6614.7011      13229.385      4.9267018    
  17539200   126406.33     -4.9624828     -23167613       1.0250029      376416.47     -22791196       787.91111      787.91111      787.91111      2106.0444      2893.9556      2106.0444      2893.9556      2106.0444      2893.9556      4.8913831e+08  0.5            8772100        2.553185       6583.8077      13167.618      4.9122714    
  17539400   135284.63     -0.1126132     -23181078       1.0250029      402854.53     -22778223       787.91111      787.91111      787.91111      2106.0444      2893.9556      2106.0444      2893.9556      2106.0444      2893.9556      4.8913831e+08  0.5            8772200        2.5680504      6727.0251      13454.101      4.8972154    
  17539600   129799.12      0.50847655    -23177069       1.0250029      386519.62     -22790549       787.91111      787.91111      787.91111      2106.0444      2893.9556      2106.0444      2893.9556      2106.0444      2893.9556      4.8913831e+08  0.5            8772300        2.5828375      6762.6471      13525.284      4.8820139    
  17539800   124832.66      2.4557646     -23175015       1.0250029      371730.35     -22803284       787.91111      787.91111      787.91111      2106.0444      2893.9556      2106.0444      2893.9556      2106.0444      2893.9556      4.8913831e+08  0.5            8772400        2.5978966      6640.515       13280.943      4.8673267    
  17540000   127783.33      6.6470153     -23172635       1.0250029      380516.92     -22792118       787.91111      787.91111      787.91111      2106.0444      2893.9556      2106.0444      2893.9556      2106.0444      2893.9556      4.8913831e+08  0.5            8772500        2.6129462      6644.679       13289.373      4.8526176    
  17540200   132152.33      9.3081752     -23167155       1.0250029      393527.06     -22773628       787.91111      787.91111      787.91111      2106.0444      2893.9556      2106.0444      2893.9556      2106.0444      2893.9556      4.8913831e+08  0.5            8772600        2.6281607      6572.6709      13145.381      4.8382081    
  17540400   131562.23      12.731381     -23158103       1.0250029      391769.86     -22766333       787.91111      787.91111      787.91111      2106.0444      2893.9556      2106.0444      2893.9556      2106.0444      2893.9556      4.8913831e+08  0.5            8772700        2.6433135      6599.4526      13198.887      4.8236768    
  17540600   130614.46      15.36145      -23157639       1.0250029      388947.56     -22768692       787.91111      787.91111      787.91111      2106.0444      2893.9556      2106.0444      2893.9556      2106.0444      2893.9556      4.8913831e+08  0.5            8772800        2.6582468      6696.4363      13392.883      4.8087417    
  17540800   132081.28      17.439148     -23164931       1.0250029      393315.5      -22771616       787.91111      787.91111      787.91111      2106.0444      2893.9556      2106.0444      2893.9556      2106.0444      2893.9556      4.8913831e+08  0.5            8772900        2.6733486      6621.7456      13243.509      4.7941085    
  17541000   139955.86      23.202936     -23150431       1.0250029      416764.65     -22733666       787.91111      787.91111      787.91111      2106.0444      2893.9556      2106.0444      2893.9556      2106.0444      2893.9556      4.8913831e+08  0.5            8773000        2.6883004      6688.1611      13376.344      4.7792036    
  17541200   141465.78      27.451908     -23166848       1.0250029      421260.93     -22745587       787.91111      787.91111      787.91111      2106.0444      2893.9556      2106.0444      2893.9556      2106.0444      2893.9556      4.8913831e+08  0.5            8773100        2.7031854      6718.1424      13436.254      4.7641806    
  17541400   134422.45      25.778476     -23157685       1.0250029      400287.11     -22757398       787.91111      787.91111      787.91111      2106.0444      2893.9556      2106.0444      2893.9556      2106.0444      2893.9556      4.8913831e+08  0.5            8773200        2.7184251      6561.8171      13123.628      4.7497787    
  17541600   133394.84      28.511314     -23154016       1.0250029      397227.04     -22756789       787.91111      787.91111      787.91111      2106.0444      2893.9556      2106.0444      2893.9556      2106.0444      2893.9556      4.8913831e+08  0.5            8773300        2.7336981      6547.5141      13095.029      4.7354252    
  17541800   136507.24      31.983713     -23161526       1.0250029      406495.25     -22755031       787.91111      787.91111      787.91111      2106.0444      2893.9556      2106.0444      2893.9556      2106.0444      2893.9556      4.8913831e+08  0.5            8773400        2.7486206      6701.2702      13402.507      4.7204601    
  17542000   140351.46      35.937317     -23161999       1.0250029      417942.69     -22744056       787.91111      787.91111      787.91111      2106.0444      2893.9556      2106.0444      2893.9556      2106.0444      2893.9556      4.8913831e+08  0.5            8773500        2.7636824      6639.3497      13278.714      4.7057323    
  17542200   138982.47      37.939639     -23169061       1.0250029      413866.08     -22755195       787.91111      787.91111      787.91111      2106.0444      2893.9556      2106.0444      2893.9556      2106.0444      2893.9556      4.8913831e+08  0.5            8773600        2.7785783      6713.2504      13426.505      4.6907211    
  17542400   130635.63      37.9701       -23157309       1.0250029      389010.6      -22768299       787.91111      787.91111      787.91111      2106.0444      2893.9556      2106.0444      2893.9556      2106.0444      2893.9556      4.8913831e+08  0.5            8773700        2.7937286      6600.532       13201.062      4.6761366    
  17542600   133880.63      40.204392     -23161213       1.0250029      398673.65     -22762539       787.91111      787.91111      787.91111      2106.0444      2893.9556      2106.0444      2893.9556      2106.0444      2893.9556      4.8913831e+08  0.5            8773800        2.8086242      6713.3829      13426.757      4.6611239    
  17542800   140328.78      43.151023     -23160880       1.0250029      417875.14     -22743005       787.91111      787.91111      787.91111      2106.0444      2893.9556      2106.0444      2893.9556      2106.0444      2893.9556      4.8913831e+08  0.5            8773900        2.8238581      6564.3219      13128.693      4.6466685    
  17543000   141575.77      46.736163     -23170659       1.0250029      421588.47     -22749070       787.91111      787.91111      787.91111      2106.0444      2893.9556      2106.0444      2893.9556      2106.0444      2893.9556      4.8913831e+08  0.5            8774000        2.8390713      6573.2058      13146.365      4.6321717    
  17543200   141488.91      47.028433     -23167500       1.0250029      421329.83     -22746170       787.91111      787.91111      787.91111      2106.0444      2893.9556      2106.0444      2893.9556      2106.0444      2893.9556      4.8913831e+08  0.5            8774100        2.8539321      6729.1137      13458.282      4.6170971    
  17543400   141999.2       47.391854     -23175280       1.0250029      422849.38     -22752430       787.91111      787.91111      787.91111      2106.0444      2893.9556      2106.0444      2893.9556      2106.0444      2893.9556      4.8913831e+08  0.5            8774200        2.8687431      6751.7427      13503.464      4.6019448    
  17543600   145424.23      50.537889     -23176157       1.0250029      433048.52     -22743108       787.91111      787.91111      787.91111      2106.0444      2893.9556      2106.0444      2893.9556      2106.0444      2893.9556      4.8913831e+08  0.5            8774300        2.8838091      6637.4543      13274.879      4.5872018    
  17543800   147362.03      51.840176     -23170287       1.0250029      438818.96     -22731468       787.91111      787.91111      787.91111      2106.0444      2893.9556      2106.0444      2893.9556      2106.0444      2893.9556      4.8913831e+08  0.5            8774400        2.8987386      6698.1816      13396.413      4.5722397    
  17544000   142109.06      52.049842     -23169051       1.0250029      423176.51     -22745875       787.91111      787.91111      787.91111      2106.0444      2893.9556      2106.0444      2893.9556      2106.0444      2893.9556      4.8913831e+08  0.5            8774500        2.9139395      6578.557       13157.081      4.5577028    
  17544200   138265.88      52.426303     -23174983       1.0250029      411732.19     -22763251       787.91111      787.91111      787.91111      2106.0444      2893.9556      2106.0444      2893.9556      2106.0444      2893.9556      4.8913831e+08  0.5            8774600        2.9292476      6532.4881      13064.957      4.5433254    
  17544400   147229.79      54.589611     -23174021       1.0250029      438425.17     -22735596       787.91111      787.91111      787.91111      2106.0444      2893.9556      2106.0444      2893.9556      2106.0444      2893.9556      4.8913831e+08  0.5            8774700        2.9442435      6668.5032      13337.029      4.5284582    
  17544600   149499.83      56.882064     -23173042       1.0250029      445184.98     -22727857       787.91111      787.91111      787.91111      2106.0444      2893.9556      2106.0444      2893.9556      2106.0444      2893.9556      4.8913831e+08  0.5            8774800        2.9593474      6620.7908      13241.572      4.5137546    
  17544800   146292.38      55.031646     -23182468       1.0250029      435633.73     -22746835       787.91111      787.91111      787.91111      2106.0444      2893.9556      2106.0444      2893.9556      2106.0444      2893.9556      4.8913831e+08  0.5            8774900        2.9741766      6743.433       13486.871      4.4986314    
  17545000   144754.9       55.181787     -23181509       1.0250029      431055.37     -22750454       787.91111      787.91111      787.91111      2106.0444      2893.9556      2106.0444      2893.9556      2106.0444      2893.9556      4.8913831e+08  0.5            8775000        2.9890777      6710.936       13421.887      4.483619     
  17545200   152120.09      58.571246     -23178615       1.0250029      452987.65     -22725627       787.91111      787.91111      787.91111      2106.0444      2893.9556      2106.0444      2893.9556      2106.0444      2893.9556      4.8913831e+08  0.5            8775100        3.0041041      6654.9136      13309.849      4.4687941    
  17545400   155768.53      61.779853     -23175941       1.0250029      463852.07     -22712089       787.91111      787.91111      787.91111      2106.0444      2893.9556      2106.0444      2893.9556      2106.0444      2893.9556      4.8913831e+08  0.5            8775200        3.0191556      6643.8782      13287.762      4.4540042    
  17545600   149589.14      60.315811     -23171104       1.0250029      445450.92     -22725654       787.91111      787.91111      787.91111      2106.0444      2893.9556      2106.0444      2893.9556      2106.0444      2893.9556      4.8913831e+08  0.5            8775300        3.0348542      6369.9814      12739.879      4.4401587    
  17545800   147936.06      61.691089     -23151214       1.0250029      440528.33     -22710686       787.91111      787.91111      787.91111      2106.0444      2893.9556      2106.0444      2893.9556      2106.0444      2893.9556      4.8913831e+08  0.5            8775400        3.0498271      6678.7329      13357.5        4.4252419    
  17546000   150534.72      63.783336     -23152071       1.0250029      448266.69     -22703804       787.91111      787.91111      787.91111      2106.0444      2893.9556      2106.0444      2893.9556      2106.0444      2893.9556      4.8913831e+08  0.5            8775500        3.0650614      6564.137       13128.265      4.4107007    
  17546200   153196.39      65.200788     -23143200       1.0250029      456192.68     -22687007       787.91111      787.91111      787.91111      2106.0444      2893.9556      2106.0444      2893.9556      2106.0444      2893.9556      4.8913831e+08  0.5            8775600        3.0807355      6379.926       12759.753      4.3967807    
  17546400   153973.77      65.861651     -23141584       1.0250029      458507.6      -22683076       787.91111      787.91111      787.91111      2106.0444      2893.9556      2106.0444      2893.9556      2106.0444      2893.9556      4.8913831e+08  0.5            8775700        3.0958359      6622.3854      13244.908      4.382031     
  17546600   153924.56      68.480697     -23137643       1.0250029      458361.04     -22679282       787.91111      787.91111      787.91111      2106.0444      2893.9556      2106.0444      2893.9556      2106.0444      2893.9556      4.8913831e+08  0.5            8775800        3.111304       6464.8855      12929.783      4.3677946    
  17546800   156320.74      70.00705      -23136264       1.0250029      465496.47     -22670767       787.91111      787.91111      787.91111      2106.0444      2893.9556      2106.0444      2893.9556      2106.0444      2893.9556      4.8913831e+08  0.5            8775900        3.1268727      6423.1567      12846.291      4.3536864    
  17547000   157809.96      71.258032     -23134389       1.0250029      469931.11     -22664458       787.91111      787.91111      787.91111      2106.0444      2893.9556      2106.0444      2893.9556      2106.0444      2893.9556      4.8913831e+08  0.5            8776000        3.1420842      6573.9836      13147.98       4.339071     
  17547200   155436.52      72.601948     -23127004       1.0250029      462863.42     -22664140       787.91111      787.91111      787.91111      2106.0444      2893.9556      2106.0444      2893.9556      2106.0444      2893.9556      4.8913831e+08  0.5            8776100        3.1572404      6597.9839      13195.976      4.3243741    
  17547400   153406.38      72.93331      -23138092       1.0250029      456818        -22681274       787.91111      787.91111      787.91111      2106.0444      2893.9556      2106.0444      2893.9556      2106.0444      2893.9556      4.8913831e+08  0.5            8776200        3.1721467      6708.5603      13417.105      4.3093337    
  17547600   159062.45      76.874843     -23136494       1.0250029      473660.82     -22662833       787.91111      787.91111      787.91111      2106.0444      2893.9556      2106.0444      2893.9556      2106.0444      2893.9556      4.8913831e+08  0.5            8776300        3.187298       6600.0824      13200.142      4.2946245    
  17547800   163942.75      79.022802     -23132549       1.0250029      488193.5      -22644356       787.91111      787.91111      787.91111      2106.0444      2893.9556      2106.0444      2893.9556      2106.0444      2893.9556      4.8913831e+08  0.5            8776400        3.2020814      6764.3328      13528.706      4.2794195    
  17548000   158621.12      80.249883     -23123421       1.0250029      472346.61     -22651075       787.91111      787.91111      787.91111      2106.0444      2893.9556      2106.0444      2893.9556      2106.0444      2893.9556      4.8913831e+08  0.5            8776500        3.2170271      6690.9047      13381.777      4.2644335    
  17548200   152478.59      80.5221       -23099578       1.0250029      454055.2      -22645523       787.91111      787.91111      787.91111      2106.0444      2893.9556      2106.0444      2893.9556      2106.0444      2893.9556      4.8913831e+08  0.5            8776600        3.2324658      6477.2306      12954.507      4.2500961    
  17548400   162341.66      83.19446      -23104562       1.0250029      483425.74     -22621136       787.91111      787.91111      787.91111      2106.0444      2893.9556      2106.0444      2893.9556      2106.0444      2893.9556      4.8913831e+08  0.5            8776700        3.2472808      6749.9051      13499.753      4.2349353    
  17548600   166793.56      86.79317      -23119074       1.0250029      496682.75     -22622391       787.91111      787.91111      787.91111      2106.0444      2893.9556      2106.0444      2893.9556      2106.0444      2893.9556      4.8913831e+08  0.5            8776800        3.2622729      6670.181       13340.384      4.2200065    
  17548800   160386.38      87.011377     -23109536       1.0250029      477603.25     -22631933       787.91111      787.91111      787.91111      2106.0444      2893.9556      2106.0444      2893.9556      2106.0444      2893.9556      4.8913831e+08  0.5            8776900        3.2770739      6756.3208      13512.632      4.2048321    
  17549000   157180.43      87.476881     -23093817       1.0250029      468056.48     -22625760       787.91111      787.91111      787.91111      2106.0444      2893.9556      2106.0444      2893.9556      2106.0444      2893.9556      4.8913831e+08  0.5            8777000        3.2920235      6689.1422      13378.308      4.1898502    
  17549200   164767.45      91.889858     -23084776       1.0250029      490649.34     -22594127       787.91111      787.91111      787.91111      2106.0444      2893.9556      2106.0444      2893.9556      2106.0444      2893.9556      4.8913831e+08  0.5            8777100        3.3070254      6665.7828      13331.562      4.1749346    
  17549400   168141.43      95.454926     -23072290       1.0250029      500696.46     -22571594       787.91111      787.91111      787.91111      2106.0444      2893.9556      2106.0444      2893.9556      2106.0444      2893.9556      4.8913831e+08  0.5            8777200        3.322293       6549.8269      13099.648      4.1603511    
  17549600   164867.79      95.696655     -23077503       1.0250029      490948.12     -22586555       787.91111      787.91111      787.91111      2106.0444      2893.9556      2106.0444      2893.9556      2106.0444      2893.9556      4.8913831e+08  0.5            8777300        3.3375149      6569.4791      13138.969      4.1457045    
  17549800   163295.13      97.828565     -23081789       1.0250029      486265.01     -22595524       787.91111      787.91111      787.91111      2106.0444      2893.9556      2106.0444      2893.9556      2106.0444      2893.9556      4.8913831e+08  0.5            8777400        3.352307       6760.3457      13520.64       4.1305233    
[...]
  18194400   310.89426      6.2089294     -23452823       1.0953227      925.79003     -23451897       770.67551      770.67551      770.67551      2114.6622      2885.3378      2114.6622      2885.3378      2114.6622      2885.3378      4.5773559e+08  0.5            9099700        24.543374      5937.07        11874.128      0.89896263   
  18194600   310.52388     -0.067579034   -23452956       1.0951472      924.68709     -23452032       770.71667      770.71667      770.71667      2114.6417      2885.3583      2114.6417      2885.3583      2114.6417      2885.3583      4.5780893e+08  0.5            9099800        24.560198      5943.8445      11887.721      0.88199613   
  18194800   310.28569     -3.754564      -23453084       1.0950534      923.97779     -23452160       770.73868      770.73868      770.73868      2114.6307      2885.3693      2114.6307      2885.3693      2114.6307      2885.3693      4.5784815e+08  0.5            9099900        24.57719       5885.2301      11770.479      0.86503573   
  18195000   310.01724      5.2260706     -23453212       1.095352       923.17839     -23452288       770.66864      770.66864      770.66864      2114.6657      2885.3343      2114.6657      2885.3343      2114.6657      2885.3343      4.5772334e+08  0.5            9100000        24.59416       5892.5609      11785.08       0.84807457   
  18195200   310.4399       2.5693546     -23453343       1.0952902      924.43701     -23452418       770.68312      770.68312      770.68312      2114.6584      2885.3416      2114.6584      2885.3416      2114.6584      2885.3416      4.5774915e+08  0.5            9100100        24.611526      5758.4129      11516.866      0.83112673   
  18195400   310.68655     -3.2295492     -23453473       1.0951313      925.17151     -23452548       770.72041      770.72041      770.72041      2114.6398      2885.3602      2114.6398      2885.3602      2114.6398      2885.3602      4.578156e+08   0.5            9100200        24.62827       5972.5219      11945.016      0.81415774   
  18195600   310.70363     -0.56271734    -23453604       1.0952325      925.22234     -23452679       770.69668      770.69668      770.69668      2114.6517      2885.3483      2114.6517      2885.3483      2114.6517      2885.3483      4.577733e+08   0.5            9100300        24.645159      5920.9099      11841.858      0.79719378   
  18195800   310.58183      2.9405313     -23453733       1.0953585      924.85964     -23452808       770.66711      770.66711      770.66711      2114.6664      2885.3336      2114.6664      2885.3336      2114.6664      2885.3336      4.5772061e+08  0.5            9100400        24.661941      5958.5828      11917.153      0.78022654   
  18196000   310.1177       0.4632189     -23454232       1.0953052      923.47757     -23453308       770.6796       770.6796       770.6796       2114.6602      2885.3398      2114.6602      2885.3398      2114.6602      2885.3398      4.5774288e+08  0.5            9100500        24.678836      5919.1765      11838.321      0.76326302   
  18196200   310.45994     -1.2911861     -23454362       1.0952739      924.49669     -23453437       770.68696      770.68696      770.68696      2114.6565      2885.3435      2114.6565      2885.3435      2114.6565      2885.3435      4.5775598e+08  0.5            9100600        24.69594       5846.574       11693.159      0.74630593   
  18196400   310.72221     -0.76029576    -23454492       1.0953117      925.27768     -23453567       770.6781       770.6781       770.6781       2114.6609      2885.3391      2114.6609      2885.3391      2114.6609      2885.3391      4.577402e+08   0.5            9100700        24.71304       5847.9737      11695.933      0.72934852   
  18196600   310.72518      2.6801186     -23456517       1.0954401      925.28652     -23455591       770.64798      770.64798      770.64798      2114.676       2885.324       2114.676       2885.324       2114.676       2885.324       4.5768654e+08  0.5            9100800        24.72987       5941.6842      11883.365      0.71238314   
  18196800   310.59288     -0.15341169    -23457016       1.0953743      924.89255     -23456091       770.66342      770.66342      770.66342      2114.6683      2885.3317      2114.6683      2885.3317      2114.6683      2885.3317      4.5771404e+08  0.5            9100900        24.746767      5918.1095      11836.236      0.69541983   
  18197000   310.28803     -0.03481463    -23457147       1.095397       923.98476     -23456223       770.65809      770.65809      770.65809      2114.671       2885.329       2114.671       2885.329       2114.671       2885.329       4.5770454e+08  0.5            9101000        24.763586      5945.6602      11891.303      0.67845447   
  18197200   310.63611      1.7921856     -23457277       1.095471       925.02129     -23456352       770.64074      770.64074      770.64074      2114.6796      2885.3204      2114.6796      2885.3204      2114.6796      2885.3204      4.5767363e+08  0.5            9101100        24.780378      5955.4292      11910.891      0.66148857   
  18197400   310.71457      1.3238517     -23457408       1.0954705      925.25493     -23456483       770.64084      770.64084      770.64084      2114.6796      2885.3204      2114.6796      2885.3204      2114.6796      2885.3204      4.5767381e+08  0.5            9101200        24.797471      5850.0904      11700.192      0.64453077   
  18197600   310.47402      2.0116949     -23457538       1.095505       924.5386      -23456614       770.63277      770.63277      770.63277      2114.6836      2885.3164      2114.6836      2885.3164      2114.6836      2885.3164      4.5765943e+08  0.5            9101300        24.814628      5828.6383      11657.266      0.62757437   
  18197800   310.34746      1.6977241     -23465045       1.0955205      924.16174     -23464121       770.62912      770.62912      770.62912      2114.6854      2885.3146      2114.6854      2885.3146      2114.6854      2885.3146      4.5765293e+08  0.5            9101400        24.83146       5940.9866      11881.985      0.61060972   
  18198000   310.08553      0.9464061     -23465174       1.0955167      923.38176     -23464251       770.63002      770.63002      770.63002      2114.685       2885.315       2114.685       2885.315       2114.685       2885.315       4.5765453e+08  0.5            9101500        24.848301      5938.1157      11876.204      0.59364545   
  18198200   310.45141      1.5064116     -23465672       1.0955579      924.47129     -23464747       770.62035      770.62035      770.62035      2114.6898      2885.3102      2114.6898      2885.3102      2114.6898      2885.3102      4.576373e+08   0.5            9101600        24.86519       5920.9039      11841.842      0.57668248   
  18198400   310.71836      0.69880112    -23465802       1.0955551      925.26623     -23464877       770.62101      770.62101      770.62101      2114.6895      2885.3105      2114.6895      2885.3105      2114.6895      2885.3105      4.5763847e+08  0.5            9101700        24.881944      5968.7424      11937.485      0.55971657   
  18198600   310.89664      0.45818392    -23465933       1.095569       925.7971      -23465007       770.61776      770.61776      770.61776      2114.6911      2885.3089      2114.6911      2885.3089      2114.6911      2885.3089      4.576327e+08   0.5            9101800        24.899183      5800.8688      11601.744      0.54276151   
  18198800   310.87884      1.8712021     -23458686       1.0956233      925.74411     -23457761       770.60503      770.60503      770.60503      2114.6975      2885.3025      2114.6975      2885.3025      2114.6975      2885.3025      4.5761001e+08  0.5            9101900        24.916276      5850.2095      11700.415      0.525803     
  18199000   310.39411      0.36585424    -23458819       1.0955965      924.30065     -23457894       770.61131      770.61131      770.61131      2114.6943      2885.3057      2114.6943      2885.3057      2114.6943      2885.3057      4.5762121e+08  0.5            9102000        24.932999      5979.956       11959.855      0.50883675   
  18199200   310.56737      1.1779561     -23458950       1.0956439      924.8166      -23458025       770.60019      770.60019      770.60019      2114.6999      2885.3001      2114.6999      2885.3001      2114.6999      2885.3001      4.5760138e+08  0.5            9102100        24.94987       5927.326       11854.689      0.49187374   
  18199400   310.80918      1.5483502     -23459082       1.0956801      925.53666     -23458156       770.59171      770.59171      770.59171      2114.7041      2885.2959      2114.7041      2885.2959      2114.7041      2885.2959      4.5758629e+08  0.5            9102200        24.966674      5950.7148      11901.431      0.4749096    
  18199600   310.92259     -0.55623764    -23459215       1.0956391      925.87438     -23458289       770.60132      770.60132      770.60132      2114.6993      2885.3007      2114.6993      2885.3007      2114.6993      2885.3007      4.5760341e+08  0.5            9102300        24.983415      5973.5547      11947.108      0.4579445    
  18199800   310.851        2.5554516     -23459347       1.0957573      925.66121     -23458422       770.57362      770.57362      770.57362      2114.7132      2885.2868      2114.7132      2885.2868      2114.7132      2885.2868      4.5755406e+08  0.5            9102400        25.000728      5775.9141      11551.818      0.44098981   
  18200000   310.34351      2.1892932     -23459480       1.0957657      924.14997     -23458556       770.57163      770.57163      770.57163      2114.7142      2885.2858      2114.7142      2885.2858      2114.7142      2885.2858      4.5755051e+08  0.5            9102500        25.017693      5894.6353      11789.274      0.42402872   
  18200200   310.49729     -1.2199248     -23459612       1.0956795      924.60791     -23458687       770.59184      770.59184      770.59184      2114.7041      2885.2959      2114.7041      2885.2959      2114.7041      2885.2959      4.5758651e+08  0.5            9102600        25.034432      5974.0968      11948.191      0.40706396   
  18200400   310.72314     -1.662993      -23459744       1.0956852      925.28044     -23458818       770.5905       770.5905       770.5905       2114.7047      2885.2953      2114.7047      2885.2953      2114.7047      2885.2953      4.5758413e+08  0.5            9102700        25.051536      5846.2646      11692.522      0.3901052    
  18200600   310.78506      0.0081690952  -23459876       1.0957556      925.46485     -23458951       770.574        770.574        770.574        2114.713       2885.287       2114.713       2885.287       2114.713       2885.287       4.5755474e+08  0.5            9102800        25.06845       5912.3767      11824.762      0.3731434    
  18200800   310.57116      1.5560477     -23460007       1.0958212      924.8279      -23459082       770.55864      770.55864      770.55864      2114.7207      2885.2793      2114.7207      2885.2793      2114.7207      2885.2793      4.5752737e+08  0.5            9102900        25.085308      5931.9422      11863.868      0.35618087   
  18201000   309.95064      3.7636335     -23460136       1.0959079      922.98007     -23459213       770.53832      770.53832      770.53832      2114.7308      2885.2692      2114.7308      2885.2692      2114.7308      2885.2692      4.5749117e+08  0.5            9103000        25.10272       5743.0706      11486.149      0.33922598   
  18201200   310.18245      1.4883709     -23462161       1.0958632      923.67037     -23461237       770.5488       770.5488       770.5488       2114.7256      2885.2744      2114.7256      2885.2744      2114.7256      2885.2744      4.5750984e+08  0.5            9103100        25.1197        5889.3984      11778.829      0.32226491   
  18201400   310.57832     -4.1356772     -23462289       1.0957131      924.84919     -23461364       770.58396      770.58396      770.58396      2114.708       2885.292       2114.708       2885.292       2114.708       2885.292       4.5757248e+08  0.5            9103200        25.136488      5956.7123      11913.42       0.30530149   
  18201600   310.95928      1.6238826     -23464316       1.0959158      925.98365     -23463390       770.53646      770.53646      770.53646      2114.7318      2885.2682      2114.7318      2885.2682      2114.7318      2885.2682      4.5748786e+08  0.5            9103300        25.153431      5901.9056      11803.819      0.2883401    
  18201800   311.06763      4.4486078     -23464447       1.096022       926.30629     -23463520       770.51156      770.51156      770.51156      2114.7442      2885.2558      2114.7442      2885.2558      2114.7442      2885.2558      4.5744352e+08  0.5            9103400        25.170231      5952.5716      11905.131      0.27137717   
  18202000   310.38498      4.4133846     -23464578       1.096039       924.27346     -23463654       770.50759      770.50759      770.50759      2114.7462      2885.2538      2114.7462      2885.2538      2114.7462      2885.2538      4.5743645e+08  0.5            9103500        25.187108      5925.0134      11850.012      0.25441526   
  18202200   310.2961      -1.5621812     -23464710       1.0958749      924.00881     -23463786       770.54603      770.54603      770.54603      2114.727       2885.273       2114.727       2885.273       2114.727       2885.273       4.5750492e+08  0.5            9103600        25.204318      5810.7117      11621.414      0.23745658   
  18202400   310.51492      4.796037      -23472217       1.0960968      924.66042     -23471292       770.49405      770.49405      770.49405      2114.753       2885.247       2114.753       2885.247       2114.753       2885.247       4.5741232e+08  0.5            9103700        25.22118       5930.592       11861.217      0.22049453   
  18202600   310.80457      4.254151      -23472349       1.0960993      925.52294     -23471423       770.49347      770.49347      770.49347      2114.7533      2885.2467      2114.7533      2885.2467      2114.7533      2885.2467      4.5741129e+08  0.5            9103800        25.237927      5971.069       11942.096      0.20353169   
  18202800   310.963        3.2508466     -23472482       1.0960863      925.99472     -23471556       770.4965       770.4965       770.4965       2114.7517      2885.2483      2114.7517      2885.2483      2114.7517      2885.2483      4.574167e+08   0.5            9103900        25.254784      5932.3599      11864.741      0.18656994   
  18203000   310.47479      0.4041099     -23472615       1.0960161      924.54091     -23471691       770.51294      770.51294      770.51294      2114.7435      2885.2565      2114.7435      2885.2565      2114.7435      2885.2565      4.5744598e+08  0.5            9104000        25.271724      5903.1253      11806.214      0.1696089    
  18203200   310.33882     -1.0093812     -23472746       1.095989       924.13601     -23471822       770.51931      770.51931      770.51931      2114.7403      2885.2597      2114.7403      2885.2597      2114.7403      2885.2597      4.5745732e+08  0.5            9104100        25.28859       5929.0083      11858.074      0.15264744   
  18203400   310.18175      2.73861       -23472874       1.096117       923.66827     -23471951       770.48932      770.48932      770.48932      2114.7553      2885.2447      2114.7553      2885.2447      2114.7553      2885.2447      4.574039e+08   0.5            9104200        25.305864      5789.0253      11578.044      0.13568829   
  18203600   310.03779      0.6470501     -23473003       1.0960704      923.23958     -23472079       770.50023      770.50023      770.50023      2114.7499      2885.2501      2114.7499      2885.2501      2114.7499      2885.2501      4.5742333e+08  0.5            9104300        25.322826      5895.6806      11791.336      0.11872726   
  18203800   310.06484     -0.37323748    -23473129       1.0960583      923.32015     -23472206       770.50306      770.50306      770.50306      2114.7485      2885.2515      2114.7485      2885.2515      2114.7485      2885.2515      4.5742838e+08  0.5            9104400        25.339729      5916.175       11832.347      0.10176599   
  18204000   309.96681      1.7651075     -23473256       1.0961448      923.02822     -23472333       770.4828       770.4828       770.4828       2114.7586      2885.2414      2114.7586      2885.2414      2114.7586      2885.2414      4.573923e+08   0.5            9104500        25.356647      5910.6937      11821.396      0.084804847  
  18204200   310.46067      0.2767        -23471489       1.0961198      924.49887     -23470564       770.48866      770.48866      770.48866      2114.7557      2885.2443      2114.7557      2885.2443      2114.7557      2885.2443      4.5740273e+08  0.5            9104600        25.373528      5924.0871      11848.185      0.067843661  
  18204400   310.74443      1.7669259     -23471617       1.0961877      925.34385     -23470692       770.47275      770.47275      770.47275      2114.7636      2885.2364      2114.7636      2885.2364      2114.7636      2885.2364      4.5737439e+08  0.5            9104700        25.390318      5955.8208      11911.645      0.050882404  
  18204600   310.65609      2.3442392     -23471746       1.0962263      925.08079     -23470821       770.4637       770.4637       770.4637       2114.7681      2885.2319      2114.7681      2885.2319      2114.7681      2885.2319      4.5735829e+08  0.5            9104800        25.40774       5739.9126      11479.826      0.033922218  
  18204800   310.40376      1.1048081     -23471875       1.0962088      924.3294      -23470951       770.4678       770.4678       770.4678       2114.7661      2885.2339      2114.7661      2885.2339      2114.7661      2885.2339      4.5736558e+08  0.5            9104900        25.424554      5947.2999      11894.609      0.016961011  
  18205000   309.84341     -0.28613535    -23472003       1.0961862      922.66077     -23471080       770.47309      770.47309      770.47309      2114.7635      2885.2365      2114.7635      2885.2365      2114.7635      2885.2365      4.57375e+08    0.5            9105000        25.441288      5976.0336      11952.02       0            
Loop time of 25.4413 on 4 procs for 300000 steps with 1000 atoms

Performance: 509.407 ns/day, 0.047 hours/ns, 11791.834 timesteps/s
99.6% CPU use with 4 MPI tasks x no OpenMP threads

MPI task timing breakdown:
Section |  min time  |  avg time  |  max time  |%varavg| %total
---------------------------------------------------------------
Pair    | 5.1795     | 6.3831     | 8.6269     |  55.8 | 25.09
Neigh   | 0.0089591  | 0.01093    | 0.013993   |   1.8 |  0.04
Comm    | 10.132     | 11.158     | 12.158     |  21.5 | 43.86
Output  | 0.050236   | 0.065359   | 0.10642    |   9.3 |  0.26
Modify  | 5.9914     | 6.4435     | 6.9344     |  13.3 | 25.33
Other   |            | 1.38       |            |       |  5.43

Nlocal:            250 ave         306 max         205 min
Histogram: 1 0 0 1 1 0 0 0 0 1
Nghost:          637.5 ave         647 max         628 min
Histogram: 1 0 0 0 1 1 0 0 0 1
Neighs:         1165.5 ave        1628 max         924 min
Histogram: 2 0 0 1 0 0 0 0 0 1

Total # of neighbors = 4662
Ave neighs/atom = 4.662
Neighbor list builds = 79
Dangerous builds = 19

# run_style
run_style verlet

# write restart
write_restart ${write_res}
write_restart ./pgnpmf/600400/equpmf26.res
System init for write_restart ...
Generated 0 of 1 mixed pair_coeff terms from geometric mixing rule

Total wall time: 0:00:54
