LAMMPS (23 Jun 2022 - Update 1)
# Read restart
read_restart ${read_res}
read_restart ./pgnpmf/600400/equpmf16.res
Reading restart file ...
  restart file = 23 Jun 2022, LAMMPS = 23 Jun 2022
  restoring atom style atomic from restart
  orthogonal box = (2021.9281 2021.9281 2021.9281) to (2978.0719 2978.0719 2978.0719)
  2 by 1 by 2 MPI processor grid
  restoring pair style table from restart
  1000 atoms
  read_restart CPU = 0.015 seconds

# Settings

pair_style table spline 9941

pair_coeff 1 1 ./pgnpmf/N20.txt DE_GNP 75.6
pair_coeff 2 2 ./pgnpmf/N100.txt DE_GNP 115.92
WARNING: 3 of 9941 force values in table DE_GNP are inconsistent with -dE/dr.
WARNING:  Should only be flagged at inflection points (../pair_table.cpp:463)
pair_coeff 1 2 ./pgnpmf/mixed_potential.txt DE_GNP 95.66
WARNING: 1562 of 9941 force values in table DE_GNP are inconsistent with -dE/dr.
WARNING:  Should only be flagged at inflection points (../pair_table.cpp:463)

#Neigh_list Calc Frequency

neigh_modify delay 0 every 1 check yes

# Saving Frequency (50 frames)

variable ts_save equal ${steps_equ}
variable ts_save equal 5000

# Dump
#dump 1 all custom ${ts_save} ./pgnpmf/${folder}/equilibration/trajectory/trajectory_${usic}_${trial}.equ.custom type x y z ix iy iz
#dump_modify 1 first no sort id
#dump 2 all cfg 50000 ./equilibration/trajectory/ovito/dumpgen.tens_*.cfg mass type xs ys zs fx fy fz

# thermo_style
thermo_style custom step temp press pe density ke etotal lx ly lz xlo xhi ylo yhi zlo zhi vol dt time cpu tpcpu spcpu cpuremain

# run info
timestep ${ts}
timestep 0.5
thermo 200

# fix

fix 1 all momentum 1000 linear 1 1 1 angular
variable T equal ${temp}
variable T equal 300
fix 2 all nvt temp ${T} 370000 100.0
fix 2 all nvt temp 300 370000 100.0

run 100000
Generated 0 of 1 mixed pair_coeff terms from geometric mixing rule
Unused restart file global fix info:
  fix style: npt, fix ID: 5
Neighbor list info ...
  update every 1 steps, delay 0 steps, check yes
  max neighbors/atom: 2000, page size: 100000
  master list distance cutoff = 117.92
  ghost atom cutoff = 117.92
  binsize = 58.96, bins = 17 17 17
  1 neighbor lists, perpetual/occasional/extra = 1 0 0
  (1) pair table, perpetual
      attributes: half, newton on
      pair build: half/bin/atomonly/newton
      stencil: half/bin/3d
      bin: standard
Per MPI rank memory allocation (min/avg/max) = 3.077 | 3.078 | 3.08 Mbytes
   Step          Temp          Press          PotEng        Density         KinEng         TotEng           Lx             Ly             Lz            Xlo            Xhi            Ylo            Yhi            Zlo            Zhi           Volume           Dt            Time           CPU           T/CPU          S/CPU         CPULeft    
  11205000   311.14461     -0.0018775472  -17789730       0.57357104     926.53552     -17788803       956.14373      956.14373      956.14373      2021.9281      2978.0719      2021.9281      2978.0719      2021.9281      2978.0719      8.7411696e+08  0.5            5605000        0              0              0              0            
  11205200   417.01513     -0.35077909    -17789876       0.57357104     1241.7998     -17788634       956.14373      956.14373      956.14373      2021.9281      2978.0719      2021.9281      2978.0719      2021.9281      2978.0719      8.7411696e+08  0.5            5605100        0.014087833    7098.0159      14195.425      7.0307688    
  11205400   638.7401      -0.75317209    -17790051       0.57357104     1902.059      -17788149       956.14373      956.14373      956.14373      2021.9281      2978.0719      2021.9281      2978.0719      2021.9281      2978.0719      8.7411696e+08  0.5            5605200        0.027905635    7237.1117      14474.214      6.9489232    
  11205600   1012.2762     -1.2993514     -17790271       0.57357104     3014.3856     -17787256       956.14373      956.14373      956.14373      2021.9281      2978.0719      2021.9281      2978.0719      2021.9281      2978.0719      8.7411696e+08  0.5            5605300        0.041130378    7561.6076      15123.22       6.8142131    
  11205800   1604.6702     -1.9408146     -17790547       0.57357104     4778.4338     -17785769       956.14373      956.14373      956.14373      2021.9281      2978.0719      2021.9281      2978.0719      2021.9281      2978.0719      8.7411696e+08  0.5            5605400        0.054336961    7571.9813      15143.955      6.7379876    
  11206000   2486.9365     -2.7103037     -17790890       0.57357104     7405.6723     -17783484       956.14373      956.14373      956.14373      2021.9281      2978.0719      2021.9281      2978.0719      2021.9281      2978.0719      8.7411696e+08  0.5            5605500        0.067515438    7588.1147      15176.198      6.6842033    
  11206200   3688.2963     -3.911855      -17791305       0.57357104     10983.116     -17780322       956.14373      956.14373      956.14373      2021.9281      2978.0719      2021.9281      2978.0719      2021.9281      2978.0719      8.7411696e+08  0.5            5605600        0.080710149    7578.7644      15157.564      6.6452764    
  11206400   5107.9261     -5.1268839     -17791793       0.57357104     15210.532     -17776582       956.14373      956.14373      956.14373      2021.9281      2978.0719      2021.9281      2978.0719      2021.9281      2978.0719      8.7411696e+08  0.5            5605700        0.093931849    7563.3583      15126.665      6.6156052    
  11206600   6430.9786     -6.5154189     -17792338       0.57357104     19150.356     -17773188       956.14373      956.14373      956.14373      2021.9281      2978.0719      2021.9281      2978.0719      2021.9281      2978.0719      8.7411696e+08  0.5            5605800        0.10708109     7605.0023      15210.045      6.5855887    
  11206800   7239.4022     -8.2320602     -17792927       0.57357104     21557.703     -17771369       956.14373      956.14373      956.14373      2021.9281      2978.0719      2021.9281      2978.0719      2021.9281      2978.0719      8.7411696e+08  0.5            5605900        0.12085744     7258.8357      14517.686      6.5935328    
  11207000   7563.165      -10.155518     -17800903       0.57357104     22521.814     -17778381       956.14373      956.14373      956.14373      2021.9281      2978.0719      2021.9281      2978.0719      2021.9281      2978.0719      8.7411696e+08  0.5            5606000        0.13401631     7599.4292      15198.852      6.5668818    
  11207200   8112.5222     -11.441241     -17793758       0.57357104     24157.706     -17769600       956.14373      956.14373      956.14373      2021.9281      2978.0719      2021.9281      2978.0719      2021.9281      2978.0719      8.7411696e+08  0.5            5606100        0.14721511     7576.4768      15152.91       6.5444532    
  11207400   9198.831      -12.669044     -17794371       0.57357104     27392.548     -17766979       956.14373      956.14373      956.14373      2021.9281      2978.0719      2021.9281      2978.0719      2021.9281      2978.0719      8.7411696e+08  0.5            5606200        0.16063723     7450.3712      14900.786      6.5326449    
  11207600   10228.613     -14.143742     -17795004       0.57357104     30459.064     -17764545       956.14373      956.14373      956.14373      2021.9281      2978.0719      2021.9281      2978.0719      2021.9281      2978.0719      8.7411696e+08  0.5            5606300        0.17378096     7608.1776      15216.381      6.510163     
  11207800   10727.231     -15.320446     -17795635       0.57357104     31943.862     -17763691       956.14373      956.14373      956.14373      2021.9281      2978.0719      2021.9281      2978.0719      2021.9281      2978.0719      8.7411696e+08  0.5            5606400        0.18702005     7553.3984      15106.76       6.492324     
  11208000   11099.679     -17.155098     -17793988       0.57357104     33052.948     -17760935       956.14373      956.14373      956.14373      2021.9281      2978.0719      2021.9281      2978.0719      2021.9281      2978.0719      8.7411696e+08  0.5            5606500        0.20016957     7604.8357      15209.711      6.4722013    
  11208200   11971.256     -18.540332     -17801978       0.57357104     35648.356     -17766329       956.14373      956.14373      956.14373      2021.9281      2978.0719      2021.9281      2978.0719      2021.9281      2978.0719      8.7411696e+08  0.5            5606600        0.21394287     7260.4342      14520.829      6.4718207    
  11208400   13118.182     -20.032489     -17802575       0.57357104     39063.707     -17763511       956.14373      956.14373      956.14373      2021.9281      2978.0719      2021.9281      2978.0719      2021.9281      2978.0719      8.7411696e+08  0.5            5606700        0.22747741     7388.5174      14777.059      6.4630793    
  11208600   13855.14      -21.680226     -17810542       0.57357104     41258.241     -17769284       956.14373      956.14373      956.14373      2021.9281      2978.0719      2021.9281      2978.0719      2021.9281      2978.0719      8.7411696e+08  0.5            5606800        0.24064204     7596.0927      15192.203      6.4439013    
  11208800   14177.987     -23.349307     -17818486       0.57357104     42219.623     -17776266       956.14373      956.14373      956.14373      2021.9281      2978.0719      2021.9281      2978.0719      2021.9281      2978.0719      8.7411696e+08  0.5            5606900        0.25410193     7429.4569      14858.873      6.4328334    
  11209000   14787.627     -24.633847     -17817122       0.57357104     44035.028     -17773087       956.14373      956.14373      956.14373      2021.9281      2978.0719      2021.9281      2978.0719      2021.9281      2978.0719      8.7411696e+08  0.5            5607000        0.26732502     7562.558       15125.028      6.4158408    
  11209200   15915.374     -25.785308     -17815744       0.57357104     47393.266     -17768351       956.14373      956.14373      956.14373      2021.9281      2978.0719      2021.9281      2978.0719      2021.9281      2978.0719      8.7411696e+08  0.5            5607100        0.28058135     7543.5739      15087.238      6.3999641    
  11209400   16906.76      -26.827997     -17818137       0.57357104     50345.444     -17767791       956.14373      956.14373      956.14373      2021.9281      2978.0719      2021.9281      2978.0719      2021.9281      2978.0719      8.7411696e+08  0.5            5607200        0.29381178     7558.3316      15116.656      6.3837637    
  11209600   17324.253     -27.958187     -17818590       0.57357104     51588.668     -17767001       956.14373      956.14373      956.14373      2021.9281      2978.0719      2021.9281      2978.0719      2021.9281      2978.0719      8.7411696e+08  0.5            5607300        0.30698215     7592.8005      15185.584      6.3665773    
  11209800   17708.907     -29.361007     -17816745       0.57357104     52734.101     -17764011       956.14373      956.14373      956.14373      2021.9281      2978.0719      2021.9281      2978.0719      2021.9281      2978.0719      8.7411696e+08  0.5            5607400        0.32093232     7168.3447      14336.683      6.3651912    
  11210000   18667.435     -30.157848     -17820926       0.57357104     55588.435     -17765338       956.14373      956.14373      956.14373      2021.9281      2978.0719      2021.9281      2978.0719      2021.9281      2978.0719      8.7411696e+08  0.5            5607500        0.3342053      7534.1133      15068.254      6.3499324    
  11210200   19837.724     -31.389663     -17821662       0.57357104     59073.354     -17762588       956.14373      956.14373      956.14373      2021.9281      2978.0719      2021.9281      2978.0719      2021.9281      2978.0719      8.7411696e+08  0.5            5607600        0.34742671     7563.5081      15127.009      6.3338857    
  11210400   20489.225     -32.218978     -17820107       0.57357104     61013.412     -17759094       956.14373      956.14373      956.14373      2021.9281      2978.0719      2021.9281      2978.0719      2021.9281      2978.0719      8.7411696e+08  0.5            5607700        0.36063994     7568.1842      15136.37       6.317906     
  11210600   20761.766     -33.174897     -17827797       0.57357104     61824.994     -17765972       956.14373      956.14373      956.14373      2021.9281      2978.0719      2021.9281      2978.0719      2021.9281      2978.0719      8.7411696e+08  0.5            5607800        0.37378339     7608.3484      15216.738      6.3009467    
  11210800   21447.573     -34.128029     -17830352       0.57357104     63867.211     -17766485       956.14373      956.14373      956.14373      2021.9281      2978.0719      2021.9281      2978.0719      2021.9281      2978.0719      8.7411696e+08  0.5            5607900        0.3869968      7568.0611      15136.142      6.2853874    
  11211000   22648.192     -35.123444     -17836314       0.57357104     67442.45      -17768871       956.14373      956.14373      956.14373      2021.9281      2978.0719      2021.9281      2978.0719      2021.9281      2978.0719      8.7411696e+08  0.5            5608000        0.40043389     7442.0842      14884.084      6.2734904    
  11211200   23588.994     -36.144479     -17835059       0.57357104     70243.997     -17764815       956.14373      956.14373      956.14373      2021.9281      2978.0719      2021.9281      2978.0719      2021.9281      2978.0719      8.7411696e+08  0.5            5608100        0.41388623     7433.6548      14867.324      6.261723     
  11211400   23924.44      -37.166839     -17835701       0.57357104     71242.898     -17764459       956.14373      956.14373      956.14373      2021.9281      2978.0719      2021.9281      2978.0719      2021.9281      2978.0719      8.7411696e+08  0.5            5608200        0.42723589     7490.8353      14981.725      6.2483481    
  11211600   24330.329     -38.412716     -17843355       0.57357104     72451.567     -17770903       956.14373      956.14373      956.14373      2021.9281      2978.0719      2021.9281      2978.0719      2021.9281      2978.0719      8.7411696e+08  0.5            5608300        0.44041409     7588.28        15176.444      6.2325506    
  11211800   25379.398     -39.611156     -17847414       0.57357104     75575.513     -17771839       956.14373      956.14373      956.14373      2021.9281      2978.0719      2021.9281      2978.0719      2021.9281      2978.0719      8.7411696e+08  0.5            5608400        0.45361122     7577.4275      15154.907      6.2171637    
  11212000   26561.253     -40.506241     -17847330       0.57357104     79094.877     -17768235       956.14373      956.14373      956.14373      2021.9281      2978.0719      2021.9281      2978.0719      2021.9281      2978.0719      8.7411696e+08  0.5            5608500        0.46712835     7397.9857      14795.928      6.2061571    
  11212200   27123.865     -41.459335     -17855375       0.57357104     80770.237     -17774605       956.14373      956.14373      956.14373      2021.9281      2978.0719      2021.9281      2978.0719      2021.9281      2978.0719      8.7411696e+08  0.5            5608600        0.48069001     7373.7297      14747.539      6.1955812    
  11212400   27352.024     -42.509776     -17857582       0.57357104     81449.657     -17776132       956.14373      956.14373      956.14373      2021.9281      2978.0719      2021.9281      2978.0719      2021.9281      2978.0719      8.7411696e+08  0.5            5608700        0.49414101     7434.4136      14868.794      6.1834608    
  11212600   28111.623     -43.005255     -17856001       0.57357104     83711.612     -17772289       956.14373      956.14373      956.14373      2021.9281      2978.0719      2021.9281      2978.0719      2021.9281      2978.0719      8.7411696e+08  0.5            5608800        0.50749309     7489.4648      14978.93       6.1700679    
  11212800   29388.991     -44.166173     -17856330       0.57357104     87515.397     -17768815       956.14373      956.14373      956.14373      2021.9281      2978.0719      2021.9281      2978.0719      2021.9281      2978.0719      8.7411696e+08  0.5            5608900        0.52161405     7081.6715      14163.378      6.1657642    
  11213000   30278.047     -45.200361     -17856685       0.57357104     90162.853     -17766523       956.14373      956.14373      956.14373      2021.9281      2978.0719      2021.9281      2978.0719      2021.9281      2978.0719      8.7411696e+08  0.5            5609000        0.53494274     7502.6049      15005.188      6.1518601    
  11213200   30505.693     -45.859765     -17849668       0.57357104     90840.743     -17758827       956.14373      956.14373      956.14373      2021.9281      2978.0719      2021.9281      2978.0719      2021.9281      2978.0719      8.7411696e+08  0.5            5609100        0.54823144     7525.1809      15050.361      6.1375359    
  11213400   30925.865     -46.476342     -17857409       0.57357104     92091.945     -17765317       956.14373      956.14373      956.14373      2021.9281      2978.0719      2021.9281      2978.0719      2021.9281      2978.0719      8.7411696e+08  0.5            5609200        0.56154243     7512.6231      15025.259      6.1235035    
  11213600   32106.605     -47.330472     -17855533       0.57357104     95607.987     -17759925       956.14373      956.14373      956.14373      2021.9281      2978.0719      2021.9281      2978.0719      2021.9281      2978.0719      8.7411696e+08  0.5            5609300        0.5750532      7401.4698      14802.902      6.1116295    
  11213800   33307.891     -48.224122     -17867089       0.57357104     99185.212     -17767904       956.14373      956.14373      956.14373      2021.9281      2978.0719      2021.9281      2978.0719      2021.9281      2978.0719      8.7411696e+08  0.5            5609400        0.58829729     7550.565       15101.141      6.0969154    
  11214000   33734.822     -48.898144     -17867475       0.57357104     100456.54     -17767019       956.14373      956.14373      956.14373      2021.9281      2978.0719      2021.9281      2978.0719      2021.9281      2978.0719      8.7411696e+08  0.5            5609500        0.60163629     7496.7953      14993.579      6.0832284    
  11214200   33892.634     -50.026776     -17870122       0.57357104     100926.48     -17769195       956.14373      956.14373      956.14373      2021.9281      2978.0719      2021.9281      2978.0719      2021.9281      2978.0719      8.7411696e+08  0.5            5609600        0.61511046     7421.6102      14843.248      6.0708889    
  11214400   34780.21      -50.761274     -17870506       0.57357104     103569.53     -17766937       956.14373      956.14373      956.14373      2021.9281      2978.0719      2021.9281      2978.0719      2021.9281      2978.0719      8.7411696e+08  0.5            5609700        0.6287614      7325.5114      14651.039      6.0602048    
  11214600   36171.335     -51.650279     -17880145       0.57357104     107712.06     -17772433       956.14373      956.14373      956.14373      2021.9281      2978.0719      2021.9281      2978.0719      2021.9281      2978.0719      8.7411696e+08  0.5            5609800        0.6421348      7477.511       14954.962      6.0467852    
  11214800   36960.936     -51.965615     -17880497       0.57357104     110063.36     -17770434       956.14373      956.14373      956.14373      2021.9281      2978.0719      2021.9281      2978.0719      2021.9281      2978.0719      8.7411696e+08  0.5            5609900        0.65546132     7503.8536      15007.749      6.0329346    
  11215000   37033.005     -52.608622     -17878936       0.57357104     110277.97     -17768659       956.14373      956.14373      956.14373      2021.9281      2978.0719      2021.9281      2978.0719      2021.9281      2978.0719      8.7411696e+08  0.5            5610000        0.66881151     7490.5166      14980.979      6.0193193    
  11215200   37505.385     -53.036821     -17888145       0.57357104     111684.63     -17776461       956.14373      956.14373      956.14373      2021.9281      2978.0719      2021.9281      2978.0719      2021.9281      2978.0719      8.7411696e+08  0.5            5610100        0.68294475     7075.5389      14151.158      6.0126057    
  11215400   38888.181     -53.013718     -17888803       0.57357104     115802.36     -17773001       956.14373      956.14373      956.14373      2021.9281      2978.0719      2021.9281      2978.0719      2021.9281      2978.0719      8.7411696e+08  0.5            5610200        0.69681631     7208.9665      14417.833      6.0033553    
  11215600   40085.339     -53.348585     -17891320       0.57357104     119367.29     -17771952       956.14373      956.14373      956.14373      2021.9281      2978.0719      2021.9281      2978.0719      2021.9281      2978.0719      8.7411696e+08  0.5            5610300        0.71053243     7290.6782      14581.393      5.9926183    
  11215800   40315.373     -53.599901     -17882279       0.57357104     120052.3      -17762227       956.14373      956.14373      956.14373      2021.9281      2978.0719      2021.9281      2978.0719      2021.9281      2978.0719      8.7411696e+08  0.5            5610400        0.72438657     7218.095       14436.21       5.9829103    
  11216000   40379.913     -53.908584     -17882491       0.57357104     120244.49     -17762246       956.14373      956.14373      956.14373      2021.9281      2978.0719      2021.9281      2978.0719      2021.9281      2978.0719      8.7411696e+08  0.5            5610500        0.73779518     7457.8896      14915.767      5.9694472    
  11216200   41527.045     -54.598393     -17897406       0.57357104     123660.45     -17773746       956.14373      956.14373      956.14373      2021.9281      2978.0719      2021.9281      2978.0719      2021.9281      2978.0719      8.7411696e+08  0.5            5610600        0.75135491     7374.7525      14749.517      5.9571847    
  11216400   43117.543     -54.69363      -17899453       0.57357104     128396.68     -17771056       956.14373      956.14373      956.14373      2021.9281      2978.0719      2021.9281      2978.0719      2021.9281      2978.0719      8.7411696e+08  0.5            5610700        0.7646182      7539.6273      15079.282      5.9425717    
  11216600   43635.95      -54.576215     -17899585       0.57357104     129940.41     -17769645       956.14373      956.14373      956.14373      2021.9281      2978.0719      2021.9281      2978.0719      2021.9281      2978.0719      8.7411696e+08  0.5            5610800        0.77787499     7543.3116      15086.611      5.9279562    
  11216800   43260.398     -55.446282     -17901945       0.57357104     128822.08     -17773123       956.14373      956.14373      956.14373      2021.9281      2978.0719      2021.9281      2978.0719      2021.9281      2978.0719      8.7411696e+08  0.5            5610900        0.79109583     7563.8062      15127.616      5.9131182    
  11217000   43876.626     -55.585602     -17902401       0.57357104     130657.1      -17771744       956.14373      956.14373      956.14373      2021.9281      2978.0719      2021.9281      2978.0719      2021.9281      2978.0719      8.7411696e+08  0.5            5611000        0.80457653     7417.9992      14836.005      5.9002397    
  11217200   46484.766     -55.600586     -17904378       0.57357104     138423.69     -17765955       956.14373      956.14373      956.14373      2021.9281      2978.0719      2021.9281      2978.0719      2021.9281      2978.0719      8.7411696e+08  0.5            5611100        0.81820459     7337.8021      14675.582      5.8884028    
  11217400   46808.511     -55.808006     -17911833       0.57357104     139387.75     -17772446       956.14373      956.14373      956.14373      2021.9281      2978.0719      2021.9281      2978.0719      2021.9281      2978.0719      8.7411696e+08  0.5            5611200        0.83147764     7534.0798      15068.222      5.8739981    
  11217600   45697.026     -56.237448     -17919298       0.57357104     136077.94     -17783220       956.14373      956.14373      956.14373      2021.9281      2978.0719      2021.9281      2978.0719      2021.9281      2978.0719      8.7411696e+08  0.5            5611300        0.84487032     7466.7559      14933.488      5.8604609    
  11217800   45820.378     -56.607983     -17926767       0.57357104     136445.26     -17790322       956.14373      956.14373      956.14373      2021.9281      2978.0719      2021.9281      2978.0719      2021.9281      2978.0719      8.7411696e+08  0.5            5611400        0.85806039     7581.4552      15162.885      5.8455475    
  11218000   49296.843     -56.307325     -17926884       0.57357104     146797.58     -17780087       956.14373      956.14373      956.14373      2021.9281      2978.0719      2021.9281      2978.0719      2021.9281      2978.0719      8.7411696e+08  0.5            5611500        0.87136862     7514.1563      15028.274      5.8314783    
  11218200   49852.802     -56.54723      -17927008       0.57357104     148453.13     -17778555       956.14373      956.14373      956.14373      2021.9281      2978.0719      2021.9281      2978.0719      2021.9281      2978.0719      8.7411696e+08  0.5            5611600        0.88470885     7496.1204      14992.274      5.8176417    
  11218400   48884.993     -56.405211     -17926783       0.57357104     145571.16     -17781212       956.14373      956.14373      956.14373      2021.9281      2978.0719      2021.9281      2978.0719      2021.9281      2978.0719      8.7411696e+08  0.5            5611700        0.89818687     7419.4764      14838.965      5.804711     
  11218600   49264.848     -56.331362     -17926955       0.57357104     146702.3      -17780253       956.14373      956.14373      956.14373      2021.9281      2978.0719      2021.9281      2978.0719      2021.9281      2978.0719      8.7411696e+08  0.5            5611800        0.91153652     7490.8651      14981.754      5.7909481    
  11218800   52717.999     -56.035584     -17926767       0.57357104     156985.2      -17769782       956.14373      956.14373      956.14373      2021.9281      2978.0719      2021.9281      2978.0719      2021.9281      2978.0719      8.7411696e+08  0.5            5611900        0.92539362     7216.5239      14433.025      5.7803674    
  11219000   52867.17      -55.992167     -17926974       0.57357104     157429.4      -17769544       956.14373      956.14373      956.14373      2021.9281      2978.0719      2021.9281      2978.0719      2021.9281      2978.0719      8.7411696e+08  0.5            5612000        0.93876847     7476.7026      14953.391      5.7667305    
  11219200   51742.284     -55.948008     -17927908       0.57357104     154079.69     -17773828       956.14373      956.14373      956.14373      2021.9281      2978.0719      2021.9281      2978.0719      2021.9281      2978.0719      8.7411696e+08  0.5            5612100        0.95241621     7327.2167      14654.408      5.7547505    
  11219400   52660.776     -56.069212     -17930014       0.57357104     156814.8      -17773199       956.14373      956.14373      956.14373      2021.9281      2978.0719      2021.9281      2978.0719      2021.9281      2978.0719      8.7411696e+08  0.5            5612200        0.9658013      7471.0078      14942.065      5.7411617    
  11219600   56733.118     -55.084799     -17937606       0.57357104     168941.54     -17768665       956.14373      956.14373      956.14373      2021.9281      2978.0719      2021.9281      2978.0719      2021.9281      2978.0719      8.7411696e+08  0.5            5612300        0.97906435     7539.7342      15079.414      5.7268655    
  11219800   55652.32      -55.05458      -17937791       0.57357104     165723.11     -17772068       956.14373      956.14373      956.14373      2021.9281      2978.0719      2021.9281      2978.0719      2021.9281      2978.0719      8.7411696e+08  0.5            5612400        0.99266785     7351.0477      14702.185      5.7145565    
  11220000   54213.135     -55.524586     -17945322       0.57357104     161437.46     -17783885       956.14373      956.14373      956.14373      2021.9281      2978.0719      2021.9281      2978.0719      2021.9281      2978.0719      8.7411696e+08  0.5            5612500        1.0059456      7531.3795      15062.655      5.700368     
  11220200   55702.178     -55.045243     -17947711       0.57357104     165871.57     -17781839       956.14373      956.14373      956.14373      2021.9281      2978.0719      2021.9281      2978.0719      2021.9281      2978.0719      8.7411696e+08  0.5            5612600        1.0198041      7215.8163      14431.671      5.6894425    
  11220400   58684.035     -54.473086     -17956722       0.57357104     174751.04     -17781971       956.14373      956.14373      956.14373      2021.9281      2978.0719      2021.9281      2978.0719      2021.9281      2978.0719      8.7411696e+08  0.5            5612700        1.0333803      7365.8167      14731.655      5.6768904    
  11220600   58392.327     -54.898369     -17956790       0.57357104     173882.38     -17782907       956.14373      956.14373      956.14373      2021.9281      2978.0719      2021.9281      2978.0719      2021.9281      2978.0719      8.7411696e+08  0.5            5612800        1.0468872      7403.6359      14807.253      5.6639371    
  11220800   57878.905     -54.74462      -17953991       0.57357104     172353.49     -17781638       956.14373      956.14373      956.14373      2021.9281      2978.0719      2021.9281      2978.0719      2021.9281      2978.0719      8.7411696e+08  0.5            5612900        1.0602191      7500.7861      15001.59       5.6500371    
  11221000   59039.554     -53.843277     -17954003       0.57357104     175809.71     -17778193       956.14373      956.14373      956.14373      2021.9281      2978.0719      2021.9281      2978.0719      2021.9281      2978.0719      8.7411696e+08  0.5            5613000        1.0736278      7457.8701      14915.679      5.6365544    
  11221200   62346.614     -52.467337     -17955868       0.57357104     185657.57     -17770210       956.14373      956.14373      956.14373      2021.9281      2978.0719      2021.9281      2978.0719      2021.9281      2978.0719      8.7411696e+08  0.5            5613100        1.0872704      7329.937       14659.864      5.6242843    
  11221400   62244.064     -51.961119     -17948799       0.57357104     185352.19     -17763446       956.14373      956.14373      956.14373      2021.9281      2978.0719      2021.9281      2978.0719      2021.9281      2978.0719      8.7411696e+08  0.5            5613200        1.1005897      7507.8959      15015.85       5.6103319    
  11221600   58201.667     -52.255636     -17955724       0.57357104     173314.63     -17782409       956.14373      956.14373      956.14373      2021.9281      2978.0719      2021.9281      2978.0719      2021.9281      2978.0719      8.7411696e+08  0.5            5613300        1.1141847      7355.7061      14711.405      5.5977792    
  11221800   58742.704     -52.013638     -17961337       0.57357104     174925.74     -17786412       956.14373      956.14373      956.14373      2021.9281      2978.0719      2021.9281      2978.0719      2021.9281      2978.0719      8.7411696e+08  0.5            5613400        1.1280162      7229.8681      14459.728      5.5863739    
  11222000   61227.927     -50.934688     -17961276       0.57357104     182326.31     -17778950       956.14373      956.14373      956.14373      2021.9281      2978.0719      2021.9281      2978.0719      2021.9281      2978.0719      8.7411696e+08  0.5            5613500        1.1413275      7512.425       15024.791      5.5723717    
  11222200   64340.066     -49.722568     -17970473       0.57357104     191593.73     -17778879       956.14373      956.14373      956.14373      2021.9281      2978.0719      2021.9281      2978.0719      2021.9281      2978.0719      8.7411696e+08  0.5            5613600        1.1545901      7539.9883      15080.057      5.5581505    
  11222400   66004.413     -49.178314     -17970776       0.57357104     196549.87     -17774227       956.14373      956.14373      956.14373      2021.9281      2978.0719      2021.9281      2978.0719      2021.9281      2978.0719      8.7411696e+08  0.5            5613700        1.1681905      7352.6919      14705.371      5.5455559    
  11222600   65155.934     -49.66265      -17974481       0.57357104     194023.25     -17780457       956.14373      956.14373      956.14373      2021.9281      2978.0719      2021.9281      2978.0719      2021.9281      2978.0719      8.7411696e+08  0.5            5613800        1.1816258      7443.109       14886.185      5.532165     
  11222800   63946.906     -48.807121     -17974388       0.57357104     190422.97     -17783965       956.14373      956.14373      956.14373      2021.9281      2978.0719      2021.9281      2978.0719      2021.9281      2978.0719      8.7411696e+08  0.5            5613900        1.1950261      7462.5045      14925.045      5.5186111    
  11223000   66896.098     -47.480352     -17978116       0.57357104     199205.16     -17778911       956.14373      956.14373      956.14373      2021.9281      2978.0719      2021.9281      2978.0719      2021.9281      2978.0719      8.7411696e+08  0.5            5614000        1.2086901      7318.4771      14636.912      5.5062628    
  11223200   69539.048     -46.407224     -17978060       0.57357104     207075.41     -17770984       956.14373      956.14373      956.14373      2021.9281      2978.0719      2021.9281      2978.0719      2021.9281      2978.0719      8.7411696e+08  0.5            5614100        1.2227044      7135.5845      14271.2        5.4954593    
  11223400   68211.132     -46.551355     -17992747       0.57357104     203121.1      -17789626       956.14373      956.14373      956.14373      2021.9281      2978.0719      2021.9281      2978.0719      2021.9281      2978.0719      8.7411696e+08  0.5            5614200        1.2360684      7482.8316      14965.654      5.4817018    
  11223600   67203.812     -45.860821     -17994583       0.57357104     200121.48     -17794461       956.14373      956.14373      956.14373      2021.9281      2978.0719      2021.9281      2978.0719      2021.9281      2978.0719      8.7411696e+08  0.5            5614300        1.2495814      7400.2599      14800.565      5.468605     
  11223800   71303.572     -44.600165     -17996053       0.57357104     212329.86     -17783723       956.14373      956.14373      956.14373      2021.9281      2978.0719      2021.9281      2978.0719      2021.9281      2978.0719      8.7411696e+08  0.5            5614400        1.262949       7480.7515      14961.502      5.4548719    
  11224000   73388.517     -43.733922     -17995974       0.57357104     218538.47     -17777436       956.14373      956.14373      956.14373      2021.9281      2978.0719      2021.9281      2978.0719      2021.9281      2978.0719      8.7411696e+08  0.5            5614500        1.2764081      7429.9377      14859.853      5.4415362    
  11224200   70584.174     -43.568065     -17999657       0.57357104     210187.62     -17789470       956.14373      956.14373      956.14373      2021.9281      2978.0719      2021.9281      2978.0719      2021.9281      2978.0719      8.7411696e+08  0.5            5614600        1.2899475      7385.8255      14771.615      5.4285362    
  11224400   69910.753     -43.325593     -18008816       0.57357104     208182.28     -17800634       956.14373      956.14373      956.14373      2021.9281      2978.0719      2021.9281      2978.0719      2021.9281      2978.0719      8.7411696e+08  0.5            5614700        1.3033574      7457.1944      14914.434      5.4149864    
  11224600   73113.308     -42.339148     -18018343       0.57357104     217718.95     -17800624       956.14373      956.14373      956.14373      2021.9281      2978.0719      2021.9281      2978.0719      2021.9281      2978.0719      8.7411696e+08  0.5            5614800        1.3169036      7382.1719      14764.343      5.4019987    
  11224800   74910.894     -41.549456     -18020458       0.57357104     223071.85     -17797387       956.14373      956.14373      956.14373      2021.9281      2978.0719      2021.9281      2978.0719      2021.9281      2978.0719      8.7411696e+08  0.5            5614900        1.3307585      7217.6297      14435.239      5.3902508    
  11225000   74145.528     -41.270999     -18020263       0.57357104     220792.72     -17799471       956.14373      956.14373      956.14373      2021.9281      2978.0719      2021.9281      2978.0719      2021.9281      2978.0719      8.7411696e+08  0.5            5615000        1.3442031      7437.9465      14875.896      5.3768191    
  11225200   73960.471     -41.01571      -18020032       0.57357104     220241.65     -17799790       956.14373      956.14373      956.14373      2021.9281      2978.0719      2021.9281      2978.0719      2021.9281      2978.0719      8.7411696e+08  0.5            5615100        1.3577851      7362.7033      14725.402      5.3639297    
  11225400   76186.804     -40.341362     -18018595       0.57357104     226871.29     -17791724       956.14373      956.14373      956.14373      2021.9281      2978.0719      2021.9281      2978.0719      2021.9281      2978.0719      8.7411696e+08  0.5            5615200        1.3712011      7453.7354      14907.435      5.3503798    
  11225600   79792.482     -39.118856     -18027540       0.57357104     237608.39     -17789932       956.14373      956.14373      956.14373      2021.9281      2978.0719      2021.9281      2978.0719      2021.9281      2978.0719      8.7411696e+08  0.5            5615300        1.3846862      7415.6267      14831.273      5.3370979    
  11225800   77468.373     -38.444631     -18025266       0.57357104     230687.58     -17794579       956.14373      956.14373      956.14373      2021.9281      2978.0719      2021.9281      2978.0719      2021.9281      2978.0719      8.7411696e+08  0.5            5615400        1.398337       7325.5356      14651.039      5.3244439    
  11226000   73152.921     -38.311344     -18026726       0.57357104     217836.91     -17808889       956.14373      956.14373      956.14373      2021.9281      2978.0719      2021.9281      2978.0719      2021.9281      2978.0719      8.7411696e+08  0.5            5615500        1.411733       7464.9405      14929.907      5.3108115    
  11226200   76274.685     -37.127167     -18026656       0.57357104     227132.99     -17799523       956.14373      956.14373      956.14373      2021.9281      2978.0719      2021.9281      2978.0719      2021.9281      2978.0719      8.7411696e+08  0.5            5615600        1.4256272      7197.3058      14394.649      5.2990352    
  11226400   79500.363     -35.723817     -18016905       0.57357104     236738.5      -17780167       956.14373      956.14373      956.14373      2021.9281      2978.0719      2021.9281      2978.0719      2021.9281      2978.0719      8.7411696e+08  0.5            5615700        1.4392241      7354.5824      14709.189      5.286128     
  11226600   81014.898     -34.780867     -18018274       0.57357104     241248.53     -17777025       956.14373      956.14373      956.14373      2021.9281      2978.0719      2021.9281      2978.0719      2021.9281      2978.0719      8.7411696e+08  0.5            5615800        1.4524528      7559.3178      15118.6        5.2718717    
  11226800   81044.57      -33.870078     -18026976       0.57357104     241336.89     -17785639       956.14373      956.14373      956.14373      2021.9281      2978.0719      2021.9281      2978.0719      2021.9281      2978.0719      8.7411696e+08  0.5            5615900        1.4658195      7481.3089      14962.623      5.2581287    
  11227000   80570.577     -33.485664     -18020906       0.57357104     239925.42     -17780981       956.14373      956.14373      956.14373      2021.9281      2978.0719      2021.9281      2978.0719      2021.9281      2978.0719      8.7411696e+08  0.5            5616000        1.4794775      7321.6696      14643.32       5.2454264    
  11227200   82321.686     -31.762389     -18020327       0.57357104     245139.92     -17775187       956.14373      956.14373      956.14373      2021.9281      2978.0719      2021.9281      2978.0719      2021.9281      2978.0719      8.7411696e+08  0.5            5616100        1.4929419      7427.044       14854.102      5.232027     
  11227400   85308.87      -30.413819     -18021616       0.57357104     254035.25     -17767581       956.14373      956.14373      956.14373      2021.9281      2978.0719      2021.9281      2978.0719      2021.9281      2978.0719      8.7411696e+08  0.5            5616200        1.5064291      7414.3753      14828.784      5.2187064    
  11227600   84653.419     -30.212783     -18022573       0.57357104     252083.43     -17770489       956.14373      956.14373      956.14373      2021.9281      2978.0719      2021.9281      2978.0719      2021.9281      2978.0719      8.7411696e+08  0.5            5616300        1.5204634      7125.4025      14250.786      5.2072565    
  11227800   80755.288     -30.411532     -18023912       0.57357104     240475.46     -17783437       956.14373      956.14373      956.14373      2021.9281      2978.0719      2021.9281      2978.0719      2021.9281      2978.0719      8.7411696e+08  0.5            5616400        1.5340633      7353.0039      14706.051      5.1942898    
  11228000   82026.431     -28.549985     -18015671       0.57357104     244260.7      -17771411       956.14373      956.14373      956.14373      2021.9281      2978.0719      2021.9281      2978.0719      2021.9281      2978.0719      8.7411696e+08  0.5            5616500        1.5475409      7419.7197      14839.402      5.1809032    
  11228200   87516.571     -26.928582     -18015587       0.57357104     260609.4      -17754978       956.14373      956.14373      956.14373      2021.9281      2978.0719      2021.9281      2978.0719      2021.9281      2978.0719      8.7411696e+08  0.5            5616600        1.5611746      7334.7677      14669.504      5.1680317    
  11228400   87261.26      -26.339251     -18028036       0.57357104     259849.13     -17768187       956.14373      956.14373      956.14373      2021.9281      2978.0719      2021.9281      2978.0719      2021.9281      2978.0719      8.7411696e+08  0.5            5616700        1.5745214      7492.4512      14984.9        5.1542081    
  11228600   85977.673     -26.562822     -18048090       0.57357104     256026.83     -17792063       956.14373      956.14373      956.14373      2021.9281      2978.0719      2021.9281      2978.0719      2021.9281      2978.0719      8.7411696e+08  0.5            5616800        1.5879518      7445.8124      14891.616      5.1406629    
  11228800   87537.776     -25.860652     -18040769       0.57357104     260672.55     -17780096       956.14373      956.14373      956.14373      2021.9281      2978.0719      2021.9281      2978.0719      2021.9281      2978.0719      8.7411696e+08  0.5            5616900        1.6016101      7321.5222      14643.052      5.1278495    
  11229000   92234.057     -24.160461     -18036720       0.57357104     274657.27     -17762063       956.14373      956.14373      956.14373      2021.9281      2978.0719      2021.9281      2978.0719      2021.9281      2978.0719      8.7411696e+08  0.5            5617000        1.6153252      7291.2465      14582.51       5.1152016    
  11229200   91199.63      -24.216803     -18060527       0.57357104     271576.92     -17788950       956.14373      956.14373      956.14373      2021.9281      2978.0719      2021.9281      2978.0719      2021.9281      2978.0719      8.7411696e+08  0.5            5617100        1.6289803      7323.2583      14646.512      5.1023485    
  11229400   87349.959     -23.534426     -18060341       0.57357104     260113.26     -17800227       956.14373      956.14373      956.14373      2021.9281      2978.0719      2021.9281      2978.0719      2021.9281      2978.0719      8.7411696e+08  0.5            5617200        1.642518       7386.7857      14773.5        5.0891185    
  11229600   89444.789     -22.646008     -18060175       0.57357104     266351.31     -17793824       956.14373      956.14373      956.14373      2021.9281      2978.0719      2021.9281      2978.0719      2021.9281      2978.0719      8.7411696e+08  0.5            5617300        1.6560702      7378.885       14757.799      5.0759276    
  11229800   96169.4       -21.004624     -18067406       0.57357104     286376.05     -17781030       956.14373      956.14373      956.14373      2021.9281      2978.0719      2021.9281      2978.0719      2021.9281      2978.0719      8.7411696e+08  0.5            5617400        1.6696569      7360.1325      14720.34       5.0628356    
  11230000   92799.372     -20.660443     -18069150       0.57357104     276340.68     -17792810       956.14373      956.14373      956.14373      2021.9281      2978.0719      2021.9281      2978.0719      2021.9281      2978.0719      8.7411696e+08  0.5            5617500        1.6835172      7214.8427      14429.618      5.0505569    
  11230200   90195.545     -21.114355     -18076001       0.57357104     268586.93     -17807414       956.14373      956.14373      956.14373      2021.9281      2978.0719      2021.9281      2978.0719      2021.9281      2978.0719      8.7411696e+08  0.5            5617600        1.6969634      7437.0902      14874.257      5.0370229    
  11230400   93506.84      -20.373964     -18092517       0.57357104     278447.4      -17814070       956.14373      956.14373      956.14373      2021.9281      2978.0719      2021.9281      2978.0719      2021.9281      2978.0719      8.7411696e+08  0.5            5617700        1.7104627      7407.7339      14815.452      5.0236472    
  11230600   97186.033     -19.920397     -18096325       0.57357104     289403.41     -17806922       956.14373      956.14373      956.14373      2021.9281      2978.0719      2021.9281      2978.0719      2021.9281      2978.0719      8.7411696e+08  0.5            5617800        1.7245446      7101.3649      14202.749      5.0119622    
  11230800   96140.673     -19.028185     -18096162       0.57357104     286290.51     -17809872       956.14373      956.14373      956.14373      2021.9281      2978.0719      2021.9281      2978.0719      2021.9281      2978.0719      8.7411696e+08  0.5            5617900        1.7380311      7414.7843      14829.527      4.9985282    
  11231000   94646.345     -18.637419     -18095961       0.57357104     281840.65     -17814120       956.14373      956.14373      956.14373      2021.9281      2978.0719      2021.9281      2978.0719      2021.9281      2978.0719      8.7411696e+08  0.5            5618000        1.7517437      7292.5811      14585.115      4.9857369    
  11231200   97971.297     -17.24449      -18105015       0.57357104     291741.79     -17813273       956.14373      956.14373      956.14373      2021.9281      2978.0719      2021.9281      2978.0719      2021.9281      2978.0719      8.7411696e+08  0.5            5618100        1.7653123      7369.95        14739.881      4.9725257    
  11231400   103458.84     -16.208585     -18106659       0.57357104     308082.76     -17798576       956.14373      956.14373      956.14373      2021.9281      2978.0719      2021.9281      2978.0719      2021.9281      2978.0719      8.7411696e+08  0.5            5618200        1.7788407      7391.8533      14783.765      4.9591968    
  11231600   98691.802     -15.857951     -18104474       0.57357104     293887.34     -17810586       956.14373      956.14373      956.14373      2021.9281      2978.0719      2021.9281      2978.0719      2021.9281      2978.0719      8.7411696e+08  0.5            5618300        1.7924563      7344.5085      14689.04       4.9461057    
  11231800   96436.572     -15.625319     -18106065       0.57357104     287171.64     -17818894       956.14373      956.14373      956.14373      2021.9281      2978.0719      2021.9281      2978.0719      2021.9281      2978.0719      8.7411696e+08  0.5            5618400        1.8059055      7435.4191      14870.827      4.9325521    
  11232000   99511.457     -14.779839     -18113094       0.57357104     296328.13     -17816766       956.14373      956.14373      956.14373      2021.9281      2978.0719      2021.9281      2978.0719      2021.9281      2978.0719      8.7411696e+08  0.5            5618500        1.8198333      7179.8472      14359.71       4.9202946    
  11232200   102723.02     -13.974131     -18107260       0.57357104     305891.61     -17801368       956.14373      956.14373      956.14373      2021.9281      2978.0719      2021.9281      2978.0719      2021.9281      2978.0719      8.7411696e+08  0.5            5618600        1.8336311      7247.5364      14495.073      4.907664     
  11232400   102072.37     -13.840539     -18114419       0.57357104     303954.09     -17810465       956.14373      956.14373      956.14373      2021.9281      2978.0719      2021.9281      2978.0719      2021.9281      2978.0719      8.7411696e+08  0.5            5618700        1.8469783      7492.1974      14984.393      4.8938228    
  11232600   101477.1      -13.263575     -18115867       0.57357104     302181.48     -17813685       956.14373      956.14373      956.14373      2021.9281      2978.0719      2021.9281      2978.0719      2021.9281      2978.0719      8.7411696e+08  0.5            5618800        1.8604149      7442.4027      14884.803      4.8802229    
  11232800   102387.97     -11.995901     -18115747       0.57357104     304893.88     -17810853       956.14373      956.14373      956.14373      2021.9281      2978.0719      2021.9281      2978.0719      2021.9281      2978.0719      8.7411696e+08  0.5            5618900        1.8740497      7334.1205      14668.229      4.8671407    
  11233000   105253.11     -11.621017     -18115576       0.57357104     313425.8      -17802150       956.14373      956.14373      956.14373      2021.9281      2978.0719      2021.9281      2978.0719      2021.9281      2978.0719      8.7411696e+08  0.5            5619000        1.8874087      7485.5998      14971.163      4.8533409    
  11233200   111100.75     -9.933147      -18109482       0.57357104     330839.06     -17778643       956.14373      956.14373      956.14373      2021.9281      2978.0719      2021.9281      2978.0719      2021.9281      2978.0719      8.7411696e+08  0.5            5619100        1.9009971      7359.2387      14718.538      4.8401314    
  11233400   108528.59     -9.9109604     -18118044       0.57357104     323179.62     -17794864       956.14373      956.14373      956.14373      2021.9281      2978.0719      2021.9281      2978.0719      2021.9281      2978.0719      8.7411696e+08  0.5            5619200        1.9146416      7328.9792      14657.939      4.8270582    
  11233600   102497.89     -10.398147     -18117324       0.57357104     305221.23     -17812103       956.14373      956.14373      956.14373      2021.9281      2978.0719      2021.9281      2978.0719      2021.9281      2978.0719      8.7411696e+08  0.5            5619300        1.9285503      7189.7104      14379.418      4.8146367    
  11233800   104958.85     -9.1950491     -18123953       0.57357104     312549.55     -17811403       956.14373      956.14373      956.14373      2021.9281      2978.0719      2021.9281      2978.0719      2021.9281      2978.0719      8.7411696e+08  0.5            5619400        1.9421622      7346.5297      14693.053      4.8014606    
  11234000   109147.37     -7.3617575     -18115793       0.57357104     325022.24     -17790771       956.14373      956.14373      956.14373      2021.9281      2978.0719      2021.9281      2978.0719      2021.9281      2978.0719      8.7411696e+08  0.5            5619500        1.9557294      7370.7214      14741.448      4.7881691    
  11234200   109429.89     -6.3355183     -18105712       0.57357104     325863.51     -17779848       956.14373      956.14373      956.14373      2021.9281      2978.0719      2021.9281      2978.0719      2021.9281      2978.0719      8.7411696e+08  0.5            5619600        1.9692111      7417.4682      14834.966      4.7746664    
  11234400   106683.03     -6.3288028     -18112251       0.57357104     317683.86     -17794567       956.14373      956.14373      956.14373      2021.9281      2978.0719      2021.9281      2978.0719      2021.9281      2978.0719      8.7411696e+08  0.5            5619700        1.9829002      7305.0853      14610.151      4.7616621    
  11234600   102919.6      -6.3731815     -18104052       0.57357104     306477        -17797575       956.14373      956.14373      956.14373      2021.9281      2978.0719      2021.9281      2978.0719      2021.9281      2978.0719      8.7411696e+08  0.5            5619800        1.9963961      7409.6698      14819.361      4.7481892    
  11234800   108874.18     -4.7707744     -18114422       0.57357104     324208.71     -17790214       956.14373      956.14373      956.14373      2021.9281      2978.0719      2021.9281      2978.0719      2021.9281      2978.0719      8.7411696e+08  0.5            5619900        2.0099143      7397.3788      14794.716      4.7347685    
  11235000   112998.4      -2.8715164     -18104341       0.57357104     336489.94     -17767851       956.14373      956.14373      956.14373      2021.9281      2978.0719      2021.9281      2978.0719      2021.9281      2978.0719      8.7411696e+08  0.5            5620000        2.0242725      6964.6628      13929.288      4.7233066    
  11235200   112470.24     -2.060131      -18105406       0.57357104     334917.16     -17770489       956.14373      956.14373      956.14373      2021.9281      2978.0719      2021.9281      2978.0719      2021.9281      2978.0719      8.7411696e+08  0.5            5620100        2.0378528      7363.626       14727.253      4.7100081    
  11235400   110342.68     -1.4028718     -18106468       0.57357104     328581.66     -17777886       956.14373      956.14373      956.14373      2021.9281      2978.0719      2021.9281      2978.0719      2021.9281      2978.0719      8.7411696e+08  0.5            5620200        2.0513535      7407.0376      14814.16       4.6965237    
  11235600   111906.38     -1.1493799     -18107579       0.57357104     333238.09     -17774341       956.14373      956.14373      956.14373      2021.9281      2978.0719      2021.9281      2978.0719      2021.9281      2978.0719      8.7411696e+08  0.5            5620300        2.0651218      7263.0508      14526.126      4.6836458    
  11235800   118129.92      1.0361262     -18104916       0.57357104     351770.72     -17753145       956.14373      956.14373      956.14373      2021.9281      2978.0719      2021.9281      2978.0719      2021.9281      2978.0719      8.7411696e+08  0.5            5620400        2.0786685      7381.9272      14763.787      4.6702587    
  11236000   116727.94      1.4926006     -18124620       0.57357104     347595.86     -17777024       956.14373      956.14373      956.14373      2021.9281      2978.0719      2021.9281      2978.0719      2021.9281      2978.0719      8.7411696e+08  0.5            5620500        2.0921859      7397.8538      14795.721      4.6568044    
  11236200   112297.84      1.2683183     -18123486       0.57357104     334403.8      -17789082       956.14373      956.14373      956.14373      2021.9281      2978.0719      2021.9281      2978.0719      2021.9281      2978.0719      8.7411696e+08  0.5            5620600        2.1059349      7273.2113      14546.419      4.6438602    
  11236400   114149.91      2.937954      -18130237       0.57357104     339918.94     -17790318       956.14373      956.14373      956.14373      2021.9281      2978.0719      2021.9281      2978.0719      2021.9281      2978.0719      8.7411696e+08  0.5            5620700        2.1196893      7270.4166      14540.845      4.6309171    
  11236600   123100.51      5.1738438     -18129648       0.57357104     366572.3      -17763076       956.14373      956.14373      956.14373      2021.9281      2978.0719      2021.9281      2978.0719      2021.9281      2978.0719      8.7411696e+08  0.5            5620800        2.1332333      7383.3721      14766.716      4.6175084    
  11236800   119497.53      5.0749763     -18127764       0.57357104     355843.24     -17771921       956.14373      956.14373      956.14373      2021.9281      2978.0719      2021.9281      2978.0719      2021.9281      2978.0719      8.7411696e+08  0.5            5620900        2.1469571      7286.5622      14573.128      4.6044839    
  11237000   115247.04      5.7186175     -18117996       0.57357104     343186        -17774810       956.14373      956.14373      956.14373      2021.9281      2978.0719      2021.9281      2978.0719      2021.9281      2978.0719      8.7411696e+08  0.5            5621000        2.1605223      7371.8445      14743.695      4.5911134    
  11237200   117331.07      7.1004871     -18119424       0.57357104     349391.89     -17770033       956.14373      956.14373      956.14373      2021.9281      2978.0719      2021.9281      2978.0719      2021.9281      2978.0719      8.7411696e+08  0.5            5621100        2.1739795      7430.9779      14861.97       4.577513     
  11237400   123172.75      8.2093882     -18139814       0.57357104     366787.4      -17773027       956.14373      956.14373      956.14373      2021.9281      2978.0719      2021.9281      2978.0719      2021.9281      2978.0719      8.7411696e+08  0.5            5621200        2.1877994      7235.9235      14471.864      4.5646712    
  11237600   122540.97      8.2612417     -18156402       0.57357104     364906.09     -17791496       956.14373      956.14373      956.14373      2021.9281      2978.0719      2021.9281      2978.0719      2021.9281      2978.0719      8.7411696e+08  0.5            5621300        2.2012263      7447.74        14895.389      4.5510051    
  11237800   120425.61      9.2061508     -18143134       0.57357104     358606.91     -17784527       956.14373      956.14373      956.14373      2021.9281      2978.0719      2021.9281      2978.0719      2021.9281      2978.0719      8.7411696e+08  0.5            5621400        2.2149315      7296.5033      14593.051      4.5379117    
  11238000   120880.17      9.4456062     -18144616       0.57357104     359960.5      -17784656       956.14373      956.14373      956.14373      2021.9281      2978.0719      2021.9281      2978.0719      2021.9281      2978.0719      8.7411696e+08  0.5            5621500        2.2289961      7110.0413      14220.111      4.5255408    
  11238200   122577.27      10.720131     -18125587       0.57357104     365014.19     -17760573       956.14373      956.14373      956.14373      2021.9281      2978.0719      2021.9281      2978.0719      2021.9281      2978.0719      8.7411696e+08  0.5            5621600        2.2427408      7275.5322      14551.053      4.5125059    
  11238400   124110.9       12.018304     -18123153       0.57357104     369581.06     -17753572       956.14373      956.14373      956.14373      2021.9281      2978.0719      2021.9281      2978.0719      2021.9281      2978.0719      8.7411696e+08  0.5            5621700        2.2564324      7303.7387      14607.509      4.4993564    
  11238600   125046.56      13.493876     -18117386       0.57357104     372367.31     -17745019       956.14373      956.14373      956.14373      2021.9281      2978.0719      2021.9281      2978.0719      2021.9281      2978.0719      8.7411696e+08  0.5            5621800        2.269971       7386.3006      14772.593      4.4858982    
  11238800   128374.97      14.382993     -18124325       0.57357104     382278.75     -17742046       956.14373      956.14373      956.14373      2021.9281      2978.0719      2021.9281      2978.0719      2021.9281      2978.0719      8.7411696e+08  0.5            5621900        2.2837008      7283.3806      14566.73       4.4728139    
  11239000   129869.05      15.546861     -18125594       0.57357104     386727.86     -17738866       956.14373      956.14373      956.14373      2021.9281      2978.0719      2021.9281      2978.0719      2021.9281      2978.0719      8.7411696e+08  0.5            5622000        2.2973224      7341.3246      14682.649      4.4595114    
  11239200   124325.68      16.360825     -18122553       0.57357104     370220.65     -17752332       956.14373      956.14373      956.14373      2021.9281      2978.0719      2021.9281      2978.0719      2021.9281      2978.0719      8.7411696e+08  0.5            5622100        2.3111663      7223.4017      14446.824      4.446633     
  11239400   122782.63      17.078873     -18126606       0.57357104     365625.71     -17760980       956.14373      956.14373      956.14373      2021.9281      2978.0719      2021.9281      2978.0719      2021.9281      2978.0719      8.7411696e+08  0.5            5622200        2.3253736      7038.6499      14077.33       4.4344363    
  11239600   129640.84      18.995511     -18132981       0.57357104     386048.29     -17746933       956.14373      956.14373      956.14373      2021.9281      2978.0719      2021.9281      2978.0719      2021.9281      2978.0719      8.7411696e+08  0.5            5622300        2.3393103      7175.257       14350.407      4.4217054    
  11239800   131016.08      20.437895     -18135250       0.57357104     390143.5      -17745107       956.14373      956.14373      956.14373      2021.9281      2978.0719      2021.9281      2978.0719      2021.9281      2978.0719      8.7411696e+08  0.5            5622400        2.352871       7374.262       14748.57       4.4082558    
  11240000   128774.24      21.17317      -18133653       0.57357104     383467.69     -17750186       956.14373      956.14373      956.14373      2021.9281      2978.0719      2021.9281      2978.0719      2021.9281      2978.0719      8.7411696e+08  0.5            5622500        2.3665603      7304.977       14609.973      4.3950437    
  11240200   128442.78      22.153871     -18134279       0.57357104     382480.68     -17751798       956.14373      956.14373      956.14373      2021.9281      2978.0719      2021.9281      2978.0719      2021.9281      2978.0719      8.7411696e+08  0.5            5622600        2.3803158      7269.8241      14539.623      4.3819481    
  11240400   135912.97      25.315148     -18132631       0.57357104     404725.63     -17727906       956.14373      956.14373      956.14373      2021.9281      2978.0719      2021.9281      2978.0719      2021.9281      2978.0719      8.7411696e+08  0.5            5622700        2.3937819      7426.0644      14852.188      4.3683168    
  11240600   137609.64      26.424037     -18129014       0.57357104     409778        -17719236       956.14373      956.14373      956.14373      2021.9281      2978.0719      2021.9281      2978.0719      2021.9281      2978.0719      8.7411696e+08  0.5            5622800        2.407296       7399.634       14799.181      4.3547746    
  11240800   131702.82      27.441064     -18127717       0.57357104     392188.52     -17735528       956.14373      956.14373      956.14373      2021.9281      2978.0719      2021.9281      2978.0719      2021.9281      2978.0719      8.7411696e+08  0.5            5622900        2.421463       7058.6789      14117.42       4.3424031    
  11241000   130836.48      28.508616     -18126516       0.57357104     389608.7      -17736907       956.14373      956.14373      956.14373      2021.9281      2978.0719      2021.9281      2978.0719      2021.9281      2978.0719      8.7411696e+08  0.5            5623000        2.4353924      7179.0519      14358.067      4.3295897    
  11241200   133798.03      29.679167     -18132433       0.57357104     398427.7      -17734005       956.14373      956.14373      956.14373      2021.9281      2978.0719      2021.9281      2978.0719      2021.9281      2978.0719      8.7411696e+08  0.5            5623100        2.4491966      7244.2067      14488.444      4.3165427    
  11241400   136737.72      31.321994     -18136700       0.57357104     407181.59     -17729519       956.14373      956.14373      956.14373      2021.9281      2978.0719      2021.9281      2978.0719      2021.9281      2978.0719      8.7411696e+08  0.5            5623200        2.4629048      7294.8665      14589.721      4.3033201    
  11241600   136560.45      33.271094     -18126086       0.57357104     406653.71     -17719432       956.14373      956.14373      956.14373      2021.9281      2978.0719      2021.9281      2978.0719      2021.9281      2978.0719      8.7411696e+08  0.5            5623300        2.4764848      7363.8115      14727.634      4.2898698    
  11241800   131026.5       33.440968     -18134867       0.57357104     390174.55     -17744693       956.14373      956.14373      956.14373      2021.9281      2978.0719      2021.9281      2978.0719      2021.9281      2978.0719      8.7411696e+08  0.5            5623400        2.4901418      7322.2336      14644.464      4.2765507    
  11242000   132268.83      35.276615     -18118632       0.57357104     393874        -17724758       956.14373      956.14373      956.14373      2021.9281      2978.0719      2021.9281      2978.0719      2021.9281      2978.0719      8.7411696e+08  0.5            5623500        2.5039388      7247.9567      14495.868      4.2634663    
  11242200   139897.92      37.096399     -18119463       0.57357104     416592.12     -17702871       956.14373      956.14373      956.14373      2021.9281      2978.0719      2021.9281      2978.0719      2021.9281      2978.0719      8.7411696e+08  0.5            5623600        2.5177746      7227.6504      14455.315      4.2504394    
  11242400   140826.24      38.331558     -18114579       0.57357104     419356.5      -17695223       956.14373      956.14373      956.14373      2021.9281      2978.0719      2021.9281      2978.0719      2021.9281      2978.0719      8.7411696e+08  0.5            5623700        2.5315074      7281.8309      14563.642      4.2372317    
  11242600   137086.17      38.567529     -18113109       0.57357104     408219.21     -17704890       956.14373      956.14373      956.14373      2021.9281      2978.0719      2021.9281      2978.0719      2021.9281      2978.0719      8.7411696e+08  0.5            5623800        2.5451621      7323.4701      14646.962      4.2238888    
  11242800   134605.82      39.623255     -18112366       0.57357104     400833.14     -17711532       956.14373      956.14373      956.14373      2021.9281      2978.0719      2021.9281      2978.0719      2021.9281      2978.0719      8.7411696e+08  0.5            5623900        2.5587293      7370.7431      14741.541      4.2103984    
  11243000   142999.06      42.017059     -18116706       0.57357104     425826.77     -17690879       956.14373      956.14373      956.14373      2021.9281      2978.0719      2021.9281      2978.0719      2021.9281      2978.0719      8.7411696e+08  0.5            5624000        2.5725103      7256.3459      14512.66       4.1972564    
  11243200   145532.04      43.352746     -18118867       0.57357104     433369.55     -17685497       956.14373      956.14373      956.14373      2021.9281      2978.0719      2021.9281      2978.0719      2021.9281      2978.0719      8.7411696e+08  0.5            5624100        2.5859986      7413.8239      14827.659      4.183634     
  11243400   140521.57      43.65372      -18119767       0.57357104     418449.23     -17701318       956.14373      956.14373      956.14373      2021.9281      2978.0719      2021.9281      2978.0719      2021.9281      2978.0719      8.7411696e+08  0.5            5624200        2.5994835      7415.6844      14831.389      4.1700074    
  11243600   138258.34      44.766915     -18109076       0.57357104     411709.74     -17697366       956.14373      956.14373      956.14373      2021.9281      2978.0719      2021.9281      2978.0719      2021.9281      2978.0719      8.7411696e+08  0.5            5624300        2.6133136      7230.6376      14461.287      4.1569314    
  11243800   147794.01      46.571577     -18114948       0.57357104     440105.32     -17674843       956.14373      956.14373      956.14373      2021.9281      2978.0719      2021.9281      2978.0719      2021.9281      2978.0719      8.7411696e+08  0.5            5624400        2.6274827      7057.5794      14115.168      4.1443825    
  11244000   148955.97      48.797296     -18105867       0.57357104     443565.45     -17662301       956.14373      956.14373      956.14373      2021.9281      2978.0719      2021.9281      2978.0719      2021.9281      2978.0719      8.7411696e+08  0.5            5624500        2.6411242      7330.5904      14661.115      4.1309917    
  11244200   143526.27      48.776357     -18115238       0.57357104     427396.73     -17687841       956.14373      956.14373      956.14373      2021.9281      2978.0719      2021.9281      2978.0719      2021.9281      2978.0719      8.7411696e+08  0.5            5624600        2.6549254      7245.7215      14491.486      4.117846     
  11244400   142222.7       49.974323     -18111471       0.57357104     423514.92     -17687956       956.14373      956.14373      956.14373      2021.9281      2978.0719      2021.9281      2978.0719      2021.9281      2978.0719      8.7411696e+08  0.5            5624700        2.668477       7379.2319      14758.447      4.1043098    
  11244600   149263.88      52.401302     -18109535       0.57357104     444482.34     -17665052       956.14373      956.14373      956.14373      2021.9281      2978.0719      2021.9281      2978.0719      2021.9281      2978.0719      8.7411696e+08  0.5            5624800        2.682238       7266.8736      14533.757      4.0910928    
  11244800   152271.8       53.587601     -18107470       0.57357104     453439.41     -17654031       956.14373      956.14373      956.14373      2021.9281      2978.0719      2021.9281      2978.0719      2021.9281      2978.0719      8.7411696e+08  0.5            5624900        2.6958383      7352.812       14705.584      4.0776272    
  11245000   148621.18      54.322072     -18105695       0.57357104     442568.48     -17663127       956.14373      956.14373      956.14373      2021.9281      2978.0719      2021.9281      2978.0719      2021.9281      2978.0719      8.7411696e+08  0.5            5625000        2.7094084      7369.1338      14738.3        4.0641151    
  11245200   146748.49      55.636956     -18110896       0.57357104     436991.95     -17673904       956.14373      956.14373      956.14373      2021.9281      2978.0719      2021.9281      2978.0719      2021.9281      2978.0719      8.7411696e+08  0.5            5625100        2.7240802      6815.7893      13631.544      4.0522413    
  11245400   149246.62      56.462215     -18103226       0.57357104     444430.94     -17658795       956.14373      956.14373      956.14373      2021.9281      2978.0719      2021.9281      2978.0719      2021.9281      2978.0719      8.7411696e+08  0.5            5625200        2.7379235      7223.7257      14447.462      4.0391174    
  11245600   156199.9       58.715999     -18103236       0.57357104     465136.61     -17638099       956.14373      956.14373      956.14373      2021.9281      2978.0719      2021.9281      2978.0719      2021.9281      2978.0719      8.7411696e+08  0.5            5625300        2.7517657      7224.3055      14448.639      4.0259847    
  11245800   155229.49      60.117197     -18100873       0.57357104     462246.92     -17638626       956.14373      956.14373      956.14373      2021.9281      2978.0719      2021.9281      2978.0719      2021.9281      2978.0719      8.7411696e+08  0.5            5625400        2.7651955      7446.1467      14892.311      4.0122467    
  11246000   143290.22      59.08885      -18100831       0.57357104     426693.81     -17674137       956.14373      956.14373      956.14373      2021.9281      2978.0719      2021.9281      2978.0719      2021.9281      2978.0719      8.7411696e+08  0.5            5625500        2.7790175      7234.787       14469.512      3.9990765    
  11246200   147428.58      60.34587      -18102397       0.57357104     439017.13     -17663380       956.14373      956.14373      956.14373      2021.9281      2978.0719      2021.9281      2978.0719      2021.9281      2978.0719      8.7411696e+08  0.5            5625600        2.7925659      7380.9535      14761.966      3.985509     
  11246400   153905.88      62.334278     -18105716       0.57357104     458305.43     -17647410       956.14373      956.14373      956.14373      2021.9281      2978.0719      2021.9281      2978.0719      2021.9281      2978.0719      8.7411696e+08  0.5            5625700        2.8060994      7389.0765      14778.199      3.9719207    
  11246600   155673.78      62.867623     -18088809       0.57357104     463569.94     -17625239       956.14373      956.14373      956.14373      2021.9281      2978.0719      2021.9281      2978.0719      2021.9281      2978.0719      8.7411696e+08  0.5            5625800        2.8201432      7120.5738      14241.127      3.9590495    
  11246800   154464.06      63.323353     -18094456       0.57357104     459967.59     -17634489       956.14373      956.14373      956.14373      2021.9281      2978.0719      2021.9281      2978.0719      2021.9281      2978.0719      8.7411696e+08  0.5            5625900        2.8339562      7239.5763      14479.134      3.9458456    
  11247000   152618.95      63.149619     -18092479       0.57357104     454473.16     -17638006       956.14373      956.14373      956.14373      2021.9281      2978.0719      2021.9281      2978.0719      2021.9281      2978.0719      8.7411696e+08  0.5            5626000        2.8476571      7298.7746      14597.462      3.9324812    
  11247200   156317.83      64.416689     -18102124       0.57357104     465487.81     -17636637       956.14373      956.14373      956.14373      2021.9281      2978.0719      2021.9281      2978.0719      2021.9281      2978.0719      8.7411696e+08  0.5            5626100        2.8612303      7367.4789      14735.035      3.9189385    
  11247400   161873.35      65.749241     -18094468       0.57357104     482031.2      -17612437       956.14373      956.14373      956.14373      2021.9281      2978.0719      2021.9281      2978.0719      2021.9281      2978.0719      8.7411696e+08  0.5            5626200        2.8750481      7237.0326      14474.093      3.9057279    
  11247600   158704.44      65.432002     -18094638       0.57357104     472594.72     -17622043       956.14373      956.14373      956.14373      2021.9281      2978.0719      2021.9281      2978.0719      2021.9281      2978.0719      8.7411696e+08  0.5            5626300        2.8885759      7392.1855      14784.35       3.8921209    
  11247800   151063.84      63.818325     -18098563       0.57357104     449842.33     -17648720       956.14373      956.14373      956.14373      2021.9281      2978.0719      2021.9281      2978.0719      2021.9281      2978.0719      8.7411696e+08  0.5            5626400        2.902396       7235.8235      14471.611      3.8789053    
  11248000   156295.86      63.809578     -18097164       0.57357104     465422.38     -17631742       956.14373      956.14373      956.14373      2021.9281      2978.0719      2021.9281      2978.0719      2021.9281      2978.0719      8.7411696e+08  0.5            5626500        2.9160433      7327.4873      14655.003      3.8654549    
  11248200   164455.86      64.476584     -18095547       0.57357104     489721.47     -17605826       956.14373      956.14373      956.14373      2021.9281      2978.0719      2021.9281      2978.0719      2021.9281      2978.0719      8.7411696e+08  0.5            5626600        2.9301122      7107.8515      14215.725      3.8525571    
  11248400   160719.63      63.491555     -18103295       0.57357104     478595.6      -17624699       956.14373      956.14373      956.14373      2021.9281      2978.0719      2021.9281      2978.0719      2021.9281      2978.0719      8.7411696e+08  0.5            5626700        2.9438622      7272.7289      14545.404      3.8392326    
  11248600   156937.03      61.937075     -18107063       0.57357104     467331.67     -17639732       956.14373      956.14373      956.14373      2021.9281      2978.0719      2021.9281      2978.0719      2021.9281      2978.0719      8.7411696e+08  0.5            5626800        2.9573643      7406.2597      14812.561      3.8255834    
  11248800   161797.38      61.891383     -18089993       0.57357104     481804.96     -17608188       956.14373      956.14373      956.14373      2021.9281      2978.0719      2021.9281      2978.0719      2021.9281      2978.0719      8.7411696e+08  0.5            5626900        2.9711773      7239.5926      14479.173      3.8123345    
  11249000   169219.63      61.861027     -18087788       0.57357104     503907.17     -17583881       956.14373      956.14373      956.14373      2021.9281      2978.0719      2021.9281      2978.0719      2021.9281      2978.0719      8.7411696e+08  0.5            5627000        2.9847799      7351.5265      14703.048      3.7988128    
  11249200   165442.09      59.96087      -18089437       0.57357104     492658.31     -17596779       956.14373      956.14373      956.14373      2021.9281      2978.0719      2021.9281      2978.0719      2021.9281      2978.0719      8.7411696e+08  0.5            5627100        2.9985586      7257.5324      14515.062      3.7855127    
  11249400   162419.28      58.175652     -18083425       0.57357104     483656.89     -17599768       956.14373      956.14373      956.14373      2021.9281      2978.0719      2021.9281      2978.0719      2021.9281      2978.0719      8.7411696e+08  0.5            5627200        3.0120375      7419.0096      14838.04       3.7718328    
  11249600   163710.98      56.60417      -18083032       0.57357104     487503.33     -17595529       956.14373      956.14373      956.14373      2021.9281      2978.0719      2021.9281      2978.0719      2021.9281      2978.0719      8.7411696e+08  0.5            5627300        3.0260226      7150.4489      14300.884      3.7587835    
  11249800   166621.06      55.765429     -18083079       0.57357104     496169.06     -17586910       956.14373      956.14373      956.14373      2021.9281      2978.0719      2021.9281      2978.0719      2021.9281      2978.0719      8.7411696e+08  0.5            5627400        3.0396896      7316.9317      14633.846      3.7453339    
[...]
  11894400   308.8921      -0.50615348    -18765994       0.61157342     919.82794     -18765074       935.91424      935.91424      935.91424      2032.0429      2967.9571      2032.0429      2967.9571      2032.0429      2967.9571      8.1980047e+08  0.5            5949700        23.965206      6070.3492      12140.682      0.87778579   
  11894600   308.9974      -0.41565123    -18766103       0.61159144     920.14151     -18765183       935.90504      935.90504      935.90504      2032.0475      2967.9525      2032.0475      2967.9525      2032.0475      2967.9525      8.1977631e+08  0.5            5949800        23.981626      6090.2052      12180.411      0.86121868   
  11894800   309.10416      0.44928342    -18766213       0.61163922     920.4594      -18765292       935.88068      935.88068      935.88068      2032.0597      2967.9403      2032.0597      2967.9403      2032.0597      2967.9403      8.1971228e+08  0.5            5949900        23.998599      5891.877       11783.715      0.84467124   
  11895000   309.03516      1.5721232     -18766322       0.61169585     920.25394     -18765402       935.85179      935.85179      935.85179      2032.0741      2967.9259      2032.0741      2967.9259      2032.0741      2967.9259      8.1963639e+08  0.5            5950000        24.015104      6058.7455      12117.539      0.82810709   
  11895200   308.96309      2.2302904     -18766432       0.61173261     920.03933     -18765512       935.83304      935.83304      935.83304      2032.0835      2967.9165      2032.0835      2967.9165      2032.0835      2967.9165      8.1958713e+08  0.5            5950100        24.03156       6076.5443      12153.104      0.81154138   
  11895400   308.74187      2.6241824     -18766540       0.6117588      919.38056     -18765621       935.81969      935.81969      935.81969      2032.0902      2967.9098      2032.0902      2967.9098      2032.0902      2967.9098      8.1955205e+08  0.5            5950200        24.048039      6068.3813      12136.749      0.79497657   
  11895600   308.64798      2.8671302     -18766647       0.61178081     919.10097     -18765728       935.80847      935.80847      935.80847      2032.0958      2967.9042      2032.0958      2967.9042      2032.0958      2967.9042      8.1952256e+08  0.5            5950300        24.064455      6091.668       12183.318      0.77840983   
  11895800   308.82542      2.5349348     -18766756       0.61178343     919.62935     -18765836       935.80713      935.80713      935.80713      2032.0964      2967.9036      2032.0964      2967.9036      2032.0964      2967.9036      8.1951905e+08  0.5            5950400        24.080891      6084.4482      12168.926      0.76184391   
  11896000   309.00655      1.2795114     -18766867       0.61175283     920.16875     -18765947       935.82274      935.82274      935.82274      2032.0886      2967.9114      2032.0886      2967.9114      2032.0886      2967.9114      8.1956005e+08  0.5            5950500        24.097685      5954.4374      11908.834      0.74528928   
  11896200   309.25962      0.021070061   -18766978       0.61172197     920.92235     -18766057       935.83847      935.83847      935.83847      2032.0808      2967.9192      2032.0808      2967.9192      2032.0808      2967.9192      8.1960139e+08  0.5            5950600        24.114425      5973.7146      11947.455      0.72873267   
  11896400   309.26497     -0.3751498     -18767089       0.61172196     920.93828     -18766168       935.83848      935.83848      935.83848      2032.0808      2967.9192      2032.0808      2967.9192      2032.0808      2967.9192      8.1960141e+08  0.5            5950700        24.131156      5976.7994      11953.593      0.71217556   
  11896600   309.10207     -0.25453702    -18767200       0.61173932     920.45319     -18766280       935.82963      935.82963      935.82963      2032.0852      2967.9148      2032.0852      2967.9148      2032.0852      2967.9148      8.1957814e+08  0.5            5950800        24.147573      6091.4161      12182.804      0.69560914   
  11896800   308.94567      0.21743099    -18767311       0.61176831     919.98746     -18766391       935.81485      935.81485      935.81485      2032.0926      2967.9074      2032.0926      2967.9074      2032.0926      2967.9074      8.1953931e+08  0.5            5950900        24.163953      6105.0307      12210.081      0.6790419    
  11897000   308.7805       0.82160188    -18767422       0.61180217     919.49559     -18766502       935.79758      935.79758      935.79758      2032.1012      2967.8988      2032.1012      2967.8988      2032.1012      2967.8988      8.1949395e+08  0.5            5951000        24.180352      6097.9514      12195.904      0.66247544   
  11897200   308.90024      1.3762308     -18767531       0.61183434     919.85218     -18766611       935.78117      935.78117      935.78117      2032.1094      2967.8906      2032.1094      2967.8906      2032.1094      2967.8906      8.1945085e+08  0.5            5951100        24.197146      5954.5058      11909.039      0.64591975   
  11897400   308.95397      1.8706504     -18767640       0.61186366     920.01216     -18766720       935.76623      935.76623      935.76623      2032.1169      2967.8831      2032.1169      2967.8831      2032.1169      2967.8831      8.1941159e+08  0.5            5951200        24.213653      6057.9721      12115.947      0.62935627   
  11897600   308.86737     -0.04944357    -18767751       0.6118034      919.75428     -18766831       935.79695      935.79695      935.79695      2032.1015      2967.8985      2032.1015      2967.8985      2032.1015      2967.8985      8.194923e+08   0.5            5951300        24.230097      6081.0568      12162.117      0.61279129   
  11897800   308.92194      2.0239615     -18775236       0.61189999     919.9168      -18774316       935.74771      935.74771      935.74771      2032.1261      2967.8739      2032.1261      2967.8739      2032.1261      2967.8739      8.1936295e+08  0.5            5951400        24.246537      6082.6603      12165.314      0.59622637   
  11898000   308.87691      1.9311794     -18775346       0.61191074     919.7827      -18774426       935.74223      935.74223      935.74223      2032.1289      2967.8711      2032.1289      2967.8711      2032.1289      2967.8711      8.1934855e+08  0.5            5951500        24.262962      6088.5273      12177.048      0.57966125   
  11898200   309.03675      1.8581606     -18775455       0.61192326     920.25868     -18774535       935.73585      935.73585      935.73585      2032.1321      2967.8679      2032.1321      2967.8679      2032.1321      2967.8679      8.1933178e+08  0.5            5951600        24.279475      6055.6984      12111.385      0.56309837   
  11898400   309.22814      0.37370865    -18768190       0.61187727     920.82861     -18767269       935.75929      935.75929      935.75929      2032.1204      2967.8796      2032.1204      2967.8796      2032.1204      2967.8796      8.1939337e+08  0.5            5951700        24.296342      5928.8934      11857.792      0.54654351   
  11898600   309.36886      1.2289839     -18768301       0.61192433     921.24765     -18767380       935.7353       935.7353       935.7353       2032.1323      2967.8677      2032.1323      2967.8677      2032.1323      2967.8677      8.1933035e+08  0.5            5951800        24.312944      6023.3772      12046.728      0.52998246   
  11898800   309.28182      1.0633697     -18768414       0.61193099     920.98844     -18767493       935.73191      935.73191      935.73191      2032.134       2967.866       2032.134       2967.866       2032.134       2967.866       8.1932143e+08  0.5            5951900        24.329354      6093.7034      12187.389      0.51341731   
  11899000   308.98336      0.79104418    -18768526       0.61193193     920.09969     -18767606       935.73143      935.73143      935.73143      2032.1343      2967.8657      2032.1343      2967.8657      2032.1343      2967.8657      8.1932017e+08  0.5            5952000        24.345866      6056.3501      12112.747      0.49685444   
  11899200   308.97133      0.61481015    -18768637       0.61193639     920.06385     -18767717       935.72916      935.72916      935.72916      2032.1354      2967.8646      2032.1354      2967.8646      2032.1354      2967.8646      8.1931421e+08  0.5            5952100        24.362278      6093.0399      12186.087      0.48028967   
  11899400   309.1174       0.60309685    -18768749       0.61194766     920.49883     -18767829       935.72341      935.72341      935.72341      2032.1383      2967.8617      2032.1383      2967.8617      2032.1383      2967.8617      8.1929911e+08  0.5            5952200        24.378692      6092.4593      12184.913      0.46372514   
  11899600   309.24367      0.72738927    -18768861       0.61196466     920.87485     -18767940       935.71475      935.71475      935.71475      2032.1426      2967.8574      2032.1426      2967.8574      2032.1426      2967.8574      8.1927636e+08  0.5            5952300        24.395485      5954.5905      11909.17       0.44716779   
  11899800   309.24131      0.98378888    -18768974       0.61198649     920.86782     -18768053       935.70362      935.70362      935.70362      2032.1482      2967.8518      2032.1482      2967.8518      2032.1482      2967.8518      8.1924713e+08  0.5            5952400        24.412182      5989.2856      11978.558      0.4306084    
  11900000   309.03366      1.267701      -18769086       0.6120092      920.24946     -18768165       935.69205      935.69205      935.69205      2032.154       2967.846       2032.154       2967.846       2032.154       2967.846       8.1921673e+08  0.5            5952500        24.428834      6005.0153      12010.041      0.41404807   
  11900200   309.11506      1.2165854     -18769198       0.6120202      920.49187     -18768277       935.68644      935.68644      935.68644      2032.1568      2967.8432      2032.1568      2967.8432      2032.1568      2967.8432      8.1920201e+08  0.5            5952600        24.445338      6059.3222      12118.625      0.3974852    
  11900400   309.27224      0.81151344    -18769311       0.61201832     920.95991     -18768390       935.6874       935.6874       935.6874       2032.1563      2967.8437      2032.1563      2967.8437      2032.1563      2967.8437      8.1920453e+08  0.5            5952700        24.461699      6112.0454      12224.078      0.38092019   
  11900600   309.30154      0.79883311    -18769424       0.61203041     921.04718     -18768503       935.68124      935.68124      935.68124      2032.1594      2967.8406      2032.1594      2967.8406      2032.1594      2967.8406      8.1918834e+08  0.5            5952800        24.478098      6097.8491      12195.736      0.36435603   
  11900800   309.18584      1.2674373     -18769536       0.6120598      920.70263     -18768615       935.66626      935.66626      935.66626      2032.1669      2967.8331      2032.1669      2967.8331      2032.1669      2967.8331      8.19149e+08    0.5            5952900        24.494844      5971.8599      11943.739      0.34779699   
  11901000   308.95477      1.0867844     -18769648       0.61206548     920.01455     -18768728       935.66337      935.66337      935.66337      2032.1683      2967.8317      2032.1683      2967.8317      2032.1683      2967.8317      8.191414e+08   0.5            5953000        24.511502      6002.8041      12005.598      0.33123654   
  11901200   308.99656      1.1916944     -18771655       0.612084       920.13899     -18770735       935.65393      935.65393      935.65393      2032.173       2967.827       2032.173       2967.827       2032.173       2967.827       8.1911662e+08  0.5            5953100        24.527995      6063.4798      12126.951      0.31467382   
  11901400   309.00649      0.78814905    -18771766       0.61208226     920.16857     -18770846       935.65481      935.65481      935.65481      2032.1726      2967.8274      2032.1726      2967.8274      2032.1726      2967.8274      8.1911894e+08  0.5            5953200        24.544449      6077.5865      12155.2        0.29811073   
  11901600   309.07804      0.60621975    -18771878       0.61209053     920.38161     -18770957       935.6506       935.6506       935.6506       2032.1747      2967.8253      2032.1747      2967.8253      2032.1747      2967.8253      8.1910788e+08  0.5            5953300        24.561106      6003.3681      12006.737      0.28155012   
  11901800   309.23944      0.67141762    -18771989       0.61210921     920.86225     -18771068       935.64108      935.64108      935.64108      2032.1795      2967.8205      2032.1795      2967.8205      2032.1795      2967.8205      8.1908289e+08  0.5            5953400        24.577946      5938.1481      11876.25       0.26499135   
  11902000   309.23159      1.1105542     -18772102       0.61214123     920.83887     -18771181       935.62477      935.62477      935.62477      2032.1876      2967.8124      2032.1876      2967.8124      2032.1876      2967.8124      8.1904004e+08  0.5            5953500        24.594774      5942.4408      11884.882      0.24843208   
  11902200   309.20924      1.9545113     -18772213       0.61218667     920.77231     -18771292       935.60162      935.60162      935.60162      2032.1992      2967.8008      2032.1992      2967.8008      2032.1992      2967.8008      8.1897924e+08  0.5            5953600        24.611331      6039.9305      12079.888      0.23186989   
  11902400   309.1566       1.8499958     -18772325       0.6121973      920.61555     -18771405       935.5962       935.5962       935.5962       2032.2019      2967.7981      2032.2019      2967.7981      2032.2019      2967.7981      8.1896502e+08  0.5            5953700        24.627729      6098.301       12196.596      0.21530632   
  11902600   309.22991      0.56386275    -18772439       0.61216498     920.83386     -18771518       935.61267      935.61267      935.61267      2032.1937      2967.8063      2032.1937      2967.8063      2032.1937      2967.8063      8.1900826e+08  0.5            5953800        24.644176      6080.0087      12160.012      0.19874337   
  11902800   309.35442     -0.41793991    -18772553       0.61214422     921.20463     -18771631       935.62324      935.62324      935.62324      2032.1884      2967.8116      2032.1884      2967.8116      2032.1884      2967.8116      8.1903603e+08  0.5            5953900        24.660689      6056.002       12112          0.18218106   
  11903000   309.28082      0.76544981    -18772666       0.61220231     920.98548     -18771745       935.59366      935.59366      935.59366      2032.2032      2967.7968      2032.2032      2967.7968      2032.2032      2967.7968      8.1895833e+08  0.5            5954000        24.677162      6070.4969      12141.002      0.16561855   
  11903200   309.24414      2.5789488     -18772778       0.61228178     920.87625     -18771857       935.55318      935.55318      935.55318      2032.2234      2967.7766      2032.2234      2967.7766      2032.2234      2967.7766      8.1885203e+08  0.5            5954100        24.693916      5968.5967      11937.173      0.14905786   
  11903400   309.12076      0.050002506   -18772893       0.61220076     920.50883     -18771973       935.59444      935.59444      935.59444      2032.2028      2967.7972      2032.2028      2967.7972      2032.2028      2967.7972      8.189604e+08   0.5            5954200        24.710654      5974.5369      11949.076      0.13249681   
  11903600   309.04886      0.35470207    -18773006       0.61222397     920.29474     -18772085       935.58262      935.58262      935.58262      2032.2087      2967.7913      2032.2087      2967.7913      2032.2087      2967.7913      8.1892935e+08  0.5            5954300        24.727108      6077.459       12154.931      0.11593421   
  11903800   309.1382       1.9353624     -18773117       0.61229572     920.56078     -18772196       935.54607      935.54607      935.54607      2032.227       2967.773       2032.227       2967.773       2032.227       2967.773       8.1883338e+08  0.5            5954400        24.743572      6073.8076      12147.637      0.099371783  
  11904000   309.24047      0.57678085    -18773231       0.61226074     920.86531     -18772310       935.56389      935.56389      935.56389      2032.2181      2967.7819      2032.2181      2967.7819      2032.2181      2967.7819      8.1888016e+08  0.5            5954500        24.760042      6071.7114      12143.407      0.082809511  
  11904200   309.41909     -0.43594466    -18773344       0.61223826     921.39721     -18772423       935.57534      935.57534      935.57534      2032.2123      2967.7877      2032.2123      2967.7877      2032.2123      2967.7877      8.1891024e+08  0.5            5954600        24.776506      6073.95        12147.874      0.066247346  
  11904400   309.39327      0.43286699    -18780836       0.6122893      921.32032     -18779915       935.54934      935.54934      935.54934      2032.2253      2967.7747      2032.2253      2967.7747      2032.2253      2967.7747      8.1884197e+08  0.5            5954700        24.793057      6041.9292      12083.901      0.049685488  
  11904600   309.36743      0.94873826    -18780950       0.61232137     921.24339     -18780029       935.53301      935.53301      935.53301      2032.2335      2967.7665      2032.2335      2967.7665      2032.2335      2967.7665      8.1879909e+08  0.5            5954800        24.809645      6028.4601      12056.905      0.033123694  
  11904800   309.48282      0.82490025    -18781066       0.61232883     921.587       -18780144       935.52921      935.52921      935.52921      2032.2354      2967.7646      2032.2354      2967.7646      2032.2354      2967.7646      8.187891e+08   0.5            5954900        24.826065      6090.1844      12180.365      0.016561752  
  11905000   309.28473     -0.40670792    -18780812       0.61229136     920.99713     -18779892       935.5483       935.5483       935.5483       2032.2259      2967.7741      2032.2259      2967.7741      2032.2259      2967.7741      8.1883922e+08  0.5            5955000        24.842514      6079.3467      12158.681      0            
Loop time of 24.8426 on 4 procs for 300000 steps with 1000 atoms

Performance: 521.685 ns/day, 0.046 hours/ns, 12076.052 timesteps/s
99.6% CPU use with 4 MPI tasks x no OpenMP threads

MPI task timing breakdown:
Section |  min time  |  avg time  |  max time  |%varavg| %total
---------------------------------------------------------------
Pair    | 2.7511     | 4.9248     | 9.2029     | 113.4 | 19.82
Neigh   | 0.006076   | 0.010702   | 0.018033   |   4.3 |  0.04
Comm    | 8.494      | 11.614     | 13.125     |  53.9 | 46.75
Output  | 0.050457   | 0.069899   | 0.12544    |  12.1 |  0.28
Modify  | 6.285      | 6.5848     | 6.8347     |   9.5 | 26.51
Other   |            | 1.638      |            |       |  6.59

Nlocal:            250 ave         364 max         175 min
Histogram: 1 0 1 1 0 0 0 0 0 1
Nghost:         507.25 ave         531 max         467 min
Histogram: 1 0 0 0 0 1 0 0 0 2
Neighs:         845.75 ave        1669 max         394 min
Histogram: 1 1 1 0 0 0 0 0 0 1

Total # of neighbors = 3383
Ave neighs/atom = 3.383
Neighbor list builds = 99
Dangerous builds = 21

# run_style
run_style verlet

# write restart
write_restart ${write_res}
write_restart ./pgnpmf/600400/equpmf17.res
System init for write_restart ...
Generated 0 of 1 mixed pair_coeff terms from geometric mixing rule

Total wall time: 0:00:52
