ITEM: TIMESTEP
233000
ITEM: NUMBER OF ATOMS
1000
ITEM: BOX BOUNDS pp pp pp
1.3138169096262704e+03 3.6861830903733653e+03
1.3138169096262704e+03 3.6861830903733653e+03
1.3138169096262704e+03 3.6861830903733653e+03
ITEM: ATOMS id type x y z ix iy iz
1 2 3515.99 3329.33 1550.33 0 0 0
2 2 1729.74 1406.78 2660.01 0 1 -1
3 2 2068.18 3637.05 1557.99 0 -1 1
4 2 1706.48 1955.46 3039.66 0 0 -1
5 2 3516.93 1328.72 3032.21 0 0 -1
6 2 1972.36 2435.58 1991.31 -1 0 -1
7 2 2081.3 2321.37 2028.97 0 0 0
8 2 1398.93 3561.58 2565.53 0 0 0
9 2 3498.29 2439.51 2152.14 -1 0 0
10 2 1814.98 3405.59 2990.27 0 0 0
11 2 2908.48 2342.9 3042.02 0 0 0
12 2 1346.62 3345.34 3014.25 0 0 -1
13 2 1431.39 2233.95 1525.84 1 0 1
14 2 1474.3 3363.58 1826.65 0 0 0
15 2 3487.86 1487.17 3317.9 0 0 -1
16 2 1766.65 3637.61 1508.44 0 -1 0
17 2 2434.85 1979.8 3452.01 2 1 0
18 2 2326.6 2253.77 3329.2 0 1 -1
19 2 2236.6 1791.79 3599.09 0 0 0
20 2 3564.92 1460.92 2998.4 0 1 0
21 2 1798.96 2538 1551.55 0 1 1
22 2 1483.82 3219.02 1732.58 0 0 1
23 2 2934.84 3156.75 1881.77 -1 1 0
24 2 1350.89 1807.64 3500.58 1 0 -1
25 2 2222.48 1407.23 1331.66 0 1 1
26 2 2910.15 2184.94 2741.56 0 0 1
27 2 1696.83 2972.39 3427.85 0 0 0
28 2 1450.6 2403.4 3646.22 0 0 0
29 2 3560.21 2110.69 2563.01 -1 1 0
30 2 3422.31 1733.33 3612.2 -1 1 0
31 2 1548.8 3208.5 3415.44 0 -1 0
32 2 1454.72 3663.64 2684.57 0 0 0
33 2 2081.17 1981.18 2042.24 0 0 0
34 2 2113.03 1660.96 3563.9 0 1 0
35 2 3272 3409.67 3655.15 0 -1 0
36 2 2170.68 1325.11 2960.82 0 1 0
37 2 1566.58 1544.64 2682.02 0 0 0
38 2 1364.29 2666.16 1386.34 0 1 0
39 2 3604.98 2466.92 1626.28 -1 1 0
40 2 2120.99 1944.21 3368.56 0 -1 0
41 2 1592.52 3222.64 1874.56 1 -1 0
42 2 3560.33 2264.47 1383.48 -1 0 0
43 2 1610.71 2397 2099.24 1 0 1
44 2 3149.22 2965.84 3303.97 1 -1 0
45 2 1514.05 2281.63 2036.65 0 0 0
46 2 3175.84 1486.91 2059.93 0 1 0
47 2 3605.22 2740.38 2242.21 -1 0 0
48 2 1340.79 2550.56 1512.64 1 0 0
49 2 3316.88 2339.5 1316.79 0 0 1
50 2 2306.4 3290.06 1832.04 0 0 1
51 2 3029.21 1488.93 3113.87 -1 1 1
52 2 2756.32 2329.14 1899.02 0 0 0
53 2 2019.28 2405.88 1549.86 0 0 1
54 2 1739.06 1548.12 2754.6 0 1 0
55 2 2690.98 1980.72 2773.93 0 0 -1
56 2 1901.55 2016.65 2045.45 0 0 0
57 2 1793.74 2262.43 3125.38 0 0 -1
58 2 1321.65 1995.46 2577.51 0 0 0
59 2 2951.94 2344.22 1989.1 -1 2 0
60 2 1991.33 3438.23 1516.46 0 0 0
61 2 3619.78 2303.46 2507.66 -1 0 0
62 2 3418.7 3327.89 3222.76 0 -1 0
63 2 1390.24 3455.11 3671 0 0 0
64 2 3593.24 2419.45 1473.12 0 0 1
65 2 2804.79 2075.55 2855.9 0 -1 0
66 2 3212.07 1529.25 3135.95 0 0 -1
67 2 2770.72 1430.12 3002.73 0 1 1
68 2 1676.98 2196.58 2440.32 0 0 1
69 2 2709.17 1816.76 1716.81 0 0 0
70 2 2234.84 3427.77 3078.14 0 0 0
71 2 1341.45 1478.67 1505.93 0 0 1
72 2 2853.54 2212.36 2586.26 -1 -1 0
73 2 3183.63 1432.71 1863.64 -2 -1 0
74 2 2060.63 1373.11 3634.65 0 1 -1
75 2 3301.76 1945.01 1490.39 0 0 0
76 2 2806.12 2648.43 2154.41 0 -1 0
77 2 3273.73 1768.74 1629.1 -1 1 1
78 2 1409.51 1692.12 2709.25 0 0 0
79 2 3595.09 2772.73 1364.84 -1 0 0
80 2 2091.12 3325.44 1664.03 0 0 -1
81 2 2268.38 1385.07 3531.33 0 2 0
82 2 2998.35 3216.23 2131.9 -1 0 -1
83 2 2373.04 3345.24 2604.12 0 0 0
84 2 2591.44 1845.71 1525.82 1 1 1
85 2 3224.96 1598.28 1575.45 0 1 0
86 2 3631.15 2316.53 1715.81 -1 0 1
87 2 1662.33 2050.54 2550.04 1 0 0
88 2 3685.12 3193.97 1444.42 -1 0 1
89 2 1361.48 2617.06 1688.49 1 0 1
90 2 3491.88 2204.24 3465.38 0 1 -1
91 2 2644.11 3110.36 3110.65 0 0 -1
92 2 2198.98 2268.26 1343.51 -1 0 0
93 2 2333.99 1393.88 1495.74 0 0 1
94 2 2322.33 2041.05 3554.12 1 1 -1
95 2 1625.72 2063.08 3140.55 0 0 -1
96 2 1998.96 3359.95 1361.06 1 0 1
97 2 3252.81 3511.94 2990.42 0 -1 0
98 2 3360.22 1516.82 1622.1 0 0 0
99 2 1475.42 1955.64 1396.12 0 0 0
100 2 2086.07 1637.98 3395.19 1 0 0
101 2 2393.26 2305.7 2890.18 0 0 0
102 2 1909.46 3568.1 1588.49 0 -1 0
103 2 3658.27 1764.78 1886.81 -1 0 0
104 2 2319.09 1509.65 1617.88 0 0 0
105 2 2170.18 1774.78 3007.22 0 0 0
106 2 2470.68 1923.71 1599.77 0 0 0
107 2 1662.27 1951.05 2254.01 0 0 0
108 2 3549.98 3461.24 1685.33 -1 0 0
109 2 1982.09 1904.73 1895.94 0 0 0
110 2 1691.46 2346.23 1444.32 0 0 0
111 2 1482.36 3280.49 3176.83 1 -1 -1
112 2 3511.94 1473.37 2250.5 -1 -1 0
113 2 1906.52 3465.77 2104.45 0 -1 0
114 2 3090.54 2449.26 1763.12 0 0 1
115 2 3589.71 1918.18 3467.73 -1 0 -1
116 2 1799.38 1930.15 2525.62 0 0 0
117 2 2190.38 3461.6 1879.68 0 -1 1
118 2 1451.43 3498.45 2718.65 0 -1 0
119 2 2144.27 1547.4 1631.53 0 0 0
120 2 3566.04 3638.45 2139.66 -1 -1 0
121 2 3580.17 1860.72 2329.78 -1 0 0
122 2 1583.79 1322.9 3643.86 0 0 -1
123 2 1870.42 1972.08 1427 0 0 0
124 2 1731.16 1580.16 1431.47 0 0 0
125 2 1456.28 3464.48 1486.48 0 -1 0
126 2 3678.87 1994.46 1677.8 -1 0 0
127 2 3604.94 2161.49 2312.81 -1 0 0
128 2 1728.07 1389.77 1750.27 0 0 0
129 2 1416.52 2147.67 3483.24 0 0 -1
130 2 1371.1 1539.99 2443.72 0 0 0
131 2 1560.63 1398.13 2599.12 0 0 -1
132 2 1582.55 2433.73 3525.2 0 0 -1
133 2 2093.75 1714.44 1678.5 0 0 0
134 2 1535.94 3350.98 1387.31 1 -1 1
135 2 1746.32 2025.46 1780.01 0 0 0
136 2 3607.13 2421.97 2641.34 0 -1 -1
137 2 2942.47 2027.05 2730.95 0 1 0
138 2 1554.55 1874.85 2696.14 0 0 0
139 2 3411.61 1881.36 2026.1 -1 0 0
140 2 2973.98 2371.96 1662.87 -1 -1 0
141 2 2779.79 1897.01 3304.15 -1 0 0
142 2 1355.5 2332.32 1402.94 0 0 0
143 2 1968.7 1588.08 1632.28 0 0 0
144 2 1381.9 1847.7 2013.05 0 0 0
145 2 2089.18 1913.69 2947.01 0 0 0
146 2 2144.42 2291.51 1515.7 0 0 0
147 2 1463.59 1738.56 1877.66 0 0 0
148 2 1961.18 1587.43 3596.12 0 0 -1
149 2 2064.8 1571.8 1811.08 0 0 0
150 2 3576.49 2325.83 2771.67 -1 0 0
151 2 2350.22 2070.51 1925.65 0 0 -1
152 2 3594.42 2006.95 2434.71 -1 0 -1
153 2 1904.57 1427.47 2192.74 0 0 0
154 2 1898.09 2133.14 1529.02 0 0 0
155 2 2262.25 1478.81 2370.74 0 0 0
156 2 3499.86 1520.31 1732 -1 0 0
157 2 3345.15 1470.74 1810.06 0 0 0
158 2 2581.15 1371.17 1753.34 0 0 0
159 2 1624.02 3446.49 1861.68 0 -1 0
160 2 1695.56 2312.9 3474.62 1 0 0
161 2 3441.73 1918.9 3601.14 -1 0 -1
162 2 2163.36 1535.63 2097.22 0 0 0
163 2 3328.62 3500.31 2049.52 0 0 0
164 2 2911.04 1668.62 2289.51 0 0 0
165 2 1980.73 1721.62 1515.94 0 0 0
166 2 3467.32 2191.47 1517.98 0 0 0
167 2 1865.01 1475.13 2561.33 0 0 0
168 2 1681.62 1743.97 1486.58 0 0 0
169 2 1475.66 1440.02 1364.47 0 0 0
170 2 3055.25 3232.01 2589.59 -1 0 0
171 2 1705.64 3220.81 2034.52 0 -1 0
172 2 1383.09 1891.39 1541.74 0 0 0
173 2 1855.5 2387.18 1503.2 0 0 0
174 2 3527.55 1766.22 2457.67 -1 0 -1
175 2 1452.72 1779.86 1396.97 0 0 0
176 2 1777.54 2404.3 2456.32 0 0 0
177 2 3543 3080.83 2238.07 0 -1 0
178 2 1526.6 2307.01 1391.5 0 0 0
179 2 2006.84 2148.96 1935.12 0 0 0
180 2 1612 3542.63 1504.9 0 -1 0
181 2 3402.21 3451.56 2989.9 -1 -1 -1
182 2 2197.74 1379.65 1586.91 0 0 0
183 2 3505.39 1468.76 1899.31 -1 0 0
184 2 1474.24 1984.19 1957.12 0 0 0
185 2 1977.59 1327.25 2302.54 0 0 0
186 2 1714.64 2405.98 1611.54 0 0 0
187 2 3504.69 2016.34 2277.34 -1 0 0
188 2 3631.99 1633.31 1437.82 -1 0 0
189 2 2465.55 1913.35 2176.41 0 0 -1
190 2 2541.37 1508.12 1663.92 0 0 0
191 2 1662.82 1804.15 3559.43 0 0 -1
192 2 1404.91 2074.48 1800.18 0 0 0
193 2 1822.98 2130.52 2522.51 0 1 0
194 2 1768.78 2487.59 1388.99 0 0 0
195 2 1366.4 2394.67 1568.84 0 0 0
196 2 2408.99 1494.05 1765.19 0 0 0
197 2 1580.99 2034.72 1516.45 0 0 0
198 2 2486.69 1771.76 1842.1 0 0 0
199 2 1727.17 1796.64 1994.28 0 0 0
200 2 1369.52 2449.99 1751.86 0 0 0
201 2 2893.14 3024.4 3040.22 0 -1 -1
202 2 1328.33 2146.36 2463.03 0 0 0
203 2 1623.18 3493.5 1681.42 0 -1 0
204 2 2503.19 1776.58 2807.59 0 0 0
205 2 3592.7 1470.54 2408.02 -1 0 0
206 2 1498.5 1976.45 2589.26 0 0 0
207 2 3112 2916.35 2742.54 0 0 0
208 2 1467.25 1679.53 2376.15 0 0 0
209 2 3468.05 3361.79 1998.38 1 -2 2
210 2 2179.18 2095.35 1938.94 0 0 0
211 2 2288.34 1370.08 1741.84 0 0 0
212 2 2310.67 3012.06 3001.94 -1 -2 -1
213 2 2138.45 1470.76 1935.06 0 0 0
214 2 2032.58 3391.36 1825.89 0 -1 0
215 2 2548.53 1781.8 1680 0 0 0
216 2 1895.64 3618.83 3511.48 0 -1 -1
217 2 3440.31 3683.98 1860.29 -1 -1 0
218 2 2494.13 1869.67 1363.47 1 1 0
219 2 1772.28 3596.05 1698.67 0 -1 0
220 2 3502.89 2006.46 1689.7 -1 0 0
221 2 3118.73 1588.76 2005.16 1 0 -1
222 2 1372.77 1603.36 1946 0 0 0
223 2 2678.39 3190.51 2808.68 0 -2 -1
224 2 1721.8 3438.2 2681.05 0 -1 -1
225 2 1940.55 1447.35 1759.81 0 0 1
226 2 2150.69 1681.89 1507.69 0 0 0
227 2 1847.61 2027.96 3504.37 0 0 0
228 2 2383.42 2065.98 1521.06 0 0 0
229 2 1571.15 1528.07 1484.27 0 0 0
230 2 1992.66 1902.05 3472.51 0 0 -1
231 2 1756.79 1450.55 2326.68 0 0 0
232 2 2051.3 2162.77 2328.51 0 0 0
233 2 1783.35 1403.27 1389.57 0 0 0
234 2 2264.79 1674.04 1674.07 0 0 0
235 2 1805 2002.75 1604.17 0 0 0
236 2 1586.45 1666.99 1354.99 0 0 0
237 2 3362.67 1831.56 1360.74 -1 0 0
238 2 1384.08 1693.01 2537.67 0 0 0
239 2 1389.23 2057.45 3647.29 0 0 -1
240 2 2455.12 1924.01 1931.87 0 0 0
241 2 3233.57 2638.42 3663.77 -1 0 -1
242 2 2239.48 1544.67 3565.35 0 0 0
243 2 2822.75 3120.11 2746.21 0 0 0
244 2 1860.84 1737.64 2364.23 0 0 0
245 2 1543.5 2025.24 3440.86 0 0 -1
246 2 2135.78 1381.75 2351.45 0 0 -1
247 2 1769.27 2243.08 1567.23 0 0 0
248 2 3414.86 1935.15 1827.86 -1 0 0
249 2 3633.14 3369.49 2089.87 -1 -1 0
250 2 3158.94 2112.69 3583.96 -1 1 -1
251 2 1976.18 3507.98 3616.33 0 -1 0
252 2 1550.84 1668.62 2215.26 0 0 0
253 2 3470.22 2290 3610.51 0 0 -2
254 2 2430.33 1339.88 1833.47 0 0 0
255 2 1438.92 3376.76 2095.88 1 0 0
256 2 3469.12 2120.11 2425.81 0 1 -1
257 2 2012.22 1353.09 1896.92 0 0 0
258 2 1646.55 2610.04 1364.89 0 0 0
259 2 1929.15 1943.96 3633.98 0 0 -1
260 2 1711.48 2157.66 3545.22 0 0 -1
261 2 2180.15 1812.09 1394.87 0 0 0
262 2 1544.8 2430.01 1750.53 0 0 0
263 2 2020.5 1639.87 2306.92 0 0 0
264 2 1568.72 1354.42 3117.96 0 0 -1
265 2 1623.1 1773.55 1661.06 0 0 0
266 2 2236 1534.02 1788.57 0 0 0
267 2 1698.59 1555.02 2190.26 0 0 0
268 2 2038.88 2245.17 3669.39 0 0 -1
269 2 2495.46 2626.44 2124.79 0 0 0
270 2 2776.38 1466.02 3077.29 0 -1 -1
271 2 2046.85 3446.94 1991.11 0 -1 0
272 2 3604.85 1612.48 2508.26 -1 0 0
273 2 1519.62 2115.4 2465.9 0 0 0
274 2 1742.47 1390.57 2132.53 0 0 0
275 2 1950.05 2333.62 1853.9 0 0 0
276 2 2738.91 1505.72 3014.86 -1 1 0
277 2 1526.3 1690.97 1533.47 0 0 0
278 2 3150.56 2576.27 1877.51 0 0 0
279 2 1873.87 2435.58 1659.67 0 0 0
280 2 1335.2 3457.55 1773.77 0 -1 0
281 2 1373.91 3610.65 2397.22 0 -1 -1
282 2 3376.46 2117.48 2263.63 0 0 0
283 2 3490.57 1736.97 1400.38 -1 0 0
284 2 3651.57 1818.95 1690.12 -1 0 0
285 2 1639.43 2554.69 1651.29 0 -1 0
286 2 2334.38 2196.94 3619.29 -1 0 -1
287 2 1941.08 1825.39 2494.67 0 0 0
288 2 2019.5 1422.47 1593.92 0 0 0
289 2 2775.98 2096.69 1575.5 0 0 1
290 2 3437.55 2166.66 1996.6 -1 0 0
291 2 1526.07 1413.7 2405.5 0 0 0
292 2 1716.46 1740.45 3257.14 1 0 0
293 2 3578.48 1863.61 2019.54 -1 0 0
294 2 3405.44 1340.96 2194.35 0 0 0
295 2 1711.06 2067.18 3394.45 0 0 -1
296 2 1465.8 3637.76 1437.43 0 -1 0
297 2 1435.39 2296.86 1733.59 0 0 0
298 2 1364.42 1880.76 3651.7 0 0 -1
299 2 1349.71 3505.58 2091.3 0 -1 0
300 2 1566.67 1968.59 2105.1 0 0 0
301 2 1765.89 1632.73 1939.53 0 0 0
302 2 1486.66 1977.09 2266.33 0 0 0
303 2 2194.08 1977.58 1470.29 0 0 0
304 2 2125.74 1883.88 2427.77 0 -1 0
305 2 3313.35 3194.03 2720.1 0 -1 0
306 2 3415.98 2034.19 2120.04 -1 0 0
307 2 1997.88 1806.87 3334.26 -1 0 -1
308 2 3503.45 1415.38 2074.87 -1 0 0
309 2 2246.26 2009.92 1785.07 0 0 0
310 2 2554.26 3515.21 2175.9 -1 -1 0
311 2 2013.49 2957.11 1955.74 0 0 -1
312 2 1819.59 3445.3 3653.67 0 -1 -1
313 2 1919.9 2298.12 2007.11 0 0 0
314 2 1874.71 1497.84 1511.19 0 0 0
315 2 1909.03 2371.01 1346.81 0 0 0
316 2 2218.96 1651.82 1348.73 0 0 0
317 2 2447.99 1534.66 1525.82 0 0 0
318 2 1583.24 2056.02 2689.53 0 0 0
319 2 1392.92 2409.14 2241.96 0 0 0
320 2 1646.17 1806.53 2151.79 0 0 0
321 2 2941.77 1338.65 2745.41 -1 0 -1
322 2 1682.64 1557.62 1804.32 0 0 0
323 2 1490.69 2396.93 2241.18 0 0 0
324 2 1581.45 1384.78 2757.63 0 0 -1
325 2 1484.78 3485.22 1983.91 0 -1 0
326 2 3649.78 1521.09 1823.91 -1 0 0
327 2 1456.77 1533.1 2276.4 0 0 0
328 2 1883.33 1465.47 2716.62 0 0 0
329 2 3385.27 3617.56 2973.72 0 -1 0
330 2 1391.48 2713.91 1561.31 0 0 0
331 2 3491.21 2338.06 1616.68 -1 0 0
332 2 2683.34 2045.75 3544.75 0 -1 0
333 2 1433.76 2338.72 2198.16 0 0 0
334 2 2033.61 1555.99 1469.37 0 0 0
335 2 1832.08 3331.8 2606.49 0 0 -1
336 2 1860.58 1592.98 2245.09 0 0 0
337 2 2250.89 1947.82 3676 0 0 -1
338 2 2455.05 2316.6 2438.24 0 -1 -1
339 2 1718.55 3636.63 2546.38 0 -1 -1
340 2 2339.38 1789.55 2226.55 0 0 0
341 2 1483.94 2570.02 3681.16 0 0 -1
342 2 2506.34 2088.11 1982.97 0 0 0
343 2 3601.5 2157.53 2004.97 -1 0 0
344 2 1839.69 2147.59 1700.2 0 0 0
345 2 3532.3 2091.57 1383.63 -1 0 0
346 2 1989 2315.11 2377.61 0 -1 0
347 2 2082.18 1999.58 1325.56 -1 0 0
348 2 1612.58 2279.61 1698.99 0 0 0
349 2 1762.34 3464.16 1551.95 0 -1 0
350 2 2108.34 2154.19 2081.35 0 0 0
351 2 1678.38 1693.52 3407.81 0 0 0
352 2 1537.68 1559.04 2517.45 0 0 0
353 2 3626.9 1454.16 2579.26 -1 0 0
354 2 1676.5 1493.85 2003.15 0 0 0
355 2 1608.97 2261.92 2186.57 0 0 0
356 2 1461.65 1695.02 2066.33 0 0 0
357 2 3301.14 2227.95 2517.72 0 0 0
358 2 1914.13 1767.3 3646.38 0 0 -1
359 2 1588.17 1472.46 1684.7 0 0 0
360 2 2910.58 2321.22 1797.46 0 0 0
361 2 1327.16 1526.81 3678.2 0 0 -1
362 2 1970.1 3366.93 2252.29 0 0 0
363 2 1807.94 3664.01 2270.92 0 -1 0
364 2 2155.32 3309.81 1923.08 0 -1 0
365 2 2527.32 2094.63 2124.01 0 0 0
366 2 3441.49 1999.4 3449.18 0 0 -1
367 2 3081.92 1802.05 3217.62 0 0 0
368 2 1344.9 2529.65 2747.54 0 -1 0
369 2 1875.12 1926.48 2365.53 0 0 0
370 2 3431.42 2019.77 1519.13 -1 0 0
371 2 1927.12 1633.71 2500.14 0 0 0
372 2 2821.72 1913.68 2504.68 0 0 0
373 2 2887.54 2243.14 1630.81 0 0 1
374 2 2333.12 2115.71 1684.38 0 0 0
375 2 2544.84 2416.82 3059.79 -1 0 0
376 2 3565.82 3406.01 1860.28 0 0 0
377 2 3527.69 2182.53 1680.13 -1 0 0
378 2 1853.2 2017.25 2987.88 1 0 -1
379 2 1729.41 2382.63 3264.19 0 0 -1
380 2 2832.14 1607.32 3534.46 -1 0 -1
381 2 2350.44 1774.24 1358.62 0 0 0
382 2 2821.14 1495.05 3013.82 0 0 0
383 2 3014.41 2483.12 1500.65 -1 -1 -1
384 2 1977.23 1984.84 2788.05 0 0 0
385 2 1843.06 1714.13 2798.49 0 -1 0
386 2 2071.91 1836.16 3615.29 0 0 -1
387 2 1857.59 3674.61 1830.78 0 -1 0
388 2 1550.22 1585.27 1916.79 0 0 0
389 2 1593.31 3324.92 2608.17 0 -1 -1
390 2 1875.12 3283.58 1812.35 0 -1 1
391 2 1490.15 1391.46 1564.48 0 0 0
392 2 3380.03 2112.13 1653.09 -1 0 0
393 2 1338.89 2221.23 1869.03 0 0 0
394 2 1463.05 2408.2 2416.64 0 1 0
395 2 1502.28 1334.99 1748.32 0 0 0
396 2 1861.71 3296.5 2050.41 0 -1 0
397 2 1891.11 1610.75 1812.73 0 0 0
398 2 3414.92 3455.69 1609.53 -1 -1 1
399 2 1410.53 3102.23 1622.03 0 -1 0
400 2 3060.57 3524.39 1516.77 -1 -1 0
401 2 1363.19 3684.99 2044.76 0 -1 0
402 2 1323.06 1353.46 1381.6 0 0 0
403 2 1801.01 1840.33 2225.79 0 0 0
404 2 1540.19 1641.77 1745.4 0 0 0
405 2 1459.13 2314.84 3483.02 0 0 -1
406 2 3622.07 1756.73 2605.92 0 0 0
407 2 3065.58 1564.28 3182.14 -1 0 0
408 2 2413.32 3442.51 2762.21 0 -1 0
409 2 1365.93 1658.45 1756.37 0 0 0
410 2 1338.67 1704.8 3664.32 1 1 0
411 2 1822.81 2057.36 2818.95 0 0 0
412 2 3216.55 1463.82 1697.21 -1 1 1
413 2 1739.97 2038.27 2385.63 0 0 0
414 2 3472.62 3420.86 3442.74 -1 -1 -1
415 2 1663.43 1612.53 1609.26 0 0 0
416 2 1450.01 1385.53 2178.81 0 0 0
417 2 3481.12 1785.8 1892.75 -1 0 0
418 2 2220.67 1512.57 3403.44 0 0 0
419 2 1623.41 3404.96 3609.73 1 0 -1
420 2 2533.12 1961.05 3577.72 0 0 0
421 2 2053.15 3561.24 1854.31 0 -1 0
422 2 1337.73 2296.93 2041.1 0 0 0
423 2 1689.58 2257.73 2030.22 0 0 0
424 2 3378.52 1387.47 3502.87 -1 1 -1
425 2 2270.75 3062.57 3157.83 0 -1 -1
426 2 3462.31 2500.74 1534.68 0 0 0
427 2 1502.86 1859.81 3445.2 0 0 0
428 2 2086.49 1391.1 1429.04 0 0 0
429 2 3554.28 3466.53 1352.43 -2 0 1
430 2 1413.02 2053.2 3341.2 0 0 -1
431 2 1575.45 2051.88 1793.54 0 0 0
432 2 1889.51 3400.97 1925.78 0 -1 0
433 2 2056.29 1693.97 1356.37 0 0 0
434 2 3320.21 1395.35 1956.38 -1 0 0
435 2 3403.99 2261.1 1760.04 -1 0 0
436 2 3603.7 2087.55 1546.85 -1 0 0
437 2 1766.9 1600.92 2424.03 0 0 0
438 2 1436.78 1987.12 2702.2 0 1 0
439 2 1825.77 2191.94 3433.97 0 0 -1
440 2 1728.29 2114.91 3025.93 0 0 -1
441 2 1690.31 1978.83 3545.41 0 0 -1
442 2 1831.75 2164.77 2120.25 0 0 0
443 2 1928.2 1476.85 2365.75 0 0 0
444 2 1635.47 1658.11 2057.2 0 0 0
445 2 1769.76 1887.99 3676.77 0 0 -1
446 2 3075.92 1370.45 1733.68 1 1 0
447 2 1831.43 1534.75 2072.63 0 0 0
448 2 3566.6 1624.38 1946.07 -1 0 0
449 2 3536.75 2597.61 3154.26 -1 0 0
450 2 1522.9 1939.35 3597.56 0 0 -1
451 2 2316.49 1645.94 1506.45 0 0 0
452 2 1584.14 1958.77 2414.16 0 0 0
453 2 1711.98 1449.45 1554.02 0 0 0
454 2 2205.93 1374.23 2048.32 0 0 0
455 2 1615.36 3328.34 1733.2 0 -1 0
456 2 1991.04 1913.41 2175.56 0 0 0
457 2 1745.1 3430.63 2031.87 0 -1 -1
458 2 1997.49 1538.65 2614.81 0 0 1
459 2 1533.25 1604.98 3447.66 1 0 -1
460 2 2280.27 2848.93 2579.93 0 -1 0
461 2 2219.18 1429.71 2216.19 -1 0 0
462 2 1551.18 1707.27 2611.38 0 0 0
463 2 1609.58 3366.26 1555.21 0 -1 0
464 2 2313.88 1955.56 2176.31 0 0 0
465 2 2477.41 1590.17 2106.74 0 0 0
466 2 2096.62 2289.6 2195.76 0 0 -1
467 2 2579.03 1420.35 3424.09 0 1 0
468 2 3675.09 1998.16 1959.37 -1 0 0
469 2 2405.64 1683.4 1994.32 0 0 0
470 2 1448.52 3490.78 2250.36 0 -1 0
471 2 3577.12 1917.07 1826.06 -1 0 0
472 2 3413.51 1630.78 1849.71 -1 0 0
473 2 2003.73 1858.59 1406.97 0 0 0
474 2 3675.76 3342.21 1616.09 -1 0 1
475 2 1467.11 3415.91 1658.79 0 -1 0
476 2 1380.3 1902.11 1829.05 0 0 0
477 2 2213.37 1767.58 1997.12 0 0 0
478 2 3567.37 1571.28 2121.91 -1 0 0
479 2 1482.54 3587.51 1618.17 0 -1 0
480 2 1701.3 1952.72 3236.41 0 0 0
481 2 2156.22 1870.17 2147.7 0 0 0
482 2 2036.66 3323.12 2098.64 0 0 0
483 2 2969.14 3456.79 1382.6 0 -1 0
484 2 3435.42 1396.9 1314.37 -1 1 0
485 2 3399.44 2320.94 1926.07 0 1 0
486 2 1856.86 2215.08 1867.75 0 0 0
487 2 1547.36 3618.89 2504.67 0 -1 0
488 2 1890.35 2205.22 2633.01 0 0 -2
489 2 3639.76 2468.02 2069.8 -1 1 0
490 2 3008.54 2238.38 2515 0 1 0
491 2 1586.36 1356.78 2064.74 0 0 0
492 2 3380.75 3238.84 3424.97 0 0 -1
493 2 3355.9 1935.07 1652.13 -1 0 0
494 2 2060.42 2165.5 1584.41 0 0 0
495 2 1593.44 3346.75 1996.52 0 -1 0
496 2 1737.11 2094.26 1466.11 0 0 0
497 2 1626.1 3510.23 2328.93 0 -1 0
498 2 1680.42 3209.81 3080.84 -1 -1 -1
499 2 2282.53 1897.5 3463.21 0 0 0
500 2 1909.19 2050.72 1828.12 0 0 0
501 2 1893.09 1320.67 2613.98 0 0 -1
502 2 2775.67 1495.8 1667.17 0 0 0
503 2 3340.31 1772.55 1788.21 -1 0 0
504 2 1989.51 1574.6 2126.77 0 0 0
505 2 1393.11 1990.23 2114.11 0 0 0
506 2 1638.89 1854.3 2550.43 0 0 0
507 2 2090.37 1508.08 3513.23 0 0 -1
508 2 1776.35 1827.01 1614.26 0 0 0
509 2 1369.73 1556.66 2123.86 0 0 0
510 2 2125.73 3384.64 3202.37 0 0 0
511 2 1436.6 2406.92 2118.62 0 -1 0
512 2 1638.85 2217.85 3181.49 0 0 -1
513 2 2116.2 1409.29 1745.72 0 0 0
514 2 3584.77 1323.04 2304.97 0 1 -1
515 2 2024.91 2016.07 1495.05 0 0 0
516 2 1851.79 2913.71 1372.8 0 0 1
517 2 2075.8 2029.9 1802.68 0 0 0
518 2 3047.44 1447.81 1979.3 0 1 0
519 2 1394.14 1374.18 2510.01 -1 0 -1
520 2 2556.77 3594.75 2569.5 0 -1 -1
521 2 2354.64 1917.5 1443.45 -1 0 0
522 2 3360.03 1945.58 2250.62 -1 0 0
523 2 1531.39 1947.43 3298.2 0 0 0
524 2 1436.66 2120.71 2605.06 0 -1 0
525 2 1494.12 3593.55 2128.97 0 -1 0
526 2 3580.11 1371.52 1774.6 -1 0 0
527 2 2043.16 1874.7 1729.56 0 0 0
528 2 3675.38 1851.33 2480.3 -1 0 0
529 2 1978.23 3273.26 1943.09 0 -1 0
530 2 3649.7 3474.13 2235.49 -1 0 0
531 2 1500.42 2142 1665.07 0 0 0
532 2 3266.1 1628.94 1741.05 0 0 0
533 2 2439.55 1775.02 1542.65 0 0 0
534 2 2527.54 1611.47 1809.73 0 0 0
535 2 1925.28 3379.87 1666.63 0 -1 0
536 2 3563.7 1614.98 3588.84 -1 0 -1
537 2 1350.68 3570.79 1907.49 0 -1 0
538 2 2833.2 3159.14 2148.49 0 -1 0
539 2 3470.86 1586.87 1500.04 -1 0 0
540 2 3187.64 1720.42 1872.17 0 0 0
541 2 2889.36 3459.07 3599.98 -1 0 -1
542 2 1715.46 2527.12 3600.11 0 0 -1
543 2 3582.74 1314.53 1955.1 -1 0 0
544 2 1700.32 2233.81 3322.74 0 0 -1
545 2 2276.4 2239.54 2174.85 -1 -1 -1
546 2 2261.11 1945.84 2012.17 0 0 0
547 2 2432.24 1637.92 1665.07 0 0 0
548 2 2112.57 1696.25 2153.36 0 0 0
549 2 2030.14 1996.64 2334.05 0 0 0
550 2 3164.71 3573.29 1717.49 0 -1 0
551 2 1320.38 2147.01 2164.65 0 0 0
552 2 2278.05 1657.6 2117.35 0 0 0
553 2 1554.07 1830.02 2001.66 0 0 0
554 2 3682.34 1998.12 2273.67 -1 0 0
555 2 1783.21 3322.46 2796.03 -1 0 0
556 2 1945.17 1459 1347.16 0 0 0
557 2 1418.56 3622.03 3649.46 1 0 -1
558 2 1885.22 3177.56 2840.72 -1 -1 -1
559 2 3277.58 1624.63 2093.48 0 1 0
560 2 1873.29 3522.73 1422.05 0 -1 0
561 2 2217.33 3245.62 1546.62 0 -1 1
562 2 2300.27 1431.25 1907.33 0 0 0
563 2 1941.71 3454.9 3264.15 -1 0 0
564 2 1786.26 1744.53 2525.52 0 0 0
565 2 2072.44 2807.69 2006.98 0 0 0
566 2 2199.36 2107.13 3447.63 0 0 -1
567 2 1673.86 2116.73 1650.43 0 0 0
568 2 3416.5 3351.56 1362.09 0 0 0
569 2 1787.22 1698.89 2125.24 0 0 0
570 2 3629.88 2305.11 2191.68 -1 0 -1
571 2 3268.65 3680.54 1635.39 -2 -1 0
572 2 3561.93 1470.79 1413.53 -1 0 0
573 2 2611.11 1382.92 3038.51 0 0 -1
574 2 2586.66 3114.55 1899.74 0 0 0
575 2 2107.84 3669.81 2191.82 0 -1 0
576 2 2777.28 2116.17 2712.94 0 0 0
577 2 2146.23 2036.95 2200.67 0 0 0
578 2 3013.47 2806.4 2157.02 0 0 1
579 2 3226.98 2076.33 2533.42 0 0 0
580 2 2017.16 1738.46 1837.66 0 0 0
581 2 1816.31 1656.19 3516.55 0 0 -1
582 2 1882.19 1393.88 3386.71 0 0 0
583 2 2411.43 1966.25 1758.77 0 0 0
584 2 1439.32 2355.32 1894.82 0 0 0
585 2 1550.06 1877.18 1810.41 0 0 0
586 2 1692.7 2328.02 2333.33 0 0 0
587 2 3642.03 1582.97 1631.86 -1 0 0
588 2 1498.55 2132.68 1394.38 0 0 0
589 2 1470.47 1835.43 2164.63 0 0 0
590 2 2170.51 1758.95 2307.72 0 0 0
591 2 3435.3 3514.01 1905.41 -1 -1 0
592 2 1807.11 1531.69 1676.53 0 0 0
593 2 3130.68 1417.11 3208.25 -1 0 -1
594 2 1996.56 1395.29 2494.96 0 0 0
595 2 1763.78 3489.98 2219.19 0 -1 0
596 2 1683.19 2188.42 1833.76 0 0 0
597 2 3597.41 1991.76 3623.7 -1 0 -1
598 2 3334.73 1727.92 1962.27 -1 0 0
599 2 1919.61 3529.57 2273.68 0 0 0
600 2 2179.64 3682.84 1871.27 0 -1 0
601 2 1510.08 3640.61 2298.1 0 -1 0
602 2 2640.7 1958.32 1637.09 0 0 0
603 2 3453.64 2327.14 2466.12 -1 1 0
604 2 2425.31 2853.6 2649.5 0 -1 -1
605 2 2241.02 2232.7 1995.91 -1 -1 0
606 2 1761.08 1695.88 1729.27 0 0 0
607 2 2143.84 1974.25 3533.03 0 0 -1
608 2 2119.22 2440.93 2135.01 -1 0 -1
609 2 2724.87 2628.64 1733.22 0 -1 -1
610 2 1338.72 3677.88 1550.33 1 -1 0
611 2 2692.51 3562.57 2480.22 0 -1 0
612 2 1916.35 2249.3 2257.18 0 0 0
613 2 2427.54 1383.8 1635.03 0 0 0
614 2 1557.53 1861.54 1521.32 0 0 0
615 2 1546.13 2116.69 3597.24 0 0 -1
616 2 1997.21 2182.74 1764.38 0 0 0
617 2 1459.88 1448.37 1982.76 0 0 0
618 2 1964.59 2037.96 1664.93 0 0 0
619 2 1407 2139.57 2009.26 0 0 0
620 2 2642.63 1732.94 1860.42 0 1 1
621 2 1840.2 3519.46 2570.76 0 -1 0
622 2 1894.42 1628.06 1385.66 0 0 0
623 2 3657.14 2256.91 3476.92 -1 0 -1
624 2 2315.24 1821.22 1861.48 0 0 0
625 2 1873.37 1910.27 1734.55 0 0 0
626 2 2844.06 3578.9 1842.76 0 0 1
627 2 3428.71 1635.27 2199.59 -1 0 0
628 2 3650.99 2344.49 3627.81 -1 0 0
629 2 2306.32 3642.3 1592.13 0 0 0
630 2 3148.24 3135.89 2701.62 0 0 0
631 2 1385.88 1844.33 2323.96 0 0 0
632 2 2091.16 1643.47 1973.2 0 0 0
633 2 1760.68 2275.4 2559.57 0 0 0
634 2 1464.91 2469.02 1432.46 0 0 0
635 2 1563.79 1815.6 2313.8 0 0 0
636 2 1845.9 2279.56 2419.9 0 0 0
637 2 1825.62 1857.05 3512.95 0 0 -1
638 2 2079.03 3624.41 2017.39 0 -1 0
639 2 2384.65 1887.59 3595.65 0 0 0
640 2 1902.63 2106.48 2357.11 0 0 0
641 2 1927.71 1329.45 1472 0 0 0
642 2 1855.46 1362.9 1628.34 0 0 0
643 2 1320.39 3293.47 1787.44 0 0 0
644 2 2258.09 1593.67 1959.68 0 0 0
645 2 3489.34 3218.4 2735.2 -1 -1 0
646 2 1933.7 1559.15 3430.81 0 0 0
647 2 2014.35 1815.62 2332.54 0 0 0
648 2 2099.67 2302.89 1670.59 0 0 0
649 2 1634.04 2510.01 1490.09 0 0 0
650 2 1544.96 1520.58 2120.48 0 0 0
651 2 2271.34 1803.33 1554.28 0 0 0
652 2 1862.4 1824.74 3223.5 0 0 0
653 2 2103.35 1525.12 3681.83 0 0 -1
654 2 1651.03 1612.35 3569.47 0 0 -1
655 2 2775.01 3087.09 1900.47 0 0 0
656 2 1818.49 2025.45 2223.23 0 0 0
657 2 1588.6 3578.12 2669.69 0 -1 0
658 2 1506.62 2837.91 1584.34 0 0 0
659 2 1607.33 1844.1 1354.4 0 0 0
660 2 1477.79 1830.5 2473 0 0 0
661 2 3506.47 1949.87 2563.54 0 0 -1
662 2 1758.14 2180.69 2277.61 0 0 0
663 2 1454.5 1408.62 3576.08 -1 1 -1
664 2 2437.55 1536.21 1939.2 0 0 0
665 2 3426.62 1417.16 1485.76 -1 1 0
666 2 1846.12 1770.25 1867.33 0 0 0
667 2 2046.91 1807.23 2034.16 0 0 0
668 2 2150.85 3300.21 2373.13 -1 -1 1
669 2 2684.55 3118.06 2037.69 0 0 1
670 2 1670.38 3681.19 2381.94 0 -1 0
671 2 1484.15 3484.89 2430.52 0 -1 -2
672 2 3424.08 1844.84 1526.85 -1 0 0
673 2 1775.77 3550.47 2406.85 0 0 0
674 2 3463.92 2104.02 3598.2 -1 0 -1
675 2 1603.11 3462.08 2138.49 0 -1 0
676 2 2971.78 1464.13 3202.79 0 0 -1
677 2 1653.21 3619.7 2194.68 0 -1 0
678 2 1776.96 1498.08 3468.17 0 0 -1
679 2 1798.08 1529.82 3638.23 0 0 -1
680 2 1355.98 1370.12 1869.34 0 0 0
681 2 2273.12 2100.78 2089.11 0 0 0
682 2 2214.38 1839.77 1719.08 0 0 0
683 2 1582.73 2120.09 1999.91 0 0 0
684 2 3432.68 3138.65 3545.39 -1 0 -1
685 2 2315.77 2667.88 2355.6 0 0 0
686 2 1921.52 1749.76 1684.29 0 0 0
687 2 2544.48 1781.29 2010.54 0 0 0
688 2 3433.14 3634.3 2032.88 -1 -1 0
689 2 1713.29 2456.54 1783.77 0 0 0
690 2 3360.28 3600.37 3562.28 0 -1 -1
691 2 3531.85 2304.68 2043.3 -1 0 0
692 2 3295.36 1677.38 1318.66 0 0 0
693 2 1698.37 1441.95 2492.43 0 0 0
694 2 3684.99 3557.64 1418.17 -1 0 0
695 2 2226.45 2129.44 1555.1 0 0 0
696 2 2109.23 2064.05 2460.93 -1 -1 0
697 2 1356.07 2288.85 2353.57 1 -1 -1
698 2 3570.59 1714.29 2229.06 -1 0 0
699 2 2463.52 3022.12 2212.88 0 -1 0
700 2 1324.59 2157.85 1407.55 0 0 0
701 2 1710.5 1919.13 1473.86 0 0 0
702 2 1952.81 2007.48 2490.84 0 0 0
703 2 1831.4 1345.43 2440.32 0 0 0
704 2 1504.83 3655.39 1923.03 0 -1 0
705 2 1975.29 2185.62 2482.72 0 0 0
706 2 3624.78 3335.66 3643.11 0 0 -1
707 2 1607.69 1411.8 2248.23 0 0 0
708 2 2015.02 1899.85 2627.97 0 0 0
709 2 1580.93 3196.71 1589.53 1 0 0
710 2 1352.22 1720.71 1558.49 0 0 0
711 2 3254.07 2073.22 2159.59 0 0 0
712 2 2384.44 1807.35 1694.58 0 1 0
713 2 1665.13 2667.4 1525.5 0 0 1
714 2 1402.27 2412.44 2591.76 0 0 0
715 2 1451.7 3293.49 1532.64 1 0 1
716 2 1954.15 3632.05 2139.86 0 -1 0
717 2 1910.46 1425.61 3550.49 0 0 -1
718 2 1881.08 1371.6 2021.03 0 0 0
719 2 1775.49 2314.92 2179.66 0 0 0
720 2 1777.87 3387.14 2361.24 0 0 0
721 2 2155.07 1886.71 1877.52 0 0 0
722 2 3620.47 2264.94 1549.13 -1 0 0
723 2 1968.07 2381.84 2150.19 0 0 0
724 2 3534.24 3230.63 1359.43 -1 0 0
725 2 3286.82 1456.57 3628.24 0 1 0
726 2 2886.9 2222.72 2913.45 0 0 -1
727 2 3571.28 3571.9 1819.07 0 -1 0
728 2 1990.79 2270.23 1452.82 0 0 0
729 2 3522.87 2168.14 2152.48 -1 0 0
730 2 1528.52 3157.14 2610.3 0 -1 0
731 2 1740.67 1949.06 2081.48 0 0 0
732 2 2413.51 2181.81 2051.09 0 0 0
733 2 2186.82 2425.89 1599.21 0 0 1
734 2 2042.04 1406.93 2082.7 0 0 0
735 2 1507.98 2207.46 1861.98 0 0 0
736 2 1675.37 2099.18 2146.86 0 0 0
737 2 3429.41 1365.61 1689.31 -1 0 0
738 2 1679.71 1881.86 3398.15 0 0 -1
739 2 1725.31 1329.93 1948.98 0 0 0
740 2 3681.95 3381.39 1433.76 -1 0 1
741 2 1931.59 2276.1 1619.8 0 0 0
742 2 1840.76 1752.92 3361.77 0 0 -1
743 2 1595.7 1420.65 1865.91 0 0 0
744 2 3559.74 1686.92 1761.11 -1 0 0
745 2 1755.79 2092.89 1973.79 0 0 0
746 2 1932.68 1885.77 1569.74 0 0 0
747 2 1689.85 3418.23 1397.89 0 -1 0
748 2 3517.69 1621.2 2355.73 -1 0 0
749 2 3553.85 1731.56 1569.46 -1 0 0
750 2 1404.74 2063.33 1538.47 0 0 0
751 2 1525.47 2616 2866.11 1 0 0
752 2 3340.63 1694.47 1482 0 0 0
753 2 2739.57 2766.11 2264.16 0 0 1
754 2 1706.55 1702.4 2288.66 0 0 0
755 2 1919.28 1681.51 2007.2 0 0 0
756 2 1852.75 3361.24 1452.48 0 -1 0
757 2 3673.19 1984.02 1413.74 -1 0 0
758 2 1351.51 3627.61 2225.2 0 -1 0
759 2 1822.21 1662.77 1562.13 0 0 0
760 2 1739.36 3468.73 2847.21 0 -1 0
761 2 1477.53 1970.08 1675.77 0 0 0
762 2 1811.42 1933.87 1921.84 0 0 0
763 2 3350.6 1781.67 2156.39 -1 0 0
764 2 1611.31 2338.23 1891.92 0 0 0
765 2 1871.98 2029.32 2652.06 -1 1 0
766 2 1965.26 2565.07 1601.12 -1 0 0
767 2 2121.11 1806.94 3456.57 0 0 -1
768 2 3584.5 3623.45 3669.97 -1 -1 0
769 2 1499.73 2123.29 2157.34 0 0 0
770 2 2101.45 1845.32 1555.21 0 0 0
771 2 3602.38 2091.77 1811.73 -1 0 0
772 2 1796.69 2060.81 3666.85 0 0 -1
773 2 1720.69 1844.17 2391.26 0 0 0
774 2 2422.38 2012.31 3681.97 0 0 -1
775 2 3628.07 3175.4 1628.27 -1 0 0
776 2 1346.28 1429.61 1676.99 0 0 0
777 2 1594.8 2713.08 2988.04 1 0 0
778 2 2114.77 2150.22 1413.82 0 0 0
779 2 3478.87 1834.08 1702.1 0 0 0
780 2 3479.81 3483.6 2117.28 -1 -1 0
781 2 1489.55 1569.54 3623.02 0 0 -1
782 2 1836.07 1923.65 3357.11 0 0 -1
783 2 1418.37 2132.6 2315.53 0 0 0
784 2 3651.14 1467.06 1999.98 -1 0 0
785 2 3092.33 2914.01 3240.5 0 0 0
786 2 1596.88 2107.75 2304.29 0 0 0
787 2 3436.54 2112.4 1830.61 -1 0 0
788 2 1673.74 3252.37 1453.87 1 0 1
789 2 1595.74 2196.8 2585.98 0 -1 0
790 2 2779.69 3678.43 2802.5 1 0 0
791 2 3273.41 3669.76 1815.27 0 0 0
792 2 2765.66 3115.03 2293.94 0 -1 0
793 2 1577.62 2294.04 3592.89 0 0 -1
794 2 3017.29 2273.65 1700.66 0 0 0
795 2 3418.24 3407.75 1769.5 -1 -1 0
796 2 1451.54 1794.77 1688.29 0 0 0
797 2 1884.61 1515.79 2890.97 0 0 0
798 2 3362.66 1910.51 3319.99 0 1 -1
799 2 1569.17 1654.08 3292.44 0 0 -1
800 2 1417.08 2233.58 3641.63 0 0 -1
801 2 1399.94 1544.93 2618.17 0 0 0
802 2 1430.56 1605.31 1406.54 0 0 0
803 2 1523.6 2272.32 2347.25 0 0 0
804 2 1784.39 1600.96 3322.84 0 1 -1
805 2 2105.76 1530.46 2405.56 0 0 0
806 2 2359.76 1651.34 1823.59 0 0 0
807 2 3264.42 1580.22 1925.89 -1 0 0
808 2 2397.99 3517.28 2615.29 1 -1 -1
809 2 3605.94 3270.97 1950.45 -1 0 1
810 2 2187.03 3386.2 2062.84 0 0 0
811 2 1876.57 1843.94 2061.35 0 0 0
812 2 3436.56 1835.48 3457.13 -1 0 -1
813 2 3622.12 2091.68 3469.09 -1 0 -1
814 2 2665.96 2876.72 2376.7 0 -1 0
815 2 1633.47 1522.03 3360.95 0 0 -1
816 2 3510.62 1914.9 1388.67 -1 0 0
817 2 1720.13 1854.54 1783.52 0 0 0
818 2 3661.15 1704.69 2383.62 -1 0 0
819 2 3381.82 2023.34 1365.86 0 0 0
820 2 1771.37 3535.07 1895.18 0 -1 0
821 2 3403.29 1682.55 1660.13 -1 0 0
822 2 1843.16 1795.53 1435.86 0 0 1
823 2 3478.42 1726.6 2067.93 -1 0 0
824 2 1451.52 2270.09 2496.9 1 0 0
825 2 1616.35 1559.14 2348.06 0 0 0