ITEM: TIMESTEP
544000
ITEM: NUMBER OF ATOMS
1000
ITEM: BOX BOUNDS pp pp pp
1.3383589136306266e+03 3.6616410863688379e+03
1.3383589136306266e+03 3.6616410863688379e+03
1.3383589136306266e+03 3.6616410863688379e+03
ITEM: ATOMS id type x y z ix iy iz
1 1 2776.05 2429.24 1487.57 -1 0 1
2 1 2081.45 1368.9 2626.72 0 0 0
3 1 3281.34 2580.42 2153.19 0 0 0
4 1 2248.27 1687.53 3257.28 0 -1 0
5 1 3414.98 2992.06 2707.06 -1 -1 1
6 1 1933.89 1754.84 3412.26 0 0 0
7 1 1670.07 3037.34 2867.03 0 -1 0
8 1 2176.09 1740.68 2473.66 0 0 1
9 1 3004.58 3050.24 2469.88 0 0 0
10 1 2864.21 2509.9 2644.64 0 0 0
11 1 2705.28 2132.64 2607.68 0 0 0
12 1 1438.97 3205.2 3594.54 0 0 0
13 1 3148.49 3515.42 3468.87 -1 0 -1
14 1 2216.18 2722.61 2885.17 0 0 -1
15 1 3234.78 2218.48 2053.56 0 0 0
16 1 2185.82 3653.25 2453.89 0 0 -1
17 1 2434 2910.84 2926.45 1 0 -1
18 1 3132.41 2350.24 2485.11 -1 1 0
19 1 2889.73 1878.9 1762.46 -1 0 0
20 1 1476.57 3052.66 2986.4 0 -1 0
21 1 2030.38 2528.52 2582.07 0 1 0
22 1 2677.04 3004.87 2752.61 2 -1 0
23 1 2888.97 2150.43 2701.87 0 0 1
24 1 2985.59 3371.42 2164.34 0 0 0
25 1 1739.76 1915.35 2811.86 -1 0 0
26 1 2974.83 3050.94 2958.28 0 0 0
27 1 3111.24 2393.92 2842.8 -1 0 1
28 1 2026.95 2451.01 2391.5 0 0 0
29 1 2571.98 2262.07 2660.37 0 0 -1
30 1 2810.31 3436.09 2900.26 0 0 0
31 1 1458.56 1649.04 2922.03 0 0 0
32 1 1627.36 3138.9 3266.11 0 0 -1
33 1 2187.56 2387.45 3148.53 0 0 0
34 1 2448.69 1364.22 2902.08 0 0 0
35 1 1998.23 2176.54 2387.92 0 0 -1
36 1 1524.35 2845.42 1422.8 0 -1 0
37 1 1804.26 1823.7 1869.82 0 0 0
38 1 2204.38 3004.92 2174.67 0 0 0
39 1 3230.38 2354.7 2893.62 -2 0 -1
40 1 3135.05 2474.18 1975.84 -1 -1 2
41 1 1945.4 2936.53 1850.27 0 0 -1
42 1 2938.5 2710.8 2047.51 0 -1 0
43 1 2447.84 2594.98 2037.86 0 -2 0
44 1 3010.26 3404.25 1724.33 0 -1 0
45 1 2459.62 2311.93 2817.81 0 0 0
46 1 2930.32 3541.7 3053.25 -1 -1 0
47 1 3395.5 3253.26 2191.49 -1 -1 -1
48 1 3229.02 2056 2813.51 0 0 -1
49 1 2918.59 2558.66 2242.17 -1 0 1
50 1 3070.15 1683.71 3324.21 -1 0 0
51 1 3292.24 1442.44 2224.95 -1 -1 1
52 1 3640.16 2540.84 3506.82 -1 0 -1
53 1 3118.42 1920.1 3406.09 -2 0 -1
54 1 3314.66 2250.06 3012.5 0 0 -1
55 1 3024.71 3051.77 2978.61 -2 0 -1
56 1 3132.28 2139.58 1642.77 0 0 0
57 1 1923.38 2512.29 3536.04 0 0 -1
58 1 2464 2634.08 3501.52 0 0 -1
59 1 2652.45 3394.85 2799.77 -1 -1 0
60 1 2000.38 3185.03 1548.56 -1 -1 1
61 1 1845.53 2835.06 2455.41 -1 0 0
62 1 2595.8 1405.92 3149.53 0 0 -1
63 1 3214.55 2182.27 3163.86 -1 0 0
64 1 2901.73 2640.82 3241.87 0 -1 -1
65 1 3243.26 3085.83 2762.52 -1 -1 -1
66 1 3293.15 2946.05 2533.08 -1 0 1
67 1 2493.07 2423.89 1662.41 0 0 0
68 1 2209.9 2960.38 3339.93 0 -1 -1
69 1 1452.16 2588.72 2840.03 0 0 0
70 1 1667.96 1471.41 3402.52 0 1 -1
71 1 1917.74 2709.45 2542.4 -1 0 -1
72 1 2763.52 2013.49 3627.06 0 0 -1
73 1 2666.53 1525.46 1356.34 0 1 1
74 1 3179.15 2744.89 2100.78 -1 0 -1
75 1 1936.61 2472.52 1631.53 0 0 1
76 1 1569.39 1642.81 3073.23 -1 0 0
77 1 2658.32 2511.21 3402.66 -1 -1 -1
78 1 1609.52 3614.83 1759.32 0 -1 0
79 1 2006.61 2324.39 2528.95 0 -1 0
80 1 3176.68 2370.14 2460.9 -1 0 0
81 1 3630.69 1771.16 1780.77 -1 0 0
82 1 1818.24 2191.84 3431.8 1 0 0
83 1 2475.78 1970.02 2735.73 -1 -1 -1
84 1 1919.21 3622.29 3496.15 1 0 -1
85 1 2503.56 2395.36 2423.37 0 -1 0
86 1 3453.28 2361.89 2908.18 -1 0 0
87 1 1673.45 1913.72 2990.96 0 -1 -1
88 1 1472.28 2815.91 1959.46 0 -1 0
89 1 2923.92 2890.97 1702.15 0 0 0
90 1 3513.99 3312.87 2289.07 -2 -1 0
91 1 1593.67 3510.57 3039.66 0 -1 -1
92 1 1899.2 2841.42 2453.37 0 -1 -1
93 1 2173.51 3433.08 2773.16 1 0 0
94 1 2225.9 2067.59 3456.87 0 0 -1
95 1 1699.17 2419.45 2939.7 -1 -1 -1
96 1 2825.5 2452.5 1872.6 -1 0 0
97 1 2258.2 2392.83 1940.29 0 -1 1
98 1 2739.79 2021.31 3074.93 -1 -1 0
99 1 2455.04 2943.06 3109.05 0 -1 -1
100 1 2793.48 1903.11 1464.07 -1 0 0
101 1 1452 2997.74 2335.48 0 -1 0
102 1 2218.51 1393.61 2716.48 -1 0 0
103 1 2961.1 2512.04 1998.3 -1 0 0
104 1 3538.02 2747.35 2422.52 0 -1 -1
105 1 3465.57 3195.47 2830.35 -1 0 0
106 1 3529.37 1891.08 2913.74 0 1 -1
107 1 2825.51 2111.84 2433.19 -1 -2 0
108 1 3398.33 3271.68 1543.7 -1 0 -1
109 1 2198.43 2540.54 2389.56 -1 -1 0
110 1 2819.64 2805.05 1534.17 0 -1 0
111 1 3521.02 1338.92 3528.01 -1 0 -1
112 1 2689.64 1566.92 3100.17 0 0 0
113 1 2357.51 2785.99 3062.37 0 0 -1
114 1 2768.96 2395.06 3035.93 -1 0 0
115 1 2205.77 2712.46 3161.52 0 0 -1
116 1 2947.41 2406.51 2990.89 0 0 0
117 1 2325.91 3572.95 2805.58 0 -1 -1
118 1 2031.49 2863.25 2225.27 -1 0 -1
119 1 3455.11 3075.79 2180.26 0 -1 0
120 1 2836.54 2272.95 1685.79 1 0 0
121 1 3232.76 3359.4 3180.09 -1 0 0
122 1 2865.9 3221.72 2454.59 0 0 -1
123 1 1618.9 1579.32 3552.1 -1 1 -1
124 1 2618.22 2523.67 1471.44 0 0 1
125 1 1622.71 3202.9 1863.38 0 -2 0
126 1 2131.78 3655.86 3126.01 0 0 -1
127 1 2839.24 2212.96 2022.34 -1 -1 0
128 1 1980.56 2228.78 3658.07 -1 0 0
129 1 2479.51 2418.34 2381.06 -1 0 0
130 1 3511.92 2668 1902.76 0 -1 0
131 1 3019.19 3299.17 1381.09 -1 -1 0
132 1 2645.29 2878.83 3135.82 0 -1 -1
133 1 2527.74 2405.66 2952.67 0 0 -1
134 1 1826.34 3365.07 2481.06 -1 -1 -1
135 1 2105.5 3572.43 3498.62 0 -1 -1
136 1 3085.32 2030.2 3259.46 -1 0 0
137 1 3297.57 1779.19 1834.25 -1 0 0
138 1 2822.77 2600.02 1762.57 0 -1 0
139 1 3088.26 2611.71 1957.04 -1 -1 -1
140 1 3049.44 3123.55 2831.14 -1 -1 -1
141 1 2964.75 2880.16 1968.16 -1 1 0
142 1 2424.74 2195.28 2963.16 0 1 -1
143 1 3283.4 3096.81 2208.51 -1 0 0
144 1 1441.09 3117.58 2580.7 -1 -1 0
145 1 2266.59 2170.67 2008.52 0 0 0
146 1 3456.37 2595.52 2070.84 -1 -1 0
147 1 1597.41 2476.43 2775.72 0 0 -1
148 1 2784.76 2759.55 2320.01 -1 -1 1
149 1 3141.49 2929.04 2828.24 0 0 0
150 1 2409.16 2618.68 2575.36 0 0 0
151 1 2565.37 3170.11 2827.93 0 -2 -1
152 1 3483.08 2666.78 3046.44 -1 -1 0
153 1 3009.77 2867.46 2966.62 -1 -1 -1
154 1 3370.19 2740.04 2219.98 -1 0 -1
155 1 3096.21 2332.57 2521.68 0 0 0
156 1 1925.03 2515.27 3307.86 0 0 -2
157 1 3614.58 3101.72 2289.09 0 0 -1
158 1 2794.26 2809.64 1913.4 -1 -1 0
159 1 3183.14 2693.34 2707.92 0 -1 0
160 1 3024.51 1791.25 2933.71 -1 0 0
161 1 2749.99 2792.79 1720.42 0 0 -1
162 1 2888.31 1950.34 2545.07 0 -1 0
163 1 2358.09 2606.66 2974.08 0 0 -1
164 1 3339.06 2423.29 1781.16 0 -1 -1
165 1 2231.41 2063.46 3510.52 0 0 -1
166 1 1391.45 2776.35 1808.06 0 0 -1
167 1 2731.71 2766.36 2313.58 0 -1 0
168 1 1718.85 2073.45 3124.81 0 0 0
169 1 2096.84 3405.62 1650.37 0 -1 -1
170 1 3093.9 3060.71 2316.47 0 -1 0
171 1 2907.65 2018.82 3189.11 -1 -1 -1
172 1 2647.15 3070.9 2023.7 0 -1 -1
173 1 2892.7 2353.74 2530.61 -1 0 -1
174 1 2973.02 1654.07 3547.18 -2 0 -1
175 1 3291.31 3152.04 1410.41 -1 -1 -1
176 1 2016.74 1981.28 3111.21 0 0 0
177 1 2910.17 3470.61 1530.17 -1 0 0
178 1 3456.02 2106.29 2889.91 -1 0 0
179 1 1751.88 2075.51 3167.27 -1 0 0
180 1 3384.5 3014.55 3104.55 0 0 -1
181 1 1543.37 2700.55 3223.2 0 -1 1
182 1 2967.1 3522.16 2091.79 0 -1 0
183 1 1420.91 3153.72 1879.73 0 -1 0
184 1 3061.06 2154.2 2743.7 0 -1 1
185 1 1530.68 2234.03 2675.15 0 0 -1
186 1 3222.69 2287.77 1700.6 -1 0 -1
187 1 3625.18 2709.05 2916.2 0 0 -1
188 1 2605.82 1374.79 3591.26 0 1 -1
189 1 3581.2 1975.42 3480.43 -1 0 -1
190 1 2618.69 2717.02 2481.5 -1 0 0
191 1 2983.46 1514.51 3332.45 0 0 0
192 1 3407.92 3458.19 1603.89 -1 -1 0
193 1 3505.82 2884.86 3044.98 -2 -1 0
194 1 3022.63 2036.27 1801.12 0 -1 -1
195 1 2055.12 2635.06 2855.04 -1 0 0
196 1 2363.76 2520.99 3615.42 0 0 -1
197 1 2090.36 2237.02 1473.94 -1 1 1
198 1 2914.91 3387.68 3480.68 -1 -1 0
199 1 2285.74 3345.8 1405.13 0 0 1
200 1 1959.18 1774.9 3127.21 0 0 -1
201 1 3388.74 2095.06 3122.05 -1 0 0
202 1 2611.72 2337.11 3495.45 -1 -1 -1
203 1 3262.77 3248.79 3522.9 -1 -1 0
204 1 2431.2 2301.59 3137.94 0 -1 -2
205 1 3135.57 2664.91 3218.73 -1 -1 0
206 1 3435.61 1474.96 3411.37 -1 0 0
207 1 2394.47 2825.8 3472.1 -1 -1 -1
208 1 2407.24 2129.55 2781.54 0 0 -1
209 1 2782.61 2733.72 3122.94 -1 -1 0
210 1 3238.35 2556.31 1615.78 0 -1 0
211 1 2939.63 3061.4 1624.4 -1 -1 0
212 1 2325.46 1352 2324 0 0 -1
213 1 3199.15 2749.94 2502.14 0 1 -1
214 1 2380.92 3007.78 2460.63 0 -1 0
215 1 1339.57 3096.58 1718.68 0 0 -1
216 1 2718.44 2290.34 3372.53 -1 0 -1
217 1 3059.55 2060.87 1981.2 -1 0 1
218 1 2060.64 2647.1 1819.04 0 0 0
219 1 3254.91 3080.48 2415.65 0 -1 0
220 1 2082.78 2415.68 3358.78 -1 0 -1
221 1 3139.3 1542.6 3216.58 -1 0 -1
222 1 2972.51 2092.5 1344.03 0 -1 1
223 1 2452.31 2442.35 3444.05 0 -1 -2
224 1 1492.82 3454.57 2493.93 0 -1 0
225 1 2900.65 3575.7 2429.05 0 -1 0
226 1 2867.11 2567.04 3034.69 0 -1 0
227 1 3475.63 2369.39 2721.1 -1 -1 -1
228 1 1397.77 3343.3 1413.49 0 0 1
229 1 3006.35 1956.71 2147.56 -1 -1 0
230 1 1468.63 2405.38 2635.4 0 0 -1
231 1 1942.44 2825.54 2425.01 -1 -1 0
232 1 1988.23 3547.77 3652.84 0 -1 -1
233 1 3477.62 2842.66 2846.07 -1 0 1
234 1 1838.35 1646.53 2598.51 0 -1 -1
235 1 2781.86 2331.64 1511.38 -1 -1 0
236 1 2500.15 2594 2025.25 -1 0 0
237 1 3221.17 2538.85 3095.66 0 -1 0
238 1 3140.9 2928.88 2444.97 0 -1 0
239 1 2793.61 2611.38 1950.46 -1 -1 0
240 1 2066.95 2561.74 2560.03 1 0 -1
241 1 2765.33 3532.17 1694.3 0 -1 0
242 1 2680.46 1924.62 1620.47 0 -2 0
243 1 1725.6 3615.93 1577.84 0 -1 0
244 1 3075.8 2631.84 2872.61 0 -1 -1
245 1 3362.37 1433.75 2523.46 -1 0 0
246 1 3025.29 1724.24 2746.27 0 -1 0
247 1 2408.9 3587.76 2641.96 0 -1 0
248 1 3352.21 2905.44 1884.06 -1 -1 0
249 1 3356.38 2683.52 3211.38 0 0 0
250 1 3598.11 1586.38 3408.36 -1 0 -1
251 1 3220.5 2761.85 1840.85 0 -1 0
252 1 3063.76 1526.36 2737.92 -1 0 0
253 1 1573.62 2702.8 1873.79 1 0 0
254 1 3522.79 2188.32 2630.89 -1 0 -1
255 1 2946.57 1794.84 3437.44 -1 0 -1
256 1 2430.91 2405.45 2949.5 -1 0 0
257 1 2997.69 3225.78 1782.93 -1 -1 0
258 1 2597.33 1906.99 3016.85 0 0 -1
259 1 2671.59 1960.13 3481.38 -1 0 -1
260 1 2680.63 2553.67 3134.99 0 0 0
261 1 1431.33 1907.14 2239.43 0 0 0
262 1 3314.18 2535.73 1946.26 -1 0 -1
263 1 2614.78 2951.67 2932.9 -1 0 -1
264 1 2148.23 2357.64 1637.9 0 0 -1
265 1 3520.96 1812.8 3134.26 -1 0 -1
266 1 3190 1563.19 3413.38 -1 0 -1
267 1 1420.19 2236.17 3087.87 0 0 -1
268 1 2082.33 2515.21 2582.76 0 -1 0
269 1 2935.88 1432.34 3008.93 -1 0 0
270 1 2274.81 2065.44 3478.95 0 0 -1
271 1 1871.39 2957.81 2340.61 0 -1 -1
272 1 2599.08 2374.92 3155.59 -1 0 -1
273 1 2017.3 2335.62 3112.37 0 0 -1
274 1 2276.09 2579.33 3171.19 1 -1 0
275 1 3017.62 2427.18 1648.32 -1 0 1
276 1 2903.06 2719.63 1378.75 -1 -1 0
277 1 2650.72 2669.96 1840.08 0 0 1
278 1 1374.49 1476.62 2882.07 0 0 -1
279 1 2288.02 2808.49 2430.19 0 -1 0
280 1 2432.31 2454.15 3256.09 -1 0 -1
281 1 1749.08 3009.32 2733.91 0 -1 0
282 1 1826.46 2255.27 3066.9 0 -1 0
283 1 2257.66 3477.02 3573.37 0 -1 -1
284 1 2018.2 2207.26 3419.96 0 0 -1
285 1 3650.73 2816.96 3079.64 -1 0 -1
286 1 3044.18 1923.28 3058.47 -1 1 0
287 1 2898.48 1824.49 1578.85 0 0 0
288 1 2274.02 2282.49 2811.03 1 0 0
289 1 1992.32 2780.2 2756.67 0 -1 0
290 1 3182.47 2477.23 2288.53 -1 -1 0
291 1 2156.36 2762.35 2438.49 -1 -1 0
292 1 3461.9 2150.3 2859.5 -1 0 -1
293 1 2678.66 2578.39 2574.92 0 0 1
294 1 2570.08 2702.25 2710.23 0 -1 -1
295 1 1736.71 3505.74 2561.84 0 -1 0
296 1 3433.92 2477.51 3069.71 0 0 0
297 1 3016.66 2269.56 2605.62 -1 0 0
298 1 2350.82 2426.51 2655.12 0 0 0
299 1 1526.01 2032.54 2565.51 1 0 0
300 1 1882.43 2438.42 3486.02 0 0 0
301 1 2306.84 2468.8 2601.4 -1 0 -1
302 1 3491.48 1762.49 1430.15 -1 0 0
303 1 3166.4 3540.92 1666.1 0 -1 0
304 1 2218.69 2917.63 3371.79 1 -1 -1
305 1 2371.63 1605.54 3400.95 0 0 -1
306 1 1484.35 3503.49 1403.09 0 -1 0
307 1 3314.41 2399.31 1822.62 -1 0 -1
308 1 1472.66 1543.77 1373.76 0 0 0
309 1 2712.07 3126.98 2257.15 0 0 -1
310 1 1593.86 1785.88 2841.78 0 0 -1
311 1 2024.57 2941.08 1415.37 0 -1 -1
312 1 2983.87 2271.71 2648.3 0 -1 1
313 1 1987.33 1881.93 3271.85 0 -1 -1
314 1 1602.34 2275.25 3008.28 1 0 0
315 1 1711.95 1611.17 2739.04 0 0 0
316 1 3039.64 3070.42 1454.33 -1 0 0
317 1 2078.28 2983.07 2648.46 1 0 -1
318 1 3603.29 3319.13 2927.55 0 -1 -1
319 1 3099.8 2045.3 1450.33 -1 0 0
320 1 2411.54 2744.08 2784.48 0 -1 0
321 1 2694.42 2159.32 3499.55 -1 0 0
322 1 2231.45 2460.74 1534.63 0 -1 0
323 1 1823.25 1916.57 3121.3 0 0 -1
324 1 3582.31 2275.81 1422.85 0 0 0
325 1 1941.38 3436.08 3043.25 0 0 0
326 1 2786.46 2902.16 3026.08 0 0 -1
327 1 2633.44 3247.74 2657.7 0 -1 0
328 1 1983.36 2118.65 2573.49 0 0 0
329 1 1961.92 2885.22 1848.75 0 0 0
330 1 2750.47 2528.98 2900.41 0 0 0
331 1 2462.47 2608.26 1844.45 -1 0 0
332 1 2174.47 2972.42 3300.95 0 -1 -1
333 1 3035.8 2514.04 3147.49 0 0 0
334 1 3071.76 3659.75 3445.98 -2 -1 0
335 1 2548.86 3063.65 2370.1 0 0 0
336 1 2443.47 2328.96 3619.26 0 -1 -1
337 1 1473.84 2393.04 2073.66 0 0 0
338 1 2777.92 2808.18 3555.76 0 -1 -1
339 1 3016.06 2764.82 3334.15 0 -1 0
340 1 2404.42 2425.55 2648.42 0 -1 0
341 1 2789.6 3489.98 3355.27 0 -1 -2
342 1 2921.16 3001.21 3133.76 0 -1 0
343 1 2866.74 1876.37 3039.55 1 -1 0
344 1 3133.31 3208.77 3191.73 0 -1 -1
345 1 2565.17 2184.15 1341.75 0 0 0
346 1 2766.41 2383.33 1514.41 0 -1 0
347 1 2478.97 2427.76 2961.19 -1 0 -1
348 1 2046.96 2486.44 2611.57 -1 -1 -1
349 1 2934.35 2693.08 2650.3 -1 0 0
350 1 2139.31 2192.62 1847.8 0 1 0
351 1 1835.91 1375.72 3344.85 0 0 -1
352 1 2297.35 2177.12 3257.65 0 1 0
353 1 3227.43 2667.44 2314.14 0 -1 0
354 1 2047.54 2661.9 2261.8 0 0 0
355 1 2306.61 2881.74 3220.79 0 -1 -1
356 1 2135.55 3331.67 1481.69 0 -1 0
357 1 1991.41 3061.62 2972.21 0 -1 -1
358 1 3215.65 3645.08 2100.14 -1 -1 0
359 1 2686.43 2216.08 3073.67 0 0 0
360 1 2077.51 1398.56 3596.65 0 1 -1
361 1 3531.54 2625.02 2267.19 -1 0 0
362 1 2944.82 2672.27 2926.41 0 -1 0
363 1 2521.41 2326.78 3320.8 0 0 -1
364 1 2958.37 2798.31 3154.3 -1 0 0
365 1 2002.82 3403.96 2867.33 0 -1 0
366 1 1794.94 2635.32 1535.01 0 0 0
367 1 2148.78 2608.68 3016.64 0 -1 -1
368 1 2698.13 1656.07 2624.7 -1 0 0
369 1 3296.3 2829.85 2757.81 0 0 -1
370 1 3393.86 2910.54 2058.89 -2 0 0
371 1 3498.33 2088.38 1764.08 -1 0 0
372 1 3149.43 3166.52 3595.09 -1 -1 -1
373 1 2998.62 2671.47 2929.94 0 1 0
374 1 2538.2 1680.44 2582.54 0 0 0
375 1 3280.51 1427.44 2275.31 0 0 -1
376 1 2792.49 2713.74 2505.87 0 1 0
377 1 3379.07 2486.37 2275.93 0 0 0
378 1 2251.38 1740.57 3077.84 0 1 -1
379 1 3083.63 2574.38 2128 -1 -1 0
380 1 2666.12 2022.34 1800.05 -1 0 0
381 1 2160.22 2563 3287.41 0 0 -1
382 1 3424.01 3025.86 2899.77 -1 -1 0
383 1 2823.76 2241.95 2285 -1 0 0
384 1 2976.17 2907.27 2329.26 0 -1 0
385 1 3210.74 2833.88 2262.26 0 0 0
386 1 2981.18 3177.96 2639.63 -1 0 0
387 1 3222.78 2303.71 2877.98 -1 0 -1
388 1 1340.97 2852.21 3041.22 0 0 -1
389 1 2418.14 2522.31 1512.06 0 0 0
390 1 1404.95 2718.33 1352.41 0 -1 0
391 1 2377.57 1727.57 1526.31 0 0 0
392 1 1677.38 2579 3195.17 -1 -1 -1
393 1 2628.76 2393.66 2779.78 0 0 1
394 1 1720.32 2008.3 3396.49 1 0 -1
395 1 2441.21 2434.11 1875.28 0 -1 -1
396 1 1438.03 2932.97 2618.33 1 0 0
397 1 2897.17 2944.01 1413.95 -1 0 0
398 1 2098.91 2406.67 2976.15 0 -1 0
399 1 1944.96 1520.35 2960.59 0 0 0
400 1 2068.12 2282.09 2819.21 -1 0 -1
401 1 2511.26 2447.64 2413.15 0 0 -1
402 1 2105.91 2583.09 3634.32 0 0 -2
403 1 1485.7 1922.01 3273.02 0 0 -1
404 1 2639.88 2738.29 2034.27 0 0 0
405 1 2743.79 3272.37 2931.12 -1 0 0
406 1 1957.07 3024.73 2204.65 0 -1 0
407 1 1648.69 3094.55 3078.36 -1 -1 0
408 1 3579.94 2370.6 3071.01 0 0 -1
409 1 3365.74 2736.63 2591.38 0 -1 -1
410 1 2627.18 2149.94 2410.14 0 0 -1
411 1 1979.24 1878.21 1806.4 0 0 0
412 1 2363.44 3234.86 2963.4 0 0 0
413 1 1470.15 2733.81 3015.77 0 0 -1
414 1 1835.87 2976.67 2944.83 0 -1 -1
415 1 1875.85 2338.9 2892.21 0 0 -1
416 1 2692.5 2737.86 1422.6 0 0 0
417 1 1561.31 1946.82 2387.97 -1 0 -1
418 1 3563.26 3196.36 1853.61 -1 0 1
419 1 2101.58 2605.5 2532.07 0 0 0
420 1 3387.91 2976.6 2293.66 -2 -1 -1
421 1 3005.44 2546.43 1530.75 -1 0 0
422 1 1496.69 3198.45 1701.86 0 -1 0
423 1 3272.83 2814.39 1448.01 0 -1 0
424 1 1821.02 2975.55 3437.59 0 -1 -1
425 1 2329.44 2989.84 3531.18 0 0 -1
426 1 2973.89 2642.56 2892.08 -1 0 -1
427 1 3367.65 2228.98 2154.25 -1 -1 0
428 1 2296.71 3121.55 2606.92 0 -1 -1
429 1 3061.94 2882.11 2137.83 -1 0 0
430 1 1886.82 1652.85 2154.45 0 -1 0
431 1 2661.89 2351.6 1381.55 0 0 0
432 1 1766.04 2979.29 2182.71 0 -1 0
433 1 2118.6 2751.64 2475.39 -1 -1 -1
434 1 3337.91 2790.48 2402.14 -1 0 0
435 1 2988.43 1877.39 3247.7 -1 0 0
436 1 3073.82 2795.72 1401.19 -1 0 0
437 1 2835.72 2116.34 1811.74 0 1 0
438 1 3612.07 2504.94 2726.37 -1 -1 -1
439 1 2966.73 2348.98 1622.28 0 0 0
440 1 3238.83 1783.68 3313.54 -1 0 -1
441 1 2850.21 1645.11 3373.46 -1 0 -1
442 1 1619.01 2599.07 2904.37 0 0 0
443 1 3277.47 2532.99 3279.34 0 -1 0
444 1 2949.26 2720.17 1840.76 -2 0 0
445 1 2388.92 3138.22 2589.58 0 -1 0
446 1 3134.98 1732.7 3504.13 -1 0 -1
447 1 2699.9 2795.02 2657.46 0 0 0
448 1 1842.09 2796.75 2194.03 -1 -1 0
449 1 2185.79 2447.82 1560.14 -1 0 0
450 1 1767 2402.32 3340.2 0 0 -1
451 1 1812.44 2836 2822.58 0 -1 -1
452 1 2010.42 2079.18 3290.29 0 0 0
453 1 3337.25 3318.29 2350.81 -1 0 0
454 1 1763.7 2101.66 2139.69 0 0 -1
455 1 2803.09 2642.56 3402.68 -1 0 -1
456 1 3118.19 1498.5 1398.57 0 1 0
457 1 2494.49 2865.77 2398.38 0 -1 -1
458 1 1711.14 2040.32 3166.53 0 1 -1
459 1 1888.63 2427.29 2077.82 0 -1 -1
460 1 3386.51 2477.34 2587.15 -1 -1 0
461 1 2968.37 2820.95 2503.02 0 -1 0
462 1 3161.99 2875.7 2626.03 -1 0 -1
463 1 3525.48 1864.66 3147.91 -1 0 -1
464 1 2755.27 2673.79 2725.33 0 0 0
465 1 1392.31 2820 2429.88 1 0 -2
466 1 2888.64 3174.5 2790.31 -1 -1 0
467 1 2770.67 2627.22 1556.81 0 1 0
468 1 3414.89 2941.72 1468.07 0 -1 1
469 1 3050.15 2535.06 2710.43 0 -1 -1
470 1 3041.93 3217.9 1583.64 -1 -1 -1
471 1 3049.49 2725.21 2255.32 0 0 0
472 1 2852.95 3130.47 1461.26 0 -1 0
473 1 1370.27 2352.89 3244.73 1 -1 0
474 1 3143.28 2291.68 2997.41 -2 -1 -1
475 1 2986.97 2527.59 1812.27 0 -1 0
476 1 3043.22 3609.13 1897.51 -1 -1 0
477 1 3400.89 2274.53 1764.28 0 -1 -1
478 1 2663.9 2484.63 1761.92 -1 -1 0
479 1 2663.1 1447.81 2211.15 0 0 -1
480 1 3479.62 2141.06 2443.61 -1 0 0
481 1 3110.45 1512.58 1347.09 0 1 1
482 1 2721.67 1744.36 3026.85 0 -1 -1
483 1 3174.76 2109.76 2963.94 -1 1 0
484 1 2888.94 3098.08 2282.82 -1 -1 0
485 1 2284.38 3333.73 2647.02 -1 -1 -1
486 1 3593.83 3108.13 1519.91 -1 -1 0
487 1 2817.63 2363.41 2849.03 -1 0 -1
488 1 1984.43 1497.98 2503.46 0 0 0
489 1 3347.45 2733.31 1968.58 -1 0 0
490 1 3166.95 2372.26 3207.52 -1 0 -1
491 1 2708.71 2837.89 2816.48 0 0 -1
492 1 2953 2553.29 3632.6 0 -1 0
493 1 2824.04 2440.35 2358.96 -1 0 0
494 1 2257.13 2357.57 3330.2 1 -1 0
495 1 3204.58 2933.84 2013.32 0 -1 0
496 1 3027.53 2648.05 2890.91 1 0 0
497 1 2677.17 3579.82 2698.37 -1 -1 0
498 1 2785.94 3148.83 2619.97 0 -1 0
499 1 2240.78 2513.75 1536.99 -1 0 -1
500 1 2796.38 3271.55 2245.95 0 -1 -1
501 1 2466.42 2822.28 2588.07 -1 0 -1
502 1 1510.51 3162.79 3116.68 -1 0 0
503 1 2483.02 2465.66 2999.69 0 0 0
504 1 2146.56 2631.62 2517.17 0 0 0
505 1 1884.4 2473.42 3528.69 -1 0 -1
506 1 1406.34 1980.73 2072.94 -1 0 0
507 1 3482.68 1836.21 3163.88 -1 0 -1
508 1 1663.7 1528.43 1700.28 0 0 -1
509 1 1677.43 1583.84 2523.87 0 0 0
510 1 2762.08 2285.25 2668.3 -1 -1 -1
511 1 3588.09 3241.85 2451.99 0 0 -1
512 1 1571.15 3271.46 3422.05 0 -1 -1
513 1 3209.9 2507.7 1803.29 0 -1 0
514 1 2899.25 2108.82 2174.67 -2 0 1
515 1 2485.11 2029.29 2413.92 -1 0 -1
516 1 2534.26 3565.75 2777.29 -1 -1 0
517 1 3164.89 3139.05 3427.24 0 -1 -1
518 1 1965.71 2998.1 2803.48 0 0 -1
519 1 2715.79 2629.18 2355.92 0 0 0
520 1 3218.51 2948.25 1449.4 -1 0 0
521 1 2512.54 2348.12 1475.84 -1 0 1
522 1 2475.14 2641.07 2032.67 -1 0 0
523 1 3191.31 3102.02 1577.59 0 0 0
524 1 2684.11 2385.67 2497.32 -1 -1 0
525 1 3242.57 1992.28 3132.19 0 0 -1
526 1 1901.63 2300.67 2699.2 0 0 0
527 1 1338.98 2074.98 3016.5 0 -1 -1
528 1 3368.38 2399.82 2106.42 0 1 0
529 1 2497.85 2645.5 1377.76 -1 -1 0
530 1 1751.39 2797.95 2634.44 0 0 0
531 1 2002.89 3590.52 1659.66 0 -1 0
532 1 3354.61 2635.66 1791.18 -1 0 0
533 1 3241.35 1444.24 2242.41 -1 0 -1
534 1 2284.23 1342.32 2983.89 0 0 -1
535 1 2737.97 3529.3 2481.27 -1 -2 0
536 1 2176.58 2574.74 1955.46 -1 0 0
537 1 2792.14 3155.82 2086.65 -1 -1 0
538 1 1794.46 1852.76 3291.53 0 0 -1
539 1 3260.13 2406.04 2735.3 -2 0 -1
540 1 2872.56 3364.62 2412.84 0 0 0
541 1 2484.77 3094.3 2993 0 0 -1
542 1 2312.61 2826.51 2385.81 0 -1 0
543 1 2215.93 2759.32 2679.24 0 0 -1
544 1 3164.69 1726.43 3141.7 -1 1 -1
545 1 2135.44 2943.98 2815.54 -1 0 -1
546 1 3422.6 1621.04 1554.7 -1 0 0
547 1 2479.23 2260.6 2345.29 0 -1 0
548 1 1663.97 1787.63 3150.31 0 0 0
549 1 2759.36 2503.11 3413.87 0 0 0
550 1 1950.94 2128.31 1487.34 0 0 0
551 1 2296.48 2764.89 1574.71 0 -1 0
552 1 2725.87 3550.34 3550.94 0 -1 -1
553 1 3022.29 2702.34 3555.26 -1 0 -1
554 1 2225.53 2406.84 2664.96 0 0 0
555 1 1908.38 2273.3 3290.99 0 0 0
556 1 2564.66 3099.53 2545.24 0 0 -1
557 1 2753.04 2679.8 2178.57 -1 0 0
558 1 2556.61 3489.41 2577.15 -1 0 -1
559 1 2552.59 3277.62 2995.51 -1 0 0
560 1 1709.3 2891.1 1342.79 0 0 0
561 1 3439.24 2328.88 2466.26 -1 -1 -1
562 1 1849.07 3457.03 3570.85 0 0 -1
563 1 3574.72 2508.76 2962.86 -1 0 0
564 1 2604.55 2791.81 3465.28 0 1 -1
565 1 3497.93 2695.16 3460.75 0 0 -1
566 1 3503.93 2117.86 2868.3 -1 0 1
567 1 2556.43 1538.77 2946.44 0 0 0
568 1 3171.37 3065.66 2558.28 -1 -1 -1
569 1 2768.03 2118.37 3227.06 0 0 0
570 1 1564.01 3059.62 2701.07 0 -1 0
571 1 3060.99 2923.46 1556.71 -1 -1 0
572 1 2566.1 2838.59 2775.33 -1 -1 0
573 1 2119.1 2246.18 3267.44 1 0 -1
574 1 3099.63 3330.22 3545.33 -1 0 0
575 1 1692.94 2378.74 3125.92 0 0 0
576 1 3484.45 2148.12 2908.32 0 -1 -1
577 1 3387.37 2621.72 2428.94 -1 -1 -1
578 1 1387.46 2661.83 2321.19 1 0 1
579 1 3042.71 3513.18 2564.71 0 0 -1
580 1 2326.65 2779.04 2406.97 0 1 1
581 1 1639.32 2180.79 2436.49 -1 0 0
582 1 3202.36 3279.66 2219.4 0 -1 0
583 1 2532.74 2410.44 2380.73 0 0 0
584 1 3434.75 3147.44 2321.63 0 0 1
585 1 3194.92 3323.2 3361.8 -1 -1 -1
586 1 3114.35 2033.07 3585.73 -1 -1 -2
587 1 1365.9 2074.19 2676.41 1 0 -1
588 1 1791.84 2359.54 1764.14 0 0 0
589 1 2959.28 3208.23 3582.3 1 -1 0
590 1 3476.61 2802.37 1772.12 -1 -1 1
591 1 2056.57 1680.83 3272.82 -1 -1 -1
592 1 1720.3 2251.73 2846.61 0 0 0
593 1 1515.6 2081.27 3117.15 0 0 0
594 1 1978.26 3251.27 3061.84 -1 1 0
595 1 3045.85 1374.15 3125.87 -1 0 -1
596 1 2971.92 2400.85 1636.55 1 0 0
597 1 2752.01 2599.95 3411.61 0 0 0
598 1 3084.32 3401.13 1556.59 0 -1 0
599 1 2208.6 3548.91 2628.24 -1 -1 0
600 1 3078.01 1970.16 2876.94 -1 0 -1
601 2 3632.73 2293.21 1642.18 -1 0 0
602 2 1661.21 1776.15 2177.13 1 0 0
603 2 3177.21 3404.45 1994.5 -1 0 1
604 2 3279.2 3219.1 2969.56 0 -1 0
605 2 1439.51 1397.19 3469.74 0 0 0
606 2 1386.76 2592.51 2064.64 1 0 0
607 2 1975.52 2646.66 1990.61 0 0 0
608 2 2856.3 3354.86 2608.81 0 -1 0
609 2 3074.46 2058.32 2332.09 0 0 0
610 2 2684.34 3105.55 3130.83 0 0 0
611 2 1516.49 3081.72 1471.11 0 0 1
612 2 2467.55 3577.8 2124.74 0 -1 0
613 2 1821.55 2585.1 2740.39 0 0 -1
614 2 2636.68 1870.79 2540 0 0 0
615 2 1415.23 2769.21 3402.26 0 0 0
616 2 3547.02 3519.18 1405.94 0 0 0
617 2 1516.55 3032.57 2075.47 0 -1 0
618 2 2453.62 3506.84 3080.79 0 0 0
619 2 2844.38 1891.61 2762.72 0 1 0
620 2 3589.23 3498.56 2439.82 -1 0 0
621 2 1345.5 3529.07 2942.04 0 0 -1
622 2 2192.99 3573.32 1464.9 0 0 0
623 2 2199.43 2573.85 3342.37 0 0 -1
624 2 1356.84 2294.88 2830.5 0 0 -1
625 2 2738.29 1721.27 3554.74 0 0 0
626 2 1539.2 3303.74 2898.54 1 0 -1
627 2 1815.73 1385.83 2658.12 0 1 0
628 2 3388.53 2594.76 2793.04 -1 0 0
629 2 2164.99 1801.28 2186.26 0 0 0
630 2 2541.44 1502.35 1955.03 0 1 0
631 2 3375.23 1595.47 3182.01 0 1 0
632 2 2021.82 3225.24 1788.76 0 -1 0
633 2 1506.11 3234.42 2332.95 0 -1 0
634 2 3242.89 2777.26 2985.7 -1 0 0
635 2 1471.09 1486.69 2145.96 0 0 0
636 2 2911.46 1630.68 3102.11 -1 0 0
637 2 1536.4 2048.87 2829.97 1 0 -1
638 2 1441.02 1736.18 1976.16 0 0 0
639 2 3334.83 3010.21 3507 0 0 0
640 2 2706.67 3635.47 2912.95 0 0 0
641 2 2273.13 1790.45 2682.36 0 0 0
642 2 2554.36 3195.06 1781.62 0 -1 0
643 2 1478.12 1370.16 2410.95 0 0 0
644 2 3584.79 2570.2 1649.5 -1 0 1
645 2 2581 3302.9 2102.98 0 -1 0
646 2 2103.34 3211.43 2084.55 0 -1 0
647 2 2001.37 1942.71 3499.12 0 0 0
648 2 2558.82 2703.99 2945.2 0 0 0
649 2 3300.9 1909.87 1368.57 -1 0 0
650 2 3330.17 2222.77 2211.1 0 0 0
651 2 3481 1888.13 1924.29 -1 0 0
652 2 1471.62 1460.49 1844.7 0 0 0
653 2 3051.72 2497.42 3378.56 0 0 -1
654 2 2500.07 3464.61 3611.36 0 -1 -1
655 2 2560.48 1737.32 2792.3 0 0 0
656 2 2825.17 1585.86 2816.33 0 0 0
657 2 3268.72 1806.27 2897.32 -1 0 -1
658 2 2636.49 2099.74 2822.57 -1 0 -1
659 2 1375.06 1819.28 2723.05 1 0 0
660 2 2365.11 2210.16 1726.7 0 0 0
661 2 2664.58 1414.94 1698.81 0 0 0
662 2 1689.52 1610.45 1442.27 0 0 0
663 2 1653.63 3022.55 2461.79 0 -1 0
664 2 2625.93 3282.21 3390.11 0 0 -1
665 2 2431.81 2329.32 2075.43 0 0 0
666 2 2597.92 3486.25 1873.63 0 -1 0
667 2 2952.41 1364.13 1652.85 0 0 0
668 2 1673.27 2264.12 1969.31 0 0 0
669 2 3402.32 2286.78 3243.94 -1 0 0
670 2 1998.93 1530.7 3001.28 0 0 -1
671 2 2901.1 1563.3 1430.9 0 0 1
672 2 1674.75 2571.55 2055.93 0 0 0
673 2 2207.13 2246.77 2370.44 0 0 0
674 2 3548.47 1368.8 1995.57 -1 0 0
675 2 3141.6 2949.32 3243.64 -1 0 0
676 2 2616.36 1675.02 1526.22 0 0 0
677 2 1827.33 3146.94 1979.43 0 -1 0
678 2 3407.4 3062.18 1678.01 -1 -1 0
679 2 1805.47 3215.36 3407.78 0 0 0
680 2 3302.85 1691.87 2039.21 -1 0 0
681 2 2187.23 3379.15 3029.17 0 0 0
682 2 3018.57 2300.07 2146.13 0 0 0
683 2 2355.16 3098.6 2633.97 0 -1 0
684 2 1607.87 3330.37 2075.92 0 -1 0
685 2 1657.92 3467.61 3380.05 0 0 -1
686 2 1650.46 2420.72 1534.62 0 0 0
687 2 2527.67 3010.11 3346.57 -1 -1 0
688 2 3111.78 3272.65 2444.88 -1 -1 0
689 2 1959.98 3457.46 3288.31 0 -1 0
690 2 3505.28 3253.19 3610.17 0 1 -1
691 2 2627.87 2239.27 1878.38 -1 0 0
692 2 1853.06 1348.75 3077.62 0 0 -1
693 2 3406.7 3510.15 2183.85 -1 -1 0
694 2 1547.57 2819.23 2772.7 0 0 0
695 2 2786.79 1934.08 1984.82 0 0 0
696 2 2337.49 1414.95 3199.69 0 1 0
697 2 1648.58 1812.22 2581.79 0 0 0
698 2 1694.03 2391.58 2524.56 1 0 0
699 2 2457.23 1386.94 1467.68 0 0 0
700 2 1375.4 2457.05 1422.22 0 0 0
701 2 3654.43 3014.59 2747.14 0 -1 -1
702 2 1543.2 2451.81 2300.98 0 0 0
703 2 1771.03 3392.5 1838.04 0 0 0
704 2 2069.68 3310.78 2359.36 0 -1 0
705 2 1820.6 1667.4 2941.93 0 0 -1
706 2 1646.36 2612.87 3643.69 0 0 0
707 2 1635.68 3284.43 2612.41 0 -1 0
708 2 1554.35 2649.86 2515.66 1 0 0
709 2 1545.65 1366.34 3190.57 0 0 0
710 2 2815.38 1442.59 3506.16 0 0 -1
711 2 1756.28 3166.86 1639.64 0 -1 0
712 2 1993.8 2752.24 3297.13 0 0 -1
713 2 2286.62 2437.39 2658.8 0 0 -1
714 2 3045.2 1713.82 2198.39 -1 0 0
715 2 2595.05 2149.57 1577.93 0 0 0
716 2 2211.68 3095.92 1394.68 0 0 0
717 2 3280.56 1360.54 3554.17 -1 0 -1
718 2 2730.19 2402.33 2092.12 -1 0 0
719 2 1713.94 1585.3 1949.02 0 0 0
720 2 1365.43 1738.9 3565.6 0 0 -1
721 2 3540.18 2412.03 1895.34 0 0 0
722 2 3633.98 3242.54 2056.18 -1 -1 0
723 2 2763.03 3343.07 3661 0 0 -1
724 2 3278.46 3494.08 2514.4 0 -1 0
725 2 2043.17 3621.02 2851.09 0 -1 -1
726 2 2133.24 2049.34 1625.04 0 0 0
727 2 3429.51 2408.54 1457.54 -1 0 0
728 2 2166.31 1977.44 2430.2 0 0 0
729 2 3108.95 1430.33 2484.28 -1 0 0
730 2 3129.21 3006.87 1774.37 -1 -1 0
731 2 2203.91 2805.47 3630.52 0 0 0
732 2 3528.99 1485.29 3652.46 -1 0 -1
733 2 2109.81 1458.5 1716.09 0 1 0
734 2 1534.04 2131.89 2184.34 0 0 0
735 2 2318.84 1529.79 2499.74 0 0 0
736 2 2076.76 3527.86 1876.52 0 -1 0
737 2 1997.22 2923.62 1892.91 -1 0 0
738 2 3483.32 2905.58 3273.94 0 0 0
739 2 2116.56 3215.13 3265.87 0 0 0
740 2 3058.53 1527.73 1977.73 0 0 0
741 2 2717.53 1840.26 3226.89 -1 1 0
742 2 2522.81 1930.84 1350.95 0 0 0
743 2 3626.55 1910.71 2444.82 -1 0 0
744 2 2631.9 2121.94 2132.07 0 0 0
745 2 2054.35 3298.85 3535 0 0 -1
746 2 2034.81 2673.24 1524.73 0 0 0
747 2 2901.38 3151.01 3313.63 0 0 -1
748 2 2405.18 1568.61 1708.61 0 0 0
749 2 2091.42 1854.21 2872.38 0 0 0
750 2 1456.27 1665.2 2394.08 0 0 0
751 2 3621.51 2755.27 2640.48 0 0 -1
752 2 3264.06 1368.07 2747 0 1 0
753 2 1429.86 2188.94 1909 0 0 0
754 2 2870.91 2314.25 3522.31 -1 0 0
755 2 2247.47 1921.53 3197.39 0 0 0
756 2 2637.27 3294.12 2392.12 0 -1 0
757 2 2337.59 2052.03 2225.24 0 0 0
758 2 3410.62 3447.67 2819.67 -1 -1 0
759 2 2812.99 1367.66 1953.42 0 0 0
760 2 2470.78 2703.92 3234.45 0 0 -1
761 2 1860.2 3400.06 1497.51 0 -1 0
762 2 1909.78 1889.33 2059.79 0 0 0
763 2 1547.68 1887.37 1442.73 0 0 0
764 2 2326.68 3057.75 1932.98 0 -1 0
765 2 1783.23 2287.25 2259.5 0 0 0
766 2 3447.25 1838.51 1601.91 -1 0 0
767 2 2350.1 1714.92 1961.76 0 1 0
768 2 1740.77 1493.08 2261.97 0 0 0
769 2 1660.81 3610.53 2016.58 0 -1 0
770 2 1390.58 2227.72 2441.03 1 -1 0
771 2 1473 2927.32 3193.04 1 0 -1
772 2 1797.94 1990.82 2343.58 0 0 0
773 2 3151.06 1555.78 1381.09 -1 0 1
774 2 1634.94 3316.63 3624.13 0 -1 -1
775 2 3556.84 3623.39 1711.95 -1 -1 0
776 2 3023.36 2949.02 3480.57 -1 0 -1
777 2 3474.86 2678.28 1383.93 -1 0 0
778 2 1920.93 2069.9 2872.11 0 0 -1
779 2 2999.57 1846.22 1345.26 -1 0 0
780 2 3184.86 2573.94 1356.86 -1 0 0
781 2 3321.1 1371.83 1527.72 -1 0 0
782 2 2506.96 2024.51 3163.5 0 0 0
783 2 1733.35 3324.16 3131.21 0 -1 -1
784 2 1471.95 1547.8 2650.01 0 0 -1
785 2 3242.4 3287.4 1725.89 -1 -1 0
786 2 1596.7 1752.76 1719.39 1 0 0
787 2 2563.24 2909.37 1829.87 0 0 0
788 2 2356.57 1937.22 2931.3 0 0 0
789 2 1494.63 2015.15 3506.92 0 0 -1
790 2 3551.93 1748.37 2231.44 -1 0 0
791 2 3421.98 1363.5 3001.26 0 0 -1
792 2 1894.05 2489.19 3596.55 0 0 -1
793 2 1855.13 1536.96 3530.86 0 0 0
794 2 3263.17 1662.72 2656.56 -1 0 0
795 2 1816.28 3197.38 2839.91 0 0 0
796 2 1519.91 2499.55 3343.99 0 0 -1
797 2 3275.77 3639.33 3241.22 -1 -1 -1
798 2 1776.1 3504.29 2840.25 0 0 0
799 2 3354.65 2008.44 3315.65 -1 1 -1
800 2 3367.96 3152.46 3258.79 -1 0 -1
801 2 2177.54 2143.76 3000.03 0 0 0
802 2 1634.94 1433.58 2893.95 0 1 0
803 2 2554.05 3438.32 1577.76 0 -1 0
804 2 2498.28 2897.25 2125.65 0 -1 0
805 2 2126.51 1507.78 2267.9 0 0 0
806 2 3593.66 2962.2 1899.14 -1 -1 0
807 2 3411.57 3433.94 3418.48 -1 0 -1
808 2 3017.21 2260.19 1821.4 -1 0 0
809 2 3496.14 1614.76 2832.49 0 0 0
810 2 2444.2 1642.43 3610.02 0 0 -1
811 2 1523.44 1649.08 3309.31 1 0 0
812 2 2610.44 1569.72 3323.24 0 0 -1
813 2 2317.81 1577.93 2874.05 0 0 0
814 2 1744.63 2838.75 1946.69 0 0 0