ITEM: TIMESTEP
865000
ITEM: NUMBER OF ATOMS
1000
ITEM: BOX BOUNDS pp pp pp
-2.3158546003931156e+02 3.2315854600393068e+03
-2.3158546003931156e+02 3.2315854600393068e+03
-2.3158546003931156e+02 3.2315854600393068e+03
ITEM: ATOMS id type x y z ix iy iz
1 1 2498.97 1038.65 2526.56 0 0 -1
2 1 1582.34 1048.02 1983.39 0 0 0
3 1 1731.43 26.6705 3139.91 0 1 0
4 1 878.282 1249.01 549.915 0 0 0
5 1 2931.9 -33.6321 -86.3758 0 0 0
6 1 -8.28785 2743.83 2912.99 1 0 -1
7 1 1090.88 1408.65 660.878 0 0 0
8 1 1158.74 2108.54 590.573 0 0 0
9 1 2816.41 1791.22 2203 0 0 0
10 1 1147.57 492.777 -211.513 0 1 0
11 1 797.675 882.485 2440.19 0 0 0
12 1 3139.12 1621.88 1722.05 0 0 0
13 1 1970.28 2712.37 2282.93 0 0 0
14 1 1543.26 155.635 2391.69 1 0 0
15 1 2239.24 2839.61 1004.94 0 -1 0
16 1 478.901 691.376 1591.03 0 0 0
17 1 2161.39 2597.83 1871.08 0 0 -1
18 1 1841.79 2929.54 1321.06 0 0 0
19 1 1208.06 2968.41 -201.415 0 0 1
20 1 1618.24 1622.87 2586.14 0 0 -1
21 1 2320.03 1245.07 2447.88 0 0 -1
22 1 1349.67 2516.09 2288.45 0 -1 0
23 1 1263.06 1333.86 1797.14 1 0 0
24 1 1769.89 2118.72 1341.82 0 0 0
25 1 2915.66 702.013 728.783 -1 0 0
26 1 2351.36 3025.39 1633.39 0 0 1
27 1 1371.21 3224.84 1290.61 0 0 0
28 1 1633.73 1007 1366.7 1 0 0
29 1 1599.04 1120.12 772.292 0 0 0
30 1 966.561 1586.2 479.457 0 1 1
31 1 -44.5304 1423.93 2986.09 1 0 -1
32 1 1478.02 1032.11 2282.99 0 2 1
33 1 2896.94 -55.7321 1876.82 -1 0 0
34 1 2171.86 1397.5 1974.56 0 0 0
35 1 2523.76 1412.94 -66.2212 0 0 1
36 1 2359.56 1940.76 2329.85 -1 -1 -1
37 1 629.082 736.485 807.633 0 1 0
38 1 2015.89 2149.92 1208.49 0 0 0
39 1 2386.12 2566.71 2036.36 0 0 0
40 1 1642.39 338.424 551.769 0 0 0
41 1 739.39 44.4715 1404.01 0 0 -1
42 1 -214.296 655.169 982.032 0 0 0
43 1 1921.98 -93.5274 2162.33 -1 1 0
44 1 2624.78 1570.54 147.362 0 -2 0
45 1 3098.42 1686.83 2272.1 0 0 0
46 1 -52.456 1711.68 58.7907 0 -1 0
47 1 2842.53 1689.78 277.345 -1 1 0
48 1 2228.5 2368.04 2519.34 0 0 0
49 1 1387.25 -84.5291 2381.12 0 1 0
50 1 2272.37 2283.73 2251.71 -1 -1 -1
51 1 1949.82 1954.26 1025.28 0 -1 0
52 1 1749.72 1433.41 2585.95 0 0 -1
53 1 539.531 236.401 293.016 0 0 0
54 1 1887.72 1560.47 1661.38 0 0 -1
55 1 1118.81 123.783 30.2317 0 0 0
56 1 -189.84 917.524 873.711 0 0 0
57 1 3020.9 2523.88 964.805 0 0 0
58 1 748.799 2557.01 2133.65 0 -1 -1
59 1 2216.87 1961.32 1103.73 -1 -1 0
60 1 -32.5505 652.007 422.553 0 0 0
61 1 2256.85 1084.34 378.952 -1 -1 0
62 1 2431.06 1277.27 2922.62 -1 0 0
63 1 1702.37 3230.68 1896.24 0 -1 0
64 1 172.742 2128.16 109.505 0 0 0
65 1 1003.96 1224.42 1714.07 0 0 0
66 1 -92.5812 679.367 -228.664 0 0 0
67 1 1736.18 3231.42 -226.038 0 -1 0
68 1 2339.11 1948.91 846.438 0 -1 0
69 1 295.879 1170.53 136.181 0 0 0
70 1 1889.03 2352 609.869 0 0 0
71 1 2000.94 -126.836 1893.59 0 0 -1
72 1 3085.74 117.779 3181.98 -1 0 -1
73 1 2224.26 895.587 1026.36 0 0 0
74 1 1662.24 254.618 581.964 -1 0 0
75 1 2443.29 2775.85 2224.74 -1 -1 -1
76 1 1775.82 190.963 2912.47 0 0 -1
77 1 1992.84 248.413 2803.68 -1 0 -1
78 1 315.343 2609.03 2943.87 0 0 -1
79 1 3008.44 338.245 2732.63 -1 0 -1
80 1 852.965 1659.47 2434.95 0 0 0
81 1 2991.99 2832.75 734.538 0 0 0
82 1 1297.63 828.846 33.9234 0 0 0
83 1 1269.21 2076.07 208.446 0 0 0
84 1 2876.43 -209.193 2086.68 -1 0 -1
85 1 1444.37 630.097 1732.96 0 -1 0
86 1 1785.72 -218.002 615.921 0 1 0
87 1 2042.2 979.394 3032.26 -1 0 0
88 1 858.059 2727.27 2875.4 0 0 -1
89 1 1729.63 281.972 558.136 0 0 0
90 1 1391.43 1411.28 159.869 0 0 0
91 1 794.853 -126.535 2959.32 0 1 0
92 1 2625.42 437.631 2192.56 0 0 -1
93 1 -74.087 521.934 3222.73 0 0 0
94 1 2972.93 2437.48 3019.22 0 0 -1
95 1 1164.05 1219.31 1186.39 0 0 1
96 1 2664.63 855.978 477.749 -1 0 0
97 1 599.251 1309.72 773.753 0 0 0
98 1 2465.01 1464.73 3122.13 -1 0 -1
99 1 2965.68 2099.23 802.82 0 0 0
100 1 1192.21 468.495 2976.85 0 0 -1
101 1 -228.432 2533.9 3060.17 1 -1 -1
102 1 3169.57 515.85 1206.18 -1 0 0
103 1 1634.66 2649.15 1648.22 0 0 -1
104 1 713.816 978.418 480.617 0 0 0
105 1 1815.55 2535.13 2815.63 0 -1 -1
106 1 2215.57 745.096 1280.65 0 1 0
107 1 2648.5 2572.5 -75.1314 0 -1 0
108 1 1866.69 1541 2835.41 0 0 0
109 1 1436.36 2756.17 106.94 0 -1 1
110 1 1073.84 -70.6114 2998.74 -1 0 0
111 1 1891.62 2788.1 2930.87 0 0 0
112 1 797.746 2519.86 2416.03 -1 -1 -1
113 1 1687.79 2547.48 1901.08 0 0 0
114 1 1922.03 2668.86 2007.6 -1 0 -1
115 1 975.27 418.151 670.3 0 0 0
116 1 583.118 509.311 205.773 0 0 0
117 1 1926.9 649.439 2993.97 0 0 0
118 1 1720.26 94.503 -46.3876 0 0 0
119 1 1088.77 1333.9 385.796 0 0 1
120 1 2346.32 1282.29 2162.61 0 -1 0
121 1 475.263 448.988 1239.99 0 0 0
122 1 2232.27 992.251 2615.62 0 1 0
123 1 2050.26 1146.75 2460.4 0 0 0
124 1 672.387 699.904 528.306 0 0 0
125 1 1179.7 110.246 2453.91 0 0 -1
126 1 1856.65 825.676 221.979 -1 0 1
127 1 373.709 -24.9862 3231.53 0 0 -1
128 1 899.099 1497.68 170.955 0 0 0
129 1 2984.21 430.13 3022.63 0 0 0
130 1 2130.37 514.535 -183.004 -1 0 0
131 1 2715.94 2106.55 2560.57 0 0 0
132 1 3027.69 497.998 964.37 -1 0 0
133 1 717.263 3050.49 400.439 0 -1 1
134 1 2856.18 2476.44 1670.67 0 -1 0
135 1 238.094 2307.67 2883.01 0 0 -1
136 1 2483.77 1070.41 514.437 0 -1 0
137 1 -205.659 2392.26 663.061 1 0 0
138 1 76.2898 1448.66 2301.93 0 0 -1
139 1 -74.4142 378.995 2760.47 0 0 0
140 1 132.209 2896.15 -82.0791 1 -1 0
141 1 2013.5 2773.04 1479.29 -1 -1 0
142 1 945.691 955.204 1759.43 0 0 0
143 1 2422.31 -81.5361 443.893 -1 0 0
144 1 2543.5 912.577 -196.203 0 0 1
145 1 729.835 1323.81 2890.47 0 0 -1
146 1 1852.97 3003.31 1047.26 -1 -1 0
147 1 1768.05 -201.565 720.578 -1 0 0
148 1 844.465 513.193 393.26 0 -1 0
149 1 2504.56 2310.05 2069.73 -1 -1 0
150 1 119.993 2499.21 905.646 0 0 0
151 1 -110.741 1164.32 -230.589 0 0 1
152 1 -182.379 727.058 191.811 0 0 0
153 1 2918.08 3159.7 1434.39 -1 -1 0
154 1 202.981 2503.77 1703.21 0 -1 -1
155 1 3183.26 -50.7754 2963.74 -1 0 -1
156 1 2697.74 2519.66 1076.72 0 0 1
157 1 1519.67 387.084 1000.97 -1 0 0
158 1 2124.36 1583.64 470.007 -1 0 0
159 1 280.788 410.134 737.458 1 0 0
160 1 1383.95 2853.63 2203.87 0 -1 0
161 1 3130.72 2367.05 1180.3 -1 0 0
162 1 398.626 1380.03 1814.09 0 0 -1
163 1 2453.67 3153.11 2591.21 -1 -1 0
164 1 1987.46 2950.49 3148 0 -1 -1
165 1 2687.97 1637.03 -128.869 -1 1 0
166 1 -72.8719 1623.61 38.2695 0 0 0
167 1 1917.83 3204.73 2394.26 0 -1 -1
168 1 3026.34 1825.29 680.616 -1 0 0
169 1 366.182 2328.53 171.887 0 0 0
170 1 1067.47 1079.18 1470.65 0 0 -1
171 1 2472.71 361.382 1482.25 -1 0 0
172 1 2024.27 1433.67 2488.56 0 0 0
173 1 2071.57 1436.46 -65.4582 -1 0 0
174 1 321.622 3192.61 695.53 0 0 0
175 1 415.042 2892.36 -97.5721 0 -2 0
176 1 2493.47 2507.73 1750.47 0 -1 0
177 1 1975.32 2250.45 2707.51 0 -1 -1
178 1 1715.12 2760.42 1098.94 0 -1 0
179 1 2336.75 1521.05 2800.22 -1 0 0
180 1 2296.87 1516.86 2518.21 0 0 0
181 1 1575.3 1392.54 -94.9602 0 0 1
182 1 1666.38 174.44 2647.55 0 0 0
183 1 2433.71 28.5909 180.561 -1 0 0
184 1 1076.33 1133.32 700.701 0 0 0
185 1 3013.67 2054.94 98.3276 -1 -1 1
186 1 2181.33 2750.64 2113.46 0 0 -1
187 1 1144.07 1316.18 919.595 0 0 0
188 1 744.69 2640.5 676.36 1 -1 0
189 1 1061.14 1073.65 422.006 0 -1 -2
190 1 2667.76 1567.88 610.25 0 0 -1
191 1 520.845 -65.328 7.25301 0 0 0
192 1 817.765 963.277 2164.32 0 0 0
193 1 1070.87 2383.33 1540.47 0 0 0
194 1 1500.81 382.61 2222.97 0 0 -1
195 1 -215.489 1101.03 190.526 0 1 0
196 1 2196 282.145 3126.84 -1 0 -1
197 1 2646.78 1684.86 1936.34 -1 0 0
198 1 468.306 1561.11 979.619 0 0 0
199 1 686.91 1743.19 104.901 0 1 0
200 1 338.227 3131.61 1592.73 0 0 0
201 1 2880.64 567.078 1205.28 -1 -1 0
202 1 1998.74 282.665 2844.61 -1 0 0
203 1 2090.63 825.137 2786.05 0 0 0
204 1 1542.93 1435.1 2389.77 0 0 0
205 1 973.671 2744.26 1949.26 0 -1 0
206 1 1612.44 2568.04 878.551 0 0 0
207 1 950.411 1494.67 155.005 0 0 0
208 1 815.458 2090.1 534.189 0 0 0
209 1 708.354 2662.49 1867.48 1 0 0
210 1 376.007 1370.11 1862 0 0 0
211 1 191.079 2597.09 1433.06 0 -1 0
212 1 -131.519 871.713 1149.44 0 0 0
213 1 -87.6319 1675.07 41.5209 0 -1 0
214 1 2390.38 2757.17 1821.75 0 -1 -1
215 1 1604.53 1258.51 2170.84 0 0 0
216 1 1830.53 1030.92 1863.29 0 1 0
217 1 2524.07 2571.86 478.946 -1 -1 0
218 1 726.732 3067.69 1641.16 -1 -1 0
219 1 2478.71 107.324 1368.59 0 1 0
220 1 582.447 1173.36 2718.08 -1 0 -1
221 1 3149.85 -80.119 1383.8 0 1 0
222 1 3068.59 2657.91 1710.45 0 0 0
223 1 320.772 565.321 3214.79 0 0 0
224 1 2271.76 588.944 349.51 0 0 0
225 1 1886.6 2094.29 2102.93 -1 0 -1
226 1 1648.01 2157.9 2785.61 -1 -1 -1
227 1 1830.59 1019.1 2595.65 0 0 0
228 1 2613.8 1897.5 2375.42 0 0 0
229 1 3043.41 1474.01 1304.08 -1 -1 0
230 1 760.42 1076.61 746.832 0 0 -1
231 1 875.261 1317.17 825.093 0 0 0
232 1 161.328 123.725 -115.897 -1 0 -1
233 1 2918.91 234.252 969.056 -1 0 0
234 1 1625.18 2472.23 617.567 0 -1 0
235 1 2085.69 3143.85 968.63 1 0 0
236 1 807.624 2247.33 2757.58 0 0 0
237 1 859.633 2899.98 2163.81 0 0 0
238 1 1606.05 1678.12 2515.7 0 -1 0
239 1 618.869 137.898 1161.73 0 1 0
240 1 647.64 892.979 2685.86 0 0 -1
241 1 1842.71 2935.41 2412.75 0 0 0
242 1 3128.07 2691.84 405.338 0 -1 -1
243 1 2343.8 1623.88 1932.95 0 1 0
244 1 3157.95 1790.87 1182.91 0 0 0
245 1 824.441 3003.63 1386.33 0 -1 0
246 1 103.962 715.116 189.545 0 0 1
247 1 1538.36 843.671 448.197 0 0 1
248 1 919.005 1661.31 -37.3398 1 0 0
249 1 2031.69 839.044 2498.43 0 0 0
250 1 2561.93 1259.87 714.058 -1 0 0
251 1 1934.71 2560.84 2526.55 -1 -1 -1
252 1 1615.6 3007.21 2263.01 0 0 -1
253 1 760.939 2374.01 695.533 0 -1 0
254 1 1691.3 1649.16 2526.38 0 0 0
255 1 684.283 2486.93 1641.87 0 -1 0
256 1 2121.23 833.254 315.39 0 -1 0
257 1 767.507 2218.37 2483.13 0 0 -1
258 1 1223.73 154.913 1052.41 0 0 0
259 1 933.948 2986.07 -129.855 0 0 1
260 1 2210.73 844.06 1017.79 -1 0 0
261 1 164.802 3127.82 2743.59 0 -1 -1
262 1 -42.4142 1760.5 79.429 0 -1 0
263 1 725.05 107.877 127.798 0 0 0
264 1 2810.69 2027.82 1195.02 -2 -1 0
265 1 2044.1 -106.71 1420.95 -1 0 0
266 1 1964.81 1283.9 1819.59 0 0 0
267 1 1613.85 402.18 2490.91 0 1 0
268 1 121.344 2079.2 619.258 1 0 0
269 1 1461.23 2617.48 2054.11 0 -1 0
270 1 1872.91 1121.77 865.676 0 0 0
271 1 1863.38 2091.07 504.757 0 0 0
272 1 374.318 1318.02 948.584 0 0 -1
273 1 486.279 1571.67 929.897 0 0 0
274 1 -48.4697 477.905 204.305 0 0 0
275 1 1287.45 3211.49 3132.8 0 -1 -1
276 1 271.74 2000.98 1853.99 0 0 0
277 1 759.184 2190.56 2113.11 0 -1 0
278 1 940.238 22.7932 1944.58 -1 1 -1
279 1 -104.761 479.204 3229.83 0 -1 -1
280 1 3023.58 1652.7 445.15 0 0 0
281 1 -117.527 914.428 386.707 0 0 0
282 1 1704.15 2752.63 2172.43 0 -1 0
283 1 253.064 331.507 1381.65 1 0 0
284 1 1508.11 3148.58 2494.3 0 -1 0
285 1 2298.6 862.198 538.352 -1 0 0
286 1 -56.2156 976.155 2693.15 0 0 -1
287 1 3191.46 -125.38 -166.148 0 0 1
288 1 2004.05 874.676 822.095 0 0 0
289 1 -52.7735 2255.24 26.4592 0 -1 0
290 1 3210.65 2902.03 1714.23 -1 -1 -1
291 1 970.4 2742.67 3186.57 0 0 -1
292 1 2288.81 1349.58 79.8699 -1 0 0
293 1 1909.18 2629.62 3171.11 0 -1 0
294 1 2613.28 133.044 436.839 -1 0 1
295 1 633.458 1516.75 2538.33 0 0 -1
296 1 1679.01 299.862 559.873 0 0 0
297 1 1345.38 2945.7 473.665 0 -1 1
298 1 890.97 1163.43 1219.91 0 1 0
299 1 1224.22 2905.47 2720.02 0 -1 0
300 1 1643.92 2631.74 3045.94 0 -1 -1
301 1 374.017 2065.17 2112.94 0 -1 -1
302 1 2618.88 321.927 1246.84 -1 0 0
303 1 3029.51 1547.83 715.991 -1 0 0
304 1 -91.5175 914.743 1.76362 0 0 0
305 1 243.475 2186.79 376.568 0 -1 0
306 1 2340.1 2773.07 530.106 -1 0 0
307 1 -180.784 193.996 3149.37 1 0 -1
308 1 855.185 1238.77 268.279 0 0 0
309 1 -225.704 2409.42 -151.957 1 0 0
310 1 1287.52 900.438 1423.16 0 0 0
311 1 2145.17 2129.19 512.365 0 0 0
312 1 1656.58 -175.084 2299.55 0 1 0
313 1 1129.84 238.791 3124.61 -1 0 -1
314 1 3113.53 1834.55 248.853 0 0 0
315 1 2890.16 1398.17 2405.83 0 0 0
316 1 405.923 903.395 1409.86 0 0 0
317 1 2446.04 2904.94 2989.17 0 0 0
318 1 2406.47 612.462 2221.82 -1 0 0
319 1 1088.92 931.247 2079.31 0 0 0
320 1 2208.27 1918.73 2935.04 0 0 -1
321 1 3174.65 1557.61 222.538 0 0 0
322 1 2585.09 2871.52 2002.54 0 1 0
323 1 -79.7852 -30.6626 794.6 0 0 0
324 1 3230.09 1018.72 1655.71 -1 0 0
325 1 924.64 1849.12 1641.63 0 -1 0
326 1 1139.36 -90.6893 212.026 0 1 0
327 1 2209.36 2924.79 731.069 -1 -1 0
328 1 1633.15 825.156 1805.43 0 0 0
329 1 -217.031 2049.27 -70.7234 0 0 0
330 1 415.688 645.273 643.563 0 -1 0
331 1 2831.12 1349.35 698.59 0 -1 0
332 1 2995.19 1858.36 956.297 -1 -1 -1
333 1 954.577 1073.76 951.915 0 0 0
334 1 1697.08 284.774 156.546 0 0 0
335 1 -198.546 1360.4 2289.26 0 0 -1
336 1 2798.34 2686.9 872.775 -1 0 0
337 1 348.243 73.5749 2504.05 0 0 -1
338 1 2076.91 1488.56 203.96 0 0 0
339 1 533.998 1172.71 381.637 0 0 0
340 1 2818.56 2335.81 883.495 0 0 0
341 1 95.136 2375.08 235.076 0 0 0
342 1 2694.15 28.8226 48.9363 0 -1 0
343 1 1776.53 -213.461 668.907 0 0 0
344 1 1744.93 2668.94 1370.14 0 1 -1
345 1 1099.06 1846.04 -132.547 0 0 0
346 1 491.101 1951.04 1558.05 1 0 0
347 1 1090.21 3208.28 -129.489 0 -1 0
348 1 2795.19 1575.77 1733.2 0 0 0
349 1 2772.43 1144.76 881.615 -1 0 0
350 1 1314.39 2335.45 170.128 0 0 0
351 1 2097.46 1712.17 1015.58 0 0 1
352 1 1405.37 2136.62 1956.74 0 1 0
353 1 1640.82 1649.8 2545.53 0 0 0
354 1 2069.04 1237.13 2186.66 0 0 -1
355 1 1293.79 1905.91 444.535 0 0 0
356 1 624.193 739.927 1340.19 1 0 0
357 1 3127.6 1327.4 61.9691 -1 0 0
358 1 718.249 2021.55 2903.33 0 -1 0
359 1 -213.686 2387.32 716.435 1 0 0
360 1 912.217 1467.91 128.258 0 0 0
361 1 -40.8325 1770.25 1107.11 0 0 0
362 1 -36.8514 1661.22 50.3457 1 0 0
363 1 3050.84 2116.09 1070.46 -1 -1 -1
364 1 779.148 850.224 1557.25 0 1 0
365 1 2045.75 2449.02 2194.71 0 -1 0
366 1 600.938 369.673 995.48 0 0 0
367 1 1240.01 885.563 305.427 0 0 0
368 1 2838.21 989.037 652.683 -1 0 0
369 1 791.727 2276.88 1182.13 0 0 -1
370 1 439.352 172.682 1900.28 0 0 0
371 1 1027.97 116.916 1259.47 -1 1 0
372 1 2351.33 2776.67 1492.1 0 -1 -1
373 1 2781.95 1468.49 365.541 0 0 0
374 1 2757.67 1155.63 421.524 0 0 0
375 1 786.538 -145.069 776.512 0 0 0
376 1 2286.12 2504.36 1561.66 0 1 0
377 1 2457.54 2121.68 2448.03 -1 0 0
378 1 1205.13 1674.59 604.379 0 0 0
379 1 547.383 77.5327 846.836 0 1 1
380 1 1822.06 -79.4457 2597.42 0 0 0
381 1 863.706 2833.83 1704.23 0 -1 0
382 1 267.533 2424.98 2619.06 1 0 0
383 1 2341.82 2477.63 99.3562 -1 -1 0
384 1 2371.92 3051.68 458.794 0 0 0
385 1 947.243 1648 3143.17 0 0 0
386 1 2182.48 574.685 2891.95 0 -1 -1
387 1 -113.767 2809.46 1480.47 0 -1 0
388 1 3165.41 225.911 2938.75 -1 0 0
389 1 546.98 138.515 3089.02 0 0 0
390 1 925.436 949.894 2728.71 0 1 0
391 1 2903.07 3158.75 1382.69 -1 0 0
392 1 2895.05 1209.9 177.854 -1 0 0
393 1 1687.97 582.568 2283.66 0 0 0
394 1 1276.12 2988.04 1707.97 0 -1 0
395 1 1970.12 598.354 1309.63 0 0 0
396 1 309.287 593.467 39.2201 -1 0 0
397 1 1819.39 1454.99 2191.04 -1 0 -1
398 1 2659.18 2048.3 1435.09 -1 -1 0
399 1 81.7035 1005.3 213.432 0 0 0
400 1 984.541 1656.89 2187.81 0 0 -1
401 1 1195.92 -0.0570672 -221.042 0 0 0
402 1 822.039 574.016 1597.51 -2 0 0
403 1 98.8224 2378.94 1295.67 0 -1 0
404 1 1235.84 548.551 56.5074 0 0 0
405 1 2857.98 2301.59 1157.63 0 0 0
406 1 1967.24 2061.6 1539.27 0 -1 0
407 1 1987.25 804.798 1949.39 -1 0 0
408 1 2865.64 -112.933 2346.87 -1 0 0
409 1 606.17 2209.92 983.487 1 0 0
410 1 2450.93 796.75 301.333 -1 0 0
411 1 1657.17 1197.81 2442.43 1 1 0
412 1 1356.68 1222.71 2033.04 1 0 0
413 1 449.558 2189.98 -57.0952 0 0 0
414 1 1625.94 1050.34 1646.79 -1 0 -1
415 1 2713.35 2935.44 2941.06 -1 -1 0
416 1 255.207 2628.13 1150.11 -1 0 0
417 1 3195.3 1653.12 923.671 0 0 0
418 1 1844.8 3097.09 2645.38 0 0 -1
419 1 1884.07 2738.48 1729.41 0 0 0
420 1 1918.57 2385.57 1948.02 0 0 -1
421 1 1128.12 2980.16 2206.06 0 0 0
422 1 1730.85 -88.2056 2869.68 0 1 0
423 1 2163.58 739.877 3119.21 -1 -1 -1
424 1 2314.12 1515.42 1279.69 -1 -1 0
425 1 3090.57 2798.68 993.527 -1 0 0
426 1 642.63 1406.09 503.603 0 0 -1
427 1 1944.52 2234.45 269.459 0 0 0
428 1 2739.52 258.156 213.975 -1 0 0
429 1 1093.54 2234.9 2760.88 0 0 -1
430 1 1392.06 161.886 2632.67 0 0 -1
431 1 1660.62 2296.64 1770.28 0 -1 -1
432 1 288.888 3180.15 -137.714 0 -1 0
433 1 1485.27 2268.88 1097.43 0 1 0
434 1 35.8645 3063.96 2505.95 0 -1 -1
435 1 1940.37 2994.09 773.252 0 0 0
436 1 3035.31 650.047 -87.7764 -1 0 0
437 1 1361.19 1918.37 1908.44 0 0 0
438 1 611.865 630.072 1074.58 0 0 0
439 1 -105.083 2526.68 384.945 0 0 0
440 1 1290.24 2976.2 2442.26 0 -1 -1
441 1 1176.1 2578.18 2073.52 1 0 1
442 1 2124.45 2866.89 1809.6 0 -1 -1
443 1 374.03 749.331 1170.45 0 0 0
444 1 1739.66 1272.96 2824.72 1 0 -1
445 1 359.298 558.649 964.88 0 0 0
446 1 2332.61 1865.66 2397.14 0 0 -1
447 1 1926.07 1536.85 1947.35 -1 0 0
448 1 3128.64 985.282 644.555 -1 0 0
449 1 2046.69 558.044 1826.63 -1 0 0
450 1 411.474 2469.28 -114.736 1 0 1
451 1 2841.36 1123.89 1905.83 1 0 0
452 1 1234.7 2878.71 1960.3 -1 0 -1
453 1 1721.17 884.33 884.927 0 0 0
454 1 817.899 803.173 2956.64 0 0 -1
455 1 3160 534.694 3204.18 -1 0 0
456 1 1754.83 2352.75 2599.13 0 0 -1
457 1 1528.11 805.729 1542.36 0 0 0
458 1 53.391 1640.13 2816.73 0 0 -1
459 1 560.594 3113.74 1411.43 0 -1 0
460 1 1542.79 -76.2834 2653.88 0 0 0
461 1 217.803 576.374 1527.6 1 0 0
462 1 704.895 3117.52 2304.26 0 -1 -1
463 1 1062.05 811.871 1566.23 0 1 0
464 1 2244.91 703.982 1954.35 0 0 0
465 1 1906.34 -103.92 987.072 0 0 0
466 1 2200.97 3132.24 1853.02 -1 -1 0
467 1 1065.34 2924.56 1524.45 -1 0 0
468 1 1288.89 883.081 583.048 0 0 0
469 1 3092.44 -113.514 672.425 -1 0 0
470 1 -38.5141 43.8174 1967.06 0 0 -1
471 1 2131.7 2389.81 3087.3 0 0 -1
472 1 -134.087 833.94 2460.38 0 0 -1
473 1 285.334 3194.5 735.307 0 -1 0
474 1 -85.6851 2319.02 984.806 0 -1 0
475 1 490.522 2088.35 1314.73 -1 -1 0
476 1 2814.86 1707.94 319.74 -1 0 1
477 1 1201.1 -20.6624 1867.29 -1 0 0
478 1 33.0113 1912.06 1972.6 1 0 0
479 1 1003.56 1883.96 604.641 0 0 0
480 1 1995.4 2775.92 1139.08 0 -2 0
481 1 140.072 872.977 455.77 0 1 0
482 1 1923.74 2818.6 2657.87 0 0 0
483 1 216.686 410.973 237.118 1 0 0
484 1 2078.17 1303.62 428.007 0 0 1
485 1 2813.82 1391.88 -64.5723 0 0 0
486 1 2213.42 2611.1 2351.89 0 0 0
487 1 1529.35 2531.39 2802.03 0 0 -1
488 1 821.354 522.039 913.537 0 0 0
489 1 1329.12 1260.69 2361.85 0 0 0
490 1 -202.497 2435.76 695.745 0 0 0
491 1 2700.04 -183.753 -132.571 -1 0 0
492 1 248.373 1130.55 393.918 0 0 0
493 1 1377.56 1537.11 416.4 0 0 0
494 1 1843.25 3146.37 3003.34 0 -1 0
495 1 1017.13 2482.7 633.605 0 0 0
496 1 -43.726 599.987 2589.74 0 1 0
497 1 2336.4 2990.84 2073.55 0 0 0
498 1 1095.38 1136.51 2868.85 0 1 0
499 1 1159.45 2727.9 2320.1 0 0 0
500 1 699.392 1182.05 2307.62 0 0 0
501 2 2494.02 1802.86 1639.43 0 0 0
502 2 614.014 1853.31 1056.35 1 0 0
503 2 43.2279 889.847 1463.44 0 0 0
504 2 1239.22 1517.24 -153.8 0 0 1
505 2 2764.48 1606.74 2960.64 0 0 -1
506 2 846.535 243.014 2393.08 0 0 0
507 2 662.287 1766.77 547.908 0 0 0
508 2 1285.39 2701.3 3011.49 0 0 -1
509 2 2939.81 3174.56 3063.4 0 0 0
510 2 622.673 1539.72 -201.213 0 0 0
511 2 1199.29 -196.054 2662.02 0 1 -1
512 2 1377.58 710.192 2140.04 0 0 0
513 2 141.018 2093.57 2380.52 0 0 0
514 2 1799.84 1872.12 2959.8 0 0 0
515 2 2677.39 1150.36 2238.43 0 0 -1
516 2 -172.637 3182.77 1921.49 1 -1 0
517 2 240.732 1809.12 821.073 1 0 0
518 2 936.328 2955.27 2500.72 0 0 0
519 2 2612.32 1370.85 2620.39 0 0 0
520 2 2955.54 2663.14 1293.84 -1 0 0
521 2 1726.17 1447.17 268.674 0 0 0
522 2 645.326 1441.75 1105.72 0 1 0
523 2 2334.37 270.822 2339.96 0 0 0
524 2 1061.09 1960.94 2989.07 0 0 -1
525 2 1998.89 2639.84 794.691 1 0 0
526 2 2361.59 2829.53 164.976 0 0 1
527 2 3121.27 3117.2 2312.68 0 -1 0
528 2 52.7338 2275.4 1941.33 1 0 0
529 2 173.67 2852.55 884.402 0 0 0
530 2 2533.26 2803.17 2652.47 -1 -1 -1
531 2 3073.99 809.169 1388.9 0 0 0
532 2 3132.49 2413.92 2310.1 -1 0 0
533 2 2535.47 1566.82 2245.33 0 1 0
534 2 2301.75 1701.14 30.6345 0 0 1
535 2 -124.635 2453.43 1564.8 0 0 0
536 2 2549.67 2460.4 2385.25 0 0 0
537 2 2861.8 3065.34 970.897 -1 0 0
538 2 2063.24 1762.12 1363.61 0 0 0
539 2 2645.71 2921.34 -163.839 0 -1 1
540 2 1053.7 206.895 2770.05 0 1 0
541 2 952.423 629.395 2228.94 0 0 0
542 2 891.108 167.43 915.031 0 0 0
543 2 2658.59 482.787 911.755 0 -1 -1
544 2 927.497 1550.59 1843.22 0 0 -1
545 2 3080.63 2293.03 1886.43 0 0 0
546 2 1564.3 619.512 164.62 0 0 1
547 2 3191.53 1154.18 1985.96 0 1 0
548 2 1351.37 1119.44 3133.87 0 0 0
549 2 701.882 2801.02 78.9832 0 0 0
550 2 1495.14 2918.27 1430.93 0 0 0
551 2 224.352 270.505 3019.23 1 0 0
552 2 -142.216 2764.07 98.297 1 0 0
553 2 2469.63 77.701 3227.57 -1 0 0
554 2 2365.41 706.734 1604.55 0 0 0
555 2 304.011 545.851 1877.48 0 1 0
556 2 614.362 995.168 1069.09 1 0 0
557 2 775.416 -204.982 1126.53 0 1 0
558 2 1938.74 2292.43 2666.45 0 0 0
559 2 1262.98 203.195 696.217 0 0 0
560 2 1305.74 1644.86 1629.02 0 0 0
561 2 2059.39 -29.4214 3002.1 0 0 -1
562 2 1151.98 1487.5 2885.04 0 0 0
563 2 1302.15 952.971 1772.62 0 0 0
564 2 2327.08 261.129 2787.78 0 0 0
565 2 469.62 2851.54 569.426 0 0 0
566 2 966.136 1666.14 883.145 1 0 0
567 2 2812.19 116.324 2938.58 0 -1 -1
568 2 2222.81 1453.66 1620.75 0 0 0
569 2 142.827 186.776 1685.25 0 0 0
570 2 1508.3 2341.55 1443.12 0 0 0
571 2 1150.72 1148.21 71.3925 0 1 0
572 2 1720.42 -194.193 1287.43 0 0 0
573 2 -74.9008 2414.26 2746.4 1 -1 0
574 2 1450.66 143.584 1331.45 0 1 0
575 2 888.649 822.255 202.467 0 0 0
576 2 1865.49 205.228 1210.46 0 0 0
577 2 1940.88 818.579 1588.99 0 0 0
578 2 2553.87 1101.01 110.169 -1 0 1
579 2 133.12 1096.68 2967.39 1 0 -1
580 2 -152.218 148.067 52.2379 1 0 1
581 2 282.986 892.201 2595.34 0 0 0
582 2 2876.38 1728.48 2552.71 -1 0 0
583 2 64.5781 562.415 1182.91 0 0 0
584 2 -130.158 307.75 2407.08 0 0 0
585 2 285.484 2680.47 156.021 0 0 0
586 2 1814.52 2409.92 1130.48 0 0 0
587 2 493.61 2350.36 2288.58 0 0 0
588 2 2208.1 1168.63 716.034 0 0 -1
589 2 3094.92 1409.91 3157.81 -1 0 -1
590 2 3195.36 3041.9 1244.95 0 -1 0
591 2 2050.79 222.442 1961.25 0 1 -1
592 2 12.3076 1276.29 1680.05 0 0 0
593 2 1683.65 2390.51 2229.82 0 0 0
594 2 370.687 1294.21 2439.79 0 0 -1
595 2 2277.46 2124.01 165.613 0 0 0
596 2 2890.7 332.787 2394.27 -1 0 0
597 2 649.475 -63.646 1736.71 0 0 0
598 2 -38.1936 807.12 1877.9 0 0 0
599 2 3142.98 619.866 636.386 -1 0 0
600 2 2676.97 -2.14289 1075.87 0 1 0
601 2 2719.87 1189.01 3111.62 -1 0 -1
602 2 1411.6 1879.91 2736.65 0 0 0
603 2 3120.55 666.746 2228.02 -1 0 0
604 2 -67.9697 166.447 1306.74 0 0 0
605 2 616.328 2484.37 377.212 0 0 0
606 2 339.943 1723.81 2590.13 1 0 -1
607 2 1237.8 519.616 1424.55 -1 0 0
608 2 930.5 2103.38 868.906 0 0 0
609 2 1830.36 1051.52 499.911 -1 -1 -1
610 2 1091.31 2950.29 1158.32 0 0 0
611 2 257.784 2187.66 1039.88 0 -1 0
612 2 2285.56 1172.76 -229.443 0 0 0
613 2 2263.91 538.308 713.236 0 0 0
614 2 1935.94 3021.02 2070.09 0 -2 0
615 2 594.048 1611.02 1498.25 -1 -1 -1
616 2 3036.62 1016.58 -97.4377 -1 0 0
617 2 1454.31 -149.406 -25.6544 -1 0 0
618 2 2560.92 1337.87 1869.23 0 0 0
619 2 52.0324 2895.39 468.808 1 -1 1
620 2 3105.17 55.4108 2131.27 -1 0 -1
621 2 1588.53 2875.75 1844.32 0 0 0
622 2 357.727 1366.71 1927.82 0 0 -1
623 2 -97.8509 2646.24 1154.25 0 0 0
624 2 1812.08 64.9092 1631.78 0 1 0
625 2 3114.57 1238.98 887.567 -1 0 0
626 2 63.6972 1996.79 2799.95 0 0 -1
627 2 217.77 2183.3 1543.6 0 -1 0
628 2 1827.99 961.321 2227.17 -1 0 -1
629 2 -82.8628 1735.46 2487.06 0 0 -1
630 2 2870 2502.47 559.247 0 0 0
631 2 483.206 289.373 -70.3701 0 0 0
632 2 271.63 1729.99 2163.47 0 0 -1
633 2 -149.225 1987.04 1679.64 0 0 -1
634 2 2013.57 2889.4 432.604 0 -1 0
635 2 624.86 710.438 -116.098 0 0 0
636 2 2008.19 1127.55 108.888 0 0 0
637 2 2422.23 1396.08 407.128 0 0 0
638 2 2429.61 135.457 741.584 0 1 0
639 2 2712.73 730.925 2381.18 -1 -1 0
640 2 -88.8391 -156.726 454.753 0 0 0
641 2 690.295 744.688 1886.78 1 0 0
642 2 2867.91 2761.17 2371.11 0 -1 -1
643 2 1007.58 -142.321 2256.93 0 0 0
644 2 229.729 1364.38 -163.211 0 0 1
645 2 1198.25 3018.36 154.517 0 -1 0
646 2 418.875 1855.61 3007.36 0 0 -1
647 2 1277.2 2624.95 1698.55 0 -1 0
648 2 1345.34 2586.78 410.529 0 0 0
649 2 905.297 1281.7 2587.4 0 0 0
650 2 237.099 2788.4 2634.38 0 0 0
651 2 -155.258 1986.56 839.035 0 -1 0
652 2 2479.58 900.826 813.578 0 0 0
653 2 2417.73 2299.46 -202.66 0 -1 0
654 2 2738.93 2533.16 2007.41 0 -1 0
655 2 1201.56 1581.14 2464.35 0 0 0
656 2 2129.53 -193.914 626.115 0 1 0
657 2 941.507 2385.05 1867.34 0 0 0
658 2 2665.31 2186.81 1769.71 0 0 0
659 2 1551.83 2728.77 2493.55 0 0 -1
660 2 2149.25 2105.42 1990.06 0 0 -1
661 2 993.728 3132.89 1866.42 0 -1 0
662 2 1873.38 809.124 -159.089 0 0 0
663 2 -161.367 2944.71 3173.57 0 -1 0
664 2 2869.35 2418.07 2670.31 -1 0 -1
665 2 2174.31 169.492 384.715 0 0 0
666 2 1004.95 1955.67 2554.23 0 0 0
667 2 2769.01 543.141 1554.97 -1 0 0
668 2 1016.5 3210.33 505.331 0 0 0
669 2 2573.88 3212.28 1418.04 -1 -1 0
670 2 847.432 57.0586 -206.355 0 0 0
671 2 -1.68711 1126.25 648.636 1 0 0
672 2 567.389 2786.48 2346.85 0 -1 0
673 2 631.013 1925.23 2317.09 0 0 -1
674 2 2971.89 -26.0631 271.647 -1 0 0
675 2 595.507 1836.29 1888.84 0 0 0
676 2 1060 2297.23 2280.81 0 -1 0
677 2 1168.4 -167.418 908.049 0 0 0
678 2 1402 2280.2 2551.97 0 0 0
679 2 44.7402 1085.35 2283.16 0 0 0
680 2 1236.47 802.681 2844.53 0 0 -1
681 2 1438.52 1894.57 3198.01 0 0 -1
682 2 1492.34 3024 1010.82 0 -1 0
683 2 2044.73 580.634 2225.59 0 0 0
684 2 243.908 409.695 2606.02 0 0 -1
685 2 2486.05 1268.23 1062.32 0 0 0
686 2 357.284 1837.62 -31.3299 0 0 0
687 2 2181.88 3230.53 202.762 0 -1 1
688 2 506.084 2795.28 1588.06 0 0 0
689 2 755.637 325.738 1978.23 0 0 0
690 2 441.818 953.272 2184.13 0 0 0
691 2 2310.49 2118.51 1411.26 0 0 0
692 2 2689.13 2831 1609.17 -1 -1 0
693 2 1386.9 149.819 289.04 0 0 0
694 2 1909.3 539.341 2640.38 0 1 0
695 2 2402.61 1824.14 449.523 0 0 0
696 2 1701.62 1776.74 2081.66 0 0 0
697 2 2994.42 803.631 1821.13 0 0 0
698 2 1567.3 2917.39 -192.095 0 0 0
699 2 189.524 2934.62 1316.32 0 -1 0
700 2 2279.67 -26.9259 1679.36 -1 0 0
701 2 2124.47 2234.5 868.373 0 0 0
702 2 2230.69 -18.3741 1113.19 0 1 0
703 2 2263.69 2698.69 3216.05 0 -1 0
704 2 1391.58 265.471 1740.58 0 1 0
705 2 17.0684 -106.784 2283.49 0 0 -1
706 2 1109.77 2611.22 33.5735 0 0 -1
707 2 1359.99 2271.33 2988.87 0 0 -1
708 2 1549.54 791.556 2537.58 0 0 0
709 2 1303.84 992.097 933.36 0 0 0
710 2 586.161 -33.9211 2164.89 0 -1 -1
711 2 1447.12 -168.069 1639.88 0 0 0
712 2 408.181 3095.73 192.15 0 -1 1
713 2 1764.23 2541.51 292.525 -1 0 1
714 2 975.144 209.345 1618.75 0 0 0
715 2 211.157 2499.3 548.008 0 0 0
716 2 469.02 2151.59 654.215 0 0 0
717 2 2274.92 -118.289 2129.27 0 1 0
718 2 1788.04 3228.09 -181.486 0 -1 1
719 2 584.189 3024.01 1966.73 0 -1 0
720 2 1705.42 2101.56 17.3157 0 0 1
721 2 629.117 3132.6 3194.26 0 -1 -1
722 2 2358.07 1582.26 795.251 -1 0 0
723 2 2469.22 2270.97 2769.86 0 -1 0
724 2 2129.62 1612.12 3081.15 0 0 -1
725 2 1169.15 245.177 2112.53 0 1 0
726 2 2607.03 2434.37 1409.06 0 0 0
727 2 2674.62 1015.41 1595.23 0 0 0
728 2 2987.99 891.311 320.04 0 1 0
729 2 2618.82 1436.94 1447.02 0 0 0
730 2 1384.68 1253.06 1462.39 0 0 0
731 2 3017.52 3080.05 17.4216 -1 -1 0
732 2 86.0937 2587.65 3222.47 0 -1 -1
733 2 2914.16 1478.1 2048.68 0 0 0
734 2 821.732 2963.13 810.886 0 -1 0
735 2 540.434 2271.61 3067.41 0 0 -1
736 2 2603.28 3193.02 1848.84 -1 -1 -1
737 2 995.704 824.912 1209.89 0 1 0
738 2 1326.77 2361.23 781.884 0 0 0
739 2 468.216 2126.39 2666.13 0 0 -1
740 2 3030.71 3041.22 444.583 -1 -1 0
741 2 1378.14 3199.98 2067.08 0 -1 -1
742 2 2489.63 1839.38 2714.82 -1 -1 -1
743 2 1990.48 494.956 127.072 0 0 0
744 2 247.599 -175.81 1910.23 -1 0 0
745 2 1537.23 712.217 1170.36 0 0 0
746 2 1931.04 937.991 1166.13 0 0 0
747 2 2050.12 1349.6 1083.57 0 0 1
748 2 2081.26 2005.62 -202.409 0 0 0
749 2 820.302 3222.88 116.454 0 -1 0
750 2 1536.17 3019.89 2831.78 0 0 0
751 2 631.586 1127.9 3.88167 0 0 1
752 2 346.907 977.731 1758.55 1 0 0
753 2 3084.69 682.681 2670.44 -1 0 0
754 2 1262.12 468.049 2485.11 0 0 0
755 2 610.931 2697.7 3126.27 0 0 0
756 2 3221.1 2008 2182.26 -1 0 0
757 2 1007.47 1963.82 1982.34 0 0 0
758 2 1452.63 1953.02 1262.8 -1 0 0
759 2 274.384 213.656 1044.87 1 0 0
760 2 2280.12 789.765 -13.3982 0 0 1
761 2 2983.88 1830.56 -202.249 -1 0 0
762 2 584.934 2854.48 1159.9 0 0 0
763 2 2424.84 1942.04 2054.9 0 0 0
764 2 248.39 1819.86 392.079 0 0 0
765 2 1024.25 2301.52 306.566 0 0 0
766 2 2521.11 2205.7 1039.93 0 0 0
767 2 2584.86 776.806 1235.75 0 0 0
768 2 2853.9 2244.58 -164.988 0 0 0
769 2 64.6904 670.768 2911.92 0 0 -1
770 2 2182.44 -81.6552 2560.97 0 0 -1
771 2 448.601 1481.23 199.039 0 0 0
772 2 2658.88 2886.46 607.261 0 -1 0
773 2 2083.22 123.174 -38.8463 0 0 1
774 2 1869.4 1442.61 687.154 0 0 0
775 2 1629.33 1254.08 1101.29 0 0 0
776 2 1687.56 1716.69 972.433 -1 -1 0
777 2 3008.37 1299.53 1617 0 0 0
778 2 2705.52 697.424 50.0105 0 0 0
779 2 936.309 1242.4 3170.12 0 0 -1
780 2 997.805 3035.92 2974.58 0 0 -1
781 2 1733.46 2009.83 2469.7 0 -1 -1
782 2 2868.89 1161.54 1232.04 0 0 0
783 2 1610.25 1371.76 1812.5 0 0 0
784 2 1410.24 1171.93 418.78 0 0 0
785 2 39.7159 -129.758 3103.04 0 1 0
786 2 108.666 2902.82 1744.06 0 -1 0
787 2 2930.95 3141.32 1499.03 0 -1 0
788 2 3160.81 1019.63 2950.66 -1 0 -1
789 2 494.821 643.482 2894.15 0 0 -1
790 2 2414.21 904.916 2916.77 -1 -1 -1
791 2 -11.4236 1328.21 2630.55 0 0 -1
792 2 1528.53 458.407 2834.86 0 0 -1
793 2 2903.07 399.682 1955.66 -1 0 0
794 2 114.023 649.337 2261.31 0 0 -1
795 2 2735.1 -150.195 620.421 -1 0 0
796 2 2941.7 1875.71 1873.85 0 0 0
797 2 2145.79 3038.18 2838.92 0 -1 0
798 2 696.547 1182.35 1903.37 0 0 0
799 2 1943.85 2823.7 13.0277 0 -1 0
800 2 2091.12 1259.68 2805.73 0 0 -1
801 2 2794.85 2757.69 211.673 -1 -1 1
802 2 2966.2 228.031 1323.08 0 0 0
803 2 2665.13 76.509 2118.23 0 0 0
804 2 3077.64 1074.99 2402.77 -1 0 0
805 2 1576.84 1058.28 42.0789 0 -1 0
806 2 236.353 58.9096 642.716 0 0 0
807 2 752.921 1963.22 -163.904 0 -1 0
808 2 -121.449 702.007 3196.24 0 0 0
809 2 2184.01 3038.96 1296.14 -1 -1 -1
810 2 410.219 999.353 684.763 0 0 -1
811 2 2695.2 499.867 2756.34 0 0 -1
812 2 0.182219 -196.761 1531.43 0 0 0
813 2 253.68 1816.13 1306.6 0 0 0
814 2 -137.743 505.998 1568.26 0 0 0
815 2 1210.25 2068.29 1605.62 0 0 0
816 2 621.311 346.22 619.516 0 1 0
817 2 1458.39 691.152 3205.75 0 0 -1
818 2 -191.031 3122.75 2780.62 0 -1 0