ITEM: TIMESTEP
671000
ITEM: NUMBER OF ATOMS
1000
ITEM: BOX BOUNDS pp pp pp
1.1400680292638572e+03 3.8599319707356071e+03
1.1400680292638572e+03 3.8599319707356071e+03
1.1400680292638572e+03 3.8599319707356071e+03
ITEM: ATOMS id type x y z ix iy iz
1 1 2821.94 2410.73 1318.36 -1 0 1
2 1 2010 1175.82 2648.36 0 0 0
3 1 3414.72 2594.15 2093.99 0 0 0
4 1 2205.3 1548.84 3386.55 0 -1 0
5 1 3571.16 3076.05 2742.4 -1 -1 1
6 1 1837.25 1627.64 3567.98 0 0 0
7 1 1528.4 3129.07 2929.68 0 -1 0
8 1 2120.8 1611.06 2469.16 0 0 1
9 1 3090.71 3144.17 2464.74 0 0 0
10 1 2926.38 2511.59 2669.33 0 0 0
11 1 2740.32 2069.93 2626.07 0 0 0
12 1 1257.86 3325.58 3781.37 0 0 0
13 1 3259.19 3688.75 3634.25 -1 0 -1
14 1 2167.73 2760.6 2950.92 0 0 -1
15 1 3360.2 2170.42 1977.35 0 0 0
16 1 2132.19 3850.11 2446.02 0 0 -1
17 1 2422.74 2980.97 2999.24 1 0 -1
18 1 3241.64 2325.02 2484.59 -1 1 0
19 1 2956.25 1772.88 1636.56 -1 0 0
20 1 1301.87 3146.99 3069.43 0 -1 0
21 1 1960.6 2541.63 2591.92 0 1 0
22 1 2707.26 3091.05 2795.74 2 -1 0
23 1 2955.36 2090.76 2736.33 0 0 1
24 1 3068.48 3520.18 2107.05 0 0 0
25 1 1609.99 1815.55 2865.1 -1 0 0
26 1 3060.05 3145.05 3038.21 0 0 0
27 1 3215.58 2375.81 2901.31 -1 0 1
28 1 1946.2 2442.65 2372.98 0 0 0
29 1 2584.27 2221.45 2687.74 0 0 -1
30 1 2863.28 3595.88 2968.59 0 0 0
31 1 1280.78 1503.78 2994.07 0 0 0
32 1 1478.4 3247.96 3396.88 0 0 -1
33 1 2134.23 2368.23 3259.23 0 0 0
34 1 2439.93 1170.35 2970.71 0 0 0
35 1 1912.58 2121.33 2368.79 0 0 -1
36 1 1357.81 2904.38 1238.92 0 -1 0
37 1 1685.5 1708.25 1762.25 0 0 0
38 1 2153.92 3091.11 2119.14 0 0 0
39 1 3354.42 2325.63 2959.5 -2 0 -1
40 1 3243.45 2469.78 1886.37 -1 -1 2
41 1 1855.77 3007.77 1742.86 0 0 -1
42 1 3013.35 2746.79 1970.27 0 -1 0
43 1 2444.34 2613.62 1961.79 0 -2 0
44 1 3097.36 3558.61 1591.93 0 -1 0
45 1 2452.73 2279.82 2872.06 0 0 0
46 1 3003.78 3719.51 3147.68 -1 -1 0
47 1 3548.36 3381.84 2138.83 -1 -1 -1
48 1 3353.47 1980.21 2867.03 0 0 -1
49 1 2990.04 2568.67 2198.16 -1 0 1
50 1 3167.47 1544.38 3464.91 -1 0 0
51 1 3423.96 1261.17 2181.81 -1 -1 1
52 1 3834.79 2547.81 3678.68 -1 0 -1
53 1 3223.98 1821.11 3560.75 -2 0 -1
54 1 3453.72 2207.4 3099.98 0 0 -1
55 1 3110.1 3145.89 3058.61 -2 0 -1
56 1 3240.2 2078.06 1496.44 0 0 0
57 1 1818.86 2508.68 3716.11 0 0 -1
58 1 2457.86 2656.97 3672.48 0 0 -1
59 1 2678.47 3547.6 2850.94 -1 -1 0
60 1 1915.09 3301.97 1386.15 -1 -1 1
61 1 1741.5 2893.08 2447.39 -1 0 0
62 1 2612.15 1219.16 3260.4 0 0 -1
63 1 3336.52 2128.03 3277.18 -1 0 0
64 1 2970.31 2664.85 3368.51 0 -1 -1
65 1 3370.14 3185.83 2807.34 -1 -1 -1
66 1 3428.54 3022.19 2538.73 -1 0 1
67 1 2491.89 2410.89 1519.44 0 0 0
68 1 2156.96 3035.02 3482.39 0 -1 -1
69 1 1273.3 2603.87 2898.08 0 0 0
70 1 1525.93 1295.83 3556.58 0 1 -1
71 1 1818.35 2745.2 2549.63 -1 0 -1
72 1 2808.5 1930.45 3819.45 0 0 -1
73 1 2694.96 1359.11 1161.11 0 1 1
74 1 3295.08 2786.69 2032.63 -1 0 -1
75 1 1840.44 2467.83 1483.29 0 0 1
76 1 1410.54 1496.49 3171.08 -1 0 0
77 1 2702.22 2525.95 3563.56 -1 -1 -1
78 1 1457.52 3805.13 1632.89 0 -1 0
79 1 1922.39 2294.42 2533.89 0 -1 0
80 1 3284.84 2344.66 2458.29 -1 0 0
81 1 3823.7 1646.75 1658 -1 0 0
82 1 1701.86 2139.23 3590.86 1 0 0
83 1 2471.65 1879.56 2775.97 -1 -1 -1
84 1 1820.07 3813.87 3666.19 1 0 -1
85 1 2504.71 2381.31 2406.28 0 -1 0
86 1 3616 2338.31 2977.86 -1 0 0
87 1 1532.36 1813.64 3074.76 0 -1 -1
88 1 1296.84 2869.84 1867.19 0 -1 0
89 1 2996.28 2957.7 1565.96 0 0 0
90 1 3687.08 3451.62 2253.06 -2 -1 0
91 1 1438.96 3683.07 3131.77 0 -1 -1
92 1 1795.23 2896.69 2441.85 0 -1 -1
93 1 2117.78 3592.36 2819.79 1 0 0
94 1 2188.5 1993.67 3623.9 0 0 -1
95 1 1562.46 2405.7 3014.75 -1 -1 -1
96 1 2881.06 2444.39 1765.51 -1 0 0
97 1 2216.93 2374.54 1844.74 0 -1 1
98 1 2780.72 1939.59 3173.07 -1 -1 0
99 1 2447.37 3018.7 3213.01 0 -1 -1
100 1 2843.58 1801.22 1287.24 -1 0 0
101 1 1273.1 3082.71 2307.4 0 -1 0
102 1 2170.46 1204.75 2753.43 -1 0 0
103 1 3039.81 2514.1 1912.65 -1 0 0
104 1 3715.21 2789.57 2409.29 0 -1 -1
105 1 3630.39 3314.19 2886.74 -1 0 0
106 1 3705.09 1787.13 2984.37 0 1 -1
107 1 2881.07 2045.58 2421.79 -1 -2 0
108 1 3551.67 3403.4 1380.46 -1 0 -1
109 1 2146.95 2547.46 2370.7 -1 -1 0
110 1 2874.21 2857.12 1369.3 0 -1 0
111 1 3695.31 1140.72 3703.49 -1 0 -1
112 1 2722.01 1407.64 3202.62 0 0 0
113 1 2333.19 2834.81 3158.36 0 0 -1
114 1 2814.87 2377.15 3127.41 -1 0 0
115 1 2155.55 2748.73 3274.44 0 0 -1
116 1 3023.78 2390.55 3074.69 0 0 0
117 1 2296.2 3756.1 2857.75 0 -1 -1
118 1 1951.52 2925.25 2178.37 -1 0 -1
119 1 3618.14 3174.07 2125.68 0 -1 0
120 1 2893.98 2234.19 1546.8 1 0 0
121 1 3357.85 3506.1 3296.18 -1 0 0
122 1 2928.36 3344.92 2446.84 0 0 -1
123 1 1468.5 1422.16 3731.69 -1 1 -1
124 1 2638.4 2527.71 1295.87 0 0 1
125 1 1472.96 3322.88 1754.71 0 -2 0
126 1 2068.93 3853.16 3232.87 0 0 -1
127 1 2897.15 2163.96 1940.8 -1 -1 0
128 1 1891.9 2182.48 3855.75 -1 0 0
129 1 2480.6 2404.33 2363.88 -1 0 0
130 1 3684.66 2696.68 1800.81 0 -1 0
131 1 3107.82 3435.59 1190.09 -1 -1 0
132 1 2670.09 2943.5 3244.35 0 -1 -1
133 1 2524.55 2393.12 3031.4 0 0 -1
134 1 1711.35 3512.74 2477.83 -1 -1 -1
135 1 2038.16 3755.49 3669.09 0 -1 -1
136 1 3185.23 1950 3389.1 -1 0 0
137 1 3433.72 1656.15 1720.61 -1 0 0
138 1 2877.87 2617.09 1636.69 0 -1 0
139 1 3188.68 2630.78 1864.36 -1 -1 -1
140 1 3143.23 3229.99 2887.67 -1 -1 -1
141 1 3044.09 2945.06 1877.38 -1 1 0
142 1 2411.89 2143.26 3042.22 0 1 -1
143 1 3417.12 3198.69 2158.75 -1 0 0
144 1 1260.33 3223.01 2594.48 -1 -1 0
145 1 2226.74 2114.45 1924.63 0 0 0
146 1 3619.62 2611.83 1997.58 -1 -1 0
147 1 1443.33 2472.4 2822.79 0 0 -1
148 1 2828.93 2804.42 2288.74 -1 -1 1
149 1 3250.99 3002.28 2884.27 0 0 0
150 1 2393.65 2638.94 2588.22 0 0 0
151 1 2576.53 3284.5 2883.91 0 -2 -1
152 1 3650.89 2695.25 3139.71 -1 -1 0
153 1 3096.78 2930.19 3046.27 -1 -1 -1
154 1 3518.73 2781.02 2172.18 -1 0 -1
155 1 3204.06 2306.95 2519.3 0 0 0
156 1 1826.88 2517.87 3445.76 0 0 -2
157 1 3804.84 3204.43 2253.09 0 0 -1
158 1 2844.49 2862.5 1813.27 -1 -1 0
159 1 3299.76 2726.34 2743.42 0 -1 0
160 1 3114.04 1670.26 3007.75 -1 0 0
161 1 2792.66 2842.77 1587.35 0 0 -1
162 1 2954.59 1856.52 2552.77 0 -1 0
163 1 2333.86 2624.87 3055 0 0 -1
164 1 3480.22 2408.2 1661.92 0 -1 -1
165 1 2193.97 1989.54 3677.57 0 0 -1
166 1 1202.22 2823.52 1689.95 0 0 -1
167 1 2775.69 2811.25 2282.3 0 -1 0
168 1 1586.92 1998.89 3236.19 0 0 0
169 1 2028.02 3560.21 1505.34 0 -1 -1
170 1 3195.28 3156.43 2285.14 0 -1 0
171 1 2977.24 1936.68 3306.74 -1 -1 -1
172 1 2672.27 3168.36 1942.4 0 -1 -1
173 1 2959.74 2328.78 2535.83 -1 0 -1
174 1 3053.77 1509.67 3725.94 -2 0 -1
175 1 3426.39 3263.34 1224.42 -1 -1 -1
176 1 1934.25 1892.73 3215.54 0 0 0
177 1 2980.19 3636.3 1364.62 -1 0 0
178 1 3622.68 2043.19 2955.05 -1 0 0
179 1 1620 2000.92 3278.76 -1 0 0
180 1 3535.48 3102.38 3207.74 0 0 -1
181 1 1380.07 2734.78 3346.65 0 -1 1
182 1 3046.84 3696.64 2022.11 0 -1 0
183 1 1236.72 3265.31 1773.85 0 -1 0
184 1 3156.83 2095.17 2785.3 0 -1 1
185 1 1365.21 2188.63 2705.05 0 0 -1
186 1 3346.05 2251.55 1564.14 -1 0 -1
187 1 3817.25 2744.73 2987.25 0 0 -1
188 1 2623.88 1182.72 3777.54 0 1 -1
189 1 3765.75 1885.88 3647.79 -1 0 -1
190 1 2638.95 2754.06 2478.34 -1 0 0
191 1 3065.99 1346.29 3474.55 0 0 0
192 1 3562.9 3621.75 1450.92 -1 -1 0
193 1 3677.51 2950.55 3138.01 -2 -1 0
194 1 3111.84 1957.12 1681.82 0 -1 -1
195 1 1979.19 2658.12 2915.65 -1 0 0
196 1 2340.51 2524.57 3805.82 0 0 -1
197 1 2020.43 2192.13 1298.79 -1 1 1
198 1 2985.74 3539.21 3648.08 -1 -1 0
199 1 2249.16 3490.17 1218.23 0 0 1
200 1 1866.86 1651.13 3234.27 0 0 -1
201 1 3540.45 2025.94 3228.23 -1 0 0
202 1 2630.79 2309.3 3665.37 -1 -1 -1
203 1 3392.97 3376.61 3697.5 -1 -1 0
204 1 2419.45 2267.72 3246.83 0 -1 -2
205 1 3244.07 2693.06 3341.41 -1 -1 0
206 1 3595.32 1299.98 3566.93 -1 0 0
207 1 2376.45 2881.41 3638.04 -1 -1 -1
208 1 2391.4 2066.31 2829.6 0 0 -1
209 1 2830.85 2773.62 3229.28 -1 -1 0
210 1 3364.38 2565.92 1464.85 0 -1 0
211 1 3014.67 3157.23 1474.94 -1 -1 0
212 1 2295.67 1156.03 2293.96 0 0 -1
213 1 3318.5 2792.61 2502.5 0 1 -1
214 1 2360.59 3094.46 2453.91 0 -1 0
215 1 1141.48 3198.42 1585.31 0 0 -1
216 1 2755.72 2254.56 3521.47 -1 0 -1
217 1 3155.06 1985.91 1892.64 -1 0 1
218 1 1985.64 2672.2 1702.8 0 0 0
219 1 3383.77 3179.57 2401.25 0 -1 0
220 1 2011.56 2401.28 3505.38 -1 0 -1
221 1 3248.43 1379.18 3338.91 -1 0 -1
222 1 3053.17 2022.94 1146.7 0 -1 1
223 1 2444.17 2432.51 3605.2 0 -1 -2
224 1 1320.89 3617.52 2492.89 0 -1 0
225 1 2969.04 3759.33 2416.94 0 -1 0
226 1 2929.77 2578.48 3125.96 0 -1 0
227 1 3642.16 2347.1 2758.85 -1 -1 -1
228 1 1209.62 3487.25 1228.02 0 0 1
229 1 3092.78 1863.97 2087.4 -1 -1 0
230 1 1292.57 2389.23 2658.51 0 0 -1
231 1 1840.99 2883.31 2416.19 -1 -1 0
232 1 1900.87 3726.63 3849.63 0 -1 -1
233 1 3644.49 2901.16 2905.15 -1 0 1
234 1 1725.41 1500.85 2615.32 0 -1 -1
235 1 2827.93 2310.08 1342.92 -1 -1 0
236 1 2496.73 2612.64 1949.16 -1 0 0
237 1 3344.28 2545.49 3197.34 0 -1 0
238 1 3250.3 3002.09 2435.58 0 -1 0
239 1 2843.72 2630.39 1856.65 -1 -1 0
240 1 2000.47 2570.97 2570.43 1 0 -1
241 1 2810.62 3708.36 1556.77 0 -1 0
242 1 2711.26 1826.4 1470.33 0 -2 0
243 1 1593.4 3806.42 1420.43 0 -1 0
244 1 3161.72 2658.34 2941.04 0 -1 -1
245 1 3509.58 1251.74 2527.47 -1 0 0
246 1 3114.96 1591.82 2788.31 0 -1 0
247 1 2393.35 3773.44 2666.2 0 -1 0
248 1 3497.68 2974.65 1778.92 -1 -1 0
249 1 3502.56 2714.85 3332.81 0 0 0
250 1 3785.56 1430.43 3563.42 -1 0 -1
251 1 3343.49 2806.55 1728.33 0 -1 0
252 1 3159.99 1360.16 2778.54 -1 0 0
253 1 1415.49 2737.42 1766.9 1 0 0
254 1 3697.38 2135.12 2653.24 -1 0 -1
255 1 3022.8 1674.47 3597.46 -1 0 -1
256 1 2427.45 2393.14 3028.32 -1 0 0
257 1 3082.64 3349.67 1660.52 -1 -1 0
258 1 2613.95 1805.76 3105.07 0 0 -1
259 1 2700.88 1867.98 3648.9 -1 0 -1
260 1 2711.46 2562.84 3243.39 0 0 0
261 1 1248.91 1805.94 2194.95 0 0 0
262 1 3453.16 2541.83 1851.74 -1 0 -1
263 1 2634.38 3028.77 3006.8 -1 0 -1
264 1 2088.19 2333.34 1490.75 0 0 -1
265 1 3694.43 1698.23 3247.52 -1 0 -1
266 1 3307.78 1403.28 3569.3 -1 0 -1
267 1 1235.86 2191.13 3188.22 0 0 -1
268 1 2011.58 2524.08 2594.59 0 -1 0
269 1 3010.28 1250.09 3095.8 -1 0 0
270 1 2237.51 1994.66 3646.25 0 0 -1
271 1 1764.09 3035.96 2313.4 0 -1 -1
272 1 2615.99 2353.56 3267.5 -1 0 -1
273 1 1934.9 2307.56 3216.9 0 0 -1
274 1 2237.87 2592.87 3285.76 1 -1 0
275 1 3100.25 2411.24 1501.41 -1 0 1
276 1 2971.87 2757.12 1187.36 -1 -1 0
277 1 2676.45 2698.97 1727.43 0 0 1
278 1 1182.37 1301.93 2947.29 0 0 -1
279 1 2255.39 2860.5 2414.47 0 -1 0
280 1 2420.76 2446.32 3385.16 -1 0 -1
281 1 1620.9 3096.26 2773.83 0 -1 0
282 1 1711.49 2213.5 3163.67 0 -1 0
283 1 2216.29 3643.79 3756.59 0 -1 -1
284 1 1935.96 2157.29 3577 0 0 -1
285 1 3848.29 2874.01 3175.37 -1 0 -1
286 1 3137.07 1824.84 3153.8 -1 1 0
287 1 2966.49 1709.19 1421.61 0 0 0
288 1 2235.44 2245.36 2864.12 1 0 0
289 1 1905.66 2828.03 2800.49 0 -1 0
290 1 3298.97 2473.34 2252.44 -1 -1 0
291 1 2094.54 2806.24 2431.08 -1 -1 0
292 1 3628.57 2087.29 2924.57 -1 0 -1
293 1 2709.15 2591.77 2587.71 0 0 1
294 1 2582.05 2736.78 2746.12 0 -1 -1
295 1 1606.42 3677.42 2572.39 0 -1 0
296 1 3593.33 2473.67 3166.96 0 0 0
297 1 3102.11 2230.4 2627.22 -1 0 0
298 1 2314.26 2417.86 2680.47 0 0 0
299 1 1359.75 1952.75 2576.69 1 0 0
300 1 1777.6 2436.6 3664.52 0 0 0
301 1 2274.02 2462.15 2621.54 -1 0 -1
302 1 3660.73 1636.59 1247.53 -1 0 0
303 1 3280.15 3718.61 1523.75 0 -1 0
304 1 2169.35 2994.64 3516.2 1 -1 -1
305 1 2349.71 1452.86 3554.74 0 0 -1
306 1 1310.99 3674.79 1215.84 0 -1 0
307 1 3455.49 2384.13 1703.53 -1 0 -1
308 1 1297.29 1380.54 1181.51 0 0 0
309 1 2748.27 3234 2215.7 0 0 -1
310 1 1439.18 1663.99 2900.12 0 0 -1
311 1 1943.41 3016.37 1230.22 0 -1 -1
312 1 3069.21 2232.56 2670.04 0 -1 1
313 1 1899.82 1776.42 3403.61 0 -1 -1
314 1 1449.11 2236.88 3095.04 1 0 0
315 1 1577.43 1459.45 2779.85 0 0 0
316 1 3131.75 3167.79 1275.84 -1 0 0
317 1 2006.3 3065.53 2673.8 1 0 -1
318 1 3791.62 3458.96 3000.53 0 -1 -1
319 1 3202.18 1967.69 1271.15 -1 0 0
320 1 2396.45 2785.74 2833.04 0 -1 0
321 1 2727.61 2101.16 3670.17 -1 0 0
322 1 2183.2 2457.71 1374.56 0 -1 0
323 1 1707.72 1816.98 3227.36 0 0 -1
324 1 3767.06 2237.54 1238.99 0 0 0
325 1 1846.02 3595.87 3135.98 0 0 0
326 1 2835.36 2970.81 3115.88 0 0 -1
327 1 2656.21 3375.38 2684.62 0 -1 0
328 1 1895.17 2053.56 2586.03 0 0 0
329 1 1872.35 2956.38 1741.38 0 0 0
330 1 2793.23 2533.93 2968.76 0 0 0
331 1 2456.07 2626.73 1732.54 -1 0 0
332 1 2123.65 3051.27 3442.99 0 -1 -1
333 1 3127.27 2516.44 3258.02 0 0 0
334 1 3169.36 3857.72 3607.46 -2 -1 0
335 1 2557.2 3159.87 2347.93 0 0 0
336 1 2433.83 2299.77 3810.31 0 -1 -1
337 1 1298.68 2374.79 2000.88 0 0 0
338 1 2825.36 2860.79 3735.98 0 -1 -1
339 1 3104.15 2810.03 3476.54 0 -1 0
340 1 2368.04 2413.72 2676 0 -1 0
341 1 2839.04 3658.97 3501.26 0 -1 -2
342 1 2993.06 3086.77 3241.95 0 -1 0
343 1 2929.35 1769.91 3131.65 1 -1 0
344 1 3241.42 3329.75 3309.8 0 -1 -1
345 1 2576.3 2130.24 1144.04 0 0 0
346 1 2815.17 2362.66 1342.27 0 -1 0
347 1 2475.59 2414.02 3042.35 -1 0 -1
348 1 1972.24 2497.43 2620.34 -1 -1 -1
349 1 3008.49 2726.04 2675.96 -1 0 0
350 1 2077.74 2140.15 1736.48 0 1 0
351 1 1722.55 1183.81 3489.06 0 0 -1
352 1 2262.76 2122.01 3386.98 0 1 0
353 1 3351.6 2696.02 2282.42 0 -1 0
354 1 1970.31 2689.53 2221.14 0 0 0
355 1 2273.6 2946.91 3343.83 0 -1 -1
356 1 2073.34 3473.64 1307.86 0 -1 0
357 1 1904.59 3157.49 3052.82 0 -1 -1
358 1 3337.81 3840.55 2031.88 -1 -1 0
359 1 2718.25 2167.61 3171.6 0 0 0
360 1 2005.4 1210.54 3783.84 0 1 -1
361 1 3707.62 2646.36 2227.45 -1 0 0
362 1 3030.88 2698.02 2995.32 0 -1 0
363 1 2525.06 2297.21 3460.91 0 0 -1
364 1 3036.61 2849.23 3265.99 -1 0 0
365 1 1917.96 3558.26 2930.03 0 -1 0
366 1 1674.59 2658.42 1370.29 0 0 0
367 1 2088.83 2627.23 3104.83 0 -1 -1
368 1 2731.95 1512.02 2645.98 -1 0 0
369 1 3432.22 2886.16 2801.82 0 0 -1
370 1 3546.44 2980.62 1983.59 -2 0 0
371 1 3668.74 2018.12 1638.46 -1 0 0
372 1 3260.28 3280.3 3782.02 -1 -1 -1
373 1 3084.79 2698.26 2998.29 0 1 0
374 1 2544.72 1540.54 2596.63 0 0 0
375 1 3412.2 1246.15 2232.27 0 0 -1
376 1 2842.42 2750.23 2506.88 0 1 0
377 1 3529.12 2484.04 2237.68 0 0 0
378 1 2208.94 1610.94 3176.48 0 1 -1
379 1 3183.26 2587.07 2064.5 -1 -1 0
380 1 2694.48 1940.8 1680.56 -1 0 0
381 1 2106.57 2574.96 3427.91 0 0 -1
382 1 3581.73 3115.62 2968.01 -1 -1 0
383 1 2879.02 2197.91 2248.3 -1 0 0
384 1 3057.45 2976.8 2300.12 0 -1 0
385 1 3332.07 2890.87 2221.68 0 0 0
386 1 3063.31 3293.69 2663.46 -1 0 0
387 1 3346.79 2274.47 2943.81 -1 0 -1
388 1 1141.99 2909.39 3136.82 0 0 -1
389 1 2404.16 2526.12 1343.42 0 0 0
390 1 1218.02 2755.59 1156.52 0 -1 0
391 1 2356.67 1595.72 1360.11 0 0 0
392 1 1536.96 2592.48 3313.83 -1 -1 -1
393 1 2650.74 2375.51 2827.54 0 0 1
394 1 1587.23 1924.37 3549.52 1 0 -1
395 1 2431.17 2422.86 1768.64 0 -1 -1
396 1 1256.75 3006.88 2638.52 1 0 0
397 1 2964.97 3019.8 1228.56 -1 0 0
398 1 2030.44 2390.74 3057.43 0 -1 0
399 1 1856.2 1354.27 3043.72 0 0 0
400 1 1994.4 2244.89 2873.7 -1 0 -1
401 1 2512.42 2433.7 2396.04 0 0 -1
402 1 2038.64 2597.27 3827.95 0 0 -2
403 1 1312.56 1823.35 3404.98 0 0 -1
404 1 2663.76 2778.97 1954.77 0 0 0
405 1 2785.4 3404.22 3004.71 -1 0 0
406 1 1864.39 3114.31 2154.23 0 -1 0
407 1 1503.38 3196.04 3177.09 -1 -1 0
408 1 3764.28 2348.51 3168.48 0 0 -1
409 1 3513.52 2777.03 2606.98 0 -1 -1
410 1 2648.89 2090.19 2394.8 0 0 -1
411 1 1890.34 1772.08 1688 0 0 0
412 1 2340.13 3360.29 3042.51 0 0 0
413 1 1294.35 2773.72 3103.81 0 0 -1
414 1 1722.5 3058.03 3020.76 0 -1 -1
415 1 1769.31 2311.39 2959.16 0 0 -1
416 1 2725.36 2778.46 1238.69 0 0 0
417 1 1401.08 1852.4 2368.84 -1 0 -1
418 1 3744.76 3315.23 1743.27 -1 0 1
419 1 2030.24 2609.26 2546.91 0 0 0
420 1 3539.47 3057.96 2258.44 -2 -1 -1
421 1 3092.53 2561.19 1368.45 -1 0 0
422 1 1325.42 3317.68 1565.62 0 -1 0
423 1 3405.48 2868.24 1275.97 0 -1 0
424 1 1705.12 3056.73 3597.63 0 -1 -1
425 1 2300.32 3073.45 3707.2 0 0 -1
426 1 3059.88 2669.2 2960.23 -1 0 -1
427 1 3511.61 2182.03 2101.53 -1 -1 0
428 1 2268.75 3225.01 2628.27 0 -1 -1
429 1 3157.86 2947.33 2076.01 -1 0 0
430 1 1782.15 1508.25 2095.47 0 -1 0
431 1 2689.52 2326.27 1190.64 0 0 0
432 1 1640.76 3061.11 2128.54 0 -1 0
433 1 2056.65 2795.49 2468.1 -1 -1 -1
434 1 3480.94 2840.06 2385.43 -1 0 0
435 1 3071.8 1771.11 3375.33 -1 0 0
436 1 3171.77 2846.2 1213.62 -1 0 0
437 1 2893.02 2050.84 1694.26 0 1 0
438 1 3801.9 2505.79 2765.02 -1 -1 -1
439 1 3047.24 2329.79 1474.28 0 0 0
440 1 3364.95 1661.4 3452.42 -1 0 -1
441 1 2909.99 1499.18 3522.56 -1 0 -1
442 1 1468.63 2615.99 2973.4 0 0 0
443 1 3410.18 2538.62 3412.37 0 -1 0
444 1 3025.94 2757.75 1728.23 -2 0 0
445 1 2365.7 3242.67 2609.91 0 -1 0
446 1 3243.37 1601.73 3675.53 -1 0 -1
447 1 2734.02 2845.37 2684.34 0 0 0
448 1 1729.79 2847.4 2141.81 -1 -1 0
449 1 2138.6 2442.98 1401.2 -1 0 0
450 1 1641.88 2385.65 3483.62 0 0 -1
451 1 1695.07 2893.36 2877.65 0 -1 -1
452 1 1926.85 2007.35 3425.19 0 0 0
453 1 3480.17 3457.97 2325.34 -1 0 0
454 1 1638.02 2033.67 2078.19 0 0 -1
455 1 2828.17 2643.05 3562.24 -1 0 -1
456 1 3231.19 1341.24 1205.23 0 1 0
457 1 2493.55 2928.21 2381.03 0 -1 -1
458 1 1579.24 1965.73 3277.99 0 1 -1
459 1 1784.27 2414.88 2005.75 0 -1 -1
460 1 3537.84 2473.47 2602.02 -1 -1 0
461 1 3048.31 2875.74 2503.54 0 -1 0
462 1 3274.99 2939.84 2647.55 -1 0 -1
463 1 3700.86 1750.1 3263.76 -1 0 -1
464 1 2798.84 2703.46 2763.8 0 0 0
465 1 1203.23 2874.62 2417.91 1 0 -2
466 1 2954.98 3289.64 2839.86 -1 -1 0
467 1 2816.88 2648.94 1395.8 0 1 0
468 1 3571.06 3017.12 1291.92 0 -1 1
469 1 3144.06 2541.04 2746.35 0 -1 -1
470 1 3134.44 3340.45 1427.22 -1 -1 -1
471 1 3143.29 2763.66 2213.55 0 0 0
472 1 2913.2 3238.09 1283.94 0 -1 0
473 1 1177.42 2327.77 3371.86 1 -1 0
474 1 3253.09 2256.12 3082.32 -2 -1 -1
475 1 3070.09 2532.3 1694.88 0 -1 0
476 1 3135.95 3798.46 1794.66 -1 -1 0
477 1 3554.67 2236.04 1638.7 0 -1 -1
478 1 2691.87 2482 1635.93 -1 -1 0
479 1 2690.94 1268.2 2161.84 0 0 -1
480 1 3646.84 2079.79 2433.98 -1 0 0
481 1 3217.06 1346.07 1153.35 0 1 1
482 1 2759.51 1615.37 3116.78 0 -1 -1
483 1 3289.94 2043.14 3043.13 -1 1 0
484 1 2955.33 3200.17 2245.74 -1 -1 0
485 1 2254.58 3475.69 2674.97 -1 -1 -1
486 1 3780.55 3211.94 1352.61 -1 -1 0
487 1 2871.85 2340.09 2908.6 -1 0 -1
488 1 1896.42 1326.94 2504.05 0 0 0
489 1 3492.11 2773.13 1877.87 -1 0 0
490 1 3280.8 2350.46 3328.3 -1 0 -1
491 1 2744.34 2895.57 2870.51 0 0 -1
492 1 3030.33 2562.39 3825.93 0 -1 0
493 1 2879.36 2430.17 2334.88 -1 0 0
494 1 2215.68 2333.26 3471.92 1 -1 0
495 1 3324.86 3007.9 1930.24 0 -1 0
496 1 3113.67 2673.14 2960.5 1 0 0
497 1 2707.42 3764.14 2732.23 -1 -1 0
498 1 2834.75 3259.58 2640.45 0 -1 0
499 1 2194.8 2510.36 1377.54 -1 0 -1
500 1 2846.97 3403.25 2202.59 0 -1 -1
501 1 2460.69 2877.29 2603.1 -1 0 -1
502 1 1341.61 3275.92 3221.94 -1 0 0
503 1 2479.5 2453.8 3079.01 0 0 0
504 1 2068.59 2641.83 2527.31 0 0 0
505 1 1784.77 2467.34 3708.66 -1 0 -1
506 1 1219.66 1892.09 2000.04 -1 0 0
507 1 3656.04 1721.7 3277.22 -1 0 -1
508 1 1520.94 1362.58 1563.77 0 0 -1
509 1 1537.02 1427.46 2527.94 0 0 0
510 1 2806.82 2248.59 2697.02 -1 -1 -1
511 1 3773.83 3368.49 2443.79 0 0 -1
512 1 1412.6 3403.15 3579.44 0 -1 -1
513 1 3331.08 2509.02 1684.36 0 -1 0
514 1 2967.4 2042.05 2119.13 -2 0 1
515 1 2477.38 1951.82 2403.54 -1 0 -1
516 1 2540.11 3747.68 2824.63 -1 -1 0
517 1 3278.38 3248.13 3585.52 0 -1 -1
518 1 1874.5 3083.12 2855.28 0 0 -1
519 1 2752.62 2651.23 2331.32 0 0 0
520 1 3341.15 3024.77 1270.07 -1 0 0
521 1 2514.68 2322.19 1301.02 -1 0 1
522 1 2471.68 2659.78 1956.59 -1 0 0
523 1 3309.31 3204.78 1420.14 0 0 0
524 1 2715.54 2366.16 2496.86 -1 -1 0
525 1 3369.32 1905.61 3240.11 0 0 -1
526 1 1799.49 2266.64 2733.2 0 0 0
527 1 1140.79 2002.43 3104.66 0 -1 -1
528 1 3516.62 2382.72 2039.24 0 1 0
529 1 2497.48 2670.33 1186.19 -1 -1 0
530 1 1623.6 2848.81 2657.38 0 0 0
531 1 1918.04 3776.67 1516.22 0 -1 0
532 1 3500.49 2658.81 1670.18 -1 0 0
533 1 3372.96 1262.97 2199.3 -1 0 -1
534 1 2247.4 1144.71 3066.49 0 0 -1
535 1 2778.59 3704.99 2478.07 -1 -2 0
536 1 2121.37 2587.49 1862.51 -1 0 0
537 1 2842 3267.77 2016.09 -1 -1 0
538 1 1674.02 1742.28 3426.65 0 0 -1
539 1 3389.88 2390 2775.46 -2 0 -1
540 1 2936.16 3512.21 2397.96 0 0 0
541 1 2482.17 3195.75 3077.15 0 0 -1
542 1 2280.03 2878.56 2370.01 0 -1 0
543 1 2167.45 2803.59 2709.84 0 0 -1
544 1 3278.16 1594.38 3251.23 -1 1 -1
545 1 2073.21 3019.77 2869.41 -1 0 -1
546 1 3580.09 1471 1393.34 -1 0 0
547 1 2475.68 2219.73 2318.89 0 -1 0
548 1 1521.26 1666.03 3261.32 0 0 0
549 1 2799.11 2508.28 3571 0 0 0
550 1 1853.72 2070.14 1318.66 0 0 0
551 1 2261.74 2810.1 1416.76 0 -1 0
552 1 2764.42 3729.64 3730.34 0 -1 -1
553 1 3111.45 2736.88 3735.4 -1 0 -1
554 1 2192.63 2397.02 2692.19 0 0 0
555 1 1807.39 2234.6 3426.02 0 0 0
556 1 2575.7 3201.87 2552.97 0 0 -1
557 1 2796.23 2710.49 2123.7 -1 0 0
558 1 2566.28 3658.3 2590.32 -1 0 -1
559 1 2561.57 3410.36 3080.1 -1 0 0
560 1 1574.33 2957.86 1145.26 0 0 0
561 1 3599.57 2299.67 2460.51 -1 -1 -1
562 1 1737.96 3620.39 3753.64 0 0 -1
563 1 3758.17 2510.26 3041.87 -1 0 0
564 1 2622.4 2841.62 3630.06 0 1 -1
565 1 3668.28 2728.48 3624.75 0 0 -1
566 1 3670.69 2054.79 2933.4 -1 0 1
567 1 2566.06 1374.69 3022.65 0 0 0
568 1 3285.98 3162.22 2568.23 -1 -1 -1
569 1 2813.78 2053.22 3351.17 0 0 0
570 1 1404.24 3155.15 2735.39 0 -1 0
571 1 3156.75 2995.74 1395.69 -1 -1 0
572 1 2577.39 2896.39 2822.33 -1 -1 0
573 1 2054.08 2202.85 3398.45 1 0 -1
574 1 3201.98 3471.94 3723.76 -1 0 0
575 1 1555.17 2358.04 3232.76 0 0 0
576 1 3651.17 2085.11 2973.5 0 -1 -1
577 1 3538.84 2642.5 2416.82 -1 -1 -1
578 1 1197.55 2689.45 2290.66 1 0 1
579 1 3135.35 3686.13 2575.76 0 0 -1
580 1 2294.1 2831 2391.21 0 1 1
581 1 1492.4 2126.3 2425.65 -1 0 0
582 1 3322.25 3412.75 2171.5 0 -1 0
583 1 2533.95 2396.42 2363.55 0 0 0
584 1 3594.31 3257.96 2291.19 0 0 1
585 1 3313.54 3463.71 3508.9 -1 -1 -1
586 1 3219.22 1953.36 3771.06 -1 -1 -2
587 1 1172.31 2001.51 2706.53 1 0 -1
588 1 1670.95 2335.56 1638.53 0 0 0
589 1 3037.68 3329.13 3767.05 1 -1 0
590 1 3643.32 2853.99 1647.87 -1 -1 1
591 1 1980.88 1541 3404.73 -1 -1 -1
592 1 1587.21 2209.35 2905.78 0 0 0
593 1 1347.57 2009.8 3222.49 0 0 0
594 1 1889.2 3379.51 3157.74 -1 1 0
595 1 3139.03 1181.97 3232.7 -1 0 -1
596 1 3057.36 2380.84 1488.86 1 0 0
597 1 2790.57 2605.84 3571.02 0 0 0
598 1 3184.06 3554.95 1395.55 0 -1 0
599 1 2158.86 3727.95 2650.13 -1 -1 0
600 1 3176.68 1879.71 2941.29 -1 0 -1
601 2 3826.09 2257.91 1495.76 -1 0 0
602 2 1518.03 1652.59 2122.01 1 0 0
603 2 3292.81 3558.84 1908.21 -1 0 1
604 2 3412.21 3341.85 3049.71 0 -1 0
605 2 1258.48 1208.94 3635.28 0 0 0
606 2 1196.73 2608.3 1990.33 1 0 0
607 2 1886 2671.69 1903.66 0 0 0
608 2 2917.12 3500.79 2627.38 0 -1 0
609 2 3172.52 1982.93 2303.43 0 0 0
610 2 2715.81 3208.92 3238.51 0 0 0
611 2 1348.6 3181.02 1295.48 0 0 1
612 2 2462.01 3761.78 2060.68 0 -1 0
613 2 1705.74 2599.63 2781.43 0 0 -1
614 2 2660.02 1763.39 2546.83 0 0 0
615 2 1230.06 2815.16 3556.27 0 0 0
616 2 3725.74 3693.16 1219.19 0 0 0
617 2 1348.67 3123.48 2003 0 -1 0
618 2 2445.71 3678.71 3179.93 0 0 0
619 2 2903.16 1787.76 2807.57 0 1 0
620 2 3775.16 3669.01 2429.55 -1 0 0
621 2 1148.43 3704.73 3017.49 0 0 -1
622 2 2140.58 3756.54 1288.21 0 0 0
623 2 2145.84 2585.82 3482.96 0 0 -1
624 2 1161.7 2259.87 2886.91 0 0 -1
625 2 2778.96 1588.34 3734.79 0 0 0
626 2 1375.19 3440.93 2966.57 1 0 -1
627 2 1698.93 1195.65 2685.11 0 1 0
628 2 3540.21 2610.94 2843.06 -1 0 0
629 2 2107.8 1682.01 2132.7 0 0 0
630 2 2548.51 1332.06 1862.01 0 1 0
631 2 3524.63 1441.07 3298.43 0 1 0
632 2 1940.19 3349.03 1667.35 0 -1 0
633 2 1336.45 3359.78 2304.44 0 -1 0
634 2 3369.7 2824.59 3068.61 -1 0 0
635 2 1295.45 1313.72 2085.53 0 0 0
636 2 2981.7 1482.29 3204.89 -1 0 0
637 2 1371.91 1971.86 2886.3 1 0 -1
638 2 1260.26 1605.79 1886.74 0 0 0
639 2 3477.34 3097.31 3678.89 0 0 0
640 2 2741.95 3829.3 2983.44 0 0 0
641 2 2234.41 1669.34 2713.48 0 0 0
642 2 2563.64 3313.7 1658.99 0 -1 0
643 2 1303.69 1177.3 2395.75 0 0 0
644 2 3769.96 2582.19 1504.32 -1 0 1
645 2 2594.83 3439.95 2035.21 0 -1 0
646 2 2035.63 3332.88 2013.64 0 -1 0
647 2 1916.25 1847.58 3669.66 0 0 0
648 2 2568.86 2738.81 3021.19 0 0 0
649 2 3437.61 1809.14 1175.44 -1 0 0
650 2 3474.07 2175.8 2158.47 0 0 0
651 2 3648.46 1783.69 1826.02 -1 0 0
652 2 1296.08 1283.04 1732.84 0 0 0
653 2 3145.9 2496.98 3528.53 0 0 -1
654 2 2500.08 3629.26 3801.06 0 -1 -1
655 2 2570.8 1607.13 2842.19 0 0 0
656 2 2880.68 1429.82 2870.33 0 0 0
657 2 3399.94 1687.85 2965.14 -1 0 -1
658 2 2659.78 2031.41 2877.63 -1 0 -1
659 2 1183.03 1703.08 2761.12 1 0 0
660 2 2342.09 2160.69 1594.7 0 0 0
661 2 2692.67 1229.72 1562.05 0 0 0
662 2 1551.17 1458.61 1261.71 0 0 0
663 2 1509.15 3111.74 2455.27 0 -1 0
664 2 2647.43 3415.73 3542.05 0 0 -1
665 2 2420.17 2300.18 2002.96 0 0 0
666 2 2614.64 3654.6 1766.71 0 -1 0
667 2 3029.63 1170.24 1508.24 0 0 0
668 2 1532.14 2223.85 1878.73 0 0 0
669 2 3556.34 2250.39 3370.93 -1 0 0
670 2 1910.25 1364.64 3084.48 0 0 -1
671 2 2969.57 1403.41 1248.4 0 0 1
672 2 1533.88 2583.76 1980.12 0 0 0
673 2 2157.14 2203.55 2348.33 0 0 0
674 2 3727.45 1175.71 1909.46 -1 0 0
675 2 3251.11 3026.02 3370.57 -1 0 0
676 2 2636.23 1534.2 1360 0 0 0
677 2 1712.5 3257.37 1890.57 0 -1 0
678 2 3562.29 3158.15 1537.7 -1 -1 0
679 2 1686.91 3337.47 3562.73 0 0 0
680 2 3439.9 1553.92 1960.55 -1 0 0
681 2 2133.85 3529.23 3119.5 0 0 0
682 2 3107.09 2265.95 2085.73 0 0 0
683 2 2329.14 3204.53 2652.56 0 -1 0
684 2 1455.58 3472.11 2003.52 0 -1 0
685 2 1514.18 3632.79 3530.28 0 0 -1
686 2 1505.45 2407.19 1369.83 0 0 0
687 2 2532.4 3097.19 3491.08 -1 -1 0
688 2 3216.21 3404.54 2435.47 -1 -1 0
689 2 1867.8 3620.9 3422.87 0 -1 0
690 2 3676.88 3381.76 3799.67 0 1 -1
691 2 2649.69 2194.76 1772.28 -1 0 0
692 2 1742.63 1152.23 3176.22 0 0 -1
693 2 3561.47 3682.58 2129.88 -1 -1 0
694 2 1385 2873.72 2819.25 0 0 0
695 2 2835.75 1837.48 1896.88 0 0 0
696 2 2309.74 1229.74 3319.13 0 1 0
697 2 1503.25 1694.81 2595.76 0 0 0
698 2 1556.45 2373.08 2528.75 1 0 0
699 2 2449.93 1196.94 1291.46 0 0 0
700 2 1183.43 2449.72 1238.24 0 0 0
701 2 3851.49 3102.43 2789.33 0 -1 -1
702 2 1379.87 2443.59 2267 0 0 0
703 2 1646.59 3544.84 1725.05 0 0 0
704 2 1996.22 3449.18 2335.35 0 -1 0
705 2 1704.63 1525.28 3017.37 0 0 -1
706 2 1500.64 2632.14 3838.92 0 0 0
707 2 1488.14 3418.33 2631.59 0 -1 0
708 2 1392.93 2675.44 2518.33 1 0 0
709 2 1382.75 1172.83 3308.46 0 0 0
710 2 2869.22 1262.1 3677.91 0 0 -1
711 2 1629.33 3280.69 1492.78 0 -1 0
712 2 1907.39 2795.3 3433.2 0 0 -1
713 2 2259.16 2421.69 2684.33 0 0 -1
714 2 3138.27 1579.62 2146.91 -1 0 0
715 2 2611.27 2089.75 1420.53 0 0 0
716 2 2162.47 3197.64 1206 0 0 0
717 2 3413.8 1166.04 3734.12 -1 0 -1
718 2 2769.48 2385.65 2022.49 -1 0 0
719 2 1579.77 1429.16 1854.97 0 0 0
720 2 1171.76 1608.99 3747.5 0 0 -1
721 2 3717.73 2397.02 1792.13 0 0 0
722 2 3827.55 3369.3 1980.42 -1 -1 0
723 2 2807.93 3486.98 3859.19 0 0 -1
724 2 3411.34 3663.77 2516.86 0 -1 0
725 2 1965.19 3812.38 2911.02 0 -1 -1
726 2 2070.63 1972.41 1475.68 0 0 0
727 2 3588.18 2392.93 1279.59 -1 0 0
728 2 2109.35 1888.24 2418.29 0 0 0
729 2 3212.9 1247.74 2481.6 -1 0 0
730 2 3236.62 3093.39 1650.51 -1 -1 0
731 2 2153.36 2857.62 3823.5 0 0 0
732 2 3704.63 1312.08 3849.18 -1 0 -1
733 2 2043.21 1280.72 1582.28 0 1 0
734 2 1369.16 2069.05 2130.46 0 0 0
735 2 2287.92 1364.17 2499.69 0 0 0
736 2 2004.52 3703.31 1770.09 0 -1 0
737 2 1907.54 2994.81 1785.44 -1 0 0
738 2 3651.17 2974.81 3406.05 0 0 0
739 2 2051.1 3337.2 3396.61 0 0 0
740 2 3153.87 1361.76 1888.58 0 0 0
741 2 2754.67 1727.65 3350.97 -1 1 0
742 2 2526.7 1833.68 1154.81 0 0 0
743 2 3818.85 1810.12 2435.4 -1 0 0
744 2 2654.41 2057.41 2069.27 0 0 0
745 2 1978.27 3435.21 3711.67 0 0 -1
746 2 1955.41 2702.82 1358.26 0 0 0
747 2 2969.9 3262.13 3452.51 0 0 -1
748 2 2389 1409.62 1573.52 0 0 0
749 2 2021.67 1743.98 2935.94 0 0 0
750 2 1278.11 1522.7 2376 0 0 0
751 2 3812.95 2798.84 2664.46 0 0 -1
752 2 3394.48 1174.85 2789.16 0 1 0
753 2 1247.19 2135.84 1808.12 0 0 0
754 2 2934.23 2282.54 3696.82 -1 0 0
755 2 2204.37 1822.78 3316.43 0 0 0
756 2 2660.71 3429.68 2373.7 0 -1 0
757 2 2309.87 1975.57 2178.34 0 0 0
758 2 3566.06 3609.43 2874.24 -1 -1 0
759 2 2866.41 1174.37 1860.12 0 0 0
760 2 2465.79 2738.73 3359.82 0 0 -1
761 2 1750.98 3553.7 1326.39 0 -1 0
762 2 1809.03 1785.09 1984.65 0 0 0
763 2 1385.12 1782.79 1262.25 0 0 0
764 2 2297.1 3152.96 1836.2 0 -1 0
765 2 1660.87 2250.94 2218.45 0 0 0
766 2 3608.95 1725.59 1448.6 -1 0 0
767 2 2324.51 1580.9 1869.88 0 1 0
768 2 1611.17 1321.2 2221.34 0 0 0
769 2 1517.56 3800.09 1934.07 0 -1 0
770 2 1201.2 2181.25 2430.97 1 -1 0
771 2 1297.69 3000.26 3311.34 1 0 -1
772 2 1678.1 1903.9 2316.88 0 0 0
773 2 3257.01 1386.33 1191.29 -1 0 1
774 2 1487.28 3456.03 3816.02 0 -1 -1
775 2 3737.25 3815.15 1577.43 -1 -1 0
776 2 3112.7 3025.66 3647.95 -1 0 -1
777 2 3641.27 2708.71 1193.42 -1 0 0
778 2 1822.08 1996.48 2935.63 0 0 -1
779 2 3084.85 1734.62 1148.15 -1 0 0
780 2 3301.77 2586.56 1161.73 -1 0 0
781 2 3461.26 1179.26 1361.75 -1 0 0
782 2 2508.15 1943.34 3276.76 0 0 0
783 2 1602.49 3464.84 3238.96 0 -1 -1
784 2 1296.46 1385.26 2675.62 0 0 -1
785 2 3369.12 3421.81 1593.76 -1 -1 0
786 2 1442.5 1625.21 1586.14 1 0 0
787 2 2574.03 2979.24 1715.47 0 0 0
788 2 2332.08 1841.15 3004.92 0 0 0
789 2 1323.02 1932.39 3678.8 0 0 -1
790 2 3731.5 1620.07 2185.6 -1 0 0
791 2 3579.37 1169.5 3086.82 0 0 -1
792 2 1790.64 2486.59 3774.38 0 0 -1
793 2 1745.06 1372.57 3706.83 0 0 0
794 2 3393.44 1519.8 2683.28 -1 0 0
795 2 1699.57 3316.42 2897.94 0 0 0
796 2 1352.61 2499.47 3488.06 0 0 -1
797 2 3408.2 3833.81 3367.75 -1 -1 -1
798 2 1652.53 3675.72 2898.33 0 0 0
799 2 3500.54 1924.54 3454.88 -1 1 -1
800 2 3516.11 3263.83 3388.32 -1 0 -1
801 2 2122.49 2082.95 3085.39 0 0 0
802 2 1487.28 1251.55 2961.2 0 1 0
803 2 2563.28 3598.49 1420.33 0 -1 0
804 2 2497.98 2965.06 2061.75 0 -1 0
805 2 2062.76 1338.41 2228.28 0 0 0
806 2 3780.35 3041.1 1796.57 -1 -1 0
807 2 3567.17 3593.36 3575.26 -1 0 -1
808 2 3105.49 2219.25 1705.56 -1 0 0
809 2 3666.18 1463.66 2889.24 0 0 0
810 2 2434.67 1496.04 3799.5 0 0 -1
811 2 1356.75 1503.83 3447.45 1 0 0
812 2 2629.29 1410.92 3463.77 0 0 -1
813 2 2286.72 1420.54 2937.9 0 0 0
814 2 1615.69 2896.57 1852.25 0 0 0