ITEM: TIMESTEP
794000
ITEM: NUMBER OF ATOMS
1000
ITEM: BOX BOUNDS pp pp pp
9.4802252708186802e+02 4.0519774729175970e+03
9.4802252708186802e+02 4.0519774729175970e+03
9.4802252708186802e+02 4.0519774729175970e+03
ITEM: ATOMS id type x y z ix iy iz
1 1 2866.54 2391.76 1154.61 -1 0 1
2 1 1940.81 988.826 2669.31 0 0 0
3 1 3543.89 2607.44 2036.65 0 0 0
4 1 2163.69 1414.52 3511.75 0 -1 0
5 1 3722.43 3157.4 2776.64 -1 -1 1
6 1 1743.66 1504.45 3718.8 0 0 0
7 1 1391.19 3217.9 2990.36 0 -1 0
8 1 2067.25 1485.53 2464.81 0 0 1
9 1 3174.13 3235.14 2459.76 0 0 0
10 1 2986.59 2513.22 2693.25 0 0 0
11 1 2774.26 2009.19 2643.87 0 0 0
12 1 1082.45 3442.16 3962.32 0 0 0
13 1 3366.4 3856.62 3794.43 -1 0 -1
14 1 2120.81 2797.41 3014.6 0 0 -1
15 1 3481.68 2123.88 1903.55 0 0 0
16 1 2080.25 4040.77 2438.4 0 0 -1
17 1 2411.83 3048.89 3069.75 1 0 -1
18 1 3347.2 2300.55 2483.63 -1 1 0
19 1 3020.68 1670.19 1514.63 -1 0 0
20 1 1132.68 3238.36 3149.84 0 -1 0
21 1 1891.59 2551.36 2602.53 0 1 0
22 1 2736.53 3174.51 2837.5 2 -1 0
23 1 3019.67 2032.97 2769.71 0 0 1
24 1 3148.76 3664.24 2051.55 0 0 0
25 1 1484.3 1718.89 2916.65 -1 0 0
26 1 3142.77 3236.21 3115.69 0 0 0
27 1 3316.63 2358.27 2957.98 -1 0 1
28 1 1867.99 2434.55 2355.05 0 0 0
29 1 2596.17 2182.12 2714.26 0 0 -1
30 1 2914.58 3750.64 3034.76 0 0 0
31 1 1108.61 1363.1 3063.84 0 0 0
32 1 1334.14 3353.58 3523.54 0 0 -1
33 1 2082.58 2349.63 3366.45 0 0 0
34 1 2431.45 982.576 3037.18 0 0 0
35 1 1829.63 2067.86 2350.26 0 0 -1
36 1 1196.51 2961.49 1060.83 0 -1 0
37 1 1570.48 1596.44 1658.07 0 0 0
38 1 2105.05 3174.58 2065.36 0 0 0
39 1 3474.53 2297.29 3023.25 -2 0 -1
40 1 3348.44 2465.51 1799.72 -1 -1 2
41 1 1768.94 3076.75 1638.81 0 0 -1
42 1 3085.84 2781.64 1895.47 0 -1 0
43 1 2440.99 2631.67 1888.26 0 -2 0
44 1 3181.72 3708.1 1463.69 0 -1 0
45 1 2446.06 2248.73 2924.6 0 0 0
46 1 3074.92 3891.73 3239.15 -1 -1 0
47 1 3696.41 3506.37 2087.82 -1 -1 -1
48 1 3473.99 1906.81 2918.86 0 0 -1
49 1 3059.24 2578.37 2155.54 -1 0 1
50 1 3261.73 1409.42 3601.17 -1 0 0
51 1 3551.45 1085.6 2140.11 -1 -1 1
52 1 4023.28 2554.56 3845.13 -1 0 -1
53 1 3326.22 1725.24 3710.55 -2 0 -1
54 1 3588.4 2166.08 3184.71 0 0 -1
55 1 3192.63 3237.04 3136.01 -2 0 -1
56 1 3344.73 2018.48 1354.72 0 0 0
57 1 1718.75 2505.52 3889.31 0 0 -1
58 1 2451.91 2679.13 3838.06 0 0 -1
59 1 2703.67 3695.54 2900.5 -1 -1 0
60 1 1832.5 3415.22 1228.85 -1 -1 1
61 1 1641.66 2949.04 2439.17 -1 0 0
62 1 2627.99 1038.29 3367.78 0 0 -1
63 1 3454.65 2075.5 3386.93 -1 0 0
64 1 3036.72 2688.13 3491.16 0 -1 -1
65 1 3493.02 3282.68 2850.74 -1 -1 -1
66 1 3559.67 3095.93 2544.2 -1 0 1
67 1 2490.75 2398.31 1380.96 0 0 0
68 1 2105.86 3107.51 3620.41 0 -1 -1
69 1 1100.06 2618.53 2954.29 0 0 0
70 1 1388.37 1125.78 3705.78 0 1 -1
71 1 1722.08 2779.83 2556.64 -1 0 -1
72 1 2852.07 1850.02 4005.78 0 0 -1
73 1 2722.49 1197.99 972.04 0 1 1
74 1 3407.36 2827.18 1966.63 -1 0 -1
75 1 1747.3 2463.28 1339.71 0 0 1
76 1 1256.69 1354.78 3265.85 -1 0 0
77 1 2738.62 2533.68 3715.94 -1 -1 -1
78 1 1310.3 3989.44 1510.44 0 -1 0
79 1 1840.82 2265.39 2538.67 0 -1 0
80 1 3389.19 2319.77 2456.38 -1 0 0
81 1 4010.63 1526.26 1539.1 -1 0 0
82 1 1589.15 2088.29 3744.9 1 0 0
83 1 2467.64 1791.94 2814.94 -1 -1 -1
84 1 1724.05 3999.41 3830.88 1 0 -1
85 1 2505.82 2367.78 2389.64 0 -1 0
86 1 3773.6 2315.48 3045.34 -1 0 0
87 1 1395.72 1716.71 3155.93 0 -1 -1
88 1 1126.94 2922.06 1777.83 0 -1 0
89 1 3066.37 3022.34 1434.05 0 0 0
90 1 3854.71 3586.01 2218.19 -2 -1 0
91 1 1289.12 3850.14 3220.99 0 -1 -1
92 1 1694.66 2950.48 2430.99 0 -1 -1
93 1 2063.8 3746.62 2864.95 1 0 0
94 1 2153.12 1922.52 3785.59 0 0 -1
95 1 1430.07 2392.39 3087.45 -1 -1 -1
96 1 2934.87 2436.54 1661.79 -1 0 0
97 1 2176.96 2356.82 1752.21 0 -1 1
98 1 2820.37 1860.45 3268.11 -1 -1 0
99 1 2439.94 3091.94 3313.7 0 -1 -1
100 1 2892.1 1702.54 1115.98 -1 0 0
101 1 1099.85 3164.99 2280.2 0 -1 0
102 1 2123.93 1021.84 2789.22 -1 0 0
103 1 3116.04 2516.09 1829.71 -1 0 0
104 1 3886.82 2830.47 2396.48 0 -1 -1
105 1 3790.02 3429.16 2941.35 -1 0 0
106 1 3875.26 1686.47 3052.77 0 1 -1
107 1 2934.88 1981.41 2410.74 -1 -2 0
108 1 3700.19 3530.98 1222.36 -1 0 -1
109 1 2097.09 2554.16 2352.45 -1 -1 0
110 1 2927.05 2907.55 1209.63 0 -1 0
111 1 3864.11 948.767 3873.45 -1 0 -1
112 1 2753.36 1253.38 3301.85 0 0 0
113 1 2309.64 2882.09 3251.34 0 0 -1
114 1 2859.33 2359.8 3216.02 -1 0 0
115 1 2106.91 2783.85 3383.8 0 0 -1
116 1 3097.75 2375.09 3155.85 0 0 0
117 1 2267.41 3933.49 2908.27 0 -1 -1
118 1 1874.07 2985.31 2132.96 -1 0 -1
119 1 3776.04 3269.26 2072.82 0 -1 0
120 1 2949.62 2196.66 1412.19 1 0 0
121 1 3478.99 3648.17 3408.61 -1 0 0
122 1 2988.86 3464.24 2439.34 0 0 -1
123 1 1322.84 1269.96 3905.63 -1 1 -1
124 1 2657.95 2531.63 1125.83 0 0 1
125 1 1327.92 3439.08 1649.46 0 -2 0
126 1 2008.05 4044.25 3336.37 0 0 -1
127 1 2953.23 2116.5 1861.83 -1 -1 0
128 1 1806.02 2137.64 4047.21 -1 0 0
129 1 2481.76 2390.76 2347.3 -1 0 0
130 1 3851.95 2724.46 1702.07 0 -1 0
131 1 3193.65 3567.71 1005.11 -1 -1 0
132 1 2694.11 3006.13 3349.47 0 -1 -1
133 1 2520.67 2381.17 3108.12 0 0 -1
134 1 1599.98 3655.75 2474.69 -1 -1 -1
135 1 1972.94 3932.79 3834.18 0 -1 -1
136 1 3282 1872.34 3514.66 -1 0 0
137 1 3565.57 1536.98 1610.54 -1 0 0
138 1 2931.23 2633.62 1514.77 0 -1 0
139 1 3285.93 2649.24 1774.59 -1 -1 -1
140 1 3234.06 3333.08 2942.41 -1 -1 -1
141 1 3120.92 3007.91 1789.45 -1 1 0
142 1 2399.45 2092.88 3118.79 0 1 -1
143 1 3546.63 3297.35 2110.56 -1 0 0
144 1 1085.27 3325.11 2607.82 -1 -1 0
145 1 2188.15 2060 1843.38 0 0 0
146 1 3777.73 2627.62 1926.63 -1 -1 0
147 1 1294.12 2468.51 2868.37 0 0 -1
148 1 2871.51 2847.9 2258.44 -1 -1 1
149 1 3357.04 3073.21 2938.53 0 0 0
150 1 2378.64 2658.57 2600.68 0 0 0
151 1 2587.34 3395.28 2938.13 0 -2 -1
152 1 3813.41 2722.82 3230.05 -1 -1 0
153 1 3181.06 2990.94 3123.41 -1 -1 -1
154 1 3662.6 2820.7 2125.89 -1 0 -1
155 1 3309.14 2282.41 2516.83 0 0 0
156 1 1731.82 2520.4 3579.32 0 0 -2
157 1 3989.1 3303.91 2218.22 0 0 -1
158 1 2893.14 2913.69 1716.29 -1 -1 0
159 1 3412.7 2758.3 2777.79 0 -1 0
160 1 3200.75 1553.09 3079.45 -1 0 0
161 1 2833.99 2891.18 1458.47 0 0 -1
162 1 3018.78 1765.65 2560.22 0 -1 0
163 1 2310.4 2642.5 3133.38 0 0 -1
164 1 3616.85 2393.48 1546.59 0 -1 -1
165 1 2158.56 1918.38 3839.33 0 0 -1
166 1 1018.96 2869.21 1575.56 0 0 -1
167 1 2818.49 2854.71 2252.02 0 -1 0
168 1 1459.2 1926.66 3344.16 0 0 0
169 1 1961.37 3709.93 1364.88 0 -1 -1
170 1 3293.46 3249.12 2254.8 0 -1 0
171 1 3044.63 1857.13 3420.67 -1 -1 -1
172 1 2696.6 3262.74 1863.65 0 -1 -1
173 1 3024.66 2304.6 2540.89 -1 0 -1
174 1 3131.97 1369.82 3899.06 -2 0 -1
175 1 3557.21 3371.14 1044.29 -1 -1 -1
176 1 1854.35 1806.97 3316.59 0 0 0
177 1 3048 3796.76 1204.29 -1 0 0
178 1 3784.16 1982.17 3018.11 -1 0 0
179 1 1492.25 1928.7 3386.66 -1 0 0
180 1 3681.71 3187.45 3307.69 0 0 -1
181 1 1221.92 2767.94 3466.22 0 -1 1
182 1 3124.06 3865.63 1954.62 0 -1 0
183 1 1058.32 3373.38 1671.3 0 -1 0
184 1 3249.59 2038 2825.59 0 -1 1
185 1 1204.96 2144.66 2734.01 0 0 -1
186 1 3465.53 2216.46 1431.99 -1 0 -1
187 1 4003.27 2779.29 3056.05 0 0 -1
188 1 2641.38 996.699 3957.95 0 1 -1
189 1 3944.5 1799.15 3809.87 -1 0 -1
190 1 2658.58 2789.94 2475.28 -1 0 0
191 1 3145.91 1183.37 3612.17 0 0 0
192 1 3713 3780.16 1302.78 -1 -1 0
193 1 3843.79 3014.18 3228.1 -2 -1 0
194 1 3198.25 1880.45 1566.28 0 -1 -1
195 1 1905.64 2680.45 2974.34 -1 0 0
196 1 2317.99 2528.04 3990.22 0 0 -1
197 1 1952.71 2148.66 1129.16 -1 1 1
198 1 3054.33 3685.96 3810.21 -1 -1 0
199 1 2213.74 3630 1037.22 0 0 1
200 1 1777.45 1531.25 3337.96 0 0 -1
201 1 3687.38 1958.99 3331.07 -1 0 0
202 1 2649.26 2282.37 3829.94 -1 -1 -1
203 1 3519.08 3500.4 3866.61 -1 -1 0
204 1 2408.08 2234.92 3352.3 0 -1 -2
205 1 3349.14 2720.32 3460.24 -1 -1 0
206 1 3750 1130.52 3717.6 -1 0 0
207 1 2359 2935.27 3798.75 -1 -1 -1
208 1 2376.07 2005.07 2876.14 0 0 -1
209 1 2877.58 2812.26 3332.26 -1 -1 0
210 1 3486.45 2575.22 1318.67 0 -1 0
211 1 3087.36 3250.04 1330.18 -1 -1 0
212 1 2266.82 966.241 2264.86 0 0 -1
213 1 3434.08 2833.93 2502.86 0 1 -1
214 1 2340.9 3178.41 2447.4 0 -1 0
215 1 949.638 3297.05 1456.14 0 0 -1
216 1 2791.84 2219.9 3665.72 -1 0 -1
217 1 3247.56 1913.31 1806.87 -1 0 1
218 1 1913 2696.52 1590.22 0 0 0
219 1 3508.58 3275.53 2387.31 0 -1 0
220 1 1942.58 2387.34 3647.35 -1 0 -1
221 1 3354.12 1220.9 3457.37 -1 0 -1
222 1 3131.29 1955.58 955.597 0 -1 1
223 1 2436.29 2422.98 3761.27 0 -1 -2
224 1 1154.38 3775.33 2491.88 0 -1 0
225 1 3035.28 3937.16 2405.21 0 -1 0
226 1 2990.47 2589.56 3214.35 0 -1 0
227 1 3803.46 2325.5 2795.4 -1 -1 -1
228 1 1027.4 3626.66 1048.4 0 0 1
229 1 3176.49 1774.16 2029.14 -1 -1 0
230 1 1122.06 2373.58 2680.89 0 0 -1
231 1 1741.7 2939.22 2407.79 -1 -1 0
232 1 1816.26 3899.85 4040.22 0 -1 -1
233 1 3806.12 2957.81 2962.36 -1 0 1
234 1 1616.02 1359.75 2631.61 0 -1 -1
235 1 2872.59 2290.21 1179.39 -1 -1 0
236 1 2493.46 2630.69 1875.62 -1 0 0
237 1 3463.5 2551.91 3295.82 0 -1 0
238 1 3356.26 3072.99 2426.48 0 -1 0
239 1 2892.26 2648.8 1765.8 -1 -1 0
240 1 1932.79 2579.23 2581.56 1 0 -1
241 1 2854.48 3879 1423.57 0 -1 0
242 1 2741.1 1731.28 1324.93 0 -2 0
243 1 1465.38 3990.9 1267.98 0 -1 0
244 1 3245.08 2683.76 3007.44 0 -1 -1
245 1 3652.15 1075.46 2531.35 -1 0 0
246 1 3201.8 1463.56 2829.03 0 -1 0
247 1 2378.29 3953.27 2689.66 0 -1 0
248 1 3638.57 3041.68 1677.09 -1 -1 0
249 1 3644.14 2745.19 3450.42 0 0 0
250 1 3967.1 1279.39 3713.59 -1 0 -1
251 1 3462.6 2849.84 1619.36 0 -1 0
252 1 3253.19 1199.19 2817.87 -1 0 0
253 1 1262.34 2770.94 1663.37 1 0 0
254 1 3866.47 2083.59 2674.88 -1 0 -1
255 1 3096.62 1557.89 3752.44 -1 0 -1
256 1 2424.89 2381.38 3105.19 -1 0 0
257 1 3164.92 3469.66 1541.98 -1 -1 0
258 1 2630.04 1707.72 3190.52 0 0 -1
259 1 2729.24 1778.73 3811.14 -1 0 -1
260 1 2741.33 2571.71 3348.37 0 0 0
261 1 1072.23 1707.93 2151.87 0 0 0
262 1 3587.76 2547.74 1760.19 -1 0 -1
263 1 2653.35 3103.44 3078.37 -1 0 -1
264 1 2030.03 2309.81 1348.22 0 0 -1
265 1 3864.05 1588.08 3358.77 -1 0 -1
266 1 3421.86 1248.4 3720.3 -1 0 -1
267 1 1057.35 2147.51 3285.41 0 0 -1
268 1 1941.51 2531.98 2606.24 0 -1 0
269 1 3082.35 1073.58 3179.94 -1 0 0
270 1 2201.54 1925.02 3808.18 0 0 -1
271 1 1660.16 3111.65 2287.05 0 -1 -1
272 1 2632.37 2332.88 3375.89 -1 0 -1
273 1 1855.1 2280.39 3318.14 0 0 -1
274 1 2200.85 2605.99 3396.72 1 -1 0
275 1 3179.84 2394.98 1358.86 -1 0 1
276 1 3038.5 2793.43 1001.99 -1 -1 0
277 1 2701.37 2727.07 1618.33 0 0 1
278 1 996.3 1132.75 3010.45 0 0 -1
279 1 2223.86 2910.87 2399.17 0 -1 0
280 1 2409.57 2438.74 3510.16 -1 0 -1
281 1 1496.76 3180.46 2812.5 0 -1 0
282 1 1600.14 2173.04 3257.39 0 -1 0
283 1 2176.23 3805.32 3934.04 0 -1 -1
284 1 1856.3 2108.89 3729.09 0 0 -1
285 1 4039.67 2929.39 3267.95 -1 0 -1
286 1 3227.03 1729.49 3246.13 -1 1 0
287 1 3032.37 1597.51 1269.33 0 0 0
288 1 2198.08 2209.4 2915.54 1 0 0
289 1 1821.73 2874.35 2842.92 0 -1 0
290 1 3411.8 2469.57 2217.48 -1 -1 0
291 1 2034.54 2848.71 2424.03 -1 -1 0
292 1 3790.04 2026.2 2987.68 -1 0 -1
293 1 2738.69 2604.72 2600.1 0 0 1
294 1 2593.63 2770.21 2780.88 0 -1 -1
295 1 1480.23 3843.69 2582.61 0 -1 0
296 1 3747.73 2469.96 3261.14 0 0 0
297 1 3184.75 2192.48 2648.29 -1 0 0
298 1 2292.3 2406.17 2705.95 0 0 0
299 1 1198.72 1875.47 2587.52 1 0 0
300 1 1677.19 2434.01 3838.16 0 0 0
301 1 2240.24 2450.85 2647.84 -1 0 -1
302 1 3824.64 1514.67 1070.66 -1 0 0
303 1 3390.32 3890.7 1385.89 0 -1 0
304 1 2121.01 3069.71 3655.29 1 -1 -1
305 1 2328.49 1304.99 3703.69 0 0 -1
306 1 1143.08 3840.69 1034.5 0 -1 0
307 1 3592.22 2369.51 1588.03 -1 0 -1
308 1 1127.45 1222.46 995.321 0 0 0
309 1 2783.33 3337.65 2175.55 0 0 -1
310 1 1289.37 1545.93 2956.63 0 0 -1
311 1 1864.81 3089.29 1050.91 0 -1 -1
312 1 3151.97 2194.64 2690.95 0 -1 1
313 1 1815.06 1674.24 3531.21 0 -1 -1
314 1 1300.7 2199.72 3179.07 1 0 0
315 1 1447.15 1312.51 2819.37 0 0 0
316 1 3220.97 3262.09 1102.97 -1 0 0
317 1 1936.58 3145.39 2698.35 1 0 -1
318 1 3974.02 3594.38 3071.21 0 -1 -1
319 1 3301.34 1892.52 1097.61 -1 0 0
320 1 2381.82 2826.1 2880.07 0 -1 0
321 1 2759.75 2044.84 3835.42 -1 0 0
322 1 2136.55 2454.68 1219.48 0 -1 0
323 1 1595.84 1720.52 3330.07 0 0 -1
324 1 3945.99 2200.48 1060.91 0 0 0
325 1 1753.67 3750.62 3225.79 0 0 0
326 1 2882.72 3037.3 3202.85 0 0 -1
327 1 2678.27 3499 2710.69 0 -1 0
328 1 1809.76 1990.51 2598.18 0 0 0
329 1 1785.52 3025.29 1637.3 0 0 0
330 1 2834.64 2538.72 3034.95 0 0 0
331 1 2449.86 2644.63 1624.17 -1 0 0
332 1 2074.8 3126.96 3581.28 0 -1 -1
333 1 3215.85 2518.76 3365.06 0 0 0
334 1 3263.89 4049.45 3763.85 -2 -1 0
335 1 2565.28 3253.05 2326.46 0 0 0
336 1 2424.48 2271.49 3995.35 0 -1 -1
337 1 1129.03 2357.1 1930.4 0 0 0
338 1 2871.31 2911.74 3910.52 0 -1 -1
339 1 3189.47 2853.81 3614.45 0 -1 0
340 1 2345.02 2401.86 2701.4 0 -1 0
341 1 2886.92 3822.63 3642.66 0 -1 -2
342 1 3062.68 3169.63 3346.72 0 -1 0
343 1 2989.98 1666.81 3220.85 1 -1 0
344 1 3346.12 3446.93 3424.16 0 -1 -1
345 1 2587.07 2078.02 952.558 0 0 0
346 1 2862.19 2342.69 1175.79 0 -1 0
347 1 2472.36 2401.16 3120.27 -1 0 -1
348 1 1900.79 2506.14 2630.6 -1 -1 -1
349 1 3080.29 2757.96 2700.81 -1 0 0
350 1 2018.11 2089.34 1628.65 0 1 0
351 1 1612.76 997.942 3628.73 0 0 -1
352 1 2229.26 2068.63 3512.24 0 1 0
353 1 3471.86 2723.7 2251.69 0 -1 0
354 1 1895.51 2716.3 2181.76 0 0 0
355 1 2241.62 3010.02 3463 0 -1 -1
356 1 2013.08 3611.13 1139.51 0 -1 0
357 1 1820.51 3250.33 3130.89 0 -1 -1
358 1 3456.12 4029.86 1965.78 -1 -1 0
359 1 2749.07 2120.67 3266.44 0 0 0
360 1 1935.55 1028.45 3965.14 0 1 -1
361 1 3878.16 2667.03 2188.97 -1 0 0
362 1 3114.14 2723.17 3062.04 0 -1 0
363 1 2528.6 2268.58 3596.61 0 0 -1
364 1 3112.39 2898.55 3374.16 -1 0 0
365 1 1835.76 3707.71 2990.76 0 -1 0
366 1 1558.02 2680.8 1210.75 0 0 0
367 1 2030.76 2645.2 3190.24 0 -1 -1
368 1 2764.7 1372.5 2666.6 -1 0 0
369 1 3563.87 2940.69 2844.44 0 0 -1
370 1 3694.21 3048.5 1910.67 -2 0 0
371 1 3833.79 1950.07 1516.8 -1 0 0
372 1 3367.65 3390.49 3963.06 -1 -1 -1
373 1 3168.01 2723.88 3064.63 0 1 0
374 1 2551.03 1405.05 2610.28 0 0 0
375 1 3539.71 1070.59 2190.5 0 0 -1
376 1 2890.78 2785.56 2507.85 0 1 0
377 1 3674.45 2481.79 2200.63 0 0 0
378 1 2167.83 1485.39 3272.01 0 1 -1
379 1 3279.75 2599.37 2003 -1 -1 0
380 1 2721.94 1861.83 1564.85 -1 0 0
381 1 2054.81 2586.6 3564.28 0 0 -1
382 1 3734.49 3202.56 3034.1 -1 -1 0
383 1 2932.55 2155.25 2212.75 -1 0 0
384 1 3136.17 3044.13 2271.89 0 -1 0
385 1 3449.57 2946.06 2182.37 0 0 0
386 1 3142.86 3405.77 2686.54 -1 0 0
387 1 3466.93 2246.33 3007.62 -1 0 -1
388 1 949.233 2964.63 3229.55 0 0 -1
389 1 2390.63 2529.81 1180.1 0 0 0
390 1 1036.99 2791.69 966.8 0 -1 0
391 1 2336.43 1468.02 1199.14 0 0 0
392 1 1400.96 2605.54 3428.76 -1 -1 -1
393 1 2672.02 2357.93 2873.79 0 0 1
394 1 1458.34 1843.08 3697.72 1 0 -1
395 1 2421.46 2411.97 1665.36 0 -1 -1
396 1 1081.18 3078.46 2658.09 1 0 0
397 1 3030.63 3093.21 1049.01 -1 0 0
398 1 1964.13 2375.31 3136.14 0 -1 0
399 1 1770.52 1193.48 3124.45 0 0 0
400 1 1923 2208.87 2926.47 -1 0 -1
401 1 2513.54 2420.08 2379.42 0 0 -1
402 1 1973.48 2611.01 4015.48 0 0 -2
403 1 1144.87 1727.79 3532.77 0 0 -1
404 1 2686.88 2818.36 1877.77 0 0 0
405 1 2825.71 3531.91 3075.98 -1 0 0
406 1 1774.63 3201.06 2105.4 0 -1 0
407 1 1362.64 3294.33 3272.71 -1 -1 0
408 1 3942.82 2327.12 3262.88 0 0 -1
409 1 3656.64 2816.15 2622.09 0 -1 -1
410 1 2669.92 2032.32 2379.94 0 0 -1
411 1 1804.25 1669.28 1573.33 0 0 0
412 1 2317.56 3481.78 3119.12 0 0 0
413 1 1124.09 2812.37 3189.08 0 0 -1
414 1 1612.7 3136.84 3094.3 0 -1 -1
415 1 1666.13 2284.76 3024 0 0 -1
416 1 2757.18 2817.78 1060.58 0 0 0
417 1 1245.9 1760.95 2350.32 -1 0 -1
418 1 3920.54 3430.35 1636.41 -1 0 1
419 1 1961.99 2618.06 2557.69 0 0 0
420 1 3686.26 3136.75 2224.32 -2 -1 -1
421 1 3176.91 2575.83 1211.42 -1 0 0
422 1 1159.55 3433.15 1433.67 0 -1 0
423 1 3533.99 2920.41 1109.72 0 -1 0
424 1 1592.87 3135.35 3752.64 0 -1 -1
425 1 2272.13 3154.43 3877.68 0 0 -1
426 1 3143.28 2694.84 3026.59 -1 0 -1
427 1 3650.82 2136.53 2050.78 -1 -1 0
428 1 2242.04 3325.23 2648.95 0 -1 -1
429 1 3250.76 3010.5 2016.13 -1 0 0
430 1 1680.78 1368.19 2038.34 0 -1 0
431 1 2716.28 2301.73 1005.73 0 0 0
432 1 1519.42 3140.34 2076.09 0 -1 0
433 1 1996.79 2838 2460.91 -1 -1 -1
434 1 3619.46 2888.09 2369.26 -1 0 0
435 1 3152.55 1668.18 3498.94 -1 0 0
436 1 3266.63 2895.09 1031.96 -1 0 0
437 1 2948.52 1987.42 1580.47 0 1 0
438 1 3985.75 2506.6 2802.44 -1 -1 -1
439 1 3125.79 2311.94 1331.2 0 0 0
440 1 3487.09 1542.97 3586.91 -1 0 -1
441 1 2967.88 1357.85 3666.96 -1 0 -1
442 1 1322.98 2632.36 3040.25 0 0 0
443 1 3538.72 2544.07 3541.21 0 -1 0
444 1 3100.22 2794.15 1619.24 -2 0 0
445 1 2342.2 3342.98 2630.52 0 -1 0
446 1 3348.34 1474.87 3841.54 -1 0 -1
447 1 2767.07 2894.15 2710.37 0 0 0
448 1 1621.02 2896.46 2091.22 -1 -1 0
449 1 2093.05 2438.59 1247.11 -1 0 0
450 1 1520.7 2369.5 3622.52 0 0 -1
451 1 1581.4 2948.9 2930.98 0 -1 -1
452 1 1845.92 1937.78 3555.84 0 0 0
453 1 3618.59 3593.25 2300.68 -1 0 0
454 1 1516.29 1967.81 2018.62 0 0 -1
455 1 2868.96 2657.84 3713.72 -1 0 -1
456 1 3335.73 1180.89 1019.56 0 1 0
457 1 2492.64 2988.68 2364.23 0 -1 -1
458 1 1451.48 1893.49 3385.92 0 1 -1
459 1 1683.19 2402.86 1935.95 0 -1 -1
460 1 3684.4 2469.73 2616.43 -1 -1 0
461 1 3125.75 2928.8 2504.04 0 -1 0
462 1 3384.43 3001.95 2668.38 -1 0 -1
463 1 3868.77 1640.18 3372.64 -1 0 -1
464 1 2841.04 2732.19 2801.05 0 0 0
465 1 1020.11 2927.53 2406.32 1 0 -2
466 1 3019.24 3401.15 2887.86 -1 -1 0
467 1 2861.62 2669.97 1239.87 0 1 0
468 1 3722.31 3090.15 1121.32 0 -1 1
469 1 3235.01 2546.84 2781.14 0 -1 -1
470 1 3224.04 3459.14 1275.72 -1 -1 -1
471 1 3234.14 2800.89 2173.1 0 0 0
472 1 2971.55 3342.32 1112.22 0 -1 0
473 1 990.65 2303.45 3494.98 1 -1 0
474 1 3359.43 2221.68 3164.55 -2 -1 -1
475 1 3150.6 2536.86 1581.18 0 -1 0
476 1 3225.75 3981.82 1695.05 -1 -1 0
477 1 3703.61 2198.76 1517.07 0 -1 -1
478 1 2718.97 2479.46 1513.91 -1 -1 0
479 1 2717.91 1094.25 2114.09 0 0 -1
480 1 3808.79 2020.45 2424.66 -1 0 0
481 1 3321.54 1185.67 967.609 0 1 1
482 1 2796.16 1490.45 3203.88 0 -1 -1
483 1 3401.5 1978.63 3119.83 -1 1 0
484 1 3019.63 3299.05 2209.84 -1 -1 0
485 1 2226.06 3613.16 2702.18 -1 -1 -1
486 1 3961.38 3312.48 1190.58 -1 -1 0
487 1 2924.36 2317.51 2966.31 -1 0 -1
488 1 1811.18 1161.28 2504.62 0 0 0
489 1 3632.21 2811.71 1790.01 -1 0 0
490 1 3391.06 2329.34 3445.27 -1 0 -1
491 1 2778.84 2951.43 2922.83 0 0 -1
492 1 3105.22 2571.2 4013.17 0 -1 0
493 1 2932.93 2420.31 2311.56 -1 0 0
494 1 2175.53 2309.72 3609.17 1 -1 0
495 1 3441.34 3079.63 1849.78 0 -1 0
496 1 3197.16 2697.98 3027.29 1 0 0
497 1 2736.71 3942.66 2765.02 -1 -1 0
498 1 2882.02 3366.85 2660.28 0 -1 0
499 1 2149.98 2506.85 1223.14 -1 0 -1
500 1 2895.97 3530.81 2160.59 0 -1 -1
501 1 2455.14 2930.57 2617.66 -1 0 -1
502 1 1178.02 3385.5 3323.89 -1 0 0
503 1 2476.05 2441.53 3155.51 0 0 0
504 1 1997.56 2652.81 2536.63 0 0 0
505 1 1686 2463.29 3882.14 -1 0 -1
506 1 1038.85 1806.24 1929.44 -1 0 0
507 1 3825.65 1611.56 3388.48 -1 0 -1
508 1 1382.68 1201.96 1431.56 0 0 -1
509 1 1401.03 1275.99 2531.89 0 0 0
510 1 2850.15 2213.08 2724.85 -1 -1 -1
511 1 3953.71 3491.13 2435.86 0 0 -1
512 1 1259.04 3530.69 3731.87 0 -1 -1
513 1 3448.44 2510.29 1569.18 0 -1 0
514 1 3033.4 1977.38 2065.35 -2 0 1
515 1 2469.34 1877.1 2393.96 -1 0 -1
516 1 2545.77 3923.87 2870.47 -1 -1 0
517 1 3388.3 3353.78 3738.81 0 -1 -1
518 1 1786.17 3165.47 2905.46 0 0 -1
519 1 2788.3 2672.59 2307.5 0 0 0
520 1 3459.94 3098.87 1096.38 -1 0 0
521 1 2516.75 2297.08 1131.7 -1 0 1
522 1 2468.37 2677.9 1883.06 -1 0 0
523 1 3423.6 3304.31 1267.64 0 0 0
524 1 2745.98 2347.25 2496.42 -1 -1 0
525 1 3492.09 1821.68 3344.62 0 0 -1
526 1 1700.57 2233.69 2766.14 0 0 0
527 1 948.851 1932.17 3190.05 0 -1 -1
528 1 3660.18 2366.16 1974.17 0 1 0
529 1 2497.12 2694.39 1000.66 -1 -1 0
530 1 1499.84 2898.06 2679.61 0 0 0
531 1 1835.86 3956.95 1377.29 0 -1 0
532 1 3641.78 2681.24 1553 -1 0 0
533 1 3500.52 1087.4 2157.58 -1 0 -1
534 1 2211.73 953.32 3146.49 0 0 -1
535 1 2817.94 3875.16 2474.97 -1 -2 0
536 1 2067.9 2599.85 1772.48 -1 0 0
537 1 2890.3 3376.19 1947.75 -1 -1 0
538 1 1557.38 1635.28 3557.51 0 0 -1
539 1 3515.54 2374.47 2814.36 -2 0 -1
540 1 2997.75 3655.16 2383.56 0 0 0
541 1 2479.66 3294 3158.65 0 0 -1
542 1 2248.46 2928.91 2354.77 0 -1 0
543 1 2120.48 2846.46 2739.47 0 0 -1
544 1 3388.05 1466.5 3357.32 -1 1 -1
545 1 2012.94 3093.17 2921.57 -1 0 -1
546 1 3732.61 1325.68 1237.06 -1 0 0
547 1 2472.24 2180.15 2293.31 0 -1 0
548 1 1383.04 1548.26 3368.83 0 0 0
549 1 2834.75 2518.2 3722.89 0 0 0
550 1 1759.43 2014 1155.44 0 0 0
551 1 2228.09 2853.89 1263.79 0 -1 0
552 1 2801.76 3903.28 3904.08 0 -1 -1
553 1 3197.8 2770.33 3909.86 -1 0 -1
554 1 2152.72 2383.21 2719.8 0 0 0
555 1 1709.59 2197.12 3556.79 0 0 0
556 1 2586.38 3300.99 2560.45 0 0 -1
557 1 2838.07 2740.22 2070.56 -1 0 0
558 1 2575.64 3821.87 2603.07 -1 0 -1
559 1 2570.27 3538.92 3162.02 -1 0 0
560 1 1443.61 3022.52 953.944 0 0 0
561 1 3754.85 2271.38 2454.93 -1 -1 -1
562 1 1630.34 3778.61 3930.68 0 0 -1
563 1 3935.85 2511.7 3118.4 -1 0 0
564 1 2639.68 2889.86 3789.64 0 1 -1
565 1 3833.26 2760.74 3783.58 0 0 -1
566 1 3832.1 1993.74 2996.49 -1 0 1
567 1 2575.39 1215.78 3096.45 0 0 0
568 1 3396.97 3255.74 2577.87 -1 -1 -1
569 1 2858.09 1990.13 3471.36 0 0 0
570 1 1249.5 3247.67 2768.63 0 -1 0
571 1 3249.5 3065.75 1239.74 -1 -1 0
572 1 2588.32 2952.37 2867.85 -1 -1 0
573 1 1991.1 2160.89 3525.32 1 0 -1
574 1 3301.12 3609.19 3896.58 -1 0 0
575 1 1421.74 2337.99 3336.24 0 0 0
576 1 3812.6 2024.02 3036.53 0 -1 -1
577 1 3685.55 2662.62 2405.07 -1 -1 -1
578 1 1013.62 2716.2 2261.1 1 0 1
579 1 3225.07 3853.63 2586.46 0 0 -1
580 1 2262.52 2881.4 2375.94 0 1 1
581 1 1350.11 2073.53 2415.15 -1 0 0
582 1 3438.36 3541.65 2125.11 0 -1 0
583 1 2535.03 2382.87 2346.97 0 0 0
584 1 3748.85 3365 2261.7 0 0 1
585 1 3428.43 3599.81 3651.38 -1 -1 -1
586 1 3320.79 1876.17 3950.56 -1 -1 -2
587 1 984.816 1931.11 2735.69 1 0 -1
588 1 1553.88 2312.34 1516.88 0 0 0
589 1 3113.61 3446.22 3945.98 1 -1 0
590 1 3804.78 2903.98 1527.53 -1 -1 1
591 1 1907.57 1405.57 3532.5 -1 -1 -1
592 1 1458.3 2168.3 2963.08 0 0 0
593 1 1184.82 1940.57 3324.52 0 0 0
594 1 1802.95 3503.71 3250.62 -1 1 0
595 1 3229.27 995.846 3336.18 -1 0 -1
596 1 3139.98 2361.55 1345.83 1 0 0
597 1 2832.86 2618.75 3721.88 0 0 0
598 1 3280.66 3703.93 1239.58 0 -1 0
599 1 2110.69 3901.36 2671.33 -1 -1 0
600 1 3272.24 1792.12 3003.6 -1 0 -1
601 2 4013.35 2223.73 1353.94 -1 0 0
602 2 1379.35 1532.92 2068.63 1 0 0
603 2 3404.77 3708.37 1824.64 -1 0 1
604 2 3541.03 3460.74 3127.34 0 -1 0
605 2 1083.16 1026.62 3795.6 0 0 0
606 2 1012.69 2623.6 1918.35 1 0 0
607 2 1799.29 2695.94 1819.44 0 0 0
608 2 2976.02 3642.12 2645.37 0 -1 0
609 2 3267.49 1909.91 2275.67 0 0 0
610 2 2746.29 3309.03 3342.8 0 0 0
611 2 1186 3277.19 1125.38 0 0 1
612 2 2456.64 3939.96 1998.64 0 -1 0
613 2 1593.57 2613.7 2821.17 0 0 -1
614 2 2682.61 1659.36 2553.44 0 0 0
615 2 1050.72 2859.67 3705.44 0 0 0
616 2 3898.84 3861.65 1038.31 0 0 0
617 2 1186.09 3211.52 1932.81 0 -1 0
618 2 2438.04 3845.17 3275.94 0 0 0
619 2 2960.1 1687.18 2851 0 1 0
620 2 3955.23 3834.1 2419.6 -1 0 0
621 2 957.567 3874.86 3090.57 0 0 -1
622 2 2089.82 3933.98 1117.08 0 0 0
623 2 2093.82 2597.39 3618.96 0 0 -1
624 2 972.709 2225.96 2941.55 0 0 -1
625 2 2818.35 1459.6 3909.16 0 0 0
626 2 1216.35 3573.81 3032.46 1 0 -1
627 2 1585.8 1011.45 2711.25 0 1 0
628 2 3687.1 2626.61 2891.5 -1 0 0
629 2 2052.42 1566.49 2080.83 0 0 0
630 2 2555.36 1167.12 1771.91 0 1 0
631 2 3669.33 1291.53 3411.18 0 1 0
632 2 1861.14 3468.93 1549.77 0 -1 0
633 2 1172.14 3481.2 2276.82 0 -1 0
634 2 3492.52 2870.43 3148.91 -1 0 0
635 2 1125.35 1146.2 2027 0 0 0
636 2 3049.72 1338.57 3304.43 -1 0 0
637 2 1212.61 1897.28 2940.85 1 0 -1
638 2 1085.18 1479.52 1800.13 0 0 0
639 2 3615.35 3181.66 3845.37 0 0 0
640 2 2776.12 4017.02 3051.71 0 0 0
641 2 2196.9 1552.03 2743.63 0 0 0
642 2 2572.63 3428.61 1540.23 0 -1 0
643 2 1134.75 990.512 2381.03 0 0 0
644 2 3949.3 2593.79 1363.71 -1 0 1
645 2 2608.22 3572.69 1969.57 0 -1 0
646 2 1970.05 3450.49 1944.95 0 -1 0
647 2 1833.81 1755.45 3834.84 0 0 0
648 2 2578.59 2772.53 3094.79 0 0 0
649 2 3570.01 1711.57 988.386 -1 0 0
650 2 3613.53 2130.34 2107.34 0 0 0
651 2 3810.64 1682.53 1730.84 -1 0 0
652 2 1126.07 1111.19 1624.51 0 0 0
653 2 3237.11 2496.56 3673.77 0 0 -1
654 2 2500.09 3788.73 3984.79 0 -1 -1
655 2 2580.8 1481.04 2890.52 0 0 0
656 2 2934.44 1278.69 2922.62 0 0 0
657 2 3527.03 1573.16 3030.82 -1 0 -1
658 2 2682.35 1965.24 2930.96 -1 0 -1
659 2 997.055 1590.54 2798 1 0 0
660 2 2319.79 2112.77 1466.85 0 0 0
661 2 2719.88 1050.34 1429.6 0 0 0
662 2 1417.18 1311.54 1086.85 0 0 0
663 2 1369.23 3198.13 2448.95 0 -1 0
664 2 2668.25 3545.04 3689.2 0 0 -1
665 2 2408.9 2271.96 1932.77 0 0 0
666 2 2630.83 3817.65 1663.15 0 -1 0
667 2 3104.43 982.451 1368.18 0 0 0
668 2 1395.47 2184.86 1790.99 0 0 0
669 2 3705.51 2215.14 3493.92 -1 0 0
670 2 1824.22 1203.78 3164.94 0 0 -1
671 2 3035.88 1248.55 1071.66 0 0 1
672 2 1397.45 2595.59 1906.71 0 0 0
673 2 2108.72 2161.68 2326.91 0 0 0
674 2 3900.78 988.694 1826.07 -1 0 0
675 2 3357.18 3100.31 3493.51 -1 0 0
676 2 2655.46 1397.81 1199.01 0 0 0
677 2 1601.29 3364.32 1804.51 0 -1 0
678 2 3712.3 3251.09 1401.8 -1 -1 0
679 2 1572.09 3455.74 3712.81 0 0 0
680 2 3572.63 1420.32 1884.37 -1 0 0
681 2 2082.14 3674.57 3206.99 0 0 0
682 2 3192.82 2232.89 2027.22 0 0 0
683 2 2304.26 3307.56 2670.08 0 -1 0
684 2 1308.09 3609.39 1933.41 0 -1 0
685 2 1374.97 3792.75 3675.77 0 0 -1
686 2 1365 2394.08 1210.23 0 0 0
687 2 2536.97 3181.52 3631.04 -1 -1 0
688 2 3317.35 3532.27 2426.36 -1 -1 0
689 2 1778.52 3779.19 3553.2 0 -1 0
690 2 3843.08 3506.28 3983.21 0 1 -1
691 2 2670.83 2151.66 1669.51 -1 0 0
692 2 1635.67 961.903 3271.72 0 0 -1
693 2 3711.37 3849.58 2077.61 -1 -1 0
694 2 1227.54 2926.49 2864.33 0 0 0
695 2 2883.16 1743.93 1811.71 0 0 0
696 2 2282.88 1050.35 3434.8 0 1 0
697 2 1362.49 1581.11 2609.28 0 0 0
698 2 1423.21 2355.16 2532.81 1 0 0
699 2 2442.86 1012.92 1120.8 0 0 0
700 2 997.514 2442.62 1060.06 0 0 0
701 2 4042.34 3187.5 2830.19 0 -1 -1
702 2 1221.69 2435.62 2234.1 0 0 0
703 2 1526.08 3692.39 1615.61 0 0 0
704 2 1925.08 3583.22 2312.1 0 -1 0
705 2 1592.31 1387.63 3090.43 0 0 -1
706 2 1359.51 2650.8 4028 0 0 0
707 2 1345.25 3548.02 2650.18 0 -1 0
708 2 1236.6 2700.21 2520.92 1 0 0
709 2 1224.97 985.411 3422.62 0 0 0
710 2 2921.36 1087.28 3844.25 0 0 -1
711 2 1506.38 3390.93 1350.54 0 -1 0
712 2 1823.71 2837 3564.98 0 0 -1
713 2 2224.35 2413.26 2705.02 0 0 -1
714 2 3228.4 1449.65 2097.04 -1 0 0
715 2 2626.99 2031.81 1268.09 0 0 0
716 2 2114.8 3296.16 1023.27 0 0 0
717 2 3542.85 977.659 3908.4 -1 0 -1
718 2 2807.54 2369.51 1955.06 -1 0 0
719 2 1449.81 1277.94 1763.88 0 0 0
720 2 984.195 1483.16 3923.67 0 0 -1
721 2 3889.7 2382.47 1692.16 0 0 0
722 2 4015.02 3492.06 1907.05 -1 -1 0
723 2 2851.41 3626.36 4051.13 0 0 -1
724 2 3540.04 3828.11 2519.24 0 -1 0
725 2 1889.67 3997.71 2969.06 0 -1 -1
726 2 2010 1897.9 1331.03 0 0 0
727 2 3741.85 2377.81 1107.25 -1 0 0
728 2 2054.18 1801.85 2406.75 0 0 0
729 2 3313.57 1070.9 2479 -1 0 0
730 2 3340.64 3177.19 1530.55 -1 -1 0
731 2 2104.41 2908.12 4010.4 0 0 0
732 2 3874.75 1144.33 4039.71 -1 0 -1
733 2 1978.7 1108.54 1452.68 0 1 0
734 2 1209.46 2008.19 2078.27 0 0 0
735 2 2257.97 1203.78 2499.65 0 0 0
736 2 1934.54 3873.24 1667.02 0 -1 0
737 2 1820.75 3063.77 1681.42 -1 0 0
738 2 3813.73 3041.86 3534 0 0 0
739 2 1987.71 3455.43 3523.22 0 0 0
740 2 3246.21 1201.03 1802.24 0 0 0
741 2 2790.63 1618.58 3471.14 -1 1 0
742 2 2530.47 1739.58 964.85 0 0 0
743 2 4005.09 1712.69 2426.27 -1 0 0
744 2 2676.22 1994.91 2008.44 0 0 0
745 2 1904.6 3567.27 3882.78 0 0 -1
746 2 1878.5 2731.46 1197.02 0 0 0
747 2 3036.25 3369.76 3587.02 0 0 -1
748 2 2373.32 1255.64 1442.68 0 0 0
749 2 1954.12 1637.21 2997.51 0 0 0
750 2 1105.55 1384.69 2358.49 0 0 0
751 2 3998.36 2841.05 2687.68 0 0 -1
752 2 3520.8 987.712 2829.99 0 1 0
753 2 1070.27 2084.41 1710.41 0 0 0
754 2 2995.55 2251.83 3865.83 -1 0 0
755 2 2162.62 1727.15 3431.72 0 0 0
756 2 2683.4 3560.96 2355.87 0 -1 0
757 2 2283.01 1901.51 2132.92 0 0 0
758 2 3716.61 3766.11 2927.09 -1 -1 0
759 2 2918.16 987.173 1769.76 0 0 0
760 2 2460.96 2772.45 3481.25 0 0 -1
761 2 1645.21 3702.5 1160.65 0 -1 0
762 2 1711.45 1684.14 1911.87 0 0 0
763 2 1227.68 1681.51 1087.46 0 0 0
764 2 2268.44 3245.17 1742.45 0 -1 0
765 2 1542.37 2215.77 2178.69 0 0 0
766 2 3765.55 1616.23 1300.13 -1 0 0
767 2 2299.72 1451.11 1780.9 0 1 0
768 2 1485.65 1154.73 2181.98 0 0 0
769 2 1378.83 3983.69 1854.15 0 -1 0
770 2 1017.79 2136.23 2421.22 1 -1 0
771 2 1127.9 3070.9 3425.91 1 0 -1
772 2 1562.03 1819.72 2291.02 0 0 0
773 2 3361.55 1225.98 1005.63 -1 0 1
774 2 1344.26 3591.04 4001.86 0 -1 -1
775 2 3911.97 4000.87 1447.15 -1 -1 0
776 2 3199.22 3099.89 3810.06 -1 0 -1
777 2 3802.44 2738.18 1008.91 -1 0 0
778 2 1726.35 1925.38 2997.15 0 0 -1
779 2 3167.44 1626.53 957.243 -1 0 0
780 2 3414.99 2598.78 972.74 -1 0 0
781 2 3597.01 992.747 1201.01 -1 0 0
782 2 2509.3 1864.73 3386.45 0 0 0
783 2 1475.74 3601.09 3343.32 0 -1 -1
784 2 1126.5 1227.84 2700.42 0 0 -1
785 2 3491.86 3551.98 1465.78 -1 -1 0
786 2 1293.17 1501.68 1457.08 1 0 0
787 2 2584.49 3046.92 1604.69 0 0 0
788 2 2308.37 1748.11 3076.22 0 0 0
789 2 1156.81 1852.23 3845.27 0 0 -1
790 2 3905.41 1495.81 2141.2 -1 0 0
791 2 3731.79 981.609 3169.69 0 0 -1
792 2 1690.51 2483.36 3947.27 0 0 -1
793 2 1638.44 1213.36 3877.25 0 0 0
794 2 3519.61 1381.38 2709.16 -1 0 0
795 2 1586.53 3431.71 2954.13 0 0 0
796 2 1190.58 2499.4 3627.59 0 0 -1
797 2 3536.45 4022.16 3490.29 -1 -1 -1
798 2 1532.85 3841.75 2954.58 0 0 0
799 2 3641.83 1843.27 3589.73 -1 1 -1
800 2 3659.61 3371.7 3513.76 -1 0 -1
801 2 2069.18 2024.06 3168.05 0 0 0
802 2 1344.27 1075.25 3026.33 0 1 0
803 2 2572.22 3753.61 1267.86 0 -1 0
804 2 2497.7 3030.73 1999.87 0 -1 0
805 2 2001.02 1174.37 2189.91 0 0 0
806 2 3961.16 3117.51 1697.24 -1 -1 0
807 2 3717.87 3747.76 3727.11 -1 0 -1
808 2 3191 2179.6 1593.37 -1 0 0
809 2 3830.86 1317.31 2944.21 0 0 0
810 2 2425.45 1354.27 3983.01 0 0 -1
811 2 1195.3 1363.16 3581.25 1 0 0
812 2 2647.55 1257.13 3599.87 0 0 -1
813 2 2256.6 1268.1 2999.74 0 0 0
814 2 1490.81 2952.57 1760.77 0 0 0