ITEM: TIMESTEP
730000
ITEM: NUMBER OF ATOMS
1000
ITEM: BOX BOUNDS pp pp pp
1.0479486420383503e+03 3.9520513579611143e+03
1.0479486420383503e+03 3.9520513579611143e+03
1.0479486420383503e+03 3.9520513579611143e+03
ITEM: ATOMS id type x y z ix iy iz
1 1 2843.35 2401.9 1239.71 -1 0 1
2 1 1976.81 1086.12 2658.4 0 0 0
3 1 3476.68 2600.52 2066.48 0 0 0
4 1 2185.34 1484.41 3446.6 0 -1 0
5 1 3643.72 3115.07 2758.82 -1 -1 1
6 1 1792.36 1568.55 3640.32 0 0 0
7 1 1462.58 3171.68 2958.79 0 -1 0
8 1 2095.11 1550.85 2467.07 0 0 1
9 1 3130.72 3187.8 2462.35 0 0 0
10 1 2955.26 2512.37 2680.8 0 0 0
11 1 2756.6 2040.79 2634.6 0 0 0
12 1 1173.72 3381.5 3868.17 0 0 0
13 1 3310.61 3769.27 3711.08 -1 0 -1
14 1 2145.23 2778.26 2981.46 0 0 -1
15 1 3418.47 2148.1 1941.95 0 0 0
16 1 2107.27 3941.57 2442.37 0 0 -1
17 1 2417.51 3013.54 3033.06 1 0 -1
18 1 3292.28 2313.29 2484.11 -1 1 0
19 1 2987.16 1723.62 1578.07 -1 0 0
20 1 1220.71 3190.82 3108 0 -1 0
21 1 1927.52 2546.54 2596.91 0 1 0
22 1 2721.3 3131.08 2815.77 2 -1 0
23 1 2986.21 2063.04 2752.34 0 0 1
24 1 3106.99 3589.28 2080.43 0 0 0
25 1 1549.7 1769.18 2889.83 -1 0 0
26 1 3099.77 3188.78 3075.39 0 0 0
27 1 3264.05 2367.4 2928.5 -1 0 1
28 1 1908.68 2438.76 2364.38 0 0 0
29 1 2589.98 2202.59 2700.46 0 0 -1
30 1 2887.89 3670.11 3000.33 0 0 0
31 1 1198.19 1436.3 3027.54 0 0 0
32 1 1409.2 3298.62 3457.64 0 0 -1
33 1 2109.45 2359.31 3310.66 0 0 0
34 1 2435.86 1080.28 3002.6 0 0 0
35 1 1872.79 2095.68 2359.9 0 0 -1
36 1 1280.44 2931.77 1153.5 0 -1 0
37 1 1630.33 1654.62 1712.28 0 0 0
38 1 2130.48 3131.15 2093.34 0 0 0
39 1 3412.03 2312 2990.07 -2 0 -1
40 1 3293.81 2467.73 1844.8 -1 -1 2
41 1 1814.12 3040.75 1692.92 0 0 -1
42 1 3048.12 2763.5 1934.39 0 -1 0
43 1 2442.78 2622.3 1926.55 0 -2 0
44 1 3137.83 3630.31 1530.42 0 -1 0
45 1 2449.53 2264.91 2897.27 0 0 0
46 1 3037.91 3802.12 3191.56 -1 -1 0
47 1 3619.37 3441.57 2114.36 -1 -1 -1
48 1 3411.28 1945.01 2891.89 0 0 -1
49 1 3023.24 2573.32 2177.71 -1 0 1
50 1 3212.69 1479.64 3530.27 -1 0 0
51 1 3485.12 1176.95 2161.8 -1 -1 1
52 1 3925.2 2551.05 3758.52 -1 0 -1
53 1 3273.02 1775.13 3632.61 -2 0 -1
54 1 3518.33 2187.58 3140.63 0 0 -1
55 1 3149.65 3189.61 3095.72 -2 0 -1
56 1 3290.34 2049.48 1428.46 0 0 0
57 1 1770.83 2507.14 3799.02 0 0 -1
58 1 2455 2667.6 3751.9 0 0 -1
59 1 2690.56 3618.56 2874.71 -1 -1 0
60 1 1875.47 3356.29 1310.7 -1 -1 1
61 1 1693.34 2919.92 2443.5 -1 0 0
62 1 2619.75 1132.4 3311.91 0 0 -1
63 1 3393.18 2102.83 3329.83 -1 0 0
64 1 3002.17 2676.02 3427.34 0 -1 -1
65 1 3429.08 3232.28 2828.16 -1 -1 -1
66 1 3491.44 3057.56 2541.35 -1 0 1
67 1 2491.34 2404.86 1453.01 0 0 0
68 1 2132.53 3069.88 3548.62 0 -1 -1
69 1 1190.2 2610.9 2925.04 0 0 0
70 1 1459.95 1214.26 3628.15 0 1 -1
71 1 1772.17 2761.81 2553 -1 0 -1
72 1 2829.4 1891.87 3908.83 0 0 -1
73 1 2708.16 1281.83 1070.42 0 1 1
74 1 3348.93 2806.11 2000.97 -1 0 -1
75 1 1795.76 2465.65 1414.42 0 0 1
76 1 1336.74 1428.52 3216.54 -1 0 0
77 1 2714.4 2526.19 3635.2 -1 -1 -1
78 1 1386.9 3893.54 1574.16 0 -1 0
79 1 1883.26 2280.49 2536.18 0 -1 0
80 1 3335.05 2332.8 2457.26 -1 0 0
81 1 3913.37 1588.95 1600.97 -1 0 0
82 1 1647.8 2114.8 3664.75 1 0 0
83 1 2469.73 1837.53 2794.66 -1 -1 -1
84 1 1774.01 3902.87 3745.19 1 0 -1
85 1 2505.25 2374.81 2398.31 0 -1 0
86 1 3691.6 2327.36 3010.23 -1 0 0
87 1 1466.82 1767.15 3113.7 0 -1 -1
88 1 1215.34 2894.89 1824.33 0 -1 0
89 1 3029.9 2988.71 1502.68 0 0 0
90 1 3767.49 3516.08 2236.34 -2 -1 0
91 1 1367.09 3763.21 3174.57 0 -1 -1
92 1 1747.01 2922.54 2436.69 0 -1 -1
93 1 2091.89 3666.36 2841.46 1 0 0
94 1 2171.23 1959.48 3701.57 0 0 -1
95 1 1498.96 2399.31 3049.62 -1 -1 -1
96 1 2906.87 2440.63 1715.76 -1 0 0
97 1 2197.76 2366.04 1800.36 0 -1 1
98 1 2799.74 1901.63 3218.66 -1 -1 0
99 1 2443.8 3053.83 3261.31 0 -1 -1
100 1 2866.86 1753.89 1205.09 -1 0 0
101 1 1190 3122.18 2294.36 0 -1 0
102 1 2148.14 1117.01 2770.6 -1 0 0
103 1 3076.38 2515.06 1872.87 -1 0 0
104 1 3797.53 2809.19 2403.15 0 -1 -1
105 1 3706.96 3369.34 2912.94 -1 0 0
106 1 3786.72 1738.85 3017.18 0 1 -1
107 1 2906.88 2014.8 2416.49 -1 -2 0
108 1 3622.91 3464.6 1304.62 -1 0 -1
109 1 2123.03 2550.67 2361.95 -1 -1 0
110 1 2899.55 2881.31 1292.71 0 -1 0
111 1 3776.28 1048.65 3785.02 -1 0 -1
112 1 2737.05 1333.65 3250.22 0 0 0
113 1 2321.89 2857.49 3202.96 0 0 -1
114 1 2836.2 2368.83 3169.91 -1 0 0
115 1 2132.22 2765.58 3326.9 0 0 -1
116 1 3059.26 2383.13 3113.62 0 0 0
117 1 2282.39 3841.19 2881.98 0 -1 -1
118 1 1914.37 2954.06 2156.59 -1 0 -1
119 1 3693.88 3219.73 2100.32 0 -1 0
120 1 2920.67 2216.19 1482.23 1 0 0
121 1 3415.95 3574.25 3350.11 -1 0 0
122 1 2957.38 3402.15 2443.24 0 0 -1
123 1 1398.63 1349.15 3815.13 -1 1 -1
124 1 2647.78 2529.59 1214.3 0 0 1
125 1 1403.38 3378.62 1704.23 0 -2 0
126 1 2039.73 3944.82 3282.52 0 0 -1
127 1 2924.05 2141.19 1902.92 -1 -1 0
128 1 1850.71 2160.97 3947.59 -1 0 0
129 1 2481.15 2397.83 2355.92 -1 0 0
130 1 3764.9 2710.01 1753.44 0 -1 0
131 1 3148.99 3498.96 1101.36 -1 -1 0
132 1 2681.61 2973.54 3294.78 0 -1 -1
133 1 2522.87 2387.32 3068.14 0 0 -1
134 1 1657.93 3581.34 2476.32 -1 -1 -1
135 1 2006.88 3840.54 3748.28 0 -1 -1
136 1 3231.65 1912.75 3449.33 -1 0 0
137 1 3496.96 1598.99 1667.81 -1 0 0
138 1 2903.46 2625.02 1578.21 0 -1 0
139 1 3235.33 2639.63 1821.3 -1 -1 -1
140 1 3186.8 3279.44 2913.93 -1 -1 -1
141 1 3080.94 2975.2 1835.2 -1 1 0
142 1 2405.92 2119.09 3078.95 0 1 -1
143 1 3479.24 3246.02 2135.63 -1 0 0
144 1 1176.36 3271.98 2600.88 -1 -1 0
145 1 2208.23 2088.33 1885.65 0 0 0
146 1 3695.46 2619.41 1963.55 -1 -1 0
147 1 1371.76 2470.53 2844.65 0 0 -1
148 1 2849.31 2825.28 2274.2 -1 -1 1
149 1 3301.86 3036.31 2910.3 0 0 0
150 1 2386.45 2648.36 2594.2 0 0 0
151 1 2581.72 3337.64 2909.92 0 -2 -1
152 1 3728.85 2708.47 3183.05 -1 -1 0
153 1 3137.21 2959.33 3083.27 -1 -1 -1
154 1 3587.74 2800.05 2149.97 -1 0 -1
155 1 3254.29 2295.1 2518.25 0 0 0
156 1 1781.28 2519.08 3509.83 0 0 -2
157 1 3893.22 3252.15 2236.36 0 0 -1
158 1 2867.83 2887.05 1766.75 -1 -1 0
159 1 3353.93 2741.67 2759.9 0 -1 0
160 1 3155.63 1614.06 3042.14 -1 0 0
161 1 2812.49 2865.99 1525.53 0 0 -1
162 1 2985.38 1812.93 2556.34 0 -1 0
163 1 2322.61 2633.33 3092.6 0 0 -1
164 1 3545.74 2401.12 1606.63 0 -1 -1
165 1 2176.67 1955.36 3755.11 0 0 -1
166 1 1114.31 2845.44 1635.08 0 0 -1
167 1 2796.26 2832.1 2267.78 0 -1 0
168 1 1525.66 1964.24 3287.98 0 0 0
169 1 1996.05 3632.03 1437.96 0 -1 -1
170 1 3242.37 3200.89 2270.59 0 -1 0
171 1 3009.56 1898.52 3361.39 -1 -1 -1
172 1 2683.94 3213.63 1904.63 0 -1 -1
173 1 2990.88 2317.18 2538.26 -1 0 -1
174 1 3091.28 1442.59 3808.98 -2 0 -1
175 1 3489.14 3315.05 1138.01 -1 -1 -1
176 1 1895.92 1851.59 3264.01 0 0 0
177 1 3012.71 3713.27 1287.71 -1 0 0
178 1 3700.12 2013.91 2985.31 -1 0 0
179 1 1558.72 1966.28 3330.52 -1 0 0
180 1 3605.62 3143.18 3255.69 0 0 -1
181 1 1304.21 2750.69 3404 0 -1 1
182 1 3083.88 3777.7 1989.74 0 -1 0
183 1 1151.14 3317.15 1724.66 0 -1 0
184 1 3201.32 2067.75 2804.62 0 -1 1
185 1 1288.35 2167.54 2718.94 0 0 -1
186 1 3403.36 2234.72 1500.75 -1 0 -1
187 1 3906.48 2761.31 3020.25 0 0 -1
188 1 2632.28 1093.49 3864.08 0 1 -1
189 1 3851.49 1844.28 3725.53 -1 0 -1
190 1 2648.37 2771.27 2476.88 -1 0 0
191 1 3104.33 1268.14 3540.56 0 0 0
192 1 3634.9 3697.73 1379.86 -1 -1 0
193 1 3757.27 2981.07 3181.22 -2 -1 0
194 1 3153.29 1920.34 1626.4 0 -1 -1
195 1 1943.91 2668.83 2943.8 -1 0 0
196 1 2329.71 2526.23 3894.27 0 0 -1
197 1 1987.95 2171.28 1217.42 -1 1 1
198 1 3018.64 3609.6 3725.85 -1 -1 0
199 1 2232.17 3557.25 1131.41 0 0 1
200 1 1823.97 1593.63 3284.01 0 0 -1
201 1 3610.93 1993.83 3277.56 -1 0 0
202 1 2639.65 2296.38 3744.31 -1 -1 -1
203 1 3453.46 3435.99 3778.62 -1 -1 0
204 1 2414 2251.99 3297.42 0 -1 -2
205 1 3294.47 2706.13 3398.41 -1 -1 0
206 1 3669.52 1218.7 3639.21 -1 0 0
207 1 2368.08 2907.25 3715.13 -1 -1 -1
208 1 2384.05 2036.94 2851.92 0 0 -1
209 1 2853.27 2792.15 3278.68 -1 -1 0
210 1 3422.93 2570.38 1394.73 0 -1 0
211 1 3049.54 3201.75 1405.5 -1 -1 0
212 1 2281.83 1064.99 2280 0 0 -1
213 1 3373.94 2812.43 2502.67 0 1 -1
214 1 2351.15 3134.73 2450.78 0 -1 0
215 1 1049.46 3245.73 1523.35 0 0 -1
216 1 2773.05 2237.93 3590.67 -1 0 -1
217 1 3199.43 1951.09 1851.49 -1 0 1
218 1 1950.8 2683.87 1648.8 0 0 0
219 1 3443.64 3225.6 2394.56 0 -1 0
220 1 1978.47 2394.6 3573.48 -1 0 -1
221 1 3299.12 1303.26 3395.73 -1 0 -1
222 1 3090.64 1990.63 1055.04 0 -1 1
223 1 2440.39 2427.94 3680.06 0 -1 -2
224 1 1241.02 3693.21 2492.41 0 -1 0
225 1 3000.81 3844.63 2411.32 0 -1 0
226 1 2958.89 2583.8 3168.36 0 -1 0
227 1 3719.53 2336.74 2776.38 -1 -1 -1
228 1 1122.22 3554.12 1141.86 0 0 1
229 1 3132.94 1820.89 2059.45 -1 -1 0
230 1 1210.78 2381.72 2669.25 0 0 -1
231 1 1793.6 2910.08 2412.05 -1 -1 0
232 1 1860.28 3809.72 3941.05 0 -1 -1
233 1 3722.02 2928.33 2932.59 -1 0 1
234 1 1672.94 1433.17 2623.14 0 -1 -1
235 1 2849.41 2300.26 1264.5 -1 -1 0
236 1 2495.13 2621.32 1913.94 -1 0 0
237 1 3401.47 2548.57 3244.58 0 -1 0
238 1 3301.13 3036.1 2431.21 0 -1 0
239 1 2867.01 2639.22 1813.07 -1 -1 0
240 1 1968.13 2574.82 2575.83 1 0 -1
241 1 2831.66 3790.22 1492.87 0 -1 0
242 1 2725.57 1780.78 1400.59 0 -2 0
243 1 1531.99 3894.91 1347.3 0 -1 0
244 1 3201.65 2670.56 2972.9 0 -1 -1
245 1 3577.96 1167.18 2529.33 -1 0 0
246 1 3156.61 1530.3 2807.84 0 -1 0
247 1 2386.12 3859.7 2677.45 0 -1 0
248 1 3565.26 3006.8 1730.08 -1 -1 0
249 1 3570.47 2729.4 3389.23 0 0 0
250 1 3872.64 1357.98 3635.46 -1 0 -1
251 1 3400.62 2827.31 1676.06 0 -1 0
252 1 3204.7 1282.95 2797.4 -1 0 0
253 1 1342.03 2753.5 1717.24 1 0 0
254 1 3778.49 2110.4 2663.62 -1 0 -1
255 1 3058.21 1618.55 3671.8 -1 0 -1
256 1 2426.01 2387.42 3065.11 -1 0 0
257 1 3122.11 3407.23 1603.66 -1 -1 0
258 1 2621.67 1758.73 3146.06 0 0 -1
259 1 2714.48 1825.17 3726.72 -1 0 -1
260 1 2725.79 2567.09 3293.74 0 0 0
261 1 1164.16 1758.92 2174.28 0 0 0
262 1 3517.73 2544.67 1807.82 -1 0 -1
263 1 2643.48 3064.59 3041.13 -1 0 -1
264 1 2060.29 2322.05 1422.38 0 0 -1
265 1 3776.43 1645.66 3301.34 -1 0 -1
266 1 3362.5 1328.99 3641.73 -1 0 -1
267 1 1150.23 2170.21 3234.84 0 0 -1
268 1 1978.15 2527.87 2600.19 0 -1 0
269 1 3044.85 1165.43 3136.16 -1 0 0
270 1 2220.22 1961.28 3723.93 0 0 -1
271 1 1714.24 3072.26 2300.76 0 -1 -1
272 1 2623.85 2343.64 3319.49 -1 0 -1
273 1 1896.62 2294.53 3265.46 0 0 -1
274 1 2220.12 2599.16 3338.99 1 -1 0
275 1 3138.65 2403.63 1433.1 -1 0 1
276 1 3003.83 2774.53 1098.44 -1 -1 0
277 1 2688.4 2712.45 1675.09 0 0 1
278 1 1093.12 1220.78 2977.58 0 0 -1
279 1 2240.25 2884.67 2407.15 0 -1 0
280 1 2415.39 2442.68 3445.12 -1 0 -1
281 1 1561.35 3136.65 2792.38 0 -1 0
282 1 1658.07 2194.09 3208.63 0 -1 0
283 1 2197.08 3721.27 3841.71 0 -1 -1
284 1 1897.75 2134.07 3649.95 0 0 -1
285 1 3940.1 2900.6 3219.75 -1 0 -1
286 1 3180.22 1779.1 3198.09 -1 1 0
287 1 2998.09 1655.62 1348.57 0 0 0
288 1 2217.52 2228.11 2888.78 1 0 0
289 1 1865.4 2850.25 2820.84 0 -1 0
290 1 3353.09 2471.53 2235.67 -1 -1 0
291 1 2065.73 2826.6 2427.72 -1 -1 0
292 1 3706.02 2058 2954.83 -1 0 -1
293 1 2723.32 2597.98 2593.66 0 0 1
294 1 2587.6 2752.82 2762.79 0 -1 -1
295 1 1545.89 3757.18 2577.3 0 -1 0
296 1 3667.39 2471.89 3212.14 0 0 0
297 1 3141.73 2212.21 2637.36 -1 0 0
298 1 2298.13 2412.54 2692.74 0 0 0
299 1 1282.51 1915.68 2581.89 1 0 0
300 1 1729.42 2435.46 3747.92 0 0 0
301 1 2256.8 2454.7 2637.34 -1 0 -1
302 1 3739.35 1578.11 1162.69 -1 0 0
303 1 3332.99 3801.15 1457.62 0 -1 0
304 1 2146.25 3030.45 3583.11 1 -1 -1
305 1 2339.53 1381.93 3626.18 0 0 -1
306 1 1230.44 3754.37 1128.86 0 -1 0
307 1 3521.09 2377.14 1648.09 -1 0 -1
308 1 1215.82 1304.71 1092.2 0 0 0
309 1 2765.09 3283.72 2196.44 0 0 -1
310 1 1367.32 1607.36 2927.23 0 0 -1
311 1 1905.71 3051.35 1144.21 0 -1 -1
312 1 3108.93 2214.37 2680.04 0 -1 1
313 1 1859.16 1727.41 3464.82 0 -1 -1
314 1 1377.92 2219.06 3135.35 1 0 0
315 1 1514.94 1388.97 2798.8 0 0 0
316 1 3174.55 3213.02 1192.92 -1 0 0
317 1 1972.85 3103.84 2685.57 1 0 -1
318 1 3879.12 3523.92 3034.43 0 -1 -1
319 1 3249.75 1931.63 1187.91 -1 0 0
320 1 2389.43 2805.1 2855.6 0 -1 0
321 1 2743.03 2074.15 3749.44 -1 0 0
322 1 2160.79 2456.31 1300.25 0 -1 0
323 1 1654.06 1770.71 3276.63 0 0 -1
324 1 3852.89 2219.77 1153.57 0 0 0
325 1 1801.72 3670.1 3179.06 0 0 0
326 1 2858.08 3002.7 3157.6 0 0 -1
327 1 2666.79 3434.68 2697.12 0 -1 0
328 1 1854.2 2023.31 2591.86 0 0 0
329 1 1830.64 2989.52 1691.42 0 0 0
330 1 2813.09 2536.23 3000.51 0 0 0
331 1 2453.09 2635.32 1680.56 -1 0 0
332 1 2100.05 3087.69 3509.1 0 -1 -1
333 1 3169.76 2517.55 3309.37 0 0 0
334 1 3214.7 3949.69 3682.48 -2 -1 0
335 1 2561.08 3204.57 2337.63 0 0 0
336 1 2429.34 2286.21 3899.07 0 -1 -1
337 1 1217.3 2366.3 1967.07 0 0 0
338 1 2847.4 2885.23 3819.7 0 -1 -1
339 1 3145.08 2831.03 3542.69 0 -1 0
340 1 2351.78 2408.44 2688.58 0 -1 0
341 1 2862 3737.47 3569.09 0 -1 -2
342 1 3026.45 3126.51 3292.21 0 -1 0
343 1 2958.43 1720.46 3174.44 1 -1 0
344 1 3291.64 3385.96 3364.66 0 -1 -1
345 1 2581.46 2105.19 1052.19 0 0 0
346 1 2837.65 2353.1 1262.49 0 -1 0
347 1 2474.06 2407.83 3079.74 -1 0 -1
348 1 1938.01 2501.91 2625.01 -1 -1 -1
349 1 3042.93 2741.35 2687.88 -1 0 0
350 1 2049.14 2115.78 1684.76 0 1 0
351 1 1669.89 1094.65 3556.06 0 0 -1
352 1 2246.69 2096.41 3447.07 0 1 0
353 1 3409.29 2709.3 2267.68 0 -1 0
354 1 1934.43 2702.37 2202.25 0 0 0
355 1 2258.26 2977.18 3400.99 0 -1 -1
356 1 2044.43 3539.59 1227.11 0 -1 0
357 1 1864.26 3202.02 3090.27 0 -1 -1
358 1 3394.56 3931.35 2000.17 -1 -1 0
359 1 2733.03 2145.1 3217.09 0 0 0
360 1 1971.89 1123.2 3870.81 0 1 -1
361 1 3789.42 2656.28 2208.99 -1 0 0
362 1 3070.92 2710.05 3027.31 0 -1 0
363 1 2526.76 2283.48 3526 0 0 -1
364 1 3072.96 2872.89 3317.88 -1 0 0
365 1 1878.53 3629.95 2959.16 0 -1 0
366 1 1618.67 2669.16 1293.76 0 0 0
367 1 2060.98 2635.85 3145.8 0 -1 -1
368 1 2747.66 1445.09 2655.87 -1 0 0
369 1 3495.37 2912.32 2822.26 0 0 -1
370 1 3617.32 3013.18 1948.61 -2 0 0
371 1 3747.91 1985.48 1580.1 -1 0 0
372 1 3311.78 3333.15 3868.86 -1 -1 -1
373 1 3124.7 2710.6 3030.14 0 1 0
374 1 2547.75 1475.55 2603.18 0 0 0
375 1 3473.37 1161.93 2212.24 0 0 -1
376 1 2865.62 2767.18 2507.34 0 1 0
377 1 3598.83 2482.96 2219.91 0 0 0
378 1 2189.22 1550.72 3222.3 0 1 -1
379 1 3229.54 2592.97 2035 -1 -1 0
380 1 2707.65 1902.92 1625.06 -1 0 0
381 1 2081.67 2580.52 3493.23 0 0 -1
382 1 3655.01 3157.32 2999.71 -1 -1 0
383 1 2904.7 2177.44 2231.25 -1 0 0
384 1 3095.21 3009.09 2286.58 0 -1 0
385 1 3388.43 2917.34 2202.82 0 0 0
386 1 3101.47 3347.46 2674.53 -1 0 0
387 1 3404.43 2261.01 2974.43 -1 0 -1
388 1 1049.52 2935.86 3181.33 0 0 -1
389 1 2397.67 2527.89 1265.08 0 0 0
390 1 1131.18 2772.91 1065.52 0 -1 0
391 1 2346.96 1534.47 1282.89 0 0 0
392 1 1471.73 2598.74 3368.96 -1 -1 -1
393 1 2660.95 2367.08 2849.73 0 0 1
394 1 1525.4 1885.38 3620.61 1 0 -1
395 1 2426.51 2417.63 1719.1 0 -1 -1
396 1 1172.53 3041.21 2647.91 1 0 0
397 1 2996.47 3055.01 1142.43 -1 0 0
398 1 1998.63 2383.34 3095.19 0 -1 0
399 1 1815 1277.13 3082.37 0 0 0
400 1 1960.15 2227.61 2899.01 -1 0 -1
401 1 2512.96 2427.18 2388.07 0 0 -1
402 1 2007.38 2603.86 3917.9 0 0 -2
403 1 1232.12 1777.51 3466.28 0 0 -1
404 1 2674.85 2797.86 1917.83 0 0 0
405 1 2804.73 3465.47 3038.9 -1 0 0
406 1 1821.34 3155.92 2130.81 0 -1 0
407 1 1435.87 3243.19 3222.95 -1 -1 0
408 1 3849.92 2338.25 3213.77 0 0 -1
409 1 3582.17 2795.79 2614.23 0 -1 -1
410 1 2658.98 2062.43 2387.67 0 0 -1
411 1 1849.04 1722.77 1633 0 0 0
412 1 2329.3 3418.57 3079.25 0 0 0
413 1 1212.68 2792.26 3144.71 0 0 -1
414 1 1669.83 3095.83 3056.03 0 -1 -1
415 1 1719.82 2298.62 2990.27 0 0 -1
416 1 2740.62 2797.32 1153.25 0 0 0
417 1 1326.64 1808.53 2359.96 -1 0 -1
418 1 3829.08 3370.45 1692.01 -1 0 1
419 1 1997.46 2613.22 2552.25 0 0 0
420 1 3609.89 3095.76 2242.07 -2 -1 -1
421 1 3132.99 2568.1 1293.08 -1 0 0
422 1 1245.86 3373.07 1502.33 0 -1 0
423 1 3467.11 2893.26 1196.1 0 -1 0
424 1 1651.28 3094.44 3671.98 0 -1 -1
425 1 2286.8 3112.3 3788.98 0 0 -1
426 1 3099.89 2681.5 2992.01 -1 0 -1
427 1 3578.45 2160.21 2077.08 -1 -1 0
428 1 2256.05 3273.17 2638.1 0 -1 -1
429 1 3202.42 2977.63 2047.29 -1 0 0
430 1 1733.52 1441.07 2068.07 0 -1 0
431 1 2702.36 2314.5 1101.94 0 0 0
432 1 1582.56 3099.12 2103.38 0 -1 0
433 1 2027.97 2815.89 2464.62 -1 -1 -1
434 1 3547.38 2863.1 2377.67 -1 0 0
435 1 3110.54 1721.74 3434.62 -1 0 0
436 1 3217.27 2869.65 1126.48 -1 0 0
437 1 2919.64 2020.42 1639.68 0 1 0
438 1 3890.09 2506.18 2782.97 -1 -1 -1
439 1 3084.84 2320.95 1405.57 0 0 0
440 1 3423.53 1604.59 3516.93 -1 0 -1
441 1 2937.76 1431.39 3591.82 -1 0 -1
442 1 1398.76 2623.84 3005.47 0 0 0
443 1 3471.84 2541.24 3474.17 0 -1 0
444 1 3061.57 2775.21 1675.95 -2 0 0
445 1 2355.19 3291.42 2619.09 0 -1 0
446 1 3293.72 1540.88 3755.16 -1 0 -1
447 1 2749.87 2868.77 2696.83 0 0 0
448 1 1677.62 2870.94 2117.54 -1 -1 0
449 1 2116.74 2440.83 1327.26 -1 0 0
450 1 1583.75 2377.91 3550.25 0 0 -1
451 1 1640.54 2920 2903.23 0 -1 -1
452 1 1888.03 1973.98 3487.86 0 0 0
453 1 3546.57 3522.86 2313.51 -1 0 0
454 1 1579.63 2002.08 2049.62 0 0 -1
455 1 2854.82 2657.28 3633.16 -1 0 -1
456 1 3281.27 1264.29 1116.04 0 1 0
457 1 2493.12 2957.21 2372.97 0 -1 -1
458 1 1517.96 1931.08 3329.76 0 1 -1
459 1 1735.78 2409.12 1972.27 0 -1 -1
460 1 3608.14 2471.68 2608.93 -1 -1 0
461 1 3085.46 2901.19 2503.78 0 -1 0
462 1 3327.49 2969.63 2657.54 -1 0 -1
463 1 3780.69 1697.68 3314.83 -1 0 -1
464 1 2819.08 2717.24 2781.67 0 0 0
465 1 1115.39 2900 2412.35 1 0 -2
466 1 2985.8 3343.13 2862.89 -1 -1 0
467 1 2838.34 2659.03 1321.01 0 1 0
468 1 3643.61 3052.15 1210.08 0 -1 1
469 1 3187.69 2543.82 2763.04 0 -1 -1
470 1 3177.42 3397.38 1354.55 -1 -1 -1
471 1 3186.87 2781.52 2194.15 0 0 0
472 1 2941.19 3288.09 1201.57 0 -1 0
473 1 1087.83 2316.11 3430.92 1 -1 0
474 1 3304.1 2239.6 3121.76 -2 -1 -1
475 1 3108.71 2534.49 1640.34 0 -1 0
476 1 3179.02 3886.41 1746.88 -1 -1 0
477 1 3626.11 2218.16 1580.35 0 -1 -1
478 1 2704.87 2480.78 1577.4 -1 -1 0
479 1 2703.88 1184.76 2138.94 0 0 -1
480 1 3724.52 2051.33 2429.51 -1 0 0
481 1 3267.17 1269.07 1064.35 0 1 1
482 1 2777.09 1555.45 3158.56 0 -1 -1
483 1 3343.45 2012.2 3079.92 -1 1 0
484 1 2986.17 3247.6 2228.52 -1 -1 0
485 1 2240.79 3541.64 2687.97 -1 -1 -1
486 1 3867.29 3260.16 1274.89 -1 -1 0
487 1 2897.04 2329.26 2936.28 -1 0 -1
488 1 1855.53 1247.47 2504.32 0 0 0
489 1 3559.31 2791.64 1835.72 -1 0 0
490 1 3333.69 2340.33 3384.4 -1 0 -1
491 1 2760.89 2922.37 2895.6 0 0 -1
492 1 3066.25 2566.62 3915.75 0 -1 0
493 1 2905.05 2425.44 2323.69 -1 0 0
494 1 2196.42 2321.97 3537.75 1 -1 0
495 1 3380.73 3042.31 1891.65 0 -1 0
496 1 3153.68 2685.02 2992.57 1 0 0
497 1 2721.47 3849.77 2747.96 -1 -1 0
498 1 2857.42 3311.03 2649.96 0 -1 0
499 1 2173.33 2508.68 1303.43 -1 0 -1
500 1 2870.48 3464.44 2182.44 0 -1 -1
501 1 2458.03 2902.85 2610.08 -1 0 -1
502 1 1263.14 3328.48 3270.85 -1 0 0
503 1 2477.86 2448.09 3115.83 0 0 0
504 1 2034.18 2646.92 2531.89 0 0 0
505 1 1737.54 2465.41 3791.96 -1 0 -1
506 1 1132.93 1850.91 1966.18 -1 0 0
507 1 3737.91 1669.21 3331.14 -1 0 -1
508 1 1454.62 1285.54 1500.35 0 0 -1
509 1 1471.79 1354.8 2529.83 0 0 0
510 1 2827.6 2231.56 2710.37 -1 -1 -1
511 1 3860.11 3427.32 2439.99 0 0 -1
512 1 1338.94 3464.33 3652.56 0 -1 -1
513 1 3387.37 2509.63 1629.11 0 -1 0
514 1 2999.06 2011.03 2093.33 -2 0 1
515 1 2474.71 1915.32 2397.96 -1 0 -1
516 1 2542.83 3832.19 2846.62 -1 -1 0
517 1 3331.11 3298.81 3659.05 0 -1 -1
518 1 1832.13 3122.62 2879.35 0 0 -1
519 1 2769.74 2661.48 2319.9 0 0 0
520 1 3398.13 3060.31 1186.76 -1 0 0
521 1 2515.67 2310.14 1219.8 -1 0 1
522 1 2470.1 2668.42 1921.36 -1 0 0
523 1 3364.14 3252.52 1346.99 0 0 0
524 1 2730.14 2357.09 2496.65 -1 -1 0
525 1 3428.21 1865.35 3290.24 0 0 -1
526 1 1752.04 2250.84 2749 0 0 0
527 1 1048.72 1968.73 3145.62 0 -1 -1
528 1 3585.48 2374.78 2008.03 0 1 0
529 1 2497.31 2681.87 1097.2 -1 -1 0
530 1 1564.24 2872.43 2668.04 0 0 0
531 1 1878.62 3863.15 1449.58 0 -1 0
532 1 3568.26 2669.57 1613.97 -1 0 0
533 1 3434.13 1178.76 2179.29 -1 0 -1
534 1 2230.29 1052.91 3104.86 0 0 -1
535 1 2797.47 3786.62 2476.58 -1 -2 0
536 1 2095.72 2593.42 1819.33 -1 0 0
537 1 2865.17 3319.78 1983.31 -1 -1 0
538 1 1618.07 1690.95 3489.42 0 0 -1
539 1 3450.16 2382.55 2794.12 -2 0 -1
540 1 2965.7 3580.78 2391.05 0 0 0
541 1 2480.97 3242.87 3116.24 0 0 -1
542 1 2264.89 2902.73 2362.68 0 -1 0
543 1 2144.92 2824.15 2724.06 0 0 -1
544 1 3330.87 1533.04 3302.12 -1 1 -1
545 1 2044.3 3054.98 2894.43 -1 0 -1
546 1 3653.25 1401.29 1318.37 -1 0 0
547 1 2474.03 2200.75 2306.62 0 -1 0
548 1 1454.96 1609.54 3312.89 0 0 0
549 1 2816.88 2512.28 3643.86 0 0 0
550 1 1808.66 2042.96 1240.17 0 0 0
551 1 2245.6 2831.11 1343.38 0 -1 0
552 1 2782.33 3812.93 3813.68 0 -1 -1
553 1 3152.87 2752.92 3819.08 -1 0 -1
554 1 2181.25 2393.67 2704.01 0 0 0
555 1 1760.48 2216.63 3488.74 0 0 0
556 1 2580.82 3249.42 2556.55 0 0 -1
557 1 2816.3 2724.75 2098.21 -1 0 0
558 1 2570.77 3736.76 2596.44 -1 0 -1
559 1 2565.74 3472.03 3119.39 -1 0 0
560 1 1511.63 2988.88 1053.49 0 0 0
561 1 3674.05 2286.1 2457.83 -1 -1 -1
562 1 1686.34 3696.28 3838.56 0 0 -1
563 1 3843.4 2510.95 3078.58 -1 0 0
564 1 2630.69 2864.76 3706.6 0 1 -1
565 1 3747.42 2743.95 3700.94 0 0 -1
566 1 3748.13 2025.5 2963.65 -1 0 1
567 1 2570.54 1298.46 3058.05 0 0 0
568 1 3339.22 3207.08 2572.85 -1 -1 -1
569 1 2835.04 2022.96 3408.82 0 0 0
570 1 1330.01 3199.53 2751.33 0 -1 0
571 1 3201.24 3029.33 1320.88 -1 -1 0
572 1 2582.63 2923.24 2844.17 -1 -1 0
573 1 2023.87 2182.72 3459.3 1 0 -1
574 1 3249.53 3537.78 3806.66 -1 0 0
575 1 1491.17 2348.42 3282.4 0 0 0
576 1 3728.61 2055.81 3003.75 0 -1 -1
577 1 3609.21 2652.15 2411.18 -1 -1 -1
578 1 1109.33 2702.28 2276.48 1 0 1
579 1 3178.38 3766.48 2580.89 0 0 -1
580 1 2278.96 2855.16 2383.88 0 1 1
581 1 1424.15 2100.99 2420.61 -1 0 0
582 1 3377.95 3474.58 2149.25 0 -1 0
583 1 2534.48 2389.91 2355.59 0 0 0
584 1 3668.44 3309.3 2277.04 0 0 1
585 1 3368.65 3528.99 3577.24 -1 -1 -1
586 1 3267.94 1916.33 3857.16 -1 -1 -2
587 1 1082.37 1967.74 2720.52 1 0 -1
588 1 1614.8 2324.43 1580.18 0 0 0
589 1 3074.1 3385.29 3852.87 1 -1 0
590 1 3720.77 2877.97 1590.15 -1 -1 1
591 1 1945.72 1476.04 3466.02 -1 -1 -1
592 1 1525.37 2189.66 2933.27 0 0 0
593 1 1269.5 1976.59 3271.44 0 0 0
594 1 1847.83 3439.08 3202.29 -1 1 0
595 1 3182.31 1092.69 3282.34 -1 0 -1
596 1 3096.85 2371.68 1420.26 1 0 0
597 1 2816.74 2619.97 3642.74 0 0 0
598 1 3230.4 3626.41 1320.74 0 -1 0
599 1 2135.75 3811.13 2660.3 -1 -1 0
600 1 3222.52 1837.7 2971.18 -1 0 -1
601 2 3915.91 2241.51 1427.73 -1 0 0
602 2 1451.51 1595.19 2096.41 1 0 0
603 2 3346.52 3630.57 1868.13 -1 0 1
604 2 3474 3398.88 3086.95 0 -1 0
605 2 1174.38 1121.48 3712.18 0 0 0
606 2 1108.45 2615.64 1955.8 1 0 0
607 2 1844.41 2683.32 1863.26 0 0 0
608 2 2945.37 3568.58 2636.01 0 -1 0
609 2 3218.07 1947.9 2290.11 0 0 0
610 2 2730.43 3256.94 3288.54 0 0 0
611 2 1270.61 3227.15 1213.89 0 0 1
612 2 2459.43 3847.25 2030.92 0 -1 0
613 2 1651.93 2606.38 2800.49 0 0 -1
614 2 2670.85 1713.49 2550 0 0 0
615 2 1144.03 2836.51 3627.82 0 0 0
616 2 3808.77 3773.98 1132.43 0 0 0
617 2 1270.68 3165.71 1969.33 0 -1 0
618 2 2442.03 3758.56 3225.98 0 0 0
619 2 2930.47 1739.51 2828.4 0 1 0
620 2 3861.53 3748.2 2424.78 -1 0 0
621 2 1056.88 3786.34 3052.55 0 0 -1
622 2 2116.23 3841.65 1206.12 0 0 0
623 2 2120.93 2591.38 3548.25 0 0 -1
624 2 1071.05 2243.61 2913.12 0 0 -1
625 2 2797.86 1526.59 3818.43 0 0 0
626 2 1299 3504.67 2998.18 1 0 -1
627 2 1644.67 1107.29 2697.65 0 1 0
628 2 3610.67 2618.46 2866.3 -1 0 0
629 2 2081.23 1626.6 2107.82 0 0 0
630 2 2551.8 1252.94 1818.79 0 1 0
631 2 3594.04 1369.34 3352.52 0 1 0
632 2 1902.27 3406.54 1610.95 0 -1 0
633 2 1257.64 3418.02 2291.19 0 -1 0
634 2 3428.61 2846.58 3107.13 -1 0 0
635 2 1213.86 1233.36 2057.45 0 0 0
636 2 3014.33 1413.35 3252.64 -1 0 0
637 2 1295.5 1936.09 2912.47 1 0 -1
638 2 1176.28 1545.22 1845.19 0 0 0
639 2 3543.54 3137.77 3758.74 0 0 0
640 2 2758.34 3919.34 3016.19 0 0 0
641 2 2216.42 1613.07 2727.94 0 0 0
642 2 2567.95 3368.82 1602.02 0 -1 0
643 2 1222.65 1087.7 2388.69 0 0 0
644 2 3855.99 2587.75 1436.87 -1 0 1
645 2 2601.25 3503.62 2003.73 0 -1 0
646 2 2004.17 3389.29 1980.69 0 -1 0
647 2 1876.71 1803.39 3748.89 0 0 0
648 2 2573.53 2754.99 3056.5 0 0 0
649 2 3501.12 1762.34 1085.71 -1 0 0
650 2 3540.93 2153.99 2134 0 0 0
651 2 3726.25 1735.17 1780.36 -1 0 0
652 2 1214.53 1200.61 1680.88 0 0 0
653 2 3189.65 2496.78 3598.2 0 0 -1
654 2 2500.08 3705.76 3889.19 0 -1 -1
655 2 2575.6 1546.65 2865.37 0 0 0
656 2 2906.47 1357.33 2895.41 0 0 0
657 2 3460.91 1632.84 2996.65 -1 0 -1
658 2 2670.61 1999.67 2903.21 -1 0 -1
659 2 1093.82 1649.1 2778.81 1 0 0
660 2 2331.39 2137.7 1533.37 0 0 0
661 2 2705.72 1143.68 1498.51 0 0 0
662 2 1486.9 1388.06 1177.83 0 0 0
663 2 1442.03 3153.18 2452.24 0 -1 0
664 2 2657.41 3477.76 3612.63 0 0 -1
665 2 2414.76 2286.64 1969.29 0 0 0
666 2 2622.41 3732.81 1717.03 0 -1 0
667 2 3065.51 1080.16 1441.06 0 0 0
668 2 1466.58 2205.15 1836.64 0 0 0
669 2 3627.89 2233.48 3429.92 -1 0 0
670 2 1869.04 1287.49 3123.11 0 0 -1
671 2 3001.37 1329.13 1163.62 0 0 1
672 2 1468.44 2589.43 1944.91 0 0 0
673 2 2133.92 2183.47 2338.06 0 0 0
674 2 3810.59 1086 1869.46 -1 0 0
675 2 3301.99 3061.66 3429.54 -1 0 0
676 2 2645.46 1468.78 1282.78 0 0 0
677 2 1659.16 3308.67 1849.29 0 -1 0
678 2 3634.25 3202.73 1472.51 -1 -1 0
679 2 1631.83 3394.2 3634.72 0 0 0
680 2 3503.57 1489.84 1924.01 -1 0 0
681 2 2109.04 3598.94 3161.47 0 0 0
682 2 3148.21 2250.09 2057.66 0 0 0
683 2 2316.75 3253.57 2661.38 0 -1 0
684 2 1384.83 3537.96 1969.89 0 -1 0
685 2 1447.41 3709.52 3600.07 0 0 -1
686 2 1438.08 2400.9 1293.28 0 0 0
687 2 2534.59 3137.64 3558.21 -1 -1 0
688 2 3264.72 3465.81 2431.1 -1 -1 0
689 2 1824.97 3696.83 3485.39 0 -1 0
690 2 3756.6 3441.49 3887.71 0 1 -1
691 2 2659.83 2174.08 1722.98 -1 0 0
692 2 1691.32 1060.94 3222.03 0 0 -1
693 2 3633.37 3762.68 2104.81 -1 -1 0
694 2 1309.47 2899.03 2840.87 0 0 0
695 2 2858.49 1792.61 1856.02 0 0 0
696 2 2296.86 1143.69 3374.61 0 1 0
697 2 1435.73 1640.27 2602.24 0 0 0
698 2 1492.54 2364.48 2530.7 1 0 0
699 2 2446.54 1108.67 1209.6 0 0 0
700 2 1094.25 2446.32 1152.77 0 0 0
701 2 3943.04 3143.23 2808.93 0 -1 -1
702 2 1303.99 2439.77 2251.22 0 0 0
703 2 1588.79 3615.62 1672.55 0 0 0
704 2 1962.1 3513.47 2324.2 0 -1 0
705 2 1650.75 1459.26 3052.41 0 0 -1
706 2 1432.94 2641.09 3929.61 0 0 0
707 2 1419.6 3480.54 2640.51 0 -1 0
708 2 1317.94 2687.32 2519.58 1 0 0
709 2 1307.07 1082.93 3363.22 0 0 0
710 2 2894.23 1178.24 3757.7 0 0 -1
711 2 1570.35 3333.57 1424.55 0 -1 0
712 2 1867.25 2815.31 3496.41 0 0 -1
713 2 2244.6 2416.63 2693.1 0 0 -1
714 2 3181.5 1517.28 2122.99 -1 0 0
715 2 2618.81 2061.96 1347.41 0 0 0
716 2 2139.61 3244.89 1118.35 0 0 0
717 2 3475.7 1075.68 3817.71 -1 0 -1
718 2 2787.73 2377.91 1990.15 -1 0 0
719 2 1517.43 1356.62 1811.28 0 0 0
720 2 1081.79 1548.63 3832 0 0 -1
721 2 3800.22 2390.04 1744.18 0 0 0
722 2 3917.47 3428.18 1945.23 -1 -1 0
723 2 2828.79 3553.84 3951.25 0 0 -1
724 2 3473.07 3742.6 2518 0 -1 0
725 2 1928.96 3901.28 2938.86 0 -1 -1
726 2 2041.55 1936.67 1406.3 0 0 0
727 2 3661.89 2385.68 1196.92 -1 0 0
728 2 2082.88 1846.8 2412.75 0 0 0
729 2 3261.19 1162.92 2480.35 -1 0 0
730 2 3286.51 3133.59 1592.97 -1 -1 0
731 2 2129.88 2881.84 3913.15 0 0 0
732 2 3786.23 1231.62 3940.57 -1 0 -1
733 2 2012.27 1198.13 1520.12 0 1 0
734 2 1292.55 2039.86 2105.43 0 0 0
735 2 2273.55 1287.24 2499.67 0 0 0
736 2 1970.95 3784.82 1720.65 0 -1 0
737 2 1865.94 3027.9 1735.58 -1 0 0
738 2 3729.15 3006.97 3467.42 0 0 0
739 2 2020.7 3393.91 3457.34 0 0 0
740 2 3198.16 1284.66 1847.16 0 0 0
741 2 2771.92 1675.33 3408.61 -1 1 0
742 2 2528.51 1788.54 1063.69 0 0 0
743 2 3908.18 1763.38 2431.02 -1 0 0
744 2 2664.87 2027.43 2040.09 0 0 0
745 2 1942.93 3498.56 3793.75 0 0 -1
746 2 1918.52 2716.55 1280.92 0 0 0
747 2 3001.73 3313.76 3517.03 0 0 -1
748 2 2381.48 1335.76 1510.76 0 0 0
749 2 1989.27 1692.76 2965.47 0 0 0
750 2 1195.34 1456.5 2367.6 0 0 0
751 2 3901.88 2819.09 2675.6 0 0 -1
752 2 3455.07 1085.08 2808.75 0 1 0
753 2 1162.32 2111.17 1761.25 0 0 0
754 2 2963.64 2267.81 3777.89 -1 0 0
755 2 2184.34 1776.91 3371.73 0 0 0
756 2 2671.59 3492.65 2365.15 0 -1 0
757 2 2296.99 1940.04 2156.55 0 0 0
758 2 3638.28 3684.59 2899.59 -1 -1 0
759 2 2891.23 1084.58 1816.78 0 0 0
760 2 2463.47 2754.91 3418.07 0 0 -1
761 2 1700.25 3625.07 1246.89 0 -1 0
762 2 1762.22 1736.67 1949.74 0 0 0
763 2 1309.6 1734.21 1178.41 0 0 0
764 2 2283.35 3197.19 1791.23 0 -1 0
765 2 1604.03 2234.07 2199.38 0 0 0
766 2 3684.07 1673.13 1377.38 -1 0 0
767 2 2312.62 1518.65 1827.2 0 1 0
768 2 1550.96 1241.35 2202.46 0 0 0
769 2 1451.01 3888.16 1895.73 0 -1 0
770 2 1113.22 2159.66 2426.29 1 -1 0
771 2 1216.25 3034.14 3366.29 1 0 -1
772 2 1622.42 1863.52 2304.48 0 0 0
773 2 3307.19 1309.46 1102.25 -1 0 1
774 2 1418.68 3520.79 3905.16 0 -1 -1
775 2 3821.06 3904.24 1514.94 -1 -1 0
776 2 3154.2 3061.27 3725.71 -1 0 -1
777 2 3718.58 2722.85 1104.92 -1 0 0
778 2 1776.16 1962.38 2965.14 0 0 -1
779 2 3124.47 1682.77 1056.58 -1 0 0
780 2 3356.08 2592.42 1071.07 -1 0 0
781 2 3526.37 1089.79 1284.65 -1 0 0
782 2 2508.7 1905.63 3329.38 0 0 0
783 2 1541.69 3530.19 3289.02 0 -1 -1
784 2 1214.93 1309.75 2687.52 0 0 -1
785 2 3428 3484.25 1532.37 -1 -1 0
786 2 1370.87 1565.95 1524.23 1 0 0
787 2 2579.05 3011.71 1662.33 0 0 0
788 2 2320.71 1796.52 3039.12 0 0 0
789 2 1243.29 1893.94 3758.65 0 0 -1
790 2 3814.92 1560.47 2164.31 -1 0 0
791 2 3652.48 1079.37 3126.57 0 0 -1
792 2 1742.54 2484.99 3857.3 0 0 -1
793 2 1693.92 1296.2 3788.57 0 0 0
794 2 3453.96 1453.4 2695.7 -1 0 0
795 2 1645.35 3371.72 2924.89 0 0 0
796 2 1274.89 2499.44 3554.99 0 0 -1
797 2 3469.71 3924.16 3426.53 -1 -1 -1
798 2 1595.12 3755.36 2925.31 0 0 0
799 2 3568.32 1885.55 3519.56 -1 1 -1
800 2 3584.94 3315.57 3448.49 -1 0 -1
801 2 2096.92 2054.7 3125.04 0 0 0
802 2 1418.68 1166.98 2992.44 0 1 0
803 2 2567.57 3672.9 1347.19 0 -1 0
804 2 2497.85 2996.56 2032.07 0 -1 0
805 2 2033.14 1259.72 2209.87 0 0 0
806 2 3867.08 3077.75 1748.92 -1 -1 0
807 2 3639.46 3667.43 3648.1 -1 0 -1
808 2 3146.51 2200.23 1651.74 -1 0 0
809 2 3745.17 1393.46 2915.61 0 0 0
810 2 2430.25 1428.04 3887.53 0 0 -1
811 2 1279.3 1436.36 3511.63 1 0 0
812 2 2638.05 1337.15 3529.06 0 0 -1
813 2 2272.27 1347.42 2967.56 0 0 0
814 2 1555.79 2923.43 1808.37 0 0 0