ITEM: TIMESTEP
278000
ITEM: NUMBER OF ATOMS
1000
ITEM: BOX BOUNDS pp pp pp
1.7536768289185056e+03 3.2463231710809587e+03
1.7536768289185056e+03 3.2463231710809587e+03
1.7536768289185056e+03 3.2463231710809587e+03
ITEM: ATOMS id type x y z ix iy iz
1 1 2685.07 2470.85 1834.58 -1 0 1
2 1 2231.09 1773.3 2581.42 0 0 0
3 1 3001.99 2551.67 2277.18 0 0 0
4 1 2338.27 1978.01 2986.53 0 -1 0
5 1 3087.85 2816.13 2633.03 -1 -1 1
6 1 2136.29 2021.25 3086.1 0 0 0
7 1 1966.79 2845.23 2735.81 0 -1 0
8 1 2291.9 2012.16 2483.08 0 0 1
9 1 2824.18 2853.52 2480.65 0 0 0
10 1 2733.99 2506.36 2592.93 0 0 0
11 1 2631.89 2263.98 2569.18 0 0 0
12 1 1818.32 2953.07 3203.21 0 0 0
13 1 2916.64 3152.38 3122.47 -1 0 -1
14 1 2317.65 2643.02 2747.46 0 0 -1
15 1 2972.08 2319.13 2213.17 0 0 0
16 1 2298.15 3240.93 2470.38 0 0 -1
17 1 2457.6 2763.95 2773.98 1 0 -1
18 1 2894.17 2399.54 2467.51 -1 1 0
19 1 2750.39 2100.96 2026.15 -1 0 0
20 1 1842.47 2855.07 2812.5 0 -1 0
21 1 2180.99 2506.97 2547.73 0 1 0
22 1 2613.75 2824.36 2662.3 2 -1 0
23 1 2749.9 2275.41 2629.7 0 0 1
24 1 2811.98 3059.87 2284.35 0 0 0
25 1 2011.57 2124.38 2700.36 -1 0 0
26 1 2787.83 2853.67 2787.41 0 0 0
27 1 2892.7 2431.85 2720.24 -1 0 1
28 1 2196.08 2468.52 2430.29 0 0 0
29 1 2546.25 2347.14 2603.03 0 0 -1
30 1 2699.37 3101.41 2757.16 0 0 0
31 1 1830.9 1953.28 2771.14 0 0 0
32 1 1939.35 2910.47 2992.2 0 0 -1
33 1 2299.27 2427.69 2916.66 0 0 0
34 1 2467.03 1770.29 2758.32 0 0 0
35 1 2177.63 2292.19 2427.99 0 0 -1
36 1 1873.17 2721.92 1807.93 0 -1 0
37 1 2053.01 2065.49 2095.13 0 0 0
38 1 2310.07 2824.4 2290.99 0 0 0
39 1 2972.11 2425.85 2758.78 -2 0 -1
40 1 2908 2483.41 2163.24 -1 -1 2
41 1 2128.09 2791.52 2072.04 0 0 -1
42 1 2781.72 2635.43 2209.29 0 -1 0
43 1 2456.84 2557.22 2194.7 0 -2 0
44 1 2827.83 3080.96 2001.66 0 -1 0
45 1 2474.06 2379.17 2704.19 0 0 0
46 1 2776.47 3169.26 2855.45 -1 -1 0
47 1 3075.33 2983.95 2301.79 -1 -1 -1
48 1 2968.38 2214.74 2701.42 0 0 -1
49 1 2768.93 2537.69 2334.35 -1 0 1
50 1 2866.31 1975.56 3029.54 -1 0 0
51 1 3021.89 1823.71 2307.98 -1 -1 1
52 1 3232.52 2526.24 3146.85 -1 0 -1
53 1 2897.32 2127.43 3082.14 -2 0 -1
54 1 3023.4 2339.42 2829.27 0 0 -1
55 1 2854.35 2854.79 2814.52 -2 0 -1
56 1 2906.22 2268.44 1949.25 0 0 0
57 1 2140.13 2516.4 3150.58 0 0 -1
58 1 2476.87 2586.14 3143.45 0 0 -1
59 1 2597.94 3074.92 2692.59 -1 -1 0
60 1 2179.01 2940.11 1888.72 -1 -1 1
61 1 2057.67 2708.91 2467.4 -1 0 0
62 1 2561.55 1797.08 2917.3 0 0 -1
63 1 2959.08 2295.87 2926.51 -1 0 0
64 1 2758.1 2590.47 2976.63 0 -1 -1
65 1 2977.53 2876.38 2668.66 -1 -1 -1
66 1 3009.58 2786.57 2521.25 -1 0 1
67 1 2495.55 2451.1 1961.87 0 0 0
68 1 2331.5 2816.39 3044.41 0 -1 -1
69 1 1826.79 2557 2718.46 0 0 0
70 1 1965.43 1839.16 3079.84 0 1 -1
71 1 2125.91 2634.57 2527.24 -1 0 -1
72 1 2669.31 2187.43 3224.11 0 0 -1
73 1 2606.99 1873.88 1765.23 0 1 1
74 1 2936.33 2657.34 2243.51 -1 0 -1
75 1 2138.04 2482.34 1942.03 0 0 1
76 1 1902.11 1949.28 2868.28 -1 0 0
77 1 2578.19 2490.45 3058.27 -1 -1 -1
78 1 1927.89 3216.25 2024.14 0 -1 0
79 1 2183.01 2387.18 2518.6 0 -1 0
80 1 2962.35 2428.33 2468.55 -1 0 0
81 1 3226.44 2031.74 2037.92 -1 0 0
82 1 2061.99 2302.01 3098.66 1 0 0
83 1 2484.44 2159.5 2651.45 -1 -1 -1
84 1 2126.86 3221.04 3140 1 0 -1
85 1 2501.23 2424.65 2459.22 0 -1 0
86 1 3112.46 2411.27 2762.25 -1 0 0
87 1 1968.97 2123.33 2815.43 0 -1 -1
88 1 1839.71 2702.96 2152.72 0 -1 0
89 1 2772.36 2751.19 1987.4 0 0 0
90 1 3151.46 3022.24 2364.48 -2 -1 0
91 1 1917.71 3149.26 2846.71 0 -1 -1
92 1 2120.41 2735.82 2489.77 0 -1 -1
93 1 2290.24 3099.48 2675.5 1 0 0
94 1 2302.49 2234.63 3096.64 0 0 -1
95 1 1985.49 2448.25 2782.49 -1 -1 -1
96 1 2709.12 2469.48 2096.92 -1 0 0
97 1 2344.65 2431.15 2140.4 0 -1 1
98 1 2654.06 2192.45 2869.38 -1 -1 0
99 1 2471.12 2784.66 2891.3 0 -1 -1
100 1 2688.56 2116.51 1834.44 -1 0 0
101 1 1826.69 2819.79 2394.3 0 -1 0
102 1 2319.15 1789.18 2639.08 -1 0 0
103 1 2796.24 2507.74 2177.67 -1 0 0
104 1 3166.9 2658.92 2450.22 0 -1 -1
105 1 3120.35 2946.82 2712.24 -1 0 0
106 1 3161.34 2108.78 2765.82 0 1 -1
107 1 2709.13 2250.62 2457.08 -1 -2 0
108 1 3077.15 2995.78 1885.6 -1 0 -1
109 1 2306.25 2526.04 2429.04 -1 -1 0
110 1 2705.36 2695.99 1879.48 0 -1 0
111 1 3155.98 1754.03 3160.47 -1 0 -1
112 1 2621.84 1900.52 2885.6 0 0 0
113 1 2408.46 2683.74 2861.31 0 0 -1
114 1 2672.8 2432.58 2844.32 -1 0 0
115 1 2310.97 2636.5 2925.01 0 0 -1
116 1 2787.45 2439.93 2815.39 0 0 0
117 1 2388.15 3189.34 2696.33 0 -1 -1
118 1 2199 2733.38 2323.49 -1 0 -1
119 1 3113.63 2869.93 2294.58 0 -1 0
120 1 2716.22 2354.13 1976.89 1 0 0
121 1 2970.78 3052.14 2936.94 -1 0 0
122 1 2735.08 2963.69 2470.83 0 0 -1
123 1 1933.92 1908.49 3175.95 -1 1 -1
124 1 2575.95 2515.21 1839.18 0 0 1
125 1 1936.36 2951.59 2090.99 0 -2 0
126 1 2263.43 3242.61 2902.2 0 0 -1
127 1 2717.95 2315.58 2193.12 -1 -1 0
128 1 2166.28 2325.75 3244.03 -1 0 0
129 1 2476.99 2447.71 2416.91 -1 0 0
130 1 3150.13 2607.94 2116.29 0 -1 0
131 1 2833.57 3013.44 1781.13 -1 -1 0
132 1 2593.34 2743.39 2908.5 0 -1 -1
133 1 2539.56 2423.4 2793.18 0 0 -1
134 1 2067.19 3055.78 2487.83 -1 -1 -1
135 1 2246.54 3189.01 3141.59 0 -1 -1
136 1 2876.05 2198.17 2987.93 -1 0 0
137 1 3012.42 2036.9 2072.27 -1 0 0
138 1 2707.37 2564.26 2026.22 0 -1 0
139 1 2877.94 2571.77 2151.16 -1 -1 -1
140 1 2853 2900.61 2712.75 -1 -1 -1
141 1 2798.59 2744.24 2158.31 -1 1 0
142 1 2451.65 2304.22 2797.57 0 1 -1
143 1 3003.31 2883.44 2312.72 -1 0 0
144 1 1819.68 2896.78 2551.85 -1 -1 0
145 1 2350.04 2288.41 2184.24 0 0 0
146 1 3114.44 2561.37 2224.28 -1 -1 0
147 1 1920.11 2484.86 2677.15 0 0 -1
148 1 2702.74 2664.21 2386.76 -1 -1 1
149 1 2912.14 2775.65 2710.88 0 0 0
150 1 2441.64 2576.25 2548.42 0 0 0
151 1 2542 2930.53 2710.69 0 -2 -1
152 1 3131.6 2607.15 2851.07 -1 -1 0
153 1 2827.51 2736.09 2799.79 -1 -1 -1
154 1 3059.08 2654.22 2320.09 -1 0 -1
155 1 2877.3 2396.88 2536.44 0 0 0
156 1 2130.6 2509.81 3019.03 0 0 -2
157 1 3216.09 2886.59 2364.5 0 0 -1
158 1 2689.05 2698.94 2123.13 -1 -1 0
159 1 2938.9 2624.21 2633.59 0 -1 0
160 1 2836.98 2044.64 2778.65 -1 0 0
161 1 2660.61 2688.11 1999.14 0 0 -1
162 1 2749.48 2146.86 2528.96 0 -1 0
163 1 2408.83 2568.53 2804.58 0 0 -1
164 1 3045.99 2457.45 2026.52 0 -1 -1
165 1 2317.58 2221.63 3165.77 0 0 -1
166 1 1787.79 2677.55 2055.45 0 0 -1
167 1 2629.07 2673.67 2377.83 0 -1 0
168 1 1991.84 2232.69 2882.06 0 0 0
169 1 2240.98 3081.84 1954.14 0 -1 -1
170 1 2881.56 2860.24 2382.09 0 -1 0
171 1 2761.9 2190.85 2942.73 -1 -1 -1
172 1 2594.54 2866.79 2193.99 0 -1 -1
173 1 2752.3 2406.03 2519.66 -1 0 -1
174 1 2803.9 1956.51 3172.79 -2 0 -1
175 1 3008.4 2918.92 1799.97 -1 -1 -1
176 1 2189.52 2166.73 2892.69 0 0 0
177 1 2763.52 3123.59 1876.91 -1 0 0
178 1 3106.83 2238.29 2753.54 -1 0 0
179 1 2037.6 2236.73 2939.02 -1 0 0
180 1 3068.27 2830.58 2888.41 0 0 -1
181 1 1885.39 2628.85 2964.64 0 -1 1
182 1 2800.1 3156.71 2237.74 0 -1 0
183 1 1806.72 2920 2101.49 0 -1 0
184 1 2860.47 2277.83 2656.57 0 -1 1
185 1 1877.24 2329.12 2612.53 0 0 -1
186 1 2964.31 2363.65 1986.41 -1 0 -1
187 1 3222.9 2634.31 2767.4 0 0 -1
188 1 2567.99 1777.08 3201.11 0 1 -1
189 1 3194.64 2162.97 3129.9 -1 0 -1
190 1 2576.26 2639.43 2488.11 -1 0 0
191 1 2810.61 1866.85 3034.83 0 0 0
192 1 3083.31 3115.61 1924.27 -1 -1 0
193 1 3146.21 2747.26 2850.13 -2 -1 0
194 1 2835.78 2202.07 2050.99 0 -1 -1
195 1 2214.18 2586.77 2728.1 -1 0 0
196 1 2412.47 2513.48 3216.63 0 0 -1
197 1 2236.82 2331.04 1840.78 -1 1 1
198 1 2766.57 3070.31 3130.06 -1 -1 0
199 1 2362.34 3043.4 1796.57 0 0 1
200 1 2152.54 2034.14 2902.96 0 0 -1
201 1 3070.99 2239.84 2899.65 -1 0 0
202 1 2571.78 2395.35 3139.55 -1 -1 -1
203 1 2990.06 2981.08 3157.18 -1 -1 0
204 1 2455.8 2372.53 2909.86 0 -1 -2
205 1 2908.34 2605.95 2961.76 -1 -1 0
206 1 3101.11 1841.44 3085.53 -1 0 0
207 1 2432.2 2709.32 3124.55 -1 -1 -1
208 1 2440.4 2261.99 2680.88 0 0 -1
209 1 2681.57 2650.16 2900.22 -1 -1 0
210 1 2974.37 2536.17 1931.91 0 -1 0
211 1 2782.45 2860.68 1937.45 -1 -1 0
212 1 2387.86 1762.44 2386.93 0 0 -1
213 1 2949.19 2660.58 2501.37 0 1 -1
214 1 2423.49 2826.24 2474.7 0 -1 0
215 1 1754.45 2883.29 1998.02 0 0 -1
216 1 2640.34 2365.3 3060.58 -1 0 -1
217 1 2859.49 2217.87 2166.68 -1 0 1
218 1 2217.72 2594.5 2062.5 0 0 0
219 1 2985.01 2872.94 2445.81 0 -1 0
220 1 2231.94 2445.83 3051.74 -1 0 -1
221 1 2910.73 1884.9 2960.39 -1 0 -1
222 1 2803.58 2238.19 1757.32 0 -1 1
223 1 2469.36 2462.96 3106.53 0 -1 -2
224 1 1852.91 3113.29 2496.1 0 -1 0
225 1 2757.41 3191.11 2454.42 0 -1 0
226 1 2735.86 2543.07 2843.52 0 -1 0
227 1 3126.81 2416.09 2642.05 -1 -1 -1
228 1 1791.85 3041.8 1801.95 0 0 1
229 1 2825.32 2150.95 2273.57 -1 -1 0
230 1 1837.37 2439.21 2586.99 0 0 -1
231 1 2157.23 2699.04 2436.05 -1 -1 0
232 1 2171.2 3173.17 3240.67 0 -1 -1
233 1 3128.09 2720.15 2722.34 -1 0 1
234 1 2074.91 1951.67 2563.29 0 -1 -1
235 1 2690.99 2371.45 1858.83 -1 -1 0
236 1 2509.04 2547.74 2185.6 -1 0 0
237 1 2963.33 2524.96 2882.7 0 -1 0
238 1 2911.76 2775.54 2464.64 0 -1 0
239 1 2688.63 2571.56 2146.93 -1 -1 0
240 1 2213.78 2549.55 2552.74 1 0 -1
241 1 2670.47 3163.14 1982.36 0 -1 0
242 1 2615.94 2130.33 1934.93 0 -2 0
243 1 2002.47 3216.95 1907.54 0 -1 0
244 1 2898.89 2570.57 2732 0 -1 -1
245 1 3054.05 1814.96 2515.07 -1 0 0
246 1 2837.49 2001.59 2658.22 0 -1 0
247 1 2441.47 3198.86 2591.21 0 -1 0
248 1 3047.52 2760.48 2104.28 -1 -1 0
249 1 3050.2 2617.91 2957.04 0 0 0
250 1 3205.51 1913.02 3083.6 -1 0 -1
251 1 2962.9 2668.23 2076.51 0 -1 0
252 1 2862.2 1874.46 2652.86 -1 0 0
253 1 1904.83 2630.29 2097.68 1 0 0
254 1 3157.12 2299.75 2584.1 -1 0 -1
255 1 2786.91 2046.95 3102.28 -1 0 -1
256 1 2432.53 2424.9 2788.62 -1 0 0
257 1 2819.75 2966.3 2039.3 -1 -1 0
258 1 2562.53 2119 2832.06 0 0 -1
259 1 2610.24 2153.15 3130.51 -1 0 -1
260 1 2616.05 2534.48 2907.97 0 0 0
261 1 1813.41 2119.1 2332.59 0 0 0
262 1 3023.09 2522.96 2144.24 -1 0 -1
263 1 2573.75 2790.19 2778.13 -1 0 -1
264 1 2273.74 2406.97 1947.7 0 0 -1
265 1 3162.65 2049.75 2893.88 -1 0 -1
266 1 2943.31 1898.12 3086.82 -1 0 -1
267 1 1806.25 2330.5 2877.69 0 0 -1
268 1 2234.15 2499.6 2551.22 0 -1 0
269 1 2780.04 1814.06 2826.97 -1 0 0
270 1 2344.78 2188.06 3133.46 0 0 -1
271 1 2096.14 2794.13 2397.6 0 -1 -1
272 1 2563.65 2419.64 2921.2 -1 0 -1
273 1 2189.88 2394.39 2893.43 0 0 -1
274 1 2356.15 2550.97 2931.22 1 -1 0
275 1 2850.68 2457.77 1955.92 -1 0 1
276 1 2758.96 2641.1 1779.63 -1 -1 0
277 1 2596.83 2609.19 2076.02 0 0 1
278 1 1776.89 1842.51 2745.47 0 0 -1
279 1 2359.04 2700.73 2463.9 0 -1 0
280 1 2456.51 2470.54 2985.77 -1 0 -1
281 1 2017.56 2827.22 2650.28 0 -1 0
282 1 2067.27 2342.77 2864.22 0 -1 0
283 1 2344.3 3127.71 3189.61 0 -1 -1
284 1 2190.46 2311.92 3091.05 0 0 -1
285 1 3234.27 2690.48 2886.74 -1 0 -1
286 1 2849.62 2129.48 2858.8 -1 1 0
287 1 2756.01 2066.01 1908.19 0 0 0
288 1 2354.81 2360.25 2699.83 1 0 0
289 1 2173.83 2680.02 2664.9 0 -1 0
290 1 2938.47 2485.37 2364.14 -1 -1 0
291 1 2290.77 2671.28 2445.76 -1 -1 0
292 1 3112.72 2282.41 2723.04 -1 0 -1
293 1 2614.78 2550.36 2548.14 0 0 1
294 1 2545.03 2629.94 2635.07 0 -1 -1
295 1 2009.61 3146.16 2539.73 0 -1 0
296 1 3100.02 2485.55 2866.02 0 0 0
297 1 2836.16 2337.47 2555.76 -1 0 0
298 1 2411.26 2424.74 2600.95 0 0 0
299 1 1874.24 2199.67 2542.09 1 0 0
300 1 2107.13 2438.93 3113.99 0 0 0
301 1 2384.15 2484.73 2547.07 -1 0 -1
302 1 3137 2026.17 1812.65 -1 0 0
303 1 2928.14 3168.77 1964.24 0 -1 0
304 1 2318.47 2747.92 3070.76 1 -1 -1
305 1 2417.52 1925.34 3078.83 0 0 -1
306 1 1847.48 3144.72 1795.26 0 -1 0
307 1 3016.32 2428.58 2076.45 -1 0 -1
308 1 1839.96 1885.65 1776.42 0 0 0
309 1 2636.25 2902.82 2343.98 0 0 -1
310 1 1917.83 2041.2 2719.59 0 0 -1
311 1 2194.55 2783.38 1803.15 0 -1 -1
312 1 2796.94 2355.84 2614.11 0 -1 1
313 1 2170.62 2102.9 2995.89 0 -1 -1
314 1 1923.28 2355.6 2826.56 1 0 0
315 1 1993.7 1928.95 2653.58 0 0 0
316 1 2846.7 2866.48 1828.19 -1 0 0
317 1 2229.06 2810.36 2595.38 1 0 -1
318 1 3208.84 3026.27 2774.69 0 -1 -1
319 1 2885.35 2207.87 1825.61 -1 0 0
320 1 2443.17 2656.81 2682.77 0 -1 0
321 1 2624.91 2281.12 3142.19 -1 0 0
322 1 2337.76 2469.08 1870.57 0 -1 0
323 1 2065.2 2125.16 2899.17 0 0 -1
324 1 3195.35 2355.97 1807.96 0 0 0
325 1 2141.1 3101.41 2849.02 0 0 0
326 1 2684.04 2758.38 2837.99 0 0 -1
327 1 2585.73 2980.41 2601.32 0 -1 0
328 1 2168.07 2254.99 2547.21 0 0 0
329 1 2147.21 2729.25 2069.35 0 0 0
330 1 2660.92 2518.62 2757.25 0 0 0
331 1 2475.89 2569.55 2078.82 -1 0 0
332 1 2273.77 2803.3 2999.15 0 -1 -1
333 1 2844.24 2509.02 2916 0 0 0
334 1 2867.34 3245.11 3107.77 -2 -1 0
335 1 2531.39 2862.13 2416.55 0 0 0
336 1 2463.68 2390.11 3219.09 0 -1 -1
337 1 1840.72 2431.28 2226.09 0 0 0
338 1 2678.56 2698 3178.3 0 -1 -1
339 1 2831.55 2670.14 3035.92 0 -1 0
340 1 2473.21 2459.35 2589.61 0 -1 0
341 1 2686.06 3136.04 3049.49 0 -1 -2
342 1 2770.59 2822.02 2907.18 0 -1 0
343 1 2735.62 2099.33 2846.65 1 -1 0
344 1 2906.89 2955.36 2944.41 0 -1 -1
345 1 2541.87 2297.08 1755.86 0 0 0
346 1 2653.55 2429.11 1887.75 0 -1 0
347 1 2487.69 2471.79 2770.57 -1 0 -1
348 1 2211.86 2471.82 2591.73 -1 -1 -1
349 1 2779.06 2624.05 2596.57 -1 0 0
350 1 2268.27 2302.52 2080.98 0 1 0
351 1 2073.34 1777.68 3042.79 0 0 -1
352 1 2369.8 2292.56 2986.77 0 1 0
353 1 2967.35 2607.57 2380.59 0 -1 0
354 1 2209.31 2604.01 2346.96 0 0 0
355 1 2375.75 2745.26 2963.09 0 -1 -1
356 1 2265.85 3034.33 1845.76 0 -1 0
357 1 2173.24 2860.82 2803.39 0 -1 -1
358 1 2959.78 3235.69 2243.1 -1 -1 0
359 1 2619.77 2317.59 2868.57 0 0 0
360 1 2228.56 1792.35 3204.57 0 1 -1
361 1 3162.74 2580.32 2350.43 -1 0 0
362 1 2766.97 2620.97 2780.73 0 -1 0
363 1 2513.75 2388.71 3027.34 0 0 -1
364 1 2794.49 2691.66 2920.37 -1 0 0
365 1 2180.58 3080.77 2736 0 -1 0
366 1 2047.02 2586.94 1880.02 0 0 0
367 1 2274.35 2569.83 2831.93 0 -1 -1
368 1 2627.29 1957.8 2580.12 -1 0 0
369 1 3011.6 2711.92 2665.63 0 0 -1
370 1 3074.28 2763.76 2216.6 -2 0 0
371 1 3141.4 2235.55 2027.19 -1 0 0
372 1 2917.24 2928.22 3203.56 -1 -1 -1
373 1 2819.06 2610.2 2789.6 0 1 0
374 1 2524.54 1973.46 2553.03 0 0 0
375 1 3006.5 1804.04 2374.03 0 0 -1
376 1 2687.92 2637.32 2503.77 0 1 0
377 1 3064.78 2491.24 2356.04 0 0 0
378 1 2340.27 2012.09 2871.25 0 1 -1
379 1 2874.97 2547.79 2261 -1 -1 0
380 1 2606.73 2193.11 2050.3 -1 0 0
381 1 2262.88 2535.27 2979.51 0 0 -1
382 1 3093.65 2837.85 2756.84 -1 -1 0
383 1 2708.01 2334.21 2361.87 -1 0 0
384 1 2805.93 2761.66 2390.31 0 -1 0
385 1 2956.63 2714.51 2347.26 0 0 0
386 1 2809.14 2935.57 2589.71 -1 0 0
387 1 2961.5 2354.68 2736.95 -1 0 -1
388 1 1760.4 2739.44 2833.38 0 0 -1
389 1 2447.4 2514.33 1865.28 0 0 0
390 1 1796.46 2640.27 1762.71 0 -1 0
391 1 2421.34 2003.74 1874.43 0 0 0
392 1 1971.49 2550.75 2946.63 -1 -1 -1
393 1 2582.72 2431.68 2679.75 0 0 1
394 1 1999.08 2184.1 3075.97 1 0 -1
395 1 2462.23 2457.67 2098.63 0 -1 -1
396 1 1817.71 2778.17 2576.02 1 0 0
397 1 2755.17 2785.26 1802.24 -1 0 0
398 1 2242.31 2440.04 2805.91 0 -1 0
399 1 2118.98 1865.92 2777.51 0 0 0
400 1 2222.53 2360 2705.08 -1 0 -1
401 1 2508.83 2477.08 2449.08 0 0 -1
402 1 2246.81 2553.38 3228.77 0 0 -2
403 1 1848.34 2128.66 2996.65 0 0 -1
404 1 2589.87 2653.1 2200.78 0 0 0
405 1 2656.63 2996.23 2776.98 -1 0 0
406 1 2151.18 2837.13 2310.24 0 -1 0
407 1 1953.06 2881.98 2871.58 -1 -1 0
408 1 3193.83 2416.86 2866.86 0 0 -1
409 1 3056.21 2652.03 2558.71 0 -1 -1
410 1 2581.71 2275.1 2442.27 0 0 -1
411 1 2165.42 2100.52 2054.38 0 0 0
412 1 2412.27 2972.13 2797.72 0 0 0
413 1 1838.35 2650.21 2831.37 0 0 -1
414 1 2073.31 2806.25 2785.79 0 -1 -1
415 1 2099 2396.49 2751.99 0 0 -1
416 1 2623.67 2652.82 1807.8 0 0 0
417 1 1896.92 2144.6 2428.02 -1 0 -1
418 1 3183.12 2947.39 2084.71 -1 0 1
419 1 2232.8 2587.43 2494.68 0 0 0
420 1 3070.46 2806.21 2367.43 -2 -1 -1
421 1 2821.26 2500.35 1863.7 -1 0 0
422 1 1855.4 2948.74 1987.22 0 -1 0
423 1 2993.68 2701.27 1794.84 0 -1 0
424 1 2063.78 2805.53 3102.37 0 -1 -1
425 1 2390.42 2814.71 3162.51 0 0 -1
426 1 2796.24 2579.77 2751.27 -1 0 -1
427 1 3074.68 2328.74 2251.72 -1 -1 0
428 1 2349.49 2909.66 2556.63 0 -1 -1
429 1 2861.03 2745.49 2267.31 -1 0 0
430 1 2106.05 1955.73 2277.99 0 -1 0
431 1 2604.01 2404.66 1781.43 0 0 0
432 1 2028.45 2807.93 2296.15 0 -1 0
433 1 2241.17 2661.82 2498.24 -1 -1 -1
434 1 3038.33 2686.62 2437.13 -1 0 0
435 1 2813.8 2099.99 2980.37 -1 0 0
436 1 2868.66 2689.99 1794.04 -1 0 0
437 1 2715.69 2253.51 2057.81 0 1 0
438 1 3214.47 2503.18 2645.44 -1 -1 -1
439 1 2801.68 2382.39 1930.83 0 0 0
440 1 2974.68 2039.78 3022.68 -1 0 -1
441 1 2725 1950.76 3061.17 -1 0 -1
442 1 1933.99 2563.65 2759.8 0 0 0
443 1 2999.5 2521.19 3000.7 0 -1 0
444 1 2788.64 2641.45 2076.46 -2 0 0
445 1 2438.75 2926.96 2538.53 0 -1 0
446 1 2907.96 2007.03 3145.13 -1 0 -1
447 1 2628.43 2689.54 2601.16 0 0 0
448 1 2077.31 2690.65 2303.43 -1 -1 0
449 1 2281.17 2460.68 1893.86 -1 0 0
450 1 2029.07 2437.25 3039.8 0 0 -1
451 1 2058.26 2715.87 2707.25 0 -1 -1
452 1 2185.46 2229.64 3007.74 0 0 0
453 1 3037.91 3025.73 2404.15 -1 0 0
454 1 2026.95 2244.08 2268.51 0 0 -1
455 1 2719.84 2608.11 3081.75 -1 0 -1
456 1 2887.12 1836.59 1802.67 0 1 0
457 1 2496.46 2735 2434.71 0 -1 -1
458 1 1981.22 2188.48 2937.27 0 1 -1
459 1 2107.21 2453.29 2228.76 0 -1 -1
460 1 3069.56 2485.44 2555.99 -1 -1 0
461 1 2800.91 2706.2 2501.94 0 -1 0
462 1 2925.31 2741.38 2580.97 -1 0 -1
463 1 3157.44 2101.29 2909.08 -1 0 -1
464 1 2664 2611.66 2644.77 0 0 0
465 1 1788.34 2705.59 2454.95 1 0 -2
466 1 2749.69 2933.35 2686.52 -1 -1 0
467 1 2673.9 2581.74 1894.02 0 1 0
468 1 3087.79 2783.79 1837.01 0 -1 1
469 1 2853.46 2522.53 2635.2 0 -1 -1
470 1 2848.18 2961.23 1911.26 -1 -1 -1
471 1 2853.04 2644.69 2342.8 0 0 0
472 1 2726.76 2905.06 1832.63 0 -1 0
473 1 1774.18 2405.48 2978.47 1 -1 0
474 1 2913.29 2366.16 2819.57 -2 -1 -1
475 1 2812.86 2517.72 2058.15 0 -1 0
476 1 2849 3212.59 2112.91 -1 -1 0
477 1 3078.8 2355.14 2027.32 0 -1 -1
478 1 2605.3 2490.12 2025.8 -1 -1 0
479 1 2604.79 1824 2314.42 0 0 -1
480 1 3129.38 2269.39 2463.77 -1 0 0
481 1 2879.4 1853.87 3237.42 0 1 0
482 1 2642.42 2014.52 2838.49 0 -1 -1
483 1 2933.52 2249.28 2798.07 -1 1 0
484 1 2749.88 2884.25 2360.47 -1 -1 0
485 1 2331.1 3037.21 2582.1 -1 -1 -1
486 1 3202.76 2890.71 1870.32 -1 -1 0
487 1 2704.07 2412.24 2724.24 -1 0 -1
488 1 2168.76 1856.23 2502.22 0 0 0
489 1 3044.46 2649.89 2158.58 -1 0 0
490 1 2928.5 2417.93 2954.56 -1 0 -1
491 1 2634.09 2717.09 2703.33 0 0 -1
492 1 2791.04 2534.24 3227.66 0 -1 0
493 1 2708.19 2461.68 2409.38 -1 0 0
494 1 2343.97 2408.5 3033.38 1 -1 0
495 1 2952.68 2778.73 2187.32 0 -1 0
496 1 2838.31 2610.74 2739.02 1 0 0
497 1 2613.83 3193.75 2627.45 -1 -1 0
498 1 2683.71 2916.85 2577.08 0 -1 0
499 1 2336.72 2522.67 1864.47 -1 0 -1
500 1 2690.42 2995.7 2336.78 0 -1 -1
501 1 2478.43 2707.05 2556.58 -1 0 -1
502 1 1864.28 2925.82 2896.2 -1 0 0
503 1 2489.23 2490.08 2844.6 0 0 0
504 1 2303.56 2591.97 2509.69 0 0 0
505 1 2088.67 2500.64 3150.5 -1 0 -1
506 1 1797.36 2166.38 2225.63 -1 0 0
507 1 3110.86 2081.48 2926.74 -1 0 -1
508 1 1962.7 1875.79 1986.2 0 0 -1
509 1 1971.52 1911.39 2515.33 0 0 0
510 1 2668.38 2362.03 2608.13 -1 -1 -1
511 1 3199.07 2976.62 2469.15 0 0 -1
512 1 1903.24 2995.64 3092.39 0 -1 -1
513 1 2956.09 2504.95 2052.38 0 -1 0
514 1 2756.51 2248.68 2290.98 -2 0 1
515 1 2512.29 2185.44 2426.48 -1 0 -1
516 1 2522.01 3184.72 2678.15 -1 -1 0
517 1 2927.17 2910.57 3095.73 0 -1 -1
518 1 2156.73 2820.01 2694.98 0 0 -1
519 1 2638.64 2582.99 2407.43 0 0 0
520 1 2961.62 2787.99 1825.02 -1 0 0
521 1 2508.05 2402.42 1842 -1 0 1
522 1 2477.62 2606.86 2194.92 -1 0 0
523 1 2944.15 2886.78 1907.38 0 0 0
524 1 2618.29 2426.55 2498.28 -1 -1 0
525 1 2977.08 2173.8 2906.17 0 0 -1
526 1 2115.56 2371.94 2627.98 0 0 0
527 1 1754.08 2226.94 2831.84 0 -1 -1
528 1 3057.91 2435.64 2247.14 0 1 0
529 1 2498.62 2593.48 1778.99 -1 -1 0
530 1 2019.04 2691.42 2586.37 0 0 0
531 1 2180.62 3200.63 1960.11 0 -1 0
532 1 3049.06 2587.16 2044.6 -1 0 0
533 1 2958.36 1825.4 2331.43 -1 0 -1
534 1 2361.38 1756.22 2810.89 0 0 -1
535 1 2652.89 3161.29 2487.96 -1 -2 0
536 1 2292.21 2548.02 2150.15 -1 0 0
537 1 2687.69 2921.35 2234.43 -1 -1 0
538 1 2046.71 2084.17 3008.54 0 0 -1
539 1 2988.36 2439.63 2651.17 -2 0 -1
540 1 2739.36 3055.5 2444 0 0 0
541 1 2490.22 2881.82 2816.74 0 0 -1
542 1 2380.31 2719.4 2417.99 0 -1 0
543 1 2317.5 2666.61 2615.16 0 0 -1
544 1 2927.05 2003 2912.27 -1 1 -1
545 1 2265.78 2785.25 2702.73 -1 0 -1
546 1 3092.74 1935.29 1892.67 -1 0 0
547 1 2486.65 2346.19 2400.61 0 -1 0
548 1 1962.87 2042.32 2917.81 0 0 0
549 1 2675.22 2494.96 3082.53 0 0 0
550 1 2162.38 2238.36 1831.33 0 0 0
551 1 2369.24 2670.18 1905.52 0 -1 0
552 1 2645.11 3174.82 3175.2 0 -1 -1
553 1 2835.56 2630 3177.98 -1 0 -1
554 1 2293.41 2415.94 2605.83 0 0 0
555 1 2119.9 2354.35 3008.19 0 0 0
556 1 2541.54 2885.19 2529.07 0 0 -1
557 1 2662.57 2615.52 2293.49 -1 0 0
558 1 2536.37 3135.67 2549.57 -1 0 -1
559 1 2533.79 2999.6 2818.35 -1 0 0
560 1 1992 2751.27 1756.52 0 0 0
561 1 3103.44 2390.06 2478.33 -1 -1 -1
562 1 2081.79 3114.86 3187.99 0 0 -1
563 1 3190.48 2505.63 2797.38 -1 0 0
564 1 2567.17 2687.48 3120.17 0 1 -1
565 1 3141.15 2625.39 3117.26 0 0 -1
566 1 3154.85 2249.88 2731.86 -1 0 1
567 1 2536.26 1882.44 2786.83 0 0 0
568 1 2931.34 2863.42 2537.44 -1 -1 -1
569 1 2672.2 2254.81 2967.11 0 0 0
570 1 1898.65 2859.54 2629.18 0 -1 0
571 1 2860.42 2772.06 1893.96 -1 -1 0
572 1 2542.47 2717.54 2676.89 -1 -1 0
573 1 2255.28 2336.93 2993.06 1 0 -1
574 1 2885.24 3033.39 3171.6 -1 0 0
575 1 1981.48 2422.09 2902.13 0 0 0
576 1 3135.3 2280.22 2771.99 0 -1 -1
577 1 3070.11 2578.2 2454.35 -1 -1 -1
578 1 1785.22 2603.97 2385.12 1 0 1
579 1 2848.67 3150.94 2541.58 0 0 -1
580 1 2395.42 2668.28 2440.79 0 1 1
581 1 1947.04 2294.92 2459.2 -1 0 0
582 1 2951.25 3000.91 2319.72 0 -1 0
583 1 2530.34 2439.69 2416.7 0 0 0
584 1 3100.55 2915.96 2385.41 0 0 1
585 1 2946.47 3028.88 3053.68 -1 -1 -1
586 1 2894.71 2200.01 3197.55 -1 -1 -2
587 1 1771.37 2226.43 2613.34 1 0 -1
588 1 2045.02 2409.76 2027.23 0 0 0
589 1 2795.07 2955.02 3195.35 1 -1 0
590 1 3127.45 2694.27 2032.36 -1 -1 1
591 1 2215.11 1973.71 2996.51 -1 -1 -1
592 1 1999.06 2340.49 2722.69 0 0 0
593 1 1867.55 2230.98 2896.5 0 0 0
594 1 2164.8 2982.67 2860.96 -1 1 0
595 1 2850.69 1776.67 2902.1 -1 0 -1
596 1 2783.27 2452.32 1947.41 1 0 0
597 1 2656.76 2579.64 3056.92 0 0 0
598 1 2875.41 3078.95 1893.88 0 -1 0
599 1 2312.78 3173.89 2582.39 -1 -1 0
600 1 2871.36 2159.59 2742.18 -1 0 -1
601 2 3227.75 2367.14 1948.88 -1 0 0
602 2 1961.1 2034.95 2292.56 1 0 0
603 2 2935.09 3081.09 2175.23 -1 0 1
604 2 3000.62 2962 2801.68 0 -1 0
605 2 1818.66 1791.47 3123.03 0 0 0
606 2 1784.78 2559.44 2220.29 1 0 0
607 2 2163.04 2594.22 2172.73 0 0 0
608 2 2728.91 3049.23 2569.91 0 -1 0
609 2 2869.07 2216.23 2392.12 0 0 0
610 2 2618.44 2889.05 2905.29 0 0 0
611 2 1868.12 2873.74 1838.97 0 0 1
612 2 2479.15 3192.46 2258.9 0 -1 0
613 2 2064.11 2554.68 2654.45 0 0 -1
614 2 2587.82 2095.75 2525.7 0 0 0
615 2 1803.06 2672.96 3079.68 0 0 0
616 2 3172.68 3154.8 1797.1 0 0 0
617 2 1868.16 2842.16 2227.25 0 -1 0
618 2 2470.2 3146.87 2873.14 0 0 0
619 2 2721.25 2109.13 2668.79 0 1 0
620 2 3199.8 3141.55 2461.34 -1 0 0
621 2 1758.27 3161.15 2784 0 0 -1
622 2 2302.75 3189.58 1834.97 0 0 0
623 2 2316.78 2550.18 3055.06 0 0 -1
624 2 1765.55 2368.22 2712.34 0 0 -1
625 2 2653.09 1999.69 3177.64 0 0 0
626 2 1882.71 3016.38 2756.05 1 0 -1
627 2 2060.38 1784.18 2601.59 0 1 0
628 2 3070.86 2560.88 2688.27 -1 0 0
629 2 2284.76 2051.09 2298.43 0 0 0
630 2 2526.62 1859.04 2149.87 0 1 0
631 2 3062.31 1918.87 2938.17 0 1 0
632 2 2192.78 2965.94 2043.05 0 -1 0
633 2 1861.45 2971.84 2392.68 0 -1 0
634 2 2977.29 2678.13 2812.05 -1 0 0
635 2 1838.95 1848.98 2272.54 0 0 0
636 2 2764.35 1941.49 2886.84 -1 0 0
637 2 1880.91 2210.16 2712 1 0 -1
638 2 1819.64 2009.27 2163.44 0 0 0
639 2 3036.36 2827.8 3146.97 0 0 0
640 2 2632.78 3229.51 2765.31 0 0 0
641 2 2354.24 2044.14 2617.16 0 0 0
642 2 2534.92 2946.56 2038.46 0 -1 0
643 2 1843.47 1774.11 2442.79 0 0 0
644 2 3196.95 2545.1 1953.58 -1 0 1
645 2 2552.04 3015.84 2244.93 0 -1 0
646 2 2245.16 2957.08 2233.09 0 -1 0
647 2 2179.64 2141.96 3141.9 0 0 0
648 2 2537.79 2631.06 2786.03 0 0 0
649 2 3014.55 2120.86 1773.09 -1 0 0
650 2 3024.3 2320.38 2328.13 0 0 0
651 2 3130.27 2106.89 2130.12 -1 0 0
652 2 1839.3 1832.14 2078.99 0 0 0
653 2 2854.46 2498.35 3064.45 0 0 -1
654 2 2500.04 3119.73 3214.02 0 -1 -1
655 2 2538.86 2010 2687.79 0 0 0
656 2 2708.92 1912.69 2703.23 0 0 0
657 2 2993.88 2054.3 2755.27 -1 0 -1
658 2 2587.69 2242.84 2707.24 -1 0 -1
659 2 1777.26 2062.66 2643.3 1 0 0
660 2 2413.34 2313.79 2003.17 0 0 0
661 2 2605.74 1802.88 1985.26 0 0 0
662 2 1979.29 1928.49 1820.44 0 0 0
663 2 1956.23 2835.72 2475.45 0 -1 0
664 2 2580.91 3002.55 3071.87 0 0 -1
665 2 2456.19 2390.34 2227.23 0 0 0
666 2 2562.91 3133.64 2097.57 0 -1 0
667 2 2790.66 1770.23 1955.73 0 0 0
668 2 1968.85 2348.45 2159.05 0 0 0
669 2 3079.71 2363.01 2977.96 -1 0 0
670 2 2190.91 1879.71 2831.74 0 0 -1
671 2 2757.69 1898.2 1813.13 0 0 1
672 2 1969.8 2545.97 2214.69 0 0 0
673 2 2311.84 2337.31 2416.76 0 0 0
674 2 3173.62 1773.24 2175.92 -1 0 0
675 2 2912.21 2788.68 2977.77 -1 0 0
676 2 2574.76 1969.97 1874.37 0 0 0
677 2 2067.83 2915.64 2165.55 0 -1 0
678 2 3082.98 2861.19 1971.89 -1 -1 0
679 2 2053.78 2959.6 3083.22 0 0 0
680 2 3015.81 1980.8 2203.95 -1 0 0
681 2 2299.06 3064.83 2839.98 0 0 0
682 2 2833.17 2371.55 2272.65 0 0 0
683 2 2412.09 2870.26 2602.41 0 -1 0
684 2 1926.83 3033.49 2227.54 0 -1 0
685 2 1958.99 3121.67 3065.41 0 0 -1
686 2 1954.19 2449.06 1879.77 0 0 0
687 2 2517.78 2827.73 3043.9 -1 -1 0
688 2 2893.05 2996.41 2464.59 -1 -1 0
689 2 2153.05 3115.15 3006.47 0 -1 0
690 2 3145.87 2983.91 3213.25 0 1 -1
691 2 2582.15 2332.49 2100.63 -1 0 0
692 2 2084.36 1760.35 2871.11 0 0 -1
693 2 3082.53 3148.99 2296.88 -1 -1 0
694 2 1888.09 2705.09 2675.2 0 0 0
695 2 2684.26 2136.41 2169.01 0 0 0
696 2 2395.59 1802.89 2949.53 0 1 0
697 2 1952.99 2058.12 2552.55 0 0 0
698 2 1982.19 2430.35 2515.78 1 0 0
699 2 2472.52 1784.89 1836.76 0 0 0
700 2 1777.48 2472.41 1807.55 0 0 0
701 2 3241.69 2830.61 2658.78 0 -1 -1
702 2 1885.28 2469.04 2372.13 0 0 0
703 2 2031.66 3073.4 2074.71 0 0 0
704 2 2223.53 3020.9 2409.64 0 -1 0
705 2 2063.51 1965.08 2783.93 0 0 -1
706 2 1951.56 2572.52 3234.79 0 0 0
707 2 1944.7 3003.98 2572.22 0 -1 0
708 2 1892.45 2596.28 2510.06 1 0 0
709 2 1886.86 1771.66 2943.68 0 0 0
710 2 2702.62 1820.65 3146.43 0 0 -1
711 2 2022.18 2928.44 1947.24 0 -1 0
712 2 2174.78 2662.06 3012.13 0 0 -1
713 2 2352.54 2480.96 2613.95 0 0 -1
714 2 2850.28 1994.9 2306.22 -1 0 0
715 2 2561.07 2274.86 1907.59 0 0 0
716 2 2314.77 2882.86 1789.86 0 0 0
717 2 3001.49 1767.93 3177.28 -1 0 -1
718 2 2647.89 2437.25 2237.95 -1 0 0
719 2 1994.98 1912.33 2146.01 0 0 0
720 2 1771.07 2011.02 3184.62 0 0 -1
721 2 3168.29 2443.48 2111.52 0 0 0
722 2 3228.55 2977.07 2214.86 -1 -1 0
723 2 2668.99 3041.65 3245.91 0 0 -1
724 2 3000.14 3138.67 2509.25 0 -1 0
725 2 2206.5 3220.23 2725.56 0 -1 -1
726 2 2264.37 2210.46 1937.86 0 0 0
727 2 3097.19 2441.24 1830.25 -1 0 0
728 2 2285.61 2164.27 2455.16 0 0 0
729 2 2891.23 1812.77 2489.9 -1 0 0
730 2 2904.25 2825.65 2033.8 -1 -1 0
731 2 2309.77 2696.26 3226.33 0 0 0
732 2 3161.1 1848.08 3240.42 -1 0 -1
733 2 2249.32 1830.87 1996.36 0 1 0
734 2 1879.4 2263.5 2297.2 0 0 0
735 2 2383.61 1876.66 2499.83 0 0 0
736 2 2228.08 3160.37 2099.43 0 -1 0
737 2 2188.9 2775.93 2121.92 -1 0 0
738 2 3131.75 2760.57 2997.23 0 0 0
739 2 2253.65 2959.45 2992.05 0 0 0
740 2 2858.84 1875.34 2164.46 0 0 0
741 2 2639.76 2076.14 2967.01 -1 1 0
742 2 2514.65 2134.33 1761.77 0 0 0
743 2 3223.78 2121.4 2464.55 -1 0 0
744 2 2584.74 2257.11 2263.62 0 0 0
745 2 2213.68 3013.24 3164.96 0 0 -1
746 2 2201.13 2611.3 1873.42 0 0 0
747 2 2757.88 2918.25 3022.73 0 0 -1
748 2 2439.08 1901.61 1991.55 0 0 0
749 2 2237.5 2085.1 2739.24 0 0 0
750 2 1829.43 1963.66 2431.95 0 0 0
751 2 3220.54 2664 2590.25 0 0 -1
752 2 2990.89 1772.76 2658.69 0 1 0
753 2 1812.46 2300.15 2120.3 0 0 0
754 2 2738.3 2380.66 3156.81 -1 0 0
755 2 2337.76 2128.35 2948.05 0 0 0
756 2 2588.19 3010.2 2430.69 0 -1 0
757 2 2395.66 2212.19 2323.48 0 0 0
758 2 3085.05 3108.85 2705.38 -1 -1 0
759 2 2701.09 1772.5 2148.84 0 0 0
760 2 2481.22 2631.02 2971.87 0 0 -1
761 2 2088.94 3078.26 1855.93 0 -1 0
762 2 2120.8 2107.66 2217.18 0 0 0
763 2 1888.16 2106.4 1820.73 0 0 0
764 2 2388.65 2858.34 2135.71 0 -1 0
765 2 2039.49 2363.32 2345.49 0 0 0
766 2 3108.58 2075.01 1923 -1 0 0
767 2 2403.69 1995.61 2154.2 0 1 0
768 2 2012.21 1853.08 2347.07 0 0 0
769 2 1960.84 3213.48 2189.42 0 -1 0
770 2 1787.23 2325.07 2462.12 1 -1 0
771 2 1840.18 2774.54 2945.26 1 0 -1
772 2 2048.95 2172.87 2399.51 0 0 0
773 2 2930.3 1910.03 1783.34 -1 0 1
774 2 1944.22 3024.66 3222.22 0 -1 -1
775 2 3178.99 3221.75 1993.7 -1 -1 0
776 2 2836.24 2788.48 3129.99 -1 0 -1
777 2 3126.32 2614.54 1782.96 -1 0 0
778 2 2127.96 2223.67 2739.07 0 0 -1
779 2 2820.96 2079.96 1758.11 -1 0 0
780 2 2940 2547.5 1765.56 -1 0 0
781 2 3027.53 1775.18 1875.34 -1 0 0
782 2 2504.47 2194.51 2926.28 0 0 0
783 2 2007.45 3029.5 2905.54 0 -1 -1
784 2 1839.5 1888.24 2596.38 0 0 -1
785 2 2976.97 3005.88 2002.66 -1 -1 0
786 2 1919.65 2019.92 1998.48 1 0 0
787 2 2540.63 2763.01 2069.46 0 0 0
788 2 2407.85 2138.43 2777.1 0 0 0
789 2 1854.08 2188.5 3146.92 0 0 -1
790 2 3175.84 2017.1 2327.46 -1 0 0
791 2 3092.35 1769.83 2822.04 0 0 -1
792 2 2111.39 2490.57 3228.13 0 0 -1
793 2 2085.69 1881.27 3162.3 0 0 0
794 2 2990.32 1962.07 2600.58 -1 0 0
795 2 2060.73 2948.05 2718.39 0 0 0
796 2 1870.32 2499.71 3042.24 0 0 -1
797 2 2998.41 3231.99 2976.21 -1 -1 -1
798 2 2034.91 3145.23 2718.6 0 0 0
799 2 3049.09 2184.19 3024.03 -1 1 -1
800 2 3057.64 2919.19 2987.5 -1 0 -1
801 2 2292.83 2271.13 2821.26 0 0 0
802 2 1944.22 1814.86 2753.1 0 1 0
803 2 2534.73 3102.84 1907.48 0 -1 0
804 2 2498.89 2755.22 2259.49 0 -1 0
805 2 2260.05 1862.52 2350.88 0 0 0
806 2 3202.65 2796.95 2113.96 -1 -1 0
807 2 3085.66 3100.03 3090.1 -1 0 -1
808 2 2832.29 2345.93 2064.01 -1 0 0
809 2 3139.99 1931.26 2713.61 0 0 0
810 2 2464.15 1949.03 3213.16 0 0 -1
811 2 1872.59 1953.31 3019.96 1 0 0
812 2 2570.95 1902.32 3028.91 0 0 -1
813 2 2382.95 1907.6 2740.32 0 0 0
814 2 2014.7 2717.64 2144.52 0 0 0