ITEM: TIMESTEP
394000
ITEM: NUMBER OF ATOMS
1000
ITEM: BOX BOUNDS pp pp pp
1.5725607455598818e+03 3.4274392544395828e+03
1.5725607455598818e+03 3.4274392544395828e+03
1.5725607455598818e+03 3.4274392544395828e+03
ITEM: ATOMS id type x y z ix iy iz
1 1 2723.68 2453.08 1684.49 -1 0 1
2 1 2165.84 1596.94 2601.17 0 0 0
3 1 3123.81 2564.21 2223.11 0 0 0
4 1 2299.02 1851.34 3104.61 0 -1 0
5 1 3230.5 2892.85 2665.31 -1 -1 1
6 1 2048.02 1905.07 3228.34 0 0 0
7 1 1837.39 2929.01 2793.03 0 -1 0
8 1 2241.4 1893.77 2478.97 0 0 1
9 1 2902.85 2939.31 2475.95 0 0 0
10 1 2790.78 2507.9 2615.48 0 0 0
11 1 2663.89 2206.7 2585.97 0 0 0
12 1 1652.89 3063.02 3373.86 0 0 0
13 1 3017.75 3310.7 3273.53 -1 0 -1
14 1 2273.4 2677.73 2807.52 0 0 -1
15 1 3086.64 2275.23 2143.57 0 0 0
16 1 2249.16 3420.74 2463.19 0 0 -1
17 1 2447.31 2828.01 2840.47 1 0 -1
18 1 2995.81 2377.84 2474.08 -1 1 0
19 1 2811.15 2004.12 1911.15 -1 0 0
20 1 1682.91 2941.23 2888.34 0 -1 0
21 1 2114.13 2511.68 2567.63 0 1 0
22 1 2641.35 2903.08 2701.68 2 -1 0
23 1 2810.55 2220.91 2661.17 0 0 1
24 1 2887.69 3195.73 2232.01 0 0 0
25 1 1893.03 2033.22 2748.99 -1 0 0
26 1 2870.97 2939.72 2862.57 0 0 0
27 1 2988 2415.31 2773.68 -1 0 1
28 1 2122.32 2460.89 2413.38 0 0 0
29 1 2557.47 2310.04 2628.04 0 0 -1
30 1 2747.75 3247.36 2819.56 0 0 0
31 1 1668.52 1820.61 2836.94 0 0 0
32 1 1803.3 3010.09 3111.65 0 0 -1
33 1 2250.55 2410.14 3017.78 0 0 0
34 1 2459.03 1593.21 2821.01 0 0 0
35 1 2099.39 2241.76 2410.52 0 0 -1
36 1 1721.05 2775.78 1639.98 0 -1 0
37 1 1944.53 1960.05 1996.87 0 0 0
38 1 2263.98 2903.12 2240.26 0 0 0
39 1 3084.56 2393.57 2817.2 -2 0 -1
40 1 3007.01 2479.39 2081.52 -1 -1 2
41 1 2051.25 2852.45 1977.14 0 0 -1
42 1 2850.09 2668.3 2138.74 0 -1 0
43 1 2451.83 2572.9 2127.59 0 -2 0
44 1 2907.39 3221.94 1880.72 0 -1 0
45 1 2467.76 2349.84 2753.74 0 0 0
46 1 2843.57 3331.68 2941.7 -1 -1 0
47 1 3214.96 3101.39 2253.69 -1 -1 -1
48 1 3082.04 2145.52 2750.3 0 0 -1
49 1 2834.2 2546.83 2294.15 -1 0 1
50 1 2955.2 1848.29 3158.04 -1 0 0
51 1 3136.76 1656.55 2275.8 -1 -1 1
52 1 3410.29 2532.6 3303.83 -1 0 -1
53 1 2993.74 2037.02 3223.41 -2 0 -1
54 1 3150.41 2300.45 2909.17 0 0 -1
55 1 2927.05 2940.67 2885.43 -2 0 -1
56 1 3004.8 2212.25 1815.6 0 0 0
57 1 2045.2 2513.9 3326.34 0 0 -1
58 1 2471.26 2607.05 3299.6 0 0 -1
59 1 2621.71 3214.44 2739.33 -1 -1 0
60 1 2101.11 3046.92 1740.38 -1 -1 1
61 1 1961.83 2763.84 2462.69 -1 0 0
62 1 2576.48 1626.5 3018.57 0 0 -1
63 1 3070.48 2246.33 3030.02 -1 0 0
64 1 2820.74 2612.43 3092.3 0 -1 -1
65 1 3093.41 2967.72 2709.6 -1 -1 -1
66 1 3133.24 2856.12 2526.41 -1 0 1
67 1 2494.47 2439.23 1831.28 0 0 0
68 1 2276.12 2876.47 3172.66 0 -1 -1
69 1 1663.42 2570.83 2771.48 0 0 0
70 1 1835.71 1678.79 3220.56 0 1 -1
71 1 2035.13 2667.22 2533.85 -1 0 -1
72 1 2710.39 2111.58 3399.83 0 0 -1
73 1 2632.96 1721.94 1586.91 0 1 1
74 1 3042.22 2695.52 2181.27 -1 0 -1
75 1 2050.2 2478.06 1806.63 0 0 1
76 1 1757.02 1815.63 2957.66 -1 0 0
77 1 2616.74 2501.84 3213.98 -1 -1 -1
78 1 1789.05 3390.07 1908.65 0 -1 0
79 1 2106.08 2359.8 2523.11 0 -1 0
80 1 3063.04 2406.11 2461.77 -1 0 0
81 1 3402.73 1918.11 1925.78 -1 0 0
82 1 1955.69 2253.97 3243.94 1 0 0
83 1 2480.66 2076.87 2688.2 -1 -1 -1
84 1 2036.3 3396.03 3295.31 1 0 -1
85 1 2502.19 2411.86 2443.66 0 -1 0
86 1 3261.09 2389.73 2825.89 -1 0 0
87 1 1840.1 2031.92 2891.97 0 -1 -1
88 1 1679.48 2752.22 2068.44 0 -1 0
89 1 2838.45 2812.14 1863.01 0 0 0
90 1 3309.56 3148.98 2331.6 -2 -1 0
91 1 1776.4 3306.83 2930.85 0 -1 -1
92 1 2024.04 2782.67 2474.89 0 -1 -1
93 1 2239.33 3244.96 2718.09 1 0 0
94 1 2267.82 2158.3 3260.16 0 0 -1
95 1 1860.62 2435.69 2851.05 -1 -1 -1
96 1 2759.87 2462.08 1999.1 -1 0 0
97 1 2306.95 2414.44 2053.13 0 -1 1
98 1 2691.45 2117.82 2959.01 -1 -1 0
99 1 2464.11 2853.74 2986.26 0 -1 -1
100 1 2734.31 2023.45 1672.93 -1 0 0
101 1 1663.29 2897.39 2368.65 0 -1 0
102 1 2275.26 1616.67 2672.83 -1 0 0
103 1 2868.14 2509.62 2099.45 -1 0 0
104 1 3328.74 2697.48 2438.14 0 -1 -1
105 1 3270.9 3055.25 2763.75 -1 0 0
106 1 3321.84 2013.84 2830.33 0 1 -1
107 1 2759.88 2190.1 2446.66 -1 -2 0
108 1 3217.21 3116.1 1736.5 -1 0 -1
109 1 2259.23 2532.36 2411.82 -1 -1 0
110 1 2755.2 2743.55 1728.89 0 -1 0
111 1 3315.17 1573.01 3320.75 -1 0 -1
112 1 2651.41 1755.04 2979.17 0 0 0
113 1 2386.24 2728.33 2948.99 0 0 -1
114 1 2714.73 2416.22 2927.88 -1 0 0
115 1 2265.09 2669.63 3028.15 0 0 -1
116 1 2857.2 2425.36 2891.92 0 0 0
117 1 2361.01 3356.63 2743.97 0 -1 -1
118 1 2125.95 2790.01 2280.66 -1 0 -1
119 1 3262.54 2959.7 2244.72 0 -1 0
120 1 2768.69 2318.73 1849.94 1 0 0
121 1 3085.03 3186.13 3042.97 -1 0 0
122 1 2792.13 3076.21 2463.75 0 0 -1
123 1 1796.54 1764.94 3339.98 -1 1 -1
124 1 2594.39 2518.9 1678.81 0 0 1
125 1 1799.58 3061.18 1991.73 0 -2 0
126 1 2206.02 3422.82 2999.8 0 0 -1
127 1 2770.84 2270.83 2118.64 -1 -1 0
128 1 2085.29 2283.46 3424.59 -1 0 0
129 1 2478.08 2434.88 2401.27 -1 0 0
130 1 3307.91 2634.13 2023.17 0 -1 0
131 1 2914.51 3138.05 1606.67 -1 -1 0
132 1 2615.99 2802.46 3007.63 0 -1 -1
133 1 2539.78 2412.71 2861.5 0 0 -1
134 1 1962.16 3190.66 2484.88 -1 -1 -1
135 1 2185.04 3356.21 3297.29 0 -1 -1
136 1 2967.31 2124.92 3106.34 -1 0 0
137 1 3136.77 1924.51 1968.47 -1 0 0
138 1 2757.7 2579.85 1911.24 0 -1 0
139 1 2969.66 2589.19 2066.51 -1 -1 -1
140 1 2938.66 2997.83 2764.38 -1 -1 -1
141 1 2871.05 2803.52 2075.39 -1 1 0
142 1 2439.91 2256.71 2869.78 0 1 -1
143 1 3125.45 2976.49 2267.28 -1 0 0
144 1 1654.58 2993.07 2564.43 -1 -1 0
145 1 2313.65 2237.06 2107.61 0 0 0
146 1 3263.55 2576.27 2157.36 -1 -1 0
147 1 1779.38 2481.18 2720.13 0 0 -1
148 1 2738.53 2705.78 2357.65 -1 -1 1
149 1 3012.15 2842.54 2762.06 0 0 0
150 1 2427.47 2594.76 2560.16 0 0 0
151 1 2552.19 3035.01 2761.82 0 -2 -1
152 1 3284.88 2633.15 2936.27 -1 -1 0
153 1 2906.99 2793.38 2872.54 -1 -1 -1
154 1 3194.75 2691.65 2276.44 -1 0 -1
155 1 2964.68 2361.67 2536.33 0 0 0
156 1 2040.95 2512.19 3144.99 0 0 -2
157 1 3389.87 2980.41 2331.61 0 0 -1
158 1 2734.93 2747.21 2031.67 -1 -1 0
159 1 3045.41 2654.36 2666 0 -1 0
160 1 2918.76 1934.14 2846.27 -1 0 0
161 1 2699.59 2733.76 1877.6 0 0 -1
162 1 2810.02 2061.16 2535.99 0 -1 0
163 1 2386.7 2585.16 2878.5 0 0 -1
164 1 3172.4 2441.2 1921.87 0 -1 -1
165 1 2273.48 2154.13 3313.63 0 0 -1
166 1 1614.95 2720.63 1947.57 0 0 -1
167 1 2673.8 2714.09 2349.81 0 -1 0
168 1 1874.63 2161.56 2993.13 0 0 0
169 1 2178.12 3223.04 1821.67 0 -1 -1
170 1 2974.16 2947.67 2353.47 0 -1 0
171 1 2825.46 2115.83 3050.18 -1 -1 -1
172 1 2617.49 2955.8 2119.73 0 -1 -1
173 1 2813.53 2383.23 2524.44 -1 0 -1
174 1 2877.65 1824.62 3336.06 -2 0 -1
175 1 3131.77 3020.58 1630.09 -1 -1 -1
176 1 2114.17 2085.86 2987.98 0 0 0
177 1 2827.47 3274.93 1725.7 -1 0 0
178 1 3259.09 2180.71 2813.01 -1 0 0
179 1 1907.71 2163.62 3035.67 -1 0 0
180 1 3206.17 2910.81 2982.66 0 0 -1
181 1 1736.24 2660.12 3077.4 0 -1 1
182 1 2872.93 3316.08 2174.09 0 -1 0
183 1 1638.47 3021.92 2004.78 0 -1 0
184 1 2947.94 2223.92 2694.57 0 -1 1
185 1 1726.1 2287.65 2639.84 0 0 -1
186 1 3076.99 2330.56 1861.77 -1 0 -1
187 1 3398.33 2666.9 2832.29 0 0 -1
188 1 2584.49 1601.65 3371.25 0 1 -1
189 1 3363.21 2081.18 3282.76 -1 0 -1
190 1 2594.76 2673.27 2485.23 -1 0 0
191 1 2885.99 1713.2 3164.62 0 0 0
192 1 3224.87 3265 1784.56 -1 -1 0
193 1 3303.03 2807.27 2935.1 -2 -1 0
194 1 2917.26 2129.77 1942.02 0 -1 -1
195 1 2144.82 2607.83 2783.46 -1 0 0
196 1 2391.23 2516.75 3390.54 0 0 -1
197 1 2172.95 2290.04 1680.8 -1 1 1
198 1 2831.26 3208.71 3282.96 -1 -1 0
199 1 2328.93 3175.27 1625.87 0 0 1
200 1 2068.22 1921.09 3000.75 0 0 -1
201 1 3209.56 2176.7 2996.63 -1 0 0
202 1 2589.2 2369.95 3294.75 -1 -1 -1
203 1 3108.99 3097.83 3316.67 -1 -1 0
204 1 2445.07 2341.59 3009.32 0 -1 -2
205 1 3007.43 2631.66 3073.82 -1 -1 0
206 1 3246.98 1681.62 3227.62 -1 0 0
207 1 2415.74 2760.11 3276.12 -1 -1 -1
208 1 2425.94 2204.24 2724.78 0 0 -1
209 1 2725.63 2686.6 2997.35 -1 -1 0
210 1 3089.49 2544.95 1794.05 0 -1 0
211 1 2850.99 2948.21 1800.93 -1 -1 0
212 1 2360.65 1583.45 2359.48 0 0 -1
213 1 3058.2 2699.55 2501.71 0 1 -1
214 1 2404.93 2905.41 2468.57 0 -1 0
215 1 1573.53 2976.31 1876.2 0 0 -1
216 1 2674.4 2332.61 3196.62 -1 0 -1
217 1 2946.73 2149.4 2085.79 -1 0 1
218 1 2149.22 2617.44 1956.33 0 0 0
219 1 3102.71 2963.45 2432.66 0 -1 0
220 1 2166.89 2432.68 3185.64 -1 0 -1
221 1 3010.41 1735.63 3072.11 -1 0 -1
222 1 2877.25 2174.66 1577.09 0 -1 1
223 1 2461.93 2453.97 3253.72 0 -1 -2
224 1 1695.88 3262.12 2495.15 0 -1 0
225 1 2819.87 3358.83 2443.36 0 -1 0
226 1 2793.1 2553.52 2926.89 0 -1 0
227 1 3278.93 2395.72 2676.53 -1 -1 -1
228 1 1620 3173.28 1632.54 0 0 1
229 1 2904.26 2066.25 2218.62 -1 -1 0
230 1 1676.57 2424.46 2608.1 0 0 -1
231 1 2066.78 2753.5 2429.73 -1 -1 0
232 1 2091.41 3336.53 3420.41 0 -1 -1
233 1 3280.52 2773.58 2776.3 -1 0 1
234 1 1971.75 1818.6 2578.65 0 -1 -1
235 1 2729.56 2354.21 1708.61 -1 -1 0
236 1 2504.25 2571.92 2114.95 -1 0 0
237 1 3075.78 2531.02 2975.57 0 -1 0
238 1 3011.69 2842.41 2456.06 0 -1 0
239 1 2734.41 2588.92 2061.25 -1 -1 0
240 1 2145.96 2553.2 2554.38 1 0 -1
241 1 2711.83 3324.07 1856.74 0 -1 0
242 1 2644.08 2040.62 1797.79 0 -2 0
243 1 1881.73 3390.94 1763.76 0 -1 0
244 1 2983.79 2594.72 2790.36 0 -1 -1
245 1 3188.51 1648.72 2518.73 -1 0 0
246 1 2919.39 1880.64 2696.62 0 -1 0
247 1 2427.27 3368.45 2613.34 0 -1 0
248 1 3180.39 2823.7 2008.24 -1 -1 0
249 1 3183.72 2646.52 3067.96 0 0 0
250 1 3376.72 1770.58 3225.23 -1 0 -1
251 1 3075.24 2709.06 1973.74 0 -1 0
252 1 2950.1 1722.66 2689.95 -1 0 0
253 1 1760.39 2661.91 2000.04 1 0 0
254 1 3316.59 2251.16 2604.5 -1 0 -1
255 1 2856.53 1937.01 3248.44 -1 0 -1
256 1 2424.64 2413.23 2856.83 -1 0 0
257 1 2897.35 3079.46 1927.5 -1 -1 0
258 1 2577.71 2026.55 2912.64 0 0 -1
259 1 2636.99 2068.98 3283.52 -1 0 -1
260 1 2644.21 2542.85 3006.97 0 0 0
261 1 1646.79 2026.67 2291.96 0 0 0
262 1 3150.03 2528.53 2057.9 -1 0 -1
263 1 2591.64 2860.61 2845.62 -1 0 -1
264 1 2219.15 2386.34 1811.71 0 0 -1
265 1 3315.05 1947.41 2999.4 -1 0 -1
266 1 3050.89 1752.06 3229.23 -1 0 -1
267 1 1637.89 2289.36 2969.35 0 0 -1
268 1 2167.53 2505.16 2566.26 0 -1 0
269 1 2848 1647.6 2906.32 -1 0 0
270 1 2311.42 2134.16 3280.86 0 0 -1
271 1 1998.13 2865.51 2372.74 0 -1 -1
272 1 2579.1 2400.13 3023.42 -1 0 -1
273 1 2114.62 2368.76 2988.91 0 0 -1
274 1 2321.23 2563.34 3035.87 1 -1 0
275 1 2919.64 2444.86 1821.49 -1 0 1
276 1 2821.8 2675.35 1604.81 -1 -1 0
277 1 2620.33 2635.69 1973.12 0 0 1
278 1 1601.41 1682.95 2805.04 0 0 -1
279 1 2326.47 2747.07 2448.85 0 -1 0
280 1 2445.96 2463.39 3103.66 -1 0 -1
281 1 1900.48 2906.63 2686.75 0 -1 0
282 1 1962.25 2304.61 2952.61 0 -1 0
283 1 2306.52 3280.04 3356.96 0 -1 -1
284 1 2115.34 2266.28 3234.49 0 0 -1
285 1 3415.87 2745.62 2970.88 -1 0 -1
286 1 2934.46 2039.56 2945.88 -1 1 0
287 1 2818.14 1960.68 1764.57 0 0 0
288 1 2319.58 2326.34 2748.32 1 0 0
289 1 2094.68 2723.71 2704.92 0 -1 0
290 1 3044.88 2481.82 2331.17 -1 -1 0
291 1 2231.48 2711.12 2445.18 -1 -1 0
292 1 3264.98 2224.81 2782.53 -1 0 -1
293 1 2642.64 2562.58 2559.82 0 0 1
294 1 2555.95 2661.48 2667.85 0 -1 -1
295 1 1890.6 3302.97 2549.37 0 -1 0
296 1 3245.63 2482.05 2954.85 0 0 0
297 1 2919.98 2312.67 2573.46 -1 0 0
298 1 2382.47 2429.19 2626.05 0 0 0
299 1 1722.38 2126.79 2552.3 1 0 0
300 1 2008.98 2434.7 3271.05 0 0 0
301 1 2349.17 2478.59 2573.07 -1 0 -1
302 1 3291.59 1911.18 1645.85 -1 0 0
303 1 3032.04 3331.06 1834.22 0 -1 0
304 1 2276.1 2823.32 3202.29 1 -1 -1
305 1 2397.51 1785.88 3219.31 0 0 -1
306 1 1689.12 3301.18 1624.24 0 -1 0
307 1 3147.71 2417.17 1963.4 -1 0 -1
308 1 1679.78 1736.56 1600.83 0 0 0
309 1 2669.32 3000.57 2306.11 0 0 -1
310 1 1776.55 1929.86 2772.88 0 0 -1
311 1 2120.42 2852.15 1634.05 0 -1 -1
312 1 2876.46 2318.55 2631.28 0 -1 1
313 1 2090.69 2006.54 3116.24 0 -1 -1
314 1 1783.32 2320.56 2905.8 1 0 0
315 1 1870.83 1790.37 2690.85 0 0 0
316 1 2930.84 2955.42 1665.15 -1 0 0
317 1 2163.31 2885.68 2618.53 1 0 -1
318 1 3380.85 3153.99 2841.35 0 -1 -1
319 1 2978.87 2136.98 1661.95 -1 0 0
320 1 2429.38 2694.87 2727.12 0 -1 0
321 1 2655.22 2228 3298.03 -1 0 0
322 1 2288.73 2464.08 1723.7 0 -1 0
323 1 1959.69 2034.19 2996.04 0 0 -1
324 1 3364.1 2321.01 1640.02 0 0 0
325 1 2054 3247.35 2933.72 0 0 0
326 1 2728.71 2821.08 2920.01 0 0 -1
327 1 2606.53 3096.99 2625.91 0 -1 0
328 1 2087.52 2195.54 2558.67 0 0 0
329 1 2067.78 2801.11 1975.62 0 0 0
330 1 2699.97 2523.14 2819.68 0 0 0
331 1 2470.04 2586.43 1976.61 -1 0 0
332 1 2231.67 2878.36 3131.13 0 -1 -1
333 1 2927.78 2511.21 3016.95 0 0 0
334 1 2956.49 3425.93 3255.26 -2 -1 0
335 1 2539.01 2950.01 2396.29 0 0 0
336 1 2454.87 2363.45 3393.6 0 -1 -1
337 1 1680.73 2414.61 2159.62 0 0 0
338 1 2721.89 2746.05 3342.91 0 -1 -1
339 1 2912.02 2711.43 3165.98 0 -1 0
340 1 2450.97 2443.81 2614.2 0 -1 0
341 1 2731.22 3290.39 3182.84 0 -1 -2
342 1 2836.25 2900.16 3005.99 0 -1 0
343 1 2792.8 2002.1 2930.77 1 -1 0
344 1 3005.63 3065.87 3052.26 0 -1 -1
345 1 2552.03 2247.83 1575.27 0 0 0
346 1 2704.89 2408.66 1722.41 0 -1 0
347 1 2485.87 2454.53 2852.61 -1 0 -1
348 1 2137.77 2476.26 2600.76 -1 -1 -1
349 1 2846.78 2654.15 2620 -1 0 0
350 1 2212.03 2254.59 1979.3 0 1 0
351 1 1969.8 1602.39 3174.52 0 0 -1
352 1 2338.21 2242.22 3104.9 0 1 0
353 1 3080.77 2633.68 2351.61 0 -1 0
354 1 2138.76 2629.26 2309.82 0 0 0
355 1 2345.6 2804.78 3075.47 0 -1 -1
356 1 2209.03 3164 1686.99 0 -1 0
357 1 2093.95 2948.39 2877.01 0 -1 -1
358 1 3071.36 3414.22 2180.76 -1 -1 0
359 1 2648.84 2273.32 2958.01 0 0 0
360 1 2162.69 1620.62 3375.55 0 1 -1
361 1 3323.57 2599.81 2314.13 -1 0 0
362 1 2842.24 2643.04 2844.77 0 -1 0
363 1 2517.09 2361.7 3155.32 0 0 -1
364 1 2865.96 2738.17 3022.38 -1 0 0
365 1 2103.06 3221.71 2793.27 0 -1 0
366 1 1937.09 2608.04 1729.56 0 0 0
367 1 2219.59 2586.77 2912.48 0 -1 -1
368 1 2658.18 1826.22 2599.56 -1 0 0
369 1 3135.75 2763.35 2705.83 0 0 -1
370 1 3213.64 2827.77 2147.82 -2 0 0
371 1 3297.05 2171.37 1912.45 -1 0 0
372 1 3018.49 3032.14 3374.3 -1 -1 -1
373 1 2895.47 2637.86 2851.88 0 1 0
374 1 2530.5 1845.67 2565.9 0 0 0
375 1 3125.01 1641.53 2326.26 0 0 -1
376 1 2733.52 2670.65 2504.69 0 1 0
377 1 3201.83 2489.12 2321.1 0 0 0
378 1 2301.5 1893.68 2961.34 0 1 -1
379 1 2965.96 2559.38 2203 -1 -1 0
380 1 2632.63 2118.64 1941.17 -1 0 0
381 1 2223.68 2548.91 3121.59 0 0 -1
382 1 3237.71 2919.84 2819.17 -1 -1 0
383 1 2758.48 2293.98 2328.35 -1 0 0
384 1 2880.17 2825.16 2363.69 0 -1 0
385 1 3067.45 2766.56 2310.19 0 0 0
386 1 2884.17 3041.28 2611.48 -1 0 0
387 1 3075.63 2333.71 2798.83 -1 0 -1
388 1 1577.5 2788.64 2924 0 0 -1
389 1 2434.64 2517.81 1711.25 0 0 0
390 1 1625.72 2674.31 1583.78 0 -1 0
391 1 2402.25 1883.3 1722.62 0 0 0
392 1 1843.23 2563.07 3055.01 -1 -1 -1
393 1 2602.8 2415.1 2723.37 0 0 1
394 1 1877.52 2107.43 3215.74 1 0 -1
395 1 2453.06 2447.39 2001.23 0 -1 -1
396 1 1652.13 2845.68 2594.47 1 0 0
397 1 2817.1 2854.49 1632.91 -1 0 0
398 1 2179.77 2425.49 2880.15 0 -1 0
399 1 2049.7 1716.49 2862.32 0 0 0
400 1 2155.19 2326.02 2754.85 -1 0 -1
401 1 2509.9 2464.25 2433.43 0 0 -1
402 1 2185.36 2566.34 3405.63 0 0 -2
403 1 1690.19 2038.54 3117.17 0 0 -1
404 1 2611.68 2690.25 2128.16 0 0 0
405 1 2694.64 3116.65 2844.2 -1 0 0
406 1 2066.53 2918.94 2264.19 0 -1 0
407 1 1820.33 2974.68 2961.76 -1 -1 0
408 1 3362.21 2396.69 2955.89 0 0 -1
409 1 3191.19 2688.92 2572.96 0 -1 -1
410 1 2601.54 2220.52 2428.26 0 0 -1
411 1 2084.23 2003.57 1946.24 0 0 0
412 1 2390.98 3086.7 2869.98 0 0 0
413 1 1677.78 2686.67 2911.79 0 0 -1
414 1 1969.76 2880.56 2855.14 0 -1 -1
415 1 2001.69 2371.38 2813.14 0 0 -1
416 1 2653.69 2689.9 1639.82 0 0 0
417 1 1750.57 2058.35 2410.55 -1 0 -1
418 1 3348.89 3055.96 1983.93 -1 0 1
419 1 2173.4 2602.98 2508.18 0 0 0
420 1 3208.89 2880.51 2335.26 -2 -1 -1
421 1 2902.64 2529.39 1722.63 -1 0 0
422 1 1698.97 3057.64 1862.78 0 -1 0
423 1 3116.14 2750.78 1651.11 0 -1 0
424 1 1957.91 2879.68 3248.56 0 -1 -1
425 1 2363.83 2891.08 3323.28 0 0 -1
426 1 2870.5 2608.85 2814.05 -1 0 -1
427 1 3197.61 2284.43 2216.54 -1 -1 0
428 1 2330.14 2999.58 2581.44 0 -1 -1
429 1 2948.64 2805.07 2210.85 -1 0 0
430 1 2010.44 1823.65 2224.12 0 -1 0
431 1 2629.25 2381.52 1607.05 0 0 0
432 1 1914.02 2882.66 2246.68 0 -1 0
433 1 2189.66 2699.25 2486.06 -1 -1 -1
434 1 3168.97 2731.91 2421.87 -1 0 0
435 1 2889.96 2002.92 3096.95 -1 0 0
436 1 2958.13 2736.1 1622.72 -1 0 0
437 1 2768.03 2193.69 1950.5 0 1 0
438 1 3387.86 2503.95 2680.73 -1 -1 -1
439 1 2872.55 2372.22 1797.32 0 0 0
440 1 3089.87 1928.1 3149.52 -1 0 -1
441 1 2779.6 1817.47 3197.36 -1 0 -1
442 1 1796.63 2579.1 2822.85 0 0 0
443 1 3120.72 2526.34 3122.21 0 -1 0
444 1 2858.68 2675.78 1973.67 -2 0 0
445 1 2415.6 3015.24 2565.14 0 -1 0
446 1 3006.96 1887.4 3301.68 -1 0 -1
447 1 2659.6 2735.54 2625.72 0 0 0
448 1 1974.74 2736.92 2255.72 -1 -1 0
449 1 2241.49 2453.92 1747.7 -1 0 0
450 1 1914.78 2422.02 3170.8 0 0 -1
451 1 1951.06 2768.26 2757.55 0 -1 -1
452 1 2109.13 2164.02 3130.96 0 0 0
453 1 3168.45 3153.31 2380.89 -1 0 0
454 1 1912.15 2181.97 2212.34 0 0 -1
455 1 2759.4 2626.82 3219.74 -1 0 -1
456 1 2990.71 1694.03 1625.02 0 1 0
457 1 2495.6 2792.03 2418.86 0 -1 -1
458 1 1866.89 2128.36 3034.93 0 1 -1
459 1 2011.89 2441.95 2162.93 0 -1 -1
460 1 3207.78 2481.91 2569.58 -1 -1 0
461 1 2873.94 2756.25 2502.41 0 -1 0
462 1 3028.52 2799.96 2600.62 -1 0 -1
463 1 3319.78 1999.25 3013.51 -1 0 -1
464 1 2703.8 2638.75 2679.9 0 0 0
465 1 1615.64 2755.48 2444.02 1 0 -2
466 1 2810.29 3038.51 2731.78 -1 -1 0
467 1 2716.1 2601.57 1746.97 0 1 0
468 1 3230.44 2852.67 1676.12 0 -1 1
469 1 2939.23 2527.99 2668 0 -1 -1
470 1 2932.67 3073.17 1768.39 -1 -1 -1
471 1 2938.71 2679.81 2304.65 0 0 0
472 1 2781.79 3003.36 1670.68 0 -1 0
473 1 1598.03 2382.55 3094.59 1 -1 0
474 1 3013.59 2333.68 2897.12 -2 -1 -1
475 1 2888.79 2522.03 1950.93 0 -1 0
476 1 2933.7 3385.51 2018.98 -1 -1 0
477 1 3219.26 2319.99 1912.61 0 -1 -1
478 1 2630.85 2487.73 1910.72 -1 -1 0
479 1 2630.22 1659.95 2269.39 0 0 -1
480 1 3282.11 2213.43 2454.98 -1 0 0
481 1 2982.98 1708.14 1573.52 0 1 1
482 1 2676.98 1896.71 2920.63 0 -1 -1
483 1 3038.72 2188.44 2870.4 -1 1 0
484 1 2810.52 2977.5 2326.6 -1 -1 0
485 1 2319.72 3166.06 2614.07 -1 -1 -1
486 1 3373.3 2985.52 1717.51 -1 -1 0
487 1 2753.59 2390.95 2778.66 -1 0 -1
488 1 2088.37 1700 2502.76 0 0 0
489 1 3176.59 2686.27 2075.72 -1 0 0
490 1 3032.49 2398.02 3064.88 -1 0 -1
491 1 2666.63 2769.77 2752.68 0 0 -1
492 1 2861.67 2542.55 3404.25 0 -1 0
493 1 2758.71 2452.38 2387.39 -1 0 0
494 1 2306.1 2386.29 3162.82 1 -1 0
495 1 3062.53 2846.38 2111.44 0 -1 0
496 1 2920.47 2627.23 2805.24 1 0 0
497 1 2641.45 3362.11 2658.37 -1 -1 0
498 1 2728.29 3018.02 2595.78 0 -1 0
499 1 2294.68 2517.69 1725.31 -1 0 -1
500 1 2736.63 3116 2297.17 0 -1 -1
501 1 2473.19 2757.3 2570.31 -1 0 -1
502 1 1710 3029.16 2992.35 -1 0 0
503 1 2486.35 2483.62 2916.5 0 0 0
504 1 2245.1 2613.4 2510.7 0 0 0
505 1 1997.7 2489.13 3319.88 -1 0 -1
506 1 1626.84 2085.42 2159.04 -1 0 0
507 1 3276.64 1970.9 3029.12 -1 0 -1
508 1 1832.31 1724.31 1861.51 0 0 -1
509 1 1843.27 1768.55 2519.06 0 0 0
510 1 2709.24 2328.54 2634.37 -1 -1 -1
511 1 3368.72 3092.29 2461.67 0 0 -1
512 1 1758.42 3115.93 3236.15 0 -1 -1
513 1 3066.77 2506.15 1943.76 0 -1 0
514 1 2818.75 2187.69 2240.26 -2 0 1
515 1 2494.16 2120.83 2426.23 -1 0 -1
516 1 2527.35 3350.88 2721.39 -1 -1 0
517 1 3030.84 3010.21 3240.29 0 -1 -1
518 1 2073.43 2897.68 2742.29 0 0 -1
519 1 2672.28 2603.14 2384.97 0 0 0
520 1 3073.65 2857.88 1661.22 -1 0 0
521 1 2510.01 2378.74 1682.32 -1 0 1
522 1 2479.19 2619.1 2122.39 -1 0 0
523 1 3051.93 2980.64 1763.56 0 0 0
524 1 2646.99 2408.72 2497.86 -1 -1 0
525 1 3092.86 2094.64 3004.74 0 0 -1
526 1 2022.27 2340.86 2659.04 0 0 0
527 1 1573.06 2160.67 2912.36 0 -1 -1
528 1 3193.31 2420.02 2185.77 0 1 0
529 1 2498.28 2616.16 1604.02 -1 -1 0
530 1 1902.32 2737.88 2607.33 0 0 0
531 1 2103.12 3370.65 1829.09 0 -1 0
532 1 3182.31 2608.31 1934.09 -1 0 0
533 1 3085.77 1658.35 2293.29 -1 0 -1
534 1 2327.73 1575.73 2886.33 0 0 -1
535 1 2689.99 3321.78 2485.04 -1 -2 0
536 1 2241.79 2559.67 2065.25 -1 0 0
537 1 2733.24 3023.6 2169.98 -1 -1 0
538 1 1936.7 1983.25 3131.95 0 0 -1
539 1 3106.87 2424.98 2687.86 -2 0 -1
540 1 2797.45 3190.3 2430.41 0 0 0
541 1 2487.84 2974.48 2893.6 0 0 -1
542 1 2351.1 2765.13 2404.39 0 -1 0
543 1 2273.21 2707.04 2643.11 0 0 -1
544 1 3030.68 1882.39 3012.32 -1 1 -1
545 1 2208.94 2854.47 2751.93 -1 0 -1
546 1 3236.59 1798.25 1745.28 -1 0 0
547 1 2483.41 2308.86 2376.48 0 -1 0
548 1 1832.52 1931.25 3019.2 0 0 0
549 1 2713.42 2496.98 3227.17 0 0 0
550 1 2065.69 2197.14 1686.67 0 0 0
551 1 2337.51 2711.48 1761.26 0 -1 0
552 1 2680.33 3338.58 3339.06 0 -1 -1
553 1 2916.99 2661.54 3342.51 -1 0 -1
554 1 2266.09 2416.24 2632.58 0 0 0
555 1 2027.66 2319.01 3131.52 0 0 0
556 1 2551.62 2978.66 2536.12 0 0 -1
557 1 2702.02 2643.55 2243.37 -1 0 0
558 1 2545.2 3289.93 2561.59 -1 0 -1
559 1 2541.99 3120.84 2895.61 -1 0 0
560 1 1868.72 2812.25 1576.1 0 0 0
561 1 3249.88 2363.38 2473.07 -1 -1 -1
562 1 1980.3 3264.08 3354.95 0 0 -1
563 1 3358.04 2506.99 2869.54 -1 0 0
564 1 2583.47 2732.98 3270.67 0 1 -1
565 1 3296.74 2655.81 3267.05 0 0 -1
566 1 3307.1 2192.3 2791.36 -1 0 1
567 1 2545.05 1732.57 2856.43 0 0 0
568 1 3036.02 2951.62 2546.53 -1 -1 -1
569 1 2713.99 2195.31 3080.47 0 0 0
570 1 1752.72 2946.79 2660.53 0 -1 0
571 1 2947.89 2838.09 1746.89 -1 -1 0
572 1 2552.78 2770.33 2719.82 -1 -1 0
573 1 2195.89 2297.35 3112.72 1 0 -1
574 1 2978.74 3162.84 3334.58 -1 0 0
575 1 1855.65 2403.18 2999.72 0 0 0
576 1 3287.57 2222.62 2831.46 0 -1 -1
577 1 3208.47 2597.18 2443.27 -1 -1 -1
578 1 1611.76 2629.2 2357.24 1 0 1
579 1 2933.29 3308.91 2551.67 0 0 -1
580 1 2365.17 2717.57 2425.59 0 1 1
581 1 1812.84 2245.15 2449.3 -1 0 0
582 1 3060.75 3122.47 2275.97 0 -1 0
583 1 2531.43 2426.97 2400.94 0 0 0
584 1 3246.29 3016.91 2357.6 0 0 1
585 1 3054.81 3157.23 3188.05 -1 -1 -1
586 1 2990.49 2127.21 3366.83 -1 -1 -2
587 1 1594.55 2160.04 2640.85 1 0 -1
588 1 1934.61 2387.86 1912.5 0 0 0
589 1 2866.68 3065.45 3364.09 1 -1 0
590 1 3279.72 2741.41 1918.87 -1 -1 1
591 1 2145.98 1845.98 3117.01 -1 -1 -1
592 1 1877.5 2301.78 2776.73 0 0 0
593 1 1714.07 2165.69 2992.72 0 0 0
594 1 2083.45 3099.8 2948.56 -1 1 0
595 1 2935.8 1601.14 2999.69 -1 0 -1
596 1 2870.48 2425.04 1811.09 1 0 0
597 1 2696.06 2584.47 3217.31 0 0 0
598 1 2966.51 3219.45 1746.79 0 -1 0
599 1 2267.35 3337.43 2602.38 -1 -1 0
600 1 2961.48 2076.98 2800.95 -1 0 -1
601 2 3404.36 2334.9 1815.13 -1 0 0
602 2 1830.32 1922.09 2242.22 1 0 0
603 2 3040.68 3222.1 2096.42 -1 0 1
604 2 3122.1 3074.12 2874.89 0 -1 0
605 2 1653.32 1619.53 3274.23 0 0 0
606 2 1611.21 2573.86 2152.41 1 0 0
607 2 2081.27 2617.09 2093.31 0 0 0
608 2 2784.46 3182.51 2586.87 0 -1 0
609 2 2958.64 2147.37 2365.94 0 0 0
610 2 2647.18 2983.47 3003.65 0 0 0
611 2 1714.78 2964.44 1678.55 0 0 1
612 2 2474.09 3360.5 2200.39 0 -1 0
613 2 1958.33 2567.95 2691.93 0 0 -1
614 2 2609.13 1997.65 2531.93 0 0 0
615 2 1633.93 2714.93 3220.35 0 0 0
616 2 3335.93 3313.7 1626.52 0 0 0
617 2 1714.82 2925.2 2161.06 0 -1 0
618 2 2462.97 3303.85 2963.69 0 0 0
619 2 2774.95 2014.27 2709.76 0 1 0
620 2 3369.63 3297.24 2451.95 -1 0 0
621 2 1578.26 3321.6 2852.92 0 0 -1
622 2 2254.89 3356.93 1673.59 0 0 0
623 2 2262.68 2559.69 3176.25 0 0 -1
624 2 1587.31 2336.24 2763.87 0 0 -1
625 2 2690.24 1878.27 3342.09 0 0 0
626 2 1732.91 3141.69 2818.19 1 0 -1
627 2 1953.69 1610.46 2626.24 0 1 0
628 2 3209.39 2575.66 2733.96 -1 0 0
629 2 2232.53 1942.15 2249.51 0 0 0
630 2 2533.08 1703.49 2064.9 0 1 0
631 2 3198.77 1777.84 3044.51 0 1 0
632 2 2118.22 3079.02 1932.15 0 -1 0
633 2 1706.49 3086.35 2366.63 0 -1 0
634 2 3093.11 2721.36 2887.78 -1 0 0
635 2 1678.53 1690.99 2217.34 0 0 0
636 2 2828.51 1805.95 2980.72 -1 0 0
637 2 1730.67 2139.82 2763.45 1 0 -1
638 2 1654.53 1890.17 2081.77 0 0 0
639 2 3166.52 2907.35 3303.97 0 0 0
640 2 2665.01 3406.55 2829.7 0 0 0
641 2 2318.87 1933.51 2645.59 0 0 0
642 2 2543.4 3054.92 1926.45 0 -1 0
643 2 1684.14 1597.95 2428.91 0 0 0
644 2 3366.08 2556.05 1820.97 -1 0 1
645 2 2564.67 3141.02 2183.03 0 -1 0
646 2 2183.31 3068 2168.31 0 -1 0
647 2 2101.9 2055.07 3297.68 0 0 0
648 2 2546.96 2662.86 2855.44 0 0 0
649 2 3139.42 2028.85 1596.68 -1 0 0
650 2 3160.23 2278.23 2273.24 0 0 0
651 2 3283.22 2011.49 2040.36 -1 0 0
652 2 1678.96 1670.07 1976.82 0 0 0
653 2 2940.49 2497.94 3201.43 0 0 -1
654 2 2500.05 3270.13 3387.29 0 -1 -1
655 2 2548.29 1891.08 2733.37 0 0 0
656 2 2759.62 1770.16 2752.55 0 0 0
657 2 3113.74 1946.13 2817.21 -1 0 -1
658 2 2608.97 2180.44 2757.54 -1 0 -1
659 2 1601.86 1956.52 2678.08 1 0 0
660 2 2392.31 2268.6 1882.61 0 0 0
661 2 2631.4 1633.7 1860.34 0 0 0
662 2 1852.92 1789.8 1655.52 0 0 0
663 2 1824.27 2917.19 2469.5 0 -1 0
664 2 2600.54 3124.5 3210.65 0 0 -1
665 2 2445.56 2363.73 2161.03 0 0 0
666 2 2578.18 3287.41 1999.91 0 -1 0
667 2 2861.2 1593.13 1823.64 0 0 0
668 2 1839.95 2311.68 2076.31 0 0 0
669 2 3220.4 2329.77 3093.95 -1 0 0
670 2 2103.72 1726.85 2903.06 0 0 -1
671 2 2820.23 1752.15 1646.44 0 0 1
672 2 1841.13 2557.12 2145.46 0 0 0
673 2 2266.18 2297.83 2396.56 0 0 0
674 2 3337.09 1596.87 2097.27 -1 0 0
675 2 3012.24 2858.73 3093.71 -1 0 0
676 2 2592.9 1841.35 1722.55 0 0 0
677 2 1962.95 3016.5 2084.38 0 -1 0
678 2 3224.45 2948.84 1843.73 -1 -1 0
679 2 1945.49 3071.14 3224.76 0 0 0
680 2 3140.99 1854.8 2132.11 -1 0 0
681 2 2250.29 3201.91 2922.49 0 0 0
682 2 2914.02 2340.38 2217.48 0 0 0
683 2 2386.09 2973.17 2612.38 0 -1 0
684 2 1787.73 3162.95 2161.42 0 -1 0
685 2 1827.7 3272.53 3202.62 0 0 -1
686 2 1821.74 2436.7 1729.25 0 0 0
687 2 2522.1 2907.27 3175.89 -1 -1 0
688 2 2988.44 3116.87 2456 -1 -1 0
689 2 2068.85 3264.43 3129.38 0 -1 0
690 2 3302.6 3101.34 3386.34 0 1 -1
691 2 2602.09 2291.83 2003.71 -1 0 0
692 2 1983.49 1580.86 2961.17 0 0 -1
693 2 3223.9 3306.49 2247.59 -1 -1 0
694 2 1739.6 2754.87 2717.72 0 0 0
695 2 2728.97 2048.18 2088.69 0 0 0
696 2 2370.25 1633.71 3058.62 0 1 0
697 2 1820.24 1950.88 2565.3 0 0 0
698 2 1856.52 2413.44 2519.61 1 0 0
699 2 2465.85 1611.34 1675.81 0 0 0
700 2 1602.14 2465.71 1639.51 0 0 0
701 2 3421.68 2910.84 2697.32 0 -1 -1
702 2 1736.1 2461.53 2341.1 0 0 0
703 2 1918 3212.56 1971.5 0 0 0
704 2 2156.44 3147.31 2387.72 0 -1 0
705 2 1957.58 1835.27 2852.83 0 0 -1
706 2 1818.46 2590.11 3413.11 0 0 0
707 2 1809.94 3126.28 2589.74 0 -1 0
708 2 1745.01 2619.64 2512.5 1 0 0
709 2 1738.06 1594.9 3051.35 0 0 0
710 2 2751.8 1655.78 3303.3 0 0 -1
711 2 1906.23 3032.41 1813.1 0 -1 0
712 2 2095.86 2701.39 3136.42 0 0 -1
713 2 2320.46 2457.77 2631.57 0 0 -1
714 2 2935.28 1872.33 2259.2 -1 0 0
715 2 2575.89 2220.22 1763.83 0 0 0
716 2 2269.81 2975.77 1617.53 0 0 0
717 2 3123.19 1590.27 3341.64 -1 0 -1
718 2 2683.78 2422.02 2174.35 -1 0 0
719 2 1872.42 1769.71 2060.11 0 0 0
720 2 1594.18 1892.35 3350.76 0 0 -1
721 2 3330.46 2429.77 2017.25 0 0 0
722 2 3405.35 3092.84 2145.66 -1 -1 0
723 2 2710 3173.1 3426.93 0 0 -1
724 2 3121.51 3293.66 2511.5 0 -1 0
725 2 2135.27 3395.01 2780.3 0 -1 -1
726 2 2207.18 2140.2 1801.44 0 0 0
727 2 3242.11 2426.98 1667.71 -1 0 0
728 2 2233.58 2082.8 2444.28 0 0 0
729 2 2986.18 1645.99 2487.45 -1 0 0
730 2 3002.35 2904.68 1920.67 -1 -1 0
731 2 2263.6 2743.88 3402.59 0 0 0
732 2 3321.53 1689.87 3420.11 -1 0 -1
733 2 2188.48 1668.48 1874.14 0 1 0
734 2 1728.79 2206.1 2247.98 0 0 0
735 2 2355.37 1725.4 2499.79 0 0 0
736 2 2162.09 3320.63 2002.22 0 -1 0
737 2 2103.09 2839.53 2019.8 -1 0 0
738 2 3285.07 2823.81 3117.9 0 0 0
739 2 2193.86 3070.95 3111.46 0 0 0
740 2 2945.92 1723.75 2083.03 0 0 0
741 2 2673.68 1973.27 3080.34 -1 1 0
742 2 2518.21 2045.59 1582.62 0 0 0
743 2 3399.42 2029.52 2455.94 -1 0 0
744 2 2605.31 2198.17 2206.25 0 0 0
745 2 2144.2 3137.79 3326.33 0 0 -1
746 2 2128.6 2638.32 1721.36 0 0 0
747 2 2820.46 3019.75 3149.59 0 0 -1
748 2 2424.3 1756.39 1868.16 0 0 0
749 2 2173.79 1984.41 2797.3 0 0 0
750 2 1666.7 1833.51 2415.44 0 0 0
751 2 3395.4 2703.8 2612.15 0 0 -1
752 2 3110.02 1596.28 2697.2 0 1 0
753 2 1645.61 2251.65 2028.15 0 0 0
754 2 2796.13 2351.7 3316.2 -1 0 0
755 2 2298.38 2038.16 3056.78 0 0 0
756 2 2609.6 3134.02 2413.87 0 -1 0
757 2 2370.33 2142.35 2280.64 0 0 0
758 2 3227.03 3256.61 2755.22 -1 -1 0
759 2 2749.88 1595.96 2063.62 0 0 0
760 2 2476.67 2662.81 3086.38 0 0 -1
761 2 1989.19 3218.6 1699.63 0 -1 0
762 2 2028.77 2012.45 2148.54 0 0 0
763 2 1739.68 2010.88 1655.89 0 0 0
764 2 2361.63 2945.3 2047.3 0 -1 0
765 2 1927.74 2330.15 2307.99 0 0 0
766 2 3256.28 1971.87 1782.97 -1 0 0
767 2 2380.32 1873.2 2070.28 0 1 0
768 2 1893.84 1696.09 2309.96 0 0 0
769 2 1830 3386.63 2114.05 0 -1 0
770 2 1614.25 2282.62 2452.92 1 -1 0
771 2 1680.05 2841.16 3053.31 1 0 -1
772 2 1939.48 2093.48 2375.12 0 0 0
773 2 3023.61 1751.35 1607.53 -1 0 1
774 2 1809.35 3151.99 3397.49 0 -1 -1
775 2 3343.77 3396.9 1870.83 -1 -1 0
776 2 2917.84 2858.49 3282.87 -1 0 -1
777 2 3278.32 2642.33 1608.95 -1 0 0
778 2 2037.68 2156.61 2797.09 0 0 -1
779 2 2898.85 1978.03 1578.07 -1 0 0
780 2 3046.78 2559.03 1587.33 -1 0 0
781 2 3155.56 1599.29 1723.74 -1 0 0
782 2 2505.56 2120.37 3029.73 0 0 0
783 2 1887.92 3158 3003.95 0 -1 -1
784 2 1679.21 1739.77 2619.77 0 0 -1
785 2 3092.72 3128.65 1881.96 -1 -1 0
786 2 1778.81 1903.42 1876.77 1 0 0
787 2 2550.49 2826.83 1964.97 0 0 0
788 2 2385.48 2050.68 2844.34 0 0 0
789 2 1697.33 2112.9 3303.91 0 0 -1
790 2 3339.85 1899.91 2285.59 -1 0 0
791 2 3236.1 1592.63 2900.2 0 0 -1
792 2 2017.9 2492.26 3385.15 0 0 -1
793 2 1985.15 1731.12 3323.03 0 0 0
794 2 3109.31 1831.53 2624.99 -1 0 0
795 2 1954.12 3056.78 2771.38 0 0 0
796 2 1717.51 2499.64 3173.83 0 0 -1
797 2 3119.37 3409.62 3091.78 -1 -1 -1
798 2 1922.04 3301.81 2771.65 0 0 0
799 2 3182.34 2107.55 3151.2 -1 1 -1
800 2 3192.96 3020.91 3105.81 -1 0 -1
801 2 2242.55 2215.59 2899.22 0 0 0
802 2 1809.35 1648.59 2814.53 0 1 0
803 2 2543.16 3249.14 1763.69 0 -1 0
804 2 2498.62 2817.16 2201.13 0 -1 0
805 2 2201.81 1707.82 2314.69 0 0 0
806 2 3373.17 2869.01 2020.28 -1 -1 0
807 2 3227.78 3245.65 3233.3 -1 0 -1
808 2 2912.93 2308.54 1958.21 -1 0 0
809 2 3295.3 1793.24 2765.45 0 0 0
810 2 2455.45 1815.33 3386.23 0 0 -1
811 2 1720.33 1820.64 3146.14 1 0 0
812 2 2588.17 1757.28 3157.27 0 0 -1
813 2 2354.55 1763.84 2798.63 0 0 0
814 2 1896.93 2770.45 2058.25 0 0 0