ITEM: TIMESTEP
16000
ITEM: NUMBER OF ATOMS
1000
ITEM: BOX BOUNDS pp pp pp
1.9082781812453463e+03 3.0917218187542894e+03
1.9082781812453463e+03 3.0917218187542894e+03
1.9082781812453463e+03 3.0917218187542894e+03
ITEM: ATOMS id type x y z ix iy iz
1 2 3005.17 2910.77 2025.39 0 0 0
2 2 2115.59 1952.74 2581.71 0 1 -1
3 2 2285.95 3064.57 2029.87 0 -1 1
4 2 2103.38 2223.52 2767.86 0 0 -1
5 2 3014.1 3089.86 2773.81 0 -1 -1
6 2 2237.22 2476.18 2244.47 -1 0 -1
7 2 2293.59 2410.99 2262.84 0 0 0
8 2 1947.13 3027.35 2533.28 0 0 0
9 2 2994.98 2471.49 2328.47 -1 0 0
10 2 2159.13 2951.18 2746.4 0 0 0
11 2 2703.97 2422.77 2771.6 0 0 0
12 2 1924.48 2921.77 2756.34 0 0 -1
13 2 1966.86 2367.53 2015.33 1 0 1
14 2 1987.95 2929.64 2166.31 0 0 0
15 2 2992.83 1994.79 2907.93 0 0 -1
16 2 2133.49 3067.53 2004.55 0 -1 0
17 2 2469.11 2240.12 2968.48 2 1 0
18 2 2413.65 2377.34 2913.51 0 1 -1
19 2 2369.74 2144.36 3046.69 0 0 0
20 2 3044.16 1986.72 2753.29 0 1 0
21 2 2150.56 2523.6 2027.6 0 1 1
22 2 1991.55 2856.13 2117.6 0 0 1
23 2 2718.51 2828.32 2191.43 -1 1 0
24 2 1924.94 2149.74 2997.5 1 0 -1
25 2 2365.36 1953.72 1915.59 0 1 1
26 2 2709.27 2347.15 2621.29 0 0 1
27 2 2099.34 2735.65 2962.85 0 0 0
28 2 1975.02 2453.49 3068.67 0 0 0
29 2 3029.66 2308.89 2535.73 -1 1 0
30 2 2962.53 2115.02 3051.25 -1 1 0
31 2 2025.5 2853.43 2956.66 0 -1 0
32 2 1974.4 3083.22 2594.86 0 0 0
33 2 2290.64 2241.81 2270 0 0 0
34 2 2308.41 2082.84 3030.53 0 1 0
35 2 2883.32 2954.38 3075.59 0 -1 0
36 2 2335.72 1913.91 2729.88 0 1 0
37 2 2033.59 2024.35 2595.13 0 0 0
38 2 1933.42 2586.39 1944.2 0 1 0
39 2 3049.25 2487.05 2068.07 -1 1 0
40 2 2311.56 2225.47 2928.09 0 -1 0
41 2 2046.76 2856.4 2188.51 1 -1 0
42 2 3029.17 2383.5 1942.59 -1 0 0
43 2 2059.1 2454.37 2298.62 1 0 1
44 2 2825.94 2748.03 2916.26 1 -1 0
45 2 2007.83 2390.63 2268.18 0 0 0
46 2 2841.47 1986.32 2287.56 0 1 0
47 2 3051.33 2619.91 2371.4 -1 0 0
48 2 1918.28 2527.12 2007.53 1 0 0
49 2 2903.99 2423.76 1910.11 0 0 1
50 2 2405.1 2893.61 2165.83 0 0 1
51 2 2766.14 1989.39 2785.42 -1 1 1
52 2 2626.53 2414.86 2200.81 0 0 0
53 2 2261.54 2455.39 2027.39 0 0 1
54 2 2118.27 2025.54 2631.03 0 1 0
55 2 2593.1 2238.4 2636.45 0 0 -1
56 2 2202.99 2260.23 2272.65 0 0 0
57 2 2149.74 2383.86 2808.89 0 0 -1
58 2 1910.32 2248.22 2541.68 0 0 0
59 2 2725.99 2422.43 2246.24 -1 2 0
60 2 2249.72 2966.73 2008.7 0 0 0
61 2 3059.5 2402.5 2502.93 -1 0 0
62 2 2958.35 2913.11 2860.27 0 -1 0
63 2 1945.57 2974.44 3081.48 0 0 0
64 2 3044.48 2461.3 1984.1 0 0 1
65 2 2652.34 2286.47 2683.35 0 -1 0
66 2 2860.19 2017.63 2814.77 0 0 -1
67 2 2632.8 1941.76 2735.9 0 1 1
68 2 2089.18 2347.69 2469.29 0 0 1
69 2 2609.04 2158.14 2108.51 0 0 0
70 2 2368.96 2963.31 2786.99 0 0 0
71 2 1922.6 1991.17 2003.27 0 0 1
72 2 2674.73 2357.5 2540.66 -1 -1 0
73 2 2837.8 1967.88 2183.27 -2 -1 0
74 2 2282.32 1933.57 3062.53 0 1 -1
75 2 2892.26 2221.31 1995.65 0 0 0
76 2 2653.39 2572.83 2326.47 0 -1 0
77 2 2881.03 2138.13 2064.6 -1 1 1
78 2 1955.19 2096.73 2609.46 0 0 0
79 2 3044.67 2637.42 1934 -1 0 0
80 2 2297.98 2909.33 2082.75 0 0 -1
81 2 2385.82 1940.41 3013.24 0 2 0
82 2 2750.63 2858.14 2315.29 -1 0 -1
83 2 2437.13 2922.22 2551.9 0 0 0
84 2 2549.95 2172.12 2010.42 1 1 1
85 2 2856.86 2050.57 2037.1 0 1 0
86 2 3063.44 2409.96 2111.75 -1 0 1
87 2 2082.93 2274.6 2523.33 1 0 0
88 2 1908.61 2844.08 1972.49 0 0 1
89 2 1928.81 2560.03 2099.25 1 0 1
90 2 2992.67 2353.99 2977.21 0 1 -1
91 2 2571.89 2804.48 2804.62 0 0 -1
92 2 2353.54 2388.65 1922.18 -1 0 0
93 2 2419.26 1949.6 1994.24 0 0 1
94 2 2410.37 2272.67 3024.02 1 1 -1
95 2 2050.64 2276.09 2813.34 0 0 -1
96 2 2252.34 2926.86 1930.01 1 0 1
97 2 2871.46 3004.65 2744.85 0 -1 0
98 2 2929.47 2008.5 2061.21 0 0 0
99 2 1988.47 2228.67 1949.55 0 0 0
100 2 2296.75 2069.26 2942.71 1 0 0
101 2 2446.81 2401.46 2693.39 0 0 0
102 2 2205.09 3032.09 2045.6 0 -1 0
103 2 3078.07 2133.02 2193.84 -1 0 0
104 2 2408.4 2006.32 2060.79 0 0 0
105 2 2336.36 2136.69 2753.69 0 0 0
106 2 2486.16 2216.33 2050.5 0 0 0
107 2 2082.4 2225.9 2377.16 0 0 0
108 2 3026.21 2977.14 2094.55 -1 0 0
109 2 2241.65 2203.12 2199.76 0 0 0
110 2 2096.49 2423.13 1973.54 0 0 0
111 2 1992.44 2889.29 2837.87 1 -1 -1
112 2 3000.36 1987.24 2376.95 -1 -1 0
113 2 2202.39 2980.24 2302.77 0 -1 0
114 2 2795.62 2474.72 2132.67 0 0 1
115 2 3043.5 2208.37 2979.93 -1 0 -1
116 2 2150.25 2215.91 2512.47 0 0 0
117 2 2349.02 2981.12 2189.71 0 -1 1
118 2 1974.4 2995.22 2611.1 0 -1 0
119 2 2322.2 2025.22 2067.06 0 0 0
120 2 3031.77 3066.35 2321.22 -1 -1 0
121 2 3039.78 2181.42 2414.74 -1 0 0
122 2 2043.78 1910.25 3068.96 0 0 -1
123 2 2185.91 2236.97 1964.95 0 0 0
124 2 2116.4 2041.19 1966.9 0 0 0
125 2 1978.88 2981.04 1994.4 0 -1 0
126 2 3088 2247.21 2090.16 -1 0 0
127 2 3049.24 2333.19 2407.77 -1 0 0
128 2 2115.08 1946.25 2125.98 0 0 0
129 2 1958.59 2323.93 2990.97 0 0 -1
130 2 1937.95 2020.88 2471.63 0 0 0
131 2 2030.77 1950.19 2548.01 0 0 -1
132 2 2042.04 2472.59 3008.36 0 0 -1
133 2 2297.33 2107.55 2089.93 0 0 0
134 2 2017.06 2920.6 1942.6 1 -1 1
135 2 2123.7 2263.71 2141.81 0 0 0
136 2 3052.35 2464.64 2569.99 0 -1 -1
137 2 2722.6 2260.82 2614.5 0 1 0
138 2 2029.32 2185.62 2602.87 0 0 0
139 2 2951.19 2191.98 2263.16 -1 0 0
140 2 2731.55 2448.36 2076.74 -1 -1 0
141 2 2639.57 2199.2 2901.15 -1 0 0
142 2 1928.84 2416.33 1953.22 0 0 0
143 2 2235.57 2044.98 2068.26 0 0 0
144 2 1942.27 2174.25 2256.37 0 0 0
145 2 2294.57 2208.8 2722.9 0 0 0
146 2 2326.03 2396.46 2006.68 0 0 0
147 2 1982.73 2120.48 2189.77 0 0 0
148 2 2230.85 2045.36 3047.34 0 0 -1
149 2 2282.48 2036.76 2155.46 0 0 0
150 2 3037.42 2411.92 2638.83 -1 0 0
151 2 2426.09 2286.48 2210.6 0 0 -1
152 2 3046.49 2253.91 2466.53 -1 0 -1
153 2 2202.01 1965.1 2346.68 0 0 0
154 2 2199.54 2316.42 2015.2 0 0 0
155 2 2386.9 1991.26 2438.53 0 0 0
156 2 2998.81 2012.53 2115.77 -1 0 0
157 2 2922.11 1986.75 2155.26 0 0 0
158 2 2543.71 1935.16 2128.45 0 0 0
159 2 2062.78 2972.54 2182.07 0 -1 0
160 2 2103.86 2410.09 2987 1 0 0
161 2 2967.48 2211.29 3048.82 -1 0 -1
162 2 2330.68 2019.16 2298.9 0 0 0
163 2 2908.73 2998.01 2275.97 0 0 0
164 2 2705.05 2085.27 2395 0 0 0
165 2 2240.91 2111.55 2009.36 0 0 0
166 2 2980.89 2346.87 2010.72 0 0 0
167 2 2180.56 1989.23 2527.52 0 0 0
168 2 2092.11 2122.57 1993.73 0 0 0
169 2 1988.54 1970.49 1934.72 0 0 0
170 2 2776.07 2866.25 2543.51 -1 0 0
171 2 2101.13 2855.93 2272.88 0 -1 0
172 2 1943.49 2195.97 2022.24 0 0 0
173 2 2177.58 2441.97 2002.9 0 0 0
174 2 3008.48 2133.63 2482.01 -1 0 -1
175 2 1977.4 2140.78 1950.16 0 0 0
176 2 2137.94 2460.31 2480.15 0 0 0
177 2 3020.29 2789.74 2369.34 0 -1 0
178 2 2014.74 2403.66 1947.06 0 0 0
179 2 2252.8 2323.96 2220.63 0 0 0
180 2 2057.37 3020.58 2003.15 0 -1 0
181 2 2952.87 2971.58 2744.58 -1 -1 -1
182 2 2347.36 1943.08 2045.13 0 0 0
183 2 3000.38 1985.4 2200.99 -1 0 0
184 2 1988.55 2243.4 2227.97 0 0 0
185 2 2240.19 1912.26 2404.24 0 0 0
186 2 2107.08 2452.43 2057.43 0 0 0
187 2 3002.37 2259.29 2389.06 -1 0 0
188 2 3064.31 2067.16 1969.44 -1 0 0
189 2 2491.75 2212.08 2351.73 0 0 -1
190 2 2525.59 2005.79 2081.13 0 0 0
191 2 2081.63 2151.81 3027.97 0 0 -1
192 2 1953.67 2287.69 2152.24 0 0 0
193 2 2161.15 2313.04 2508.41 0 1 0
194 2 2137.56 2495.96 1944.03 0 0 0
195 2 1935.7 2446.1 2036.76 0 0 0
196 2 2455.26 1997.95 2134.46 0 0 0
197 2 2041.04 2267.99 2010.2 0 0 0
198 2 2492.24 2136.94 2172.35 0 0 0
199 2 2114 2149.39 2247 0 0 0
200 2 1934.54 2477.42 2129.7 0 0 0
201 2 2696.12 2761.6 2769.48 0 -1 -1
202 2 1914.55 2324.25 2482.34 0 0 0
203 2 2063.42 2996.06 2091.39 0 -1 0
204 2 2501.59 2139.13 2653.44 0 0 0
205 2 3041.89 1983.74 2456.31 -1 0 0
206 2 2003.66 2237.31 2536.3 0 0 0
207 2 2806.53 2706.13 2621.56 0 0 0
208 2 1985.13 2090.29 2438.75 0 0 0
209 2 2979.35 2926.47 2250.32 1 -2 2
210 2 2339.14 2296.19 2218.64 0 0 0
211 2 2394.81 1936.66 2121.22 0 0 0
212 2 2406.05 2754.82 2748.47 -1 -2 -1
213 2 2318.69 1986.77 2217.41 0 0 0
214 2 2267.97 2942.82 2162.15 0 -1 0
215 2 2526.29 2138.23 2089.75 0 0 0
216 2 2197.64 3056.9 3001.95 0 -1 -1
217 2 2968 3090.66 2181.29 -1 -1 0
218 2 2501.39 2183.92 1933.46 1 1 0
219 2 2137.04 3045.67 2099.92 0 -1 0
220 2 3001.22 2253.63 2095.68 -1 0 0
221 2 2802.12 2054.32 2250.62 1 0 -1
222 2 1937.96 2052.88 2223.32 0 0 0
223 2 2587.43 2845.22 2654.66 0 -2 -1
224 2 2112.57 2969.57 2589.16 0 -1 -1
225 2 2220.99 1975.36 2131.04 0 0 1
226 2 2325.45 2091.65 2005.76 0 0 0
227 2 2176.38 2265.65 2999.37 0 0 0
228 2 2446.09 2286.86 2010.33 0 0 0
229 2 2036.16 2015.08 1993.42 0 0 0
230 2 2245.02 2204.47 2984.55 0 0 -1
231 2 2129.92 1977.18 2412.98 0 0 0
232 2 2281.4 2333.62 2414.37 0 0 0
233 2 2141.92 1952.14 1946.15 0 0 0
234 2 2382.49 2087.88 2087.88 0 0 0
235 2 2153.03 2252.23 2052.53 0 0 0
236 2 2044.71 2084.44 1928.73 0 0 0
237 2 2926.77 2168.1 1932.2 -1 0 0
238 2 1944.34 2096.97 2518.25 0 0 0
239 2 1945.5 2279.2 3071.6 0 0 -1
240 2 2477.88 2212.58 2215.1 0 0 0
241 2 2870.21 2567.77 3079.38 -1 0 -1
242 2 2375.13 2025.61 3032.27 0 0 0
243 2 2661.83 2808.91 2622.36 0 0 0
244 2 2181.82 2119.01 2431.76 0 0 0
245 2 2024.25 2263.51 2970.54 0 0 -1
246 2 2320.65 1935.15 2431.1 0 0 -1
247 2 2134.75 2371.89 2035.34 0 0 0
248 2 2952.3 2218.69 2165.1 -1 0 0
249 2 3063.61 2929.57 2298.88 -1 -1 0
250 2 2829.43 2306.85 3040.94 -1 1 -1
251 2 2241.44 3001.81 3056.16 0 -1 0
252 2 2026.53 2085.22 2358.15 0 0 0
253 2 2985.44 2400.41 3051.74 0 0 -2
254 2 2467.99 1918.59 2170.25 0 0 0
255 2 1971.9 2931.54 2301.1 1 0 0
256 2 2981.04 2312.75 2462.45 0 1 -1
257 2 2256.21 1928.79 2198.8 0 0 0
258 2 2075.56 2560.07 1930.89 0 0 0
259 2 2215.49 2222.6 3065.8 0 0 -1
260 2 2106.05 2328.93 3022.52 0 0 -1
261 2 2340.48 2157.71 1948.85 0 0 0
262 2 2023.44 2467.34 2127.37 0 0 0
263 2 2260.12 2070.7 2404.14 0 0 0
264 2 2035.43 1928.53 2808.27 0 0 -1
265 2 2061.45 2137.65 2081.89 0 0 0
266 2 2367.89 2018.19 2144.64 0 0 0
267 2 2100.56 2028.38 2345.61 0 0 0
268 2 2270.08 2375.07 3078.52 0 0 -1
269 2 2497.73 2563.08 2312.83 0 0 0
270 2 2637.67 1981.26 2815.72 0 -1 -1
271 2 2274.43 2973.3 2246.35 0 -1 0
272 2 3048.04 2056.4 2507.46 -1 0 0
273 2 2010.97 2307.87 2481.22 0 0 0
274 2 2122.23 1946.53 2316.99 0 0 0
275 2 2229.41 2421.97 2174.07 0 0 0
276 2 2597.92 2021.73 2750.26 -1 1 0
277 2 2013.3 2096.37 2018.48 0 0 0
278 2 2825.02 2539.1 2190.42 0 0 0
279 2 2189.44 2469.16 2085.63 0 0 0
280 2 1919.01 2977.83 2137.38 0 -1 0
281 2 1935.15 3052.61 2449.79 0 -1 -1
282 2 2934.98 2313.67 2384.47 0 0 0
283 2 2995.4 2118.28 1950.74 -1 0 0
284 2 3074.95 2160.25 2096.54 -1 0 0
285 2 2071.77 2529.45 2079.96 0 -1 0
286 2 2419.67 2352.92 3057.27 -1 0 -1
287 2 2221.94 2164.03 2496.8 0 0 0
288 2 2260.28 1963.03 2048.24 0 0 0
289 2 2637.55 2298.45 2038.2 0 0 1
290 2 2963.46 2335.29 2250.27 -1 0 0
291 2 2013.92 1958 2453.21 0 0 0
292 2 2107.19 2122.2 2872.39 1 0 0
293 2 3038.51 2182.4 2259.79 -1 0 0
294 2 2947.92 1920.89 2349.75 0 0 0
295 2 2107.34 2283.43 2944.5 0 0 -1
296 2 1985.13 3067.78 1970.1 0 -1 0
297 2 1969.18 2398.25 2116.05 0 0 0
298 2 1933.79 2191.25 3074.17 0 0 -1
299 2 1924.93 3004.25 2295.88 0 -1 0
300 2 2034.6 2234.91 2303.02 0 0 0
301 2 2133.96 2067.09 2220.27 0 0 0
302 2 1994.49 2239.16 2383.65 0 0 0
303 2 2347.21 2239.02 1986.54 0 0 0
304 2 2317.27 2193.98 2466.72 0 -1 0
305 2 2907.3 2845.91 2608.33 0 -1 0
306 2 2955.87 2267.86 2309.64 -1 0 0
307 2 2251.99 2155.87 2911.91 -1 0 -1
308 2 2998.18 1959.9 2287.71 -1 0 0
309 2 2374.06 2254.71 2144.88 0 0 0
310 2 2527.07 3006.43 2338.32 -1 -1 0
311 2 2256.58 2729.87 2227.87 0 0 -1
312 2 2160.74 2969.46 3071.71 0 -1 -1
313 2 2208.02 2394.73 2257.28 0 0 0
314 2 2187.95 2000.15 2006.57 0 0 0
315 2 2205.54 2437.8 1920.08 0 0 0
316 2 2362.83 2075.24 1924.65 0 0 0
317 2 2477.86 2018.91 2009.04 0 0 0
318 2 2043.04 2280.86 2601.08 0 0 0
319 2 1929.45 2469.74 2377.9 0 0 0
320 2 2073.89 2154.19 2326.41 0 0 0
321 2 2721.97 1920.99 2621.86 -1 0 -1
322 2 2092.61 2029.88 2152.86 0 0 0
323 2 2016.38 2459.39 2376.47 0 0 0
324 2 2042.18 1943.22 2634.07 0 0 -1
325 2 1994.2 2991.88 2241.39 0 -1 0
326 2 3073.93 2012.59 2162.23 -1 0 0
327 2 1979.65 2017.47 2389.05 0 0 0
328 2 2195.02 1981.6 2612.8 0 0 0
329 2 2940.85 3058.54 2735.32 0 -1 0
330 2 1940.77 2611.3 2029.5 0 0 0
331 2 2990.54 2421.17 2061.3 -1 0 0
332 2 2593.38 2274.23 3020.8 0 -1 0
333 2 1965.9 2393.42 2347.26 0 0 0
334 2 2267.44 2029.09 1986.18 0 0 0
335 2 2168.28 2912.62 2551.57 0 0 -1
336 2 2180.87 2047.42 2374.11 0 0 0
337 2 2374.82 2224.14 3086.69 0 0 -1
338 2 2477.58 2408.51 2469.19 0 -1 -1
339 2 2109.92 3066.75 2525.65 0 -1 -1
340 2 2419.31 2144.16 2367.28 0 0 0
341 2 1994.22 2538.44 3084.51 0 0 -1
342 2 2512.97 2299.51 2229.04 0 0 0
343 2 3050.69 2328.5 2252.25 -1 0 0
344 2 2169.89 2324.91 2101.16 0 0 0
345 2 3015.72 2296.17 1943.36 -1 0 0
346 2 2251.77 2412.47 2440.35 0 -1 0
347 2 2292.05 2249.59 1914.91 -1 0 0
348 2 2057.27 2390.04 2100.48 0 0 0
349 2 2132.77 2981.05 2028.43 0 -1 0
350 2 2302.56 2328.46 2292.24 0 0 0
351 2 2088.91 2099.23 2955.21 0 0 0
352 2 2019.56 2030.1 2507.17 0 0 0
353 2 3059.45 1976.09 2542.8 -1 0 0
354 2 2089.22 1998.03 2252.02 0 0 0
355 2 2055.62 2380.13 2344.32 0 0 0
356 2 1982.76 2097.77 2282.79 0 0 0
357 2 2898.49 2366.66 2508.67 0 0 0
358 2 2207.77 2134.21 3071.02 0 0 -1
359 2 2045.24 1987.59 2092.87 0 0 0
360 2 2702.98 2411.36 2152.22 0 0 0
361 2 1912.75 2012.74 3084.38 0 0 -1
362 2 2235.08 2929.27 2379.38 0 0 0
363 2 2154.75 3080.63 2385.29 0 -1 0
364 2 2329.1 2898.98 2211.53 0 -1 0
365 2 2525.92 2306.66 2320.79 0 0 0
366 2 2967.73 2253.64 2971.42 0 0 -1
367 2 2790.31 2152.21 2858.01 0 0 0
368 2 1924.23 2515.9 2624.74 0 -1 0
369 2 2188.08 2213.45 2431.55 0 0 0
370 2 2970 2259.22 2012.32 -1 0 0
371 2 2214.49 2066.35 2497.2 0 0 0
372 2 2660.49 2207.52 2502.33 0 0 0
373 2 2690.07 2370.41 2063.92 0 0 1
374 2 2421.68 2310.43 2093.92 0 0 0
375 2 2524.23 2458.22 2780.03 -1 0 0
376 2 3030.48 2949.5 2179.2 0 0 0
377 2 3013.2 2341.2 2091.52 -1 0 0
378 2 2181.49 2257.26 2744.2 1 0 -1
379 2 2115.08 2446.97 2879.91 0 0 -1
380 2 2665.69 2054.69 3016.03 -1 0 -1
381 2 2427.57 2134.65 1929.97 0 0 0
382 2 2685.58 2010.79 2749.26 0 0 0
383 2 2756.23 2491.31 2001.14 -1 -1 -1
384 2 2241.18 2242.76 2645.29 0 0 0
385 2 2173.82 2108.82 2652.88 0 -1 0
386 2 2286.61 2168.83 3056.87 0 0 -1
387 2 2179.66 3085.98 2166.25 0 -1 0
388 2 2025.88 2044.07 2210.23 0 0 0
389 2 2046.93 2910.8 2553.37 0 -1 -1
390 2 2188.7 2887.37 2153.09 0 -1 1
391 2 1996.34 1947.13 2032.96 0 0 0
392 2 2933.97 2307.77 2078.73 -1 0 0
393 2 1919.32 2361.97 2185.12 0 0 0
394 2 1982.12 2460.53 2458.98 0 1 0
395 2 2001.81 1919.12 2124.57 0 0 0
396 2 2181.22 2896.78 2281.95 0 -1 0
397 2 2196.78 2056.35 2157.31 0 0 0
398 2 2949.88 2974.63 2052.48 -1 -1 1
399 2 1956.8 2797.51 2061.38 0 -1 0
400 2 2780.45 3011.65 2010.67 -1 -1 0
401 2 1932.79 3090.72 2273.09 0 -1 0
402 2 1912.66 1929.56 1939.88 0 0 0
403 2 2152.32 2171.63 2363.34 0 0 0
404 2 2021.33 2072.51 2122.75 0 0 0
405 2 1977.22 2411.62 2989.45 0 0 -1
406 2 3056.1 2129.41 2557.58 0 0 0
407 2 2784.42 2045.49 2849.68 -1 0 0
408 2 2457.22 2969.69 2633.79 0 -1 0
409 2 1933.83 2080.39 2128.98 0 0 0
410 2 1919.84 2101.91 3078.63 1 1 0
411 2 2160.42 2278.9 2659.85 0 0 0
412 2 2855.01 1982.98 2097.87 -1 1 1
413 2 2120.92 2269.26 2443.29 0 0 0
414 2 2985.77 2961.11 2969.03 -1 -1 -1
415 2 2082.27 2057 2055.79 0 0 0
416 2 1976.26 1944.72 2339.46 0 0 0
417 2 2989.83 2143.91 2197.01 -1 0 0
418 2 2362.62 2006.91 2946.58 0 0 0
419 2 2064.28 2948.6 3049.73 1 0 -1
420 2 2522.43 2225.66 3037.82 0 0 0
421 2 2277.95 3029.56 2177.28 0 -1 0
422 2 1919.19 2399.89 2269.39 0 0 0
423 2 2097.61 2379.47 2264.72 0 0 0
424 2 2939.19 1945.93 2997.21 -1 1 -1
425 2 2385.15 2781.25 2830.07 0 -1 -1
426 2 2976.91 2504.54 2018.57 0 0 0
427 2 2005.04 2176.52 2970.51 0 0 0
428 2 2293.2 1946.72 1966.15 0 0 0
429 2 3023.91 2981.12 1925.6 -2 0 1
430 2 1953.72 2278.53 2915.63 0 0 -1
431 2 2039.08 2276.55 2148.67 0 0 0
432 2 2194.66 2951.81 2213.2 0 -1 0
433 2 2278.11 2098.05 1929.06 0 0 0
434 2 2908.73 1947.87 2232.96 -1 0 0
435 2 2946.63 2383.96 2129.9 -1 0 0
436 2 3050.63 2294 2024.41 -1 0 0
437 2 2135.42 2050.3 2461.93 0 0 0
438 2 1963.25 2245.45 2613.03 0 1 0
439 2 2168.36 2347.2 2964.62 0 0 -1
440 2 2113.12 2310.89 2759.69 0 0 -1
441 2 2095.17 2239.84 3021.69 0 0 -1
442 2 2168.25 2333.45 2308.38 0 0 0
443 2 2214.42 1991.18 2433.95 0 0 0
444 2 2068.17 2080.08 2278.48 0 0 0
445 2 2135.47 2194.47 3087.12 0 0 -1
446 2 2784.15 1935.92 2117.12 1 1 0
447 2 2166.18 2018.51 2286.47 0 0 0
448 2 3032.38 2063.67 2223.14 -1 0 0
449 2 3017.18 2548.69 2826.37 -1 0 0
450 2 2012.91 2219.6 3047.64 0 0 -1
451 2 2410.11 2073.37 2002.15 0 0 0
452 2 2043.28 2229.95 2457.26 0 0 0
453 2 2106.85 1975.54 2028.17 0 0 0
454 2 2356.47 1934.48 2275.48 0 0 0
455 2 2059.79 2911.07 2117.25 0 -1 0
456 2 2245.43 2207.19 2339.28 0 0 0
457 2 2123.06 2963.39 2268.08 0 -1 -1
458 2 2256.15 2019.93 2559.47 0 0 1
459 2 2012.08 2054.66 2973.12 1 0 -1
460 2 2386.82 2671.68 2538.08 0 -1 0
461 2 2364.46 1963.4 2358.14 -1 0 0
462 2 2026.51 2105.16 2557 0 0 0
463 2 2055.51 2932.65 2029 0 -1 0
464 2 2404.68 2227.97 2343.25 0 0 0
465 2 2489.86 2043.24 2308.13 0 0 0
466 2 2300.68 2394.04 2351.06 0 0 -1
467 2 2539.43 1961.42 2960.98 0 1 0
468 2 3086.06 2250.36 2229.54 -1 0 0
469 2 2451.86 2095.11 2247.66 0 0 0
470 2 1975.83 2989.73 2377.16 0 -1 0
471 2 3038.42 2209.08 2164.02 -1 0 0
472 2 2956.27 2065.76 2174.76 -1 0 0
473 2 2253.1 2180.22 1954.5 0 0 0
474 2 3086.44 2918.76 2058.97 -1 0 1
475 2 1984.6 2955.43 2080.51 0 -1 0
476 2 1941.43 2201.53 2164.96 0 0 0
477 2 2358.07 2135.28 2250.06 0 0 0
478 2 3032.32 2036.85 2310.96 -1 0 0
479 2 1992.69 3042.89 2059.91 0 -1 0
480 2 2102.53 2225.32 2865.97 0 0 0
481 2 2330.04 2184.87 2326.44 0 0 0
482 2 2269.78 2906.18 2301.98 0 0 0
483 2 2733.95 2976.59 1942.87 0 -1 0
484 2 2967.13 1948.95 3090.04 -1 1 -1
485 2 2944.95 2414.21 2214.39 0 1 0
486 2 2177.07 2354.37 2185.94 0 0 0
487 2 2025.1 3058.56 2501.96 0 -1 0
488 2 2200.76 2355.56 2573.1 0 0 -2
489 2 3068.79 2487.33 2283.39 -1 1 0
490 2 2755.38 2369.76 2506.74 0 1 0
491 2 2044.04 1929.47 2282.61 0 0 0
492 2 2937.58 2868.57 2958.33 0 0 -1
493 2 2922.26 2218.98 2078.94 -1 0 0
494 2 2280.41 2332.33 2043.56 0 0 0
495 2 2045.65 2920.72 2250.66 0 -1 0
496 2 2119.84 2297.66 1984.27 0 0 0
497 2 2063.3 3001.58 2414.52 0 -1 0
498 2 2091.13 2854.53 2789.79 -1 -1 -1
499 2 2390.84 2199.25 2976.36 0 0 0
500 2 2204.83 2275.38 2166.7 0 0 0
501 2 2199.32 1908.5 2559.5 0 0 -1
502 2 2637.7 1999.05 2084.55 0 0 0
503 2 2917 2139.92 2145.74 -1 0 0
504 2 2245.76 2038.72 2313.91 0 0 0
505 2 1947.51 2245.94 2307.63 0 0 0
506 2 2070.66 2177.5 2525.33 0 0 0
507 2 2294.58 2000.84 3002.8 0 0 -1
508 2 2139.13 2164.17 2057.23 0 0 0
509 2 1936.82 2028.84 2311.91 0 0 0
510 2 2312.66 2940.57 2851.59 0 0 0
511 2 1970.43 2466.21 2299.92 0 -1 0
512 2 2059.48 2370.42 2835.63 0 0 -1
513 2 2307.89 1956.74 2124.16 0 0 0
514 2 3037.59 1909.58 2405.79 0 1 -1
515 2 2263.3 2258.37 1998.73 0 0 0
516 2 2176.64 2706.38 1937.7 0 0 1
517 2 2288.76 2265.54 2153.47 0 0 0
518 2 2768.84 1972.82 2239.61 0 1 0
519 2 1947.11 1937.76 2506.55 -1 0 -1
520 2 2526.01 3046.82 2534.76 0 -1 -1
521 2 2428.11 2209.63 1973.6 -1 0 0
522 2 2923.72 2221.81 2377.29 -1 0 0
523 2 2016.98 2221.21 2893.77 0 0 0
524 2 1966.68 2314.39 2556.06 0 -1 0
525 2 1998.53 3045.62 2313.71 0 -1 0
526 2 3039.13 1936.75 2137.81 -1 0 0
527 2 2272.29 2188.28 2115.51 0 0 0
528 2 3085.6 2176.98 2490.42 -1 0 0
529 2 2243.62 2880.38 2221.83 0 -1 0
530 2 3070.68 2983.8 2372.06 -1 0 0
531 2 2002.03 2322.08 2083.3 0 0 0
532 2 2878.89 2064.86 2122.07 0 0 0
533 2 2470.97 2135.32 2019.14 0 0 0
534 2 2517.42 2055.37 2155.2 0 0 0
535 2 2211.77 2935.96 2082.7 0 -1 0
536 2 3030.93 2057.38 3040.45 -1 0 -1
537 2 1926.99 3034.35 2204.46 0 -1 0
538 2 2665.71 2829.08 2322.22 0 -1 0
539 2 2985.07 2044.37 2003.45 -1 0 0
540 2 2839.03 2113.9 2186.25 0 0 0
541 2 2693.41 2978.46 3047.13 -1 0 -1
542 2 2111.73 2515.84 3044.63 0 0 -1
543 2 3040.43 3091.62 2228.64 -1 -1 0
544 2 2102.1 2366.41 2911.03 0 0 -1
545 2 2388.63 2373.7 2340.96 -1 -1 -1
546 2 2380.28 2222.48 2255.47 0 0 0
547 2 2467.64 2070.92 2082.47 0 0 0
548 2 2306.54 2100.17 2327.23 0 0 0
549 2 2267.13 2247.17 2416.25 0 0 0
550 2 2829.86 3032.3 2109.69 0 -1 0
551 2 1911.96 2323.95 2332.74 0 0 0
552 2 2391.24 2081.36 2311.64 0 0 0
553 2 2028.63 2165.21 2250.53 0 0 0
554 2 3089.63 2250.13 2387.25 -1 0 0
555 2 2143.04 2907.39 2648.07 -1 0 0
556 2 2222.6 1980.91 1925.17 0 0 0
557 2 1958.63 3060.55 3070.31 1 0 -1
558 2 2194.18 2836.79 2670.35 -1 -1 -1
559 2 2885.71 2063.6 2300.55 0 1 0
560 2 2187.54 3010.72 1961.29 0 -1 0
561 2 2359.61 2872.42 2025.08 0 -1 1
562 2 2402.11 1964.81 2205.67 0 0 0
563 2 2220.54 2976.56 2880.14 -1 0 0
564 2 2144.19 2123.26 2512.97 0 0 0
565 2 2287.44 2651.65 2254.69 0 0 0
566 2 2349.98 2306.94 2969.26 0 0 -1
567 2 2087.73 2309.51 2076.25 0 0 0
568 2 2955.4 2925.26 1934.65 0 0 0
569 2 2144.55 2099.99 2313.13 0 0 0
570 2 3061.18 2404.47 2348.14 -1 0 -1
571 2 2882.08 3088.71 2065.59 -2 -1 0
572 2 3030.81 1986.88 1955.51 -1 0 0
573 2 2551.86 1941.19 2769.6 0 0 -1
574 2 2541 2806.69 2198.9 0 0 0
575 2 2307.58 3080.54 2347.86 0 -1 0
576 2 2633.09 2308.82 2601.48 0 0 0
577 2 2325.77 2269.62 2353.6 0 0 0
578 2 2756.14 2652.85 2328.91 0 0 1
579 2 2859.77 2286.99 2516.31 0 0 0
580 2 2259.13 2120.55 2170.62 0 0 0
581 2 2158.61 2080.3 3007.26 0 0 -1
582 2 2192.24 1945.89 2938.25 0 0 0
583 2 2457.76 2235.59 2131.48 0 0 0
584 2 1969.33 2432.26 2199.69 0 0 0
585 2 2026.36 2189.22 2156.32 0 0 0
586 2 2096.14 2417.5 2415.57 0 0 0
587 2 3068.46 2042.99 2066.62 -1 0 0
588 2 2000.17 2316.58 1948.42 0 0 0
589 2 1986.67 2168.39 2332.93 0 0 0
590 2 2338.96 2130.94 2404.83 0 0 0
591 2 2962.38 3005.41 2203.31 -1 -1 0
592 2 2154.39 2016.61 2089.72 0 0 0
593 2 2815.88 1954.72 2856.28 -1 0 -1
594 2 2252.69 1946.67 2498.75 0 0 0
595 2 2132.96 2990.91 2359.73 0 -1 0
596 2 2092.56 2344.27 2168.18 0 0 0
597 2 3047.82 2246.77 3059.85 -1 0 -1
598 2 2914.13 2117.65 2233.05 -1 0 0
599 2 2211.87 3012.92 2390.86 0 0 0
600 2 2341.31 3088.51 2188.13 0 -1 0
601 2 2006.61 3069.32 2400.67 0 -1 0
602 2 2572.08 2233.43 2069.23 0 0 0
603 2 2974.73 2413.87 2477.33 -1 1 0
604 2 2466.49 2674.25 2576.29 0 -1 -1
605 2 2372.94 2371.98 2248.49 -1 -1 0
606 2 2131.54 2098.48 2116.07 0 0 0
607 2 2321.87 2237.8 3015.37 0 0 -1
608 2 2313.64 2475.33 2318.75 -1 0 -1
609 2 2612.18 2564.17 2117.5 0 -1 -1
610 2 1920.63 3087.62 2026.78 1 -1 0
611 2 2597.72 3028.82 2487.08 0 -1 0
612 2 2209.7 2373.2 2375.27 0 0 0
613 2 2466.74 1940.15 2068.57 0 0 0
614 2 2028.88 2181.65 2012.81 0 0 0
615 2 2024.55 2308.24 3047.34 0 0 -1
616 2 2249.4 2343.19 2132.45 0 0 0
617 2 1981.11 1975.91 2242.49 0 0 0
618 2 2233.56 2269.33 2083.03 0 0 0
619 2 1954.78 2320.14 2254.56 0 0 0
620 2 2576.29 2117.11 2181.57 0 1 1
621 2 2174.07 3007.57 2535.73 0 -1 0
622 2 2197.76 2065.03 1944.17 0 0 0
623 2 3076.49 2382.3 2983.88 -1 0 -1
624 2 2408.81 2162.49 2182.61 0 0 0
625 2 2187.67 2205.18 2119.09 0 0 0
626 2 2671.63 3038.2 2172.14 0 0 1
627 2 2959.68 2065.66 2351.78 -1 0 0
628 2 3072.42 2425.9 3060.27 -1 0 0
629 2 2406.2 3062.62 2048.08 0 0 0
630 2 2823.7 2815.51 2600.05 0 0 0
631 2 1944.42 2172.66 2412.23 0 0 0
632 2 2295.6 2073.11 2237.46 0 0 0
633 2 2129.45 2391.09 2533.96 0 0 0
634 2 1984.11 2484.01 1968.63 0 0 0
635 2 2032.93 2158.18 2407.33 0 0 0
636 2 2169.6 2382.79 2454.3 0 0 0
637 2 2163.31 2177.7 3005.4 0 0 -1
638 2 2293.02 3059.25 2259.92 0 -1 0
639 2 2443.73 2190.71 3046.01 0 0 0
640 2 2200.7 2303.31 2428.57 0 0 0
641 2 2213.95 1916.35 1987.3 0 0 0
642 2 2178.1 1932.78 2065.51 0 0 0
643 2 1910.41 2891.82 2144.26 0 0 0
644 2 2379.2 2048.76 2229.32 0 0 0
645 2 2995.16 2858.6 2617.49 -1 -1 0
646 2 2218.51 2029.41 2962.09 0 0 0
647 2 2256.98 2159.56 2413.82 0 0 0
648 2 2298.51 2404.9 2090.79 0 0 0
649 2 2067.31 2503.56 1996.7 0 0 0
650 2 2023.28 2011.73 2310.09 0 0 0
651 2 2385.79 2153.15 2027.71 0 0 0
652 2 2183.28 2164.64 2854.63 0 0 0
653 2 2302.45 2014.48 3089.89 0 0 -1
654 2 2076.66 2058.04 3033.18 0 0 -1
655 2 2637.82 2791.58 2199.31 0 0 0
656 2 2161.1 2262.04 2361.51 0 0 0
657 2 2048.51 3036.9 2586.01 0 -1 0
658 2 2004.44 2672.05 2044.36 0 0 0
659 2 2055 2172.27 1927.58 0 0 0
660 2 1990.77 2165.28 2486.57 0 0 0
661 2 3002.41 2223.2 2535.83 0 0 -1
662 2 2129.35 2340.23 2389.38 0 0 0
663 2 1975.43 1954.9 3032.42 -1 1 -1
664 2 2470.98 2015.08 2220.46 0 0 0
665 2 2958.14 1958.32 1994.35 -1 1 0
666 2 2174.67 2136.41 2184.55 0 0 0
667 2 2273.62 2154.41 2266.39 0 0 0
668 2 2325.2 2899.42 2436.28 -1 -1 1
669 2 2591.04 2808.49 2272.12 0 0 1
670 2 2084.87 3088.74 2441.11 0 -1 0
671 2 1991.97 2986.61 2465.75 0 -1 -2
672 2 2961.02 2171.85 2015.24 -1 0 0
673 2 2141.35 3023.07 2453.77 0 0 0
674 2 2979.34 2301.51 3046.5 -1 0 -1
675 2 2052.71 2976.45 2321.76 0 -1 0
676 2 2726.46 1979.76 2862.33 0 0 -1
677 2 2077.61 3058.91 2347.97 0 -1 0
678 2 2137.72 1999.13 2981.59 0 0 -1
679 2 2149.55 2016.49 3068.2 0 0 -1
680 2 1929.61 1936.36 2184.87 0 0 0
681 2 2384.69 2299.85 2295.41 0 0 0
682 2 2357.26 2171.41 2110.38 0 0 0
683 2 2042.75 2310.83 2249.61 0 0 0
684 2 2965.81 2815.04 3022.79 -1 0 -1
685 2 2408.1 2583.74 2427.97 0 0 0
686 2 2211.6 2125.36 2093.61 0 0 0
687 2 2524.58 2143.61 2255.27 0 0 0
688 2 2962.75 3066.33 2267.3 -1 -1 0
689 2 2108.52 2482.14 2144.91 0 0 0
690 2 2928.61 3047.08 3029.66 0 -1 -1
691 2 3013.47 2405.52 2271.73 -1 0 0
692 2 2891.52 2087.99 1909.69 0 0 0
693 2 2099.13 1972.92 2496.49 0 0 0
694 2 3091.51 3026.87 1960.5 -1 0 0
695 2 2364.54 2316.16 2027.01 0 0 0
696 2 2309.7 2283.69 2483.43 -1 -1 0
697 2 1926.39 2396.15 2427.36 1 -1 -1
698 2 3035.33 2108.38 2364.06 -1 0 0
699 2 2483.06 2759.5 2358.12 0 -1 0
700 2 1913.69 2329.4 1955.21 0 0 0
701 2 2106.75 2210.31 1988.24 0 0 0
702 2 2228.55 2254.17 2497.42 0 0 0
703 2 2168.67 1922.38 2470.71 0 0 0
704 2 2003.71 3076.08 2212.71 0 -1 0
705 2 2242.09 2343.47 2494.47 0 0 0
706 2 3062.64 2915.63 3066.56 0 0 -1
707 2 2054.85 1956.97 2374.29 0 0 0
708 2 2262.52 2201.79 2565.02 0 0 0
709 2 2043.03 2843.6 2045.87 1 0 0
710 2 1928.29 2110.61 2030.38 0 0 0
711 2 2871.98 2287.74 2328.99 0 0 0
712 2 2441.81 2154.68 2099.6 0 1 0
713 2 2087.04 2587.61 2015.36 0 0 1
714 2 1953.95 2457.42 2547.09 0 0 0
715 2 1976.14 2893.05 2016.85 1 0 1
716 2 2226.76 3064.9 2320.44 0 -1 0
717 2 2207.66 1962.82 3023.26 0 0 -1
718 2 2191.19 1936.95 2260.59 0 0 0
719 2 2138.67 2411.45 2337.81 0 0 0
720 2 2140.57 2938.53 2431.48 0 0 0
721 2 2327.49 2194.23 2190.4 0 0 0
722 2 3060.05 2382.61 2025 -1 0 0
723 2 2231.89 2443.67 2327.13 0 0 0
724 2 3014.91 2861.13 1931.79 -1 0 0
725 2 2889.21 1980.04 3062.38 0 1 0
726 2 2693.28 2362.28 2707.19 0 0 -1
727 2 3035.1 3035.27 2160.18 0 -1 0
728 2 2244.17 2383.21 1978.77 0 0 0
729 2 3007.71 2336.36 2328.56 -1 0 0
730 2 2014.83 2826.36 2555.04 0 -1 0
731 2 2121.02 2225.32 2291.9 0 0 0
732 2 2456.51 2348.09 2276.31 0 0 0
733 2 2346.43 2468.32 2051.03 0 0 1
734 2 2271.21 1955.26 2291.63 0 0 0
735 2 2005.96 2352.74 2181.48 0 0 0
736 2 2088.72 2300.45 2323.38 0 0 0
737 2 2962.14 1934.41 2095.33 -1 0 0
738 2 2089.7 2190.54 2947.11 0 0 -1
739 2 2113.6 1916.26 2225.06 0 0 0
740 2 3089.27 2937.55 1968.66 -1 0 1
741 2 2216.37 2388.88 2062.93 0 0 0
742 2 2170.79 2127.36 2932.55 0 0 -1
743 2 2049.08 1961.4 2184.09 0 0 0
744 2 3028.65 2094.12 2131.38 -1 0 0
745 2 2129.69 2298.27 2236.83 0 0 0
746 2 2217.31 2193.68 2035.97 0 0 0
747 2 2097.02 2957.19 1949.77 0 -1 0
748 2 3003.2 2060.15 2430.22 -1 0 0
749 2 3025.24 2116.13 2036.03 -1 0 0
750 2 1954.04 2281.93 2020.22 0 0 0
751 2 2013.2 2556.81 2681.32 1 0 0
752 2 2917.51 2099.51 1992.72 0 0 0
753 2 2619.58 2632.82 2382.32 0 0 1
754 2 2104.28 2101.92 2394.45 0 0 0
755 2 2210.75 2092.2 2253.32 0 0 0
756 2 2177.15 2924.81 1977.4 0 -1 0
757 2 3085.37 2242.64 1958.11 -1 0 0
758 2 1925.74 3062.09 2363.2 0 -1 0
759 2 2161.99 2082.35 2031.59 0 0 0
760 2 2121.03 2987.69 2675.28 0 -1 0
761 2 1990.24 2234.89 2088.17 0 0 0
762 2 2156.97 2217.57 2210.96 0 0 0
763 2 2918.76 2142.4 2329.49 -1 0 0
764 2 2057.25 2421.82 2197.24 0 0 0
765 2 2189.23 2264.93 2576.67 -1 1 0
766 2 2235.82 2536.57 2054.04 -1 0 0
767 2 2315.22 2151.88 2975.02 0 0 -1
768 2 3041.24 3061.51 3078.01 -1 -1 0
769 2 2000.89 2312.69 2329.16 0 0 0
770 2 2301.47 2173.96 2029.32 0 0 0
771 2 3050.5 2296.17 2157.33 -1 0 0
772 2 2148.91 2281.47 3082.49 0 0 -1
773 2 2111.26 2173.11 2445.73 0 0 0
774 2 2463.71 2260.9 1910.43 0 0 0
775 2 3060.31 2835.01 2066.09 -1 0 0
776 2 1924.52 1965.58 2090.11 0 0 0
777 2 2049.24 2607.4 2744.85 1 0 0
778 2 2307.83 2324.31 1958.92 0 0 0
779 2 2988.48 2167.26 2101.7 0 0 0
780 2 2987.78 2989.38 2313.64 -1 -1 0
781 2 1994.46 2036.51 3058.15 0 0 -1
782 2 2170.94 2215.7 2925.61 0 0 -1
783 2 1960.35 2316.86 2407.84 0 0 0
784 2 3074.6 1984.94 2250.69 -1 0 0
785 2 2775.92 2702.48 2860.48 0 0 0
786 2 2049.53 2304.84 2402.41 0 0 0
787 2 2963.74 2306.02 2165.76 -1 0 0
788 2 2089.7 2871.35 1975.58 1 0 1
789 2 2048.05 2352.17 2547.17 0 -1 0
790 2 2638.47 3087.38 2651.57 1 0 0
791 2 2884.5 3080.63 2159.51 0 0 0
792 2 2629.41 2805.53 2399.06 0 -1 0
793 2 2040.5 2395.4 3046.82 0 0 -1
794 2 2767.86 2374.79 2105.25 0 0 0
795 2 2954.38 2947.94 2136.78 -1 -1 0
796 2 1977.11 2148.09 2094.83 0 0 0
797 2 2193.61 2009.16 2697.21 0 0 0
798 2 2928.81 2205.88 2906.39 0 1 -1
799 2 2031.96 2079.24 2890.97 0 0 -1
800 2 1959.39 2366.93 3069.03 0 0 -1
801 2 1950 2021.56 2562.28 0 0 0
802 2 1966.48 2053.98 1956.15 0 0 0
803 2 2014.09 2385.08 2423.01 0 0 0
804 2 2143.65 2047.92 2906.77 0 1 -1
805 2 2303.89 2017.88 2457.79 0 0 0
806 2 2429.75 2077.19 2162.84 0 0 0
807 2 2880.31 2039.86 2212.96 -1 0 0
808 2 2447.76 3009.64 2555.95 1 -1 -1
809 2 3051.51 2878.91 2226.28 -1 0 1
810 2 2348.6 2942.75 2284.83 0 0 0
811 2 2189.76 2173.12 2280.86 0 0 0
812 2 2967.01 2164.14 2975.07 -1 0 -1
813 2 3059.2 2295.36 2980.08 -1 0 -1
814 2 2582.02 2689.07 2439.66 0 -1 0
815 2 2068.08 2007.02 2926.18 0 0 -1
816 2 3004.51 2208.14 1946.04 -1 0 0
817 2 2110.54 2178.39 2143.7 0 0 0
818 2 3080.66 2103.3 2441.46 -1 0 0
819 2 2935.98 2262.12 1930.79 0 0 0
820 2 2136.47 3016.25 2198.1 0 -1 0
821 2 2952.6 2090.7 2080.29 -1 0 0
822 2 2171.99 2148.35 1969.21 0 0 1
823 2 2988.71 2113.8 2283.85 -1 0 0
824 2 1975.74 2384.99 2501.8 1 0 0