ITEM: TIMESTEP
130000
ITEM: NUMBER OF ATOMS
1000
ITEM: BOX BOUNDS pp pp pp
1.5959805546804862e+03 3.4040194453191498e+03
1.5959805546804862e+03 3.4040194453191498e+03
1.5959805546804862e+03 3.4040194453191498e+03
ITEM: ATOMS id type x y z ix iy iz
1 2 3274.31 3132.05 1776.24 0 0 0
2 2 1912.97 1666.83 2621.94 0 1 -1
3 2 2170.9 3366.58 1782.07 0 -1 1
4 2 1895.24 2084.99 2911.29 0 0 -1
5 2 3281.18 1598.51 2913.09 0 0 -1
6 2 2098.59 2452.79 2112.1 -1 0 -1
7 2 2180.9 2363.86 2141.02 0 0 0
8 2 1660.85 3309.05 2549.94 0 0 0
9 2 3260.82 2453.9 2234.89 -1 0 0
10 2 1977.93 3190.17 2873.65 0 0 0
11 2 2811.31 2380.27 2913.09 0 0 0
12 2 1620.98 3144.26 2891.92 0 0 -1
13 2 1685.58 2297.23 1757.57 1 0 1
14 2 1718.29 3158.16 1986.82 0 0 0
15 2 3252.87 1728.1 3123.34 0 0 -1
16 2 1941.1 3367 1744.3 0 -1 0
17 2 2450.35 2103.54 3225.55 2 1 0
18 2 2367.85 2312.34 3131.95 0 1 -1
19 2 2299.26 1960.26 3337.64 0 0 0
20 2 3323.22 1713.33 2883.92 0 1 0
21 2 1965.72 2528.96 1777.16 0 1 1
22 2 1725.54 3047.98 1915.13 0 0 1
23 2 2831.4 3000.52 2028.83 -1 1 0
24 2 1624.23 1972.34 3262.57 1 0 -1
25 2 2288.49 1667.17 1609.58 0 1 1
26 2 2813.19 2260.2 2684.23 0 0 1
27 2 1887.89 2860.02 3207.14 0 0 0
28 2 1700.23 2426.38 3373.56 0 0 0
29 2 3308.02 2203.29 2548.02 -1 1 0
30 2 3202.93 1915.69 3347.64 -1 1 0
31 2 1775.07 3039.97 3197.68 0 -1 0
32 2 1703.37 3386.84 2640.67 0 0 0
33 2 2180.8 2104.59 2151.13 0 0 0
34 2 2205.08 1860.55 3310.82 0 1 0
35 2 3088.36 3193.28 3380.37 0 -1 0
36 2 2249.02 1604.58 2851.2 0 1 0
37 2 1788.62 1771.9 2638.72 0 0 0
38 2 1634.44 2626.64 1651.25 0 1 0
39 2 3342.13 2474.79 1834.11 -1 1 0
40 2 2211.15 2076.42 3161.95 0 -1 0
41 2 1808.39 3050.74 2023.34 1 -1 0
42 2 3308.1 2320.49 1649.07 -1 0 0
43 2 1822.25 2421.5 2194.57 1 0 1
44 2 2997.04 2872.02 3129.23 1 -1 0
45 2 1748.58 2333.58 2146.87 0 0 0
46 2 3018.82 1721.23 2168.2 0 1 0
47 2 3342.31 2683.2 2303.53 -1 0 0
48 2 1616.54 2538.53 1747.51 1 0 0
49 2 3122.56 2377.68 1598.25 0 0 1
50 2 2352.45 3102.13 1990.93 0 0 1
51 2 2906.11 1722.7 2946.95 -1 1 1
52 2 2695.35 2369.78 2041.98 0 0 0
53 2 2133.63 2428.27 1775.87 0 0 1
54 2 1920.07 1774.55 2694.04 0 1 0
55 2 2645.55 2104.25 2708.77 0 0 -1
56 2 2043.91 2131.62 2153.58 0 0 0
57 2 1961.74 2318.94 2976.62 0 0 -1
58 2 1601.95 2115.47 2559.07 0 0 0
59 2 2844.43 2381.28 2110.63 -1 2 0
60 2 2112.33 3215.05 1750.42 0 0 0
61 2 3353.41 2350.22 2505.84 -1 0 0
62 2 3200.17 3130.95 3050.84 0 -1 0
63 2 1654.22 3227.91 3392.45 0 0 0
64 2 3333.19 2438.61 1717.39 0 0 1
65 2 2732.49 2176.23 2772.26 0 -1 0
66 2 3042.71 1760.2 2984.66 0 0 -1
67 2 2701.13 1658.18 2866.99 0 1 1
68 2 1872.76 2268.76 2454.51 0 0 1
69 2 2659.41 1979.28 1903.11 0 0 0
70 2 2297.91 3207.08 2940.61 0 0 0
71 2 1617.04 1721.62 1742.39 0 0 1
72 2 2769.44 2280.79 2565.74 -1 -1 0
73 2 3021.01 1686.59 2015.02 -2 -1 0
74 2 2165.14 1641.17 3364.75 0 1 -1
75 2 3110.76 2076.88 1730.48 0 0 0
76 2 2733.3 2613.12 2236.62 0 -1 0
77 2 3089.67 1942.69 1836.26 -1 1 1
78 2 1668.91 1884.29 2659.47 0 0 0
79 2 3334.6 2707.86 1634.87 -1 0 0
80 2 2188.38 3129.09 1862.89 0 0 -1
81 2 2323.47 1650.29 3286 0 2 0
82 2 2879.81 3045.86 2219.46 -1 0 -1
83 2 2403.24 3144.18 2579.36 0 0 0
84 2 2569.69 2001.35 1757.56 1 1 1
85 2 3052.51 1812.78 1795.38 0 1 0
86 2 3362.08 2360.17 1902.35 -1 0 1
87 2 1861.59 2157.46 2538.14 1 0 0
88 2 3403.21 3028.89 1695.52 -1 0 1
89 2 1632.31 2589.22 1881.53 1 0 1
90 2 3255.93 2274.6 3235.74 0 1 -1
91 2 2609.83 2965.17 2965.39 0 0 -1
92 2 2270.59 2323.39 1618.61 -1 0 0
93 2 2373.48 1657 1734.62 0 0 1
94 2 2364.59 2150.22 3303.37 1 1 -1
95 2 1823.4 2159.95 2982.79 0 0 -1
96 2 2118.15 3155.39 1631.99 1 0 1
97 2 3073.73 3271.23 2873.76 0 -1 0
98 2 3155.6 1750.69 1830.93 0 0 0
99 2 1719.14 2085.13 1658.71 0 0 0
100 2 2184.54 1843.03 3182.24 1 0 0
101 2 2418.65 2351.92 2797.36 0 0 0
102 2 2049.93 3314.02 1805.32 0 -1 0
103 2 3382.75 1939.67 2032.67 -1 0 0
104 2 2362.12 1745.23 1827.72 0 0 0
105 2 2248.64 1947.29 2886.56 0 0 0
106 2 2477.66 2060.8 1813.92 0 0 0
107 2 1861.55 2081.63 2312.53 0 0 0
108 2 3300.33 3232.59 1879.19 -1 0 0
109 2 2105.29 2046.33 2039.63 0 0 0
110 2 1883.79 2382.8 1695.44 0 0 0
111 2 1724.43 3094.83 3015.83 1 -1 -1
112 2 3271.23 1717.58 2309.85 -1 -1 0
113 2 2047.69 3236.04 2198.54 0 -1 0
114 2 2950.06 2461.33 1938.41 0 0 1
115 2 3330.5 2056.58 3237.53 -1 0 -1
116 2 1966.04 2065.7 2519.52 0 0 0
117 2 2264.03 3232.86 2027.24 0 -1 1
118 2 1700.86 3260.94 2666.64 0 -1 0
119 2 2228.89 1774 1838.12 0 0 0
120 2 3312.46 3367.64 2225.38 -1 -1 0
121 2 3323.22 2012.79 2370.27 -1 0 0
122 2 1801.73 1602.9 3371.77 0 0 -1
123 2 2020.18 2097.66 1682.24 0 0 0
124 2 1914.05 1798.97 1685.65 0 0 0
125 2 1704.55 3235.06 1727.57 0 -1 0
126 2 3398.44 2114.71 1873.38 -1 0 0
127 2 3342.1 2242.01 2357.34 -1 0 0
128 2 1911.69 1653.87 1928.61 0 0 0
129 2 1674.26 2231.48 3249.35 0 0 -1
130 2 1639.64 1768.35 2457.11 0 0 0
131 2 1784.08 1660.24 2575.54 0 0 -1
132 2 1800.79 2449.58 3281.29 0 0 -1
133 2 2190.39 1901.31 1873.92 0 0 0
134 2 1765.26 3148.55 1651.99 1 -1 1
135 2 1925.6 2138.34 1951.28 0 0 0
136 2 3343.77 2440.53 2607.72 0 -1 -1
137 2 2837.22 2139.55 2676.01 0 1 0
138 2 1779.45 2023.56 2649.48 0 0 0
139 2 3194.76 2028.52 2138.83 -1 0 0
140 2 2856.12 2414.03 1857.54 -1 -1 0
141 2 2713.24 2040.44 3112.86 -1 0 0
142 2 1627.75 2372.21 1663.9 0 0 0
143 2 2095.08 1805.01 1838.69 0 0 0
144 2 1647.87 2002.86 2128.89 0 0 0
145 2 2186.9 2053.16 2840.67 0 0 0
146 2 2229 2341.1 1749.84 0 0 0
147 2 1710.12 1919.69 2025.7 0 0 0
148 2 2089.35 1804.51 3335.38 0 0 -1
149 2 2168.33 1792.6 1974.95 0 0 0
150 2 3320.42 2367.26 2707.05 -1 0 0
151 2 2385.85 2172.67 2062.28 0 0 -1
152 2 3334.09 2124.23 2450.24 -1 0 -1
153 2 2046.21 1682.6 2265.83 0 0 0
154 2 2041.27 2220.41 1759.99 0 0 0
155 2 2318.81 1721.73 2401.49 0 0 0
156 2 3262.02 1753.36 1914.69 -1 0 0
157 2 3144.11 1715.57 1974.18 0 0 0
158 2 2561.85 1639.69 1930.95 0 0 0
159 2 1832.4 3221.34 2013.52 0 -1 0
160 2 1886.94 2357.4 3242.8 1 0 0
161 2 3217.72 2057.13 3339.2 -1 0 -1
162 2 2243.44 1765.03 2193.03 0 0 0
163 2 3131.51 3262.36 2156.68 0 0 0
164 2 2813.27 1866.39 2339.58 0 0 0
165 2 2104.26 1906.78 1750.02 0 0 0
166 2 3237.22 2264.86 1751.58 0 0 0
167 2 2016.02 1718.91 2546.7 0 0 0
168 2 1876.29 1923.81 1727.65 0 0 0
169 2 1719.33 1692.17 1634.59 0 0 0
170 2 2923.17 3057.88 2568.28 -1 0 0
171 2 1894.59 3049.35 2145.26 0 -1 0
172 2 1648.77 2036.16 1769.69 0 0 0
173 2 2008.8 2413.99 1740.33 0 0 0
174 2 3283.12 1940.77 2467.74 -1 0 -1
175 2 1701.84 1951.17 1659.35 0 0 0
176 2 1948.88 2428.12 2467.08 0 0 0
177 2 3294.89 2942.66 2300.37 0 -1 0
178 2 1758.14 2352.92 1655.18 0 0 0
179 2 2124.15 2232.47 2069.49 0 0 0
180 2 1823.23 3294.62 1741.61 0 -1 0
181 2 3187.6 3225.21 2873.36 -1 -1 -1
182 2 2269.5 1646.3 1804.11 0 0 0
183 2 3266.23 1714.07 2042.2 -1 0 0
184 2 1718.24 2106.89 2086.26 0 0 0
185 2 2101.86 1606.22 2349.51 0 0 0
186 2 1901.46 2428.34 1822.88 0 0 0
187 2 3265.7 2131.39 2330.31 -1 0 0
188 2 3362.71 1839.47 1690.49 -1 0 0
189 2 2480.62 2059.33 2262.9 0 0 -1
190 2 2531.53 1744.06 1862.8 0 0 0
191 2 1861.97 1969.68 3307.42 0 0 -1
192 2 1665.41 2175.7 1966.65 0 0 0
193 2 1983.31 2217.61 2515.98 0 1 0
194 2 1942.72 2490.54 1653.27 0 0 0
195 2 1636.05 2419.72 1790.34 0 0 0
196 2 2430.64 1733.34 1939.98 0 0 0
197 2 1799.6 2145.4 1750.42 0 0 0
198 2 2489.86 1944.99 1998.6 0 0 0
199 2 1911.01 1963.95 2114.57 0 0 0
200 2 1638.43 2461.89 1929.82 0 0 0
201 2 2799.62 2899.66 2911.71 0 -1 -1
202 2 1607.04 2230.49 2471.83 0 0 0
203 2 1831.75 3257.17 1876.14 0 -1 0
204 2 2502.43 1948.67 2734.43 0 0 0
205 2 3332.77 1715.43 2429.9 -1 0 0
206 2 1740.75 2100.3 2560.67 0 0 0
207 2 2966.42 2817.31 2684.84 0 0 0
208 2 1712.91 1874.7 2405.61 0 0 0
209 2 3237.77 3156.79 2117.71 1 -2 2
210 2 2255.5 2191.61 2072.4 0 0 0
211 2 2338.69 1638.86 1922.19 0 0 0
212 2 2355.71 2890.26 2882.54 -1 -2 -1
213 2 2224.46 1715.59 2069.44 0 0 0
214 2 2143.77 3179.33 1986.24 0 -1 0
215 2 2536.99 1952.64 1875.06 0 0 0
216 2 2039.4 3352.69 3270.87 0 -1 -1
217 2 3216.63 3402.34 2012.46 -1 -1 0
218 2 2495.52 2019.61 1633.83 1 1 0
219 2 1945.39 3335.32 1889.28 0 -1 0
220 2 3264.33 2123.86 1882.45 -1 0 0
221 2 2967.81 1812.2 2119.28 1 0 -1
222 2 1640.91 1816.65 2077.79 0 0 0
223 2 2635.96 3026.25 2735.25 0 -2 -1
224 2 1906.91 3215.03 2637.99 0 -1 -1
225 2 2073.63 1697.75 1935.88 0 0 1
226 2 2233.78 1876.5 1743.74 0 0 0
227 2 2002.79 2140.24 3265.45 0 0 0
228 2 2411.15 2169.22 1753.93 0 0 0
229 2 1792.1 1759.27 1725.89 0 0 0
230 2 2113.34 2044.29 3241.18 0 0 -1
231 2 1933.58 1700.19 2367.91 0 0 0
232 2 2158.03 2242.99 2369.3 0 0 0
233 2 1953.82 1664.16 1653.71 0 0 0
234 2 2320.74 1870.51 1870.54 0 0 0
235 2 1970.32 2121.03 1817.26 0 0 0
236 2 1803.76 1865.14 1627.36 0 0 0
237 2 3157.47 1990.57 1631.74 -1 0 0
238 2 1649.53 1884.97 2528.71 0 0 0
239 2 1653.45 2162.72 3374.37 0 0 -1
240 2 2465.79 2061.02 2067.02 0 0 0
241 2 3059.07 2605.49 3386.94 -1 0 -1
242 2 2301.45 1771.92 3311.93 0 0 0
243 2 2745.97 2972.6 2687.64 0 0 0
244 2 2012.88 1918.99 2396.53 0 0 0
245 2 1771.03 2138.17 3217.05 0 0 -1
246 2 2223.54 1646.31 2388.34 0 0 -1
247 2 1943.1 2304.19 1789.11 0 0 0
248 2 3197.23 2069.52 1987.74 -1 0 0
249 2 3363.59 3162.66 2187.43 -1 -1 0
250 2 3002.2 2204.83 3326.12 -1 1 -1
251 2 2100.79 3268.2 3350.78 0 -1 0
252 2 1776.62 1866.38 2282.99 0 0 0
253 2 3239.43 2339.96 3346.34 0 0 -2
254 2 2446.91 1615.85 1992.02 0 0 0
255 2 1691.34 3168.18 2192.01 1 0 0
256 2 3238.59 2210.47 2443.46 0 1 -1
257 2 2128.25 1625.91 2040.37 0 0 0
258 2 1849.56 2583.86 1634.91 0 0 0
259 2 2064.94 2076.23 3364.23 0 0 -1
260 2 1899.05 2239.1 3296.59 0 0 -1
261 2 2256.24 1975.73 1657.75 0 0 0
262 2 1772.02 2446.66 1928.81 0 0 0
263 2 2134.56 1844.47 2352.85 0 0 0
264 2 1790.25 1626.92 2970.96 0 0 -1
265 2 1831.7 1946.36 1860.62 0 0 0
266 2 2298.8 1763.81 1957.8 0 0 0
267 2 1889.23 1779.81 2263.94 0 0 0
268 2 2148.57 2305.79 3391.22 0 0 -1
269 2 2496.54 2596.37 2214.04 0 0 0
270 2 2710.56 1709.35 2968.62 0 -1 -1
271 2 2154.64 3221.69 2112.16 0 -1 0
272 2 3342.03 1823.6 2506.3 -1 0 0
273 2 1752.83 2206.88 2474.01 0 0 0
274 2 1922.67 1654.47 2219.94 0 0 0
275 2 2081.49 2373.99 2007.5 0 0 0
276 2 2658.96 1758.89 2886.28 -1 1 0
277 2 1757.92 1883.42 1763.39 0 0 0
278 2 2995.81 2558.13 2025.58 0 0 0
279 2 2022.81 2450.9 1859.56 0 0 0
280 2 1612.28 3229.77 1946.52 0 -1 0
281 2 1641.78 3346.46 2421.67 0 -1 -1
282 2 3167.97 2208.47 2319.86 0 0 0
283 2 3254.94 1918.48 1661.95 -1 0 0
284 2 3377.64 1980.96 1882.77 -1 0 0
285 2 1844.14 2541.68 1853.18 0 -1 0
286 2 2373.77 2269.03 3353.04 -1 0 -1
287 2 2074.03 1985.86 2495.93 0 0 0
288 2 2133.8 1678.79 1809.46 0 0 0
289 2 2710.33 2192.63 1795.41 0 0 1
290 2 3214.53 2245.95 2116.34 -1 0 0
291 2 1757.74 1672.11 2427.98 0 0 0
292 2 1902.85 1921.13 3077.03 1 0 0
293 2 3321.94 2014.99 2133.83 -1 0 0
294 2 3190.06 1616.67 2267.06 0 0 0
295 2 1898.73 2170.13 3181.68 0 0 -1
296 2 1711.81 3367.11 1690.19 0 -1 0
297 2 1688.63 2345.18 1915.9 0 0 0
298 2 1634.54 2028.06 3377.74 0 0 -1
299 2 1623.32 3266.4 2188.52 0 -1 0
300 2 1788.69 2095 2199.04 0 0 0
301 2 1940.51 1839.03 2072.85 0 0 0
302 2 1727.71 2101.48 2321.91 0 0 0
303 2 2266.85 2101.85 1715.23 0 0 0
304 2 2214.77 2030.44 2444.95 0 -1 0
305 2 3119.87 3028.93 2667.74 0 -1 0
306 2 3198.09 2144.99 2210.42 -1 0 0
307 2 2117.32 1971.74 3135.81 -1 0 -1
308 2 3264.75 1673.38 2176 -1 0 0
309 2 2306.62 2126.5 1955.13 0 0 0
310 2 2541.36 3273.72 2253 -1 -1 0
311 2 2129.22 2848.37 2085.2 0 0 -1
312 2 1981.44 3220.44 3379.24 0 -1 -1
313 2 2057.17 2344.26 2124.57 0 0 0
314 2 2023.45 1736.23 1746.4 0 0 0
315 2 2049.61 2401.69 1621.12 0 0 0
316 2 2285.81 1853.58 1622.59 0 0 0
317 2 2460.37 1764.29 1757.55 0 0 0
318 2 1801.32 2161.64 2644.45 0 0 0
319 2 1636.57 2443.99 2309.28 0 0 0
320 2 1849.28 1971.49 2234.62 0 0 0
321 2 2836.68 1614.91 2687.03 -1 0 -1
322 2 1877.07 1781.79 1969.8 0 0 0
323 2 1753.14 2429.61 2308.44 0 0 0
324 2 1799.95 1650.06 2696.34 0 0 -1
325 2 1726.28 3250.86 2106.68 0 -1 0
326 2 3376.28 1753.95 1984.74 -1 0 0
327 2 1704.93 1763.1 2329.59 0 0 0
328 2 2030.03 1711.56 2665.12 0 0 0
329 2 3174.69 3351.72 2861.03 0 -1 0
330 2 1653.28 2663.54 1783.23 0 0 0
331 2 3255.43 2376.58 1826.8 -1 0 0
332 2 2639.73 2153.81 3296.23 0 -1 0
333 2 1684.15 2345.44 2267.33 0 0 0
334 2 2144.55 1780.55 1714.53 0 0 0
335 2 1990.96 3133.94 2581.16 0 0 -1
336 2 2012.68 1808.74 2305.73 0 0 0
337 2 2310.15 2079.17 3396.26 0 0 -1
338 2 2465.75 2360.23 2452.93 0 -1 -1
339 2 1904.44 3366.26 2535.35 0 -1 -1
340 2 2377.59 1958.55 2291.6 0 0 0
341 2 1725.64 2553.36 3400.19 0 0 -1
342 2 2511.29 2192.44 2096.18 0 0 0
343 2 3339.48 2238.99 2122.72 -1 0 0
344 2 1996.76 2231.42 1890.45 0 0 0
345 2 3286.74 2188.73 1649.18 -1 0 0
346 2 2110.61 2359.14 2406.8 0 -1 0
347 2 2181.57 2118.62 1604.93 -1 0 0
348 2 1823.67 2332.04 1889.53 0 0 0
349 2 1937.81 3234.81 1777.47 0 -1 0
350 2 2201.51 2236.45 2180.94 0 0 0
351 2 1873.83 1885.36 3191.86 0 0 0
352 2 1766.59 1782.87 2513.3 0 0 0
353 2 3358.84 1702.94 2560.41 -1 0 0
354 2 1872.39 1733.19 2121.34 0 0 0
355 2 1820.92 2318.56 2261.13 0 0 0
356 2 1708.65 1886.51 2169.49 0 0 0
357 2 3110.57 2292.66 2513.51 0 0 0
358 2 2053.49 1941.59 3373.69 0 0 -1
359 2 1805.07 1716.89 1878.64 0 0 0
360 2 2812.91 2363.75 1964.58 0 0 0
361 2 1606.15 1758.31 3397.93 0 0 -1
362 2 2096.15 3160.71 2311.22 0 0 0
363 2 1972.56 3387.12 2325.41 0 -1 0
364 2 2237.31 3117.18 2060.31 0 -1 0
365 2 2530.36 2198.87 2219.77 0 0 0
366 2 3217.54 2118.48 3223.39 0 0 -1
367 2 2943.5 1968.07 3046.92 0 0 0
368 2 1619.67 2522.6 2688.65 0 -1 0
369 2 2023.76 2062.91 2397.51 0 0 0
370 2 3212.28 2132.44 1753.08 -1 0 0
371 2 2063.4 1839.78 2500.11 0 0 0
372 2 2745.19 2053.15 2503.57 0 0 0
373 2 2795.34 2304.24 1837.56 0 0 1
374 2 2372.82 2207.12 1878.4 0 0 0
375 2 2534.17 2436.61 2926.63 -1 0 0
376 2 3312.29 3190.49 2012.45 0 0 0
377 2 3283.22 2258.05 1875.16 -1 0 0
378 2 2007.05 2132.08 2871.83 1 0 -1
379 2 1912.71 2410.55 3082.4 0 0 -1
380 2 2753.13 1819.66 3288.39 -1 0 -1
381 2 2386.02 1946.88 1630.13 0 0 0
382 2 2773.14 1746.51 2885.19 0 0 0
383 2 2892.04 2487.13 1738.37 -1 -1 -1
384 2 2101.59 2107.38 2719.53 0 0 0
385 2 1999.33 1901.07 2727.49 0 -1 0
386 2 2173.74 1994.07 3349.99 0 0 -1
387 2 2010.4 3395.2 1989.97 0 -1 0
388 2 1776.15 1802.86 2055.52 0 0 0
389 2 1808.99 3128.69 2582.44 0 -1 -1
390 2 2023.76 3097.19 1975.92 0 -1 1
391 2 1730.37 1655.15 1787.02 0 0 0
392 2 3170.69 2204.39 1854.55 -1 0 0
393 2 1615.09 2287.54 2019.12 0 0 0
394 2 1709.72 2430.04 2436.47 0 1 0
395 2 1739.61 1612.12 1927.12 0 0 0
396 2 2013.57 3107.12 2157.44 0 -1 0
397 2 2035.95 1822.28 1976.22 0 0 0
398 2 3197.17 3228.35 1821.29 -1 -1 1
399 2 1669.69 2958.97 1830.88 0 -1 0
400 2 2927.22 3280.72 1750.66 -1 -1 0
401 2 1633.61 3403.11 2153.05 0 -1 0
402 2 1603.02 1626.19 1647.64 0 0 0
403 2 1967.28 1997.25 2291.02 0 0 0
404 2 1768.51 1845.92 1924.9 0 0 0
405 2 1706.72 2358.88 3249.19 0 0 -1
406 2 3355.16 1933.54 2580.72 0 0 0
407 2 2934.98 1795.94 3029.17 -1 0 0
408 2 2433.94 3218.31 2699.84 0 -1 0
409 2 1635.7 1858.64 1933.26 0 0 0
410 2 1614.92 1893.96 3387.35 1 1 0
411 2 1983.9 2162.65 2743.08 0 0 0
412 2 3046.1 1710.3 1888.18 -1 1 1
413 2 1920.76 2148.1 2412.83 0 0 0
414 2 3241.26 3201.81 3218.49 -1 -1 -1
415 2 1862.43 1823.64 1821.14 0 0 0
416 2 1699.77 1650.64 2255.21 0 0 0
417 2 3247.74 1955.69 2037.2 -1 0 0
418 2 2287.11 1747.46 3188.53 0 0 0
419 2 1831.93 3189.69 3345.76 1 0 -1
420 2 2526.11 2087.08 3321.77 0 0 0
421 2 2159.44 3308.8 2007.91 0 -1 0
422 2 1614.2 2345.23 2150.26 0 0 0
423 2 1882.36 2315.36 2141.97 0 0 0
424 2 3169.54 1652.11 3264.31 -1 1 -1
425 2 2325.28 2928.75 3001.35 0 -1 -1
426 2 3233.4 2500.56 1764.3 0 0 0
427 2 1740.06 2012.1 3220.36 0 0 0
428 2 2184.85 1654.88 1683.79 0 0 0
429 2 3303.49 3236.61 1625.41 -2 0 1
430 2 1671.59 2159.48 3141.1 0 0 -1
431 2 1795.38 2158.48 1961.59 0 0 0
432 2 2034.71 3186.68 2062.37 0 -1 0
433 2 2161.84 1885.71 1628.41 0 0 0
434 2 3125.1 1658.12 2085.69 -1 0 0
435 2 3188.95 2317.93 1936.06 -1 0 0
436 2 3341.16 2185.66 1773.58 -1 0 0
437 2 1941.29 1814.79 2442.1 0 0 0
438 2 1685.68 2109.82 2661.45 0 1 0
439 2 1986.16 2265.22 3211.8 0 0 -1
440 2 1911.86 2206.52 2900.83 0 0 -1
441 2 1882.91 2102.8 3296.73 0 0 -1
442 2 1990.71 2244.51 2210.58 0 0 0
443 2 2064.22 1720.23 2397.68 0 0 0
444 2 1841.12 1858.37 2162.53 0 0 0
445 2 1943.46 2033.57 3396.84 0 0 -1
446 2 2938.92 1639.14 1915.97 1 1 0
447 2 1990.46 1764.36 2174.29 0 0 0
448 2 3312.88 1832.67 2077.83 -1 0 0
449 2 3290.14 2574.39 2998.63 -1 0 0
450 2 1755.33 2072.72 3336.48 0 0 -1
451 2 2360.14 1849.1 1742.79 0 0 0
452 2 1802 2087.51 2434.58 0 0 0
453 2 1899.43 1699.35 1779.05 0 0 0
454 2 2275.88 1642.03 2155.76 0 0 0
455 2 1825.79 3131.3 1915.61 0 -1 0
456 2 2112.11 2052.95 2252.74 0 0 0
457 2 1924.67 3209.26 2143.23 0 -1 -1
458 2 2117.06 1767.35 2587.51 0 0 1
459 2 1763.19 1817.91 3222.26 1 0 -1
460 2 2332.53 2765.93 2560.92 0 -1 0
461 2 2285.98 1684.3 2283.7 -1 0 0
462 2 1776.88 1895.84 2584.89 0 0 0
463 2 1821.39 3160.2 1779.95 0 -1 0
464 2 2358.15 2085.07 2253.31 0 0 0
465 2 2482.78 1806.59 2200.29 0 0 0
466 2 2192.57 2339.65 2268.13 0 0 -1
467 2 2560.23 1677.17 3204.27 0 1 0
468 2 3395.57 2117.54 2087.97 -1 0 0
469 2 2428.09 1877.65 2114.61 0 0 0
470 2 1698.64 3255.1 2309.75 0 -1 0
471 2 3320.9 2055.74 1986.37 -1 0 0
472 2 3196.21 1837.55 2004.4 -1 0 0
473 2 2121.78 2011.16 1666.98 0 0 0
474 2 3396.07 3141.87 1826.35 -1 0 1
475 2 1712.81 3198.04 1858.9 0 -1 0
476 2 1646.65 2044.33 1988.65 0 0 0
477 2 2281.55 1941.81 2116.74 0 0 0
478 2 3313.47 1792.2 2211.85 -1 0 0
479 2 1724.57 3328.82 1827.94 0 -1 0
480 2 1891.29 2082.9 3061.24 0 0 0
481 2 2238 2019.99 2231.5 0 0 0
482 2 2146.88 3127.32 2194.12 0 0 0
483 2 2857.54 3229.19 1648.4 0 -1 0
484 2 3212.9 1659.3 1596.4 -1 1 0
485 2 3185.48 2363.53 2062.59 0 1 0
486 2 2009.23 2282.06 2018.24 0 0 0
487 2 1773.97 3352.74 2503.56 0 -1 0
488 2 2036.09 2276.14 2602.55 0 0 -2
489 2 3368.64 2475.63 2172.13 -1 1 0
490 2 2887.57 2300.61 2511.44 0 1 0
491 2 1803.69 1628.72 2168.28 0 0 0
492 2 3171.24 3063.09 3204.95 0 0 -1
493 2 3152.31 2069.46 1853.82 -1 0 0
494 2 2164.98 2245.07 1802.21 0 0 0
495 2 1809.09 3145.33 2116.28 0 -1 0
496 2 1918.59 2190.77 1712.05 0 0 0
497 2 1833.98 3269.92 2369.63 0 -1 0
498 2 1875.38 3040.96 2942.68 -1 -1 -1
499 2 2334.26 2040.82 3234.09 0 0 0
500 2 2049.73 2157.59 1987.94 0 0 0
501 2 2037.46 1601.2 2586.87 0 0 -1
502 2 2710.09 1734.67 1865.28 0 0 0
503 2 3140.42 1945.59 1957.53 -1 0 0
504 2 2110.94 1794.73 2215.55 0 0 0
505 2 1656.42 2111.49 2205.91 0 0 0
506 2 1843.73 2007.9 2538.43 0 0 0
507 2 2187.81 1744.03 3272.2 0 0 -1
508 2 1948.49 1987.1 1824.96 0 0 0
509 2 1638.59 1781.05 2213.33 0 0 0
510 2 2214.76 3174.2 3035.29 0 0 0
511 2 1690.13 2439.32 2200.34 0 -1 0
512 2 1834.9 2295.35 3018.61 0 0 -1
513 2 2207.49 1668.74 1925.15 0 0 0
514 2 3326.73 1603.01 2351.36 0 1 -1
515 2 2137.92 2131.19 1734.1 0 0 0
516 2 2005.98 2815.3 1640.93 0 0 1
517 2 2176.71 2141.73 1968.56 0 0 0
518 2 2917.22 1698.1 2103.16 0 1 0
519 2 1657.2 1641.98 2507.63 -1 0 -1
520 2 2543.26 3334.34 2552.97 0 -1 -1
521 2 2389.22 2056.07 1694.78 -1 0 0
522 2 3155.45 2077.47 2309.94 -1 0 0
523 2 1761.8 2078.87 3108.33 0 0 0
524 2 1689.6 2210.93 2580.07 0 -1 0
525 2 1733.4 3333.42 2217.23 0 -1 0
526 2 3323.18 1639.96 1947.15 -1 0 0
527 2 2151.83 2023.45 1912.83 0 0 0
528 2 3395.79 2005.63 2484.99 -1 0 0
529 2 2102.37 3089.29 2075.57 0 -1 0
530 2 3376.21 3242.41 2298.41 -1 0 0
531 2 1738.19 2227.16 1863.68 0 0 0
532 2 3083.86 1836.15 1921.58 0 0 0
533 2 2453.93 1947.47 1770.38 0 0 0
534 2 2520.99 1822.83 1973.93 0 0 0
535 2 2061.99 3170.57 1864.87 0 -1 0
536 2 3310.67 1825.5 3329.83 -1 0 -1
537 2 1624.07 3316.07 2048.43 0 -1 0
538 2 2753.94 3002.35 2232.11 0 -1 0
539 2 3239.92 1804.08 1737.9 -1 0 0
540 2 3024.07 1905.87 2021.51 0 0 0
541 2 2796.74 3230.93 3338.32 -1 0 -1
542 2 1902.09 2520.67 3338.42 0 0 -1
543 2 3325.18 1596.52 2084.72 -1 0 0
544 2 1890.54 2297.13 3127.03 0 0 -1
545 2 2329.59 2301.5 2252.2 -1 -1 -1
546 2 2317.93 2077.66 2128.21 0 0 0
547 2 2448.36 1842.99 1863.68 0 0 0
548 2 2204.73 1887.44 2235.82 0 0 0
549 2 2141.91 2116.37 2373.53 0 0 0
550 2 3006.59 3317.98 1903.63 0 -1 0
551 2 1600.98 2230.98 2244.42 0 0 0
552 2 2330.85 1857.99 2208.37 0 0 0
553 2 1779.09 1989.39 2120.21 0 0 0
554 2 3401.09 2117.5 2327.51 -1 0 0
555 2 1953.71 3126.81 2725.61 -1 0 0
556 2 2077.15 1706.63 1621.39 0 0 0
557 2 1675.81 3355.12 3376.03 1 0 -1
558 2 2031.46 3016.38 2759.67 -1 -1 -1
559 2 3092.61 1832.86 2190.18 0 1 0
560 2 2022.37 3279.45 1678.47 0 -1 0
561 2 2284.57 3068.25 1773.4 0 -1 1
562 2 2347.78 1685.48 2048.31 0 0 0
563 2 2074.51 3227.75 3082.38 -1 0 0
564 2 1956.04 1924.24 2519.45 0 0 0
565 2 2174.14 2734.5 2124.25 0 0 0
566 2 2270.88 2200.58 3222.21 0 0 -1
567 2 1870.38 2207.9 1852.52 0 0 0
568 2 3198.49 3149 1632.77 0 0 0
569 2 1956.77 1889.45 2214.38 0 0 0
570 2 3361.11 2351.47 2265.02 -1 0 -1
571 2 3085.81 3399.71 1841.06 -2 -1 0
572 2 3309.32 1715.61 1671.97 -1 0 0
573 2 2584.68 1648.64 2910.41 0 0 -1
574 2 2566.05 2968.37 2042.53 0 0 0
575 2 2201.13 3391.54 2265.13 0 -1 0
576 2 2710.52 2207.46 2661.12 0 0 0
577 2 2230.38 2147.1 2271.87 0 0 0
578 2 2891.33 2733.51 2238.61 0 0 1
579 2 3054.05 2177.11 2525.47 0 0 0
580 2 2132.02 1919.61 1995.22 0 0 0
581 2 1978.95 1856.91 3274.74 0 0 -1
582 2 2029.16 1657 3175.78 0 0 0
583 2 2432.5 2093.21 1935.09 0 0 0
584 2 1691.63 2389.73 2038.78 0 0 0
585 2 1776.02 2025.33 1974.44 0 0 0
586 2 1884.74 2368.93 2372.98 0 0 0
587 2 3370.37 1801.11 1838.37 -1 0 0
588 2 1736.77 2220.06 1657.38 0 0 0
589 2 1715.37 1993.51 2244.4 0 0 0
590 2 2248.88 1935.23 2353.46 0 0 0
591 2 3212.82 3272.8 2046.84 -1 -1 0
592 2 1971.93 1762.03 1872.41 0 0 0
593 2 2980.64 1674.67 3039.79 -1 0 -1
594 2 2116.32 1658.07 2496.16 0 0 0
595 2 1938.91 3254.49 2285.99 0 -1 0
596 2 1877.49 2262.53 1992.24 0 0 0
597 2 3336.36 2112.66 3356.4 -1 0 -1
598 2 3136.17 1911.58 2090.18 -1 0 0
599 2 2057.67 3284.66 2327.52 0 0 0
600 2 2255.85 3401.47 2020.83 0 -1 0
601 2 1745.56 3369.29 2346.13 0 -1 0
602 2 2607.23 2087.17 1842.36 0 0 0
603 2 3226.78 2368.26 2474.12 -1 1 0
604 2 2443.08 2769.49 2613.93 0 -1 -1
605 2 2302.63 2296.28 2115.82 -1 -1 0
606 2 1936.85 1887.16 1912.61 0 0 0
607 2 2228.56 2099.31 3287.3 0 0 -1
608 2 2209.8 2454.98 2221.83 -1 0 -1
609 2 2671.38 2598.04 1915.62 0 -1 -1
610 2 1614.96 3397.7 1776.23 1 -1 0
611 2 2646.72 3309.81 2484.92 0 -1 0
612 2 2055.14 2308.89 2314.86 0 0 0
613 2 2444.78 1649.32 1840.79 0 0 0
614 2 1781.72 2013.41 1754.12 0 0 0
615 2 1773.04 2207.87 3336.23 0 0 -1
616 2 2116.81 2258.21 1939.36 0 0 0
617 2 1707.3 1698.53 2105.8 0 0 0
618 2 2091.95 2147.87 1863.57 0 0 0
619 2 1667 2225.31 2125.99 0 0 0
620 2 2608.7 1915.4 2012.56 0 1 1
621 2 1997.15 3276.95 2553.93 0 -1 0
622 2 2038.47 1835.47 1650.73 0 0 0
623 2 3381.89 2314.74 3244.53 -1 0 -1
624 2 2359.19 1982.69 2013.37 0 0 0
625 2 2022.43 2050.55 1916.63 0 0 0
626 2 2762.22 3322.25 1999.1 0 0 1
627 2 3207.79 1840.97 2271.05 -1 0 0
628 2 3377.2 2381.49 3359.53 -1 0 0
629 2 2352.53 3370.43 1808.1 0 0 0
630 2 2994.04 2984.63 2653.66 0 0 0
631 2 1650.9 2000.3 2365.83 0 0 0
632 2 2188.42 1847.21 2098.51 0 0 0
633 2 1936.55 2328.83 2545.4 0 0 0
634 2 1711.13 2476.39 1686.4 0 0 0
635 2 1786.49 1978.4 2358.09 0 0 0
636 2 1997.82 2327.17 2431.75 0 0 0
637 2 1986.04 2009.99 3271.99 0 0 -1
638 2 2179.16 3356.94 2132.19 0 -1 0
639 2 2412.08 2033.23 3335 0 0 0
640 2 2044.73 2200.09 2391.1 0 0 0
641 2 2063.84 1607.9 1716.54 0 0 0
642 2 2008.78 1633.39 1835.69 0 0 0
643 2 1600.99 3104.73 1956.94 0 0 0
644 2 2315.63 1809.26 2088.21 0 0 0
645 2 3254 3047.51 2679.25 -1 -1 0
646 2 2068.41 1782.95 3209.4 0 0 0
647 2 2129.87 1978.41 2372.38 0 0 0
648 2 2194.9 2349.78 1867.89 0 0 0
649 2 1840.03 2507.63 1730.32 0 0 0
650 2 1772.14 1753.56 2210.76 0 0 0
651 2 2325.73 1969.05 1779.25 0 0 0
652 2 2014.07 1985.38 3051.38 0 0 0
653 2 2197.7 1757.02 3400.7 0 0 -1
654 2 1852.98 1823.5 3315.07 0 0 -1
655 2 2709.59 2947.43 2043.08 0 0 0
656 2 1980.61 2138.33 2289.06 0 0 0
657 2 1805.4 3321.66 2629.33 0 -1 0
658 2 1742.92 2757.53 1802.15 0 0 0
659 2 1819.67 2000.13 1626.91 0 0 0
660 2 1720.95 1989.76 2479.42 0 0 0
661 2 3267.06 2080.73 2548.42 0 0 -1
662 2 1934.61 2256.64 2330.51 0 0 0
663 2 1703.2 1668.23 3320.11 -1 1 -1
664 2 2452.41 1765.47 2072.6 0 0 0
665 2 3206.2 1674.74 1727.03 -1 1 0
666 2 2001.66 1943.84 2017.83 0 0 0
667 2 2154.69 1972.03 2144.97 0 0 0
668 2 2233.9 3109.86 2403.31 -1 -1 1
669 2 2640.65 2971.04 2147.66 0 0 1
670 2 1867.73 3400.21 2410.02 0 -1 0
671 2 1725.8 3250.61 2447.05 0 -1 -2
672 2 3204.27 2000.69 1758.34 -1 0 0
673 2 1948.04 3300.59 2429.01 0 0 0
674 2 3234.63 2198.22 3336.97 -1 0 -1
675 2 1816.45 3233.23 2224.48 0 -1 0
676 2 2852.83 1708.2 3047.22 0 0 -1
677 2 1854.64 3353.35 2267.31 0 -1 0
678 2 1948.95 1736.41 3237.87 0 0 -1
679 2 1965.05 1760.6 3367.47 0 0 -1
680 2 1628.12 1638.89 2019.36 0 0 0
681 2 2327.09 2195.74 2186.85 0 0 0
682 2 2282.32 1996.82 1904.84 0 0 0
683 2 1800.92 2210.46 2118.87 0 0 0
684 2 3210.82 2986.73 3296.72 -1 0 -1
685 2 2359.59 2627.94 2389.95 0 0 0
686 2 2059.13 1928.22 1878.33 0 0 0
687 2 2533.9 1952.25 2126.97 0 0 0
688 2 3211.17 3364.48 2143.99 -1 -1 0
689 2 1900.43 2466.88 1954.14 0 0 0
690 2 3155.64 3338.62 3309.59 0 -1 -1
691 2 3286.4 2351.14 2151.94 -1 0 0
692 2 3106.16 1873.06 1599.67 0 0 0
693 2 1889.06 1693.63 2494.23 0 0 0
694 2 3403.11 3306.05 1675.51 -1 0 0
695 2 2291.52 2217.58 1779.87 0 0 0
696 2 2202.19 2167.75 2470.23 -1 -1 0
697 2 1628.18 2339.08 2388.4 1 -1 -1
698 2 3315.92 1901.19 2293.51 -1 0 0
699 2 2472.2 2897.92 2281.18 0 -1 0
700 2 1604.19 2239.24 1667.41 0 0 0
701 2 1898.3 2057.3 1717.95 0 0 0
702 2 2082.98 2124.64 2493.02 0 0 0
703 2 1990.44 1620.07 2454.51 0 0 0
704 2 1741.55 3380.55 2060.27 0 -1 0
705 2 2100.11 2260.4 2486.83 0 0 0
706 2 3357.22 3136.88 3371.19 0 0 -1
707 2 1819.95 1670.66 2308.12 0 0 0
708 2 2130.38 2042.61 2597.53 0 0 0
709 2 1799.56 3030.98 1806.11 1 0 0
710 2 1625.25 1906.08 1782.45 0 0 0
711 2 3074.7 2174.74 2240.57 0 0 0
712 2 2411.93 1972.11 1886.17 0 1 0
713 2 1863.73 2627.58 1757.31 0 0 1
714 2 1663.39 2433.27 2569.93 0 0 0
715 2 1701.07 3104.74 1762.75 1 0 1
716 2 2084 3362.76 2225.53 0 -1 0
717 2 2050.7 1681.18 3300.6 0 0 -1
718 2 2028.31 1640.02 2134.96 0 0 0
719 2 1947.83 2358.95 2255.86 0 0 0
720 2 1949.64 3176.11 2394.24 0 0 0
721 2 2237.12 2032.6 2025.59 0 0 0
722 2 3353.94 2320.86 1775.32 -1 0 0
723 2 2094.6 2409.94 2233.4 0 0 0
724 2 3288.22 3056.83 1630.74 -1 0 0
725 2 3099.66 1704.78 3359.86 0 1 0
726 2 2794.87 2288.68 2815.1 0 0 -1
727 2 3316.45 3316.92 1981.05 0 -1 0
728 2 2111.48 2324.27 1702.25 0 0 0
729 2 3279.56 2247.08 2235.15 -1 0 0
730 2 1759.61 3000.82 2584.06 0 -1 0
731 2 1921.3 2080.11 2181.03 0 0 0
732 2 2434.02 2257.55 2157.92 0 0 0
733 2 2261.32 2443.52 1813.48 0 0 1
734 2 2150.98 1666.94 2181.96 0 0 0
735 2 1743.95 2277.05 2013.75 0 0 0
736 2 1871.53 2194.52 2230.86 0 0 0
737 2 3208.32 1635.45 1882.15 -1 0 0
738 2 1874.84 2028.9 3184.5 0 0 -1
739 2 1909.59 1608.26 2080.05 0 0 0
740 2 3400.8 3171.73 1687.39 -1 0 1
741 2 2066.8 2329.36 1829.18 0 0 0
742 2 1997.58 1930.62 3156.79 0 0 -1
743 2 1810.81 1677.4 2016.74 0 0 0
744 2 3307.66 1880.33 1936.87 -1 0 0
745 2 1932.82 2189.73 2098.96 0 0 0
746 2 2067.63 2031.88 1791.03 0 0 0
747 2 1882.57 3199.8 1660.05 0 -1 0
748 2 3275.61 1830.24 2390.05 -1 0 0
749 2 3303.16 1914.35 1790.81 -1 0 0
750 2 1665.27 2167.2 1767.2 0 0 0
751 2 1757.29 2588.4 2779.02 1 0 0
752 2 3140.67 1886.08 1724.16 0 0 0
753 2 2682.58 2702.81 2320.26 0 0 1
754 2 1895.3 1892.13 2338.93 0 0 0
755 2 2057.42 1876.21 2124.43 0 0 0
756 2 2006.71 3156.37 1701.66 0 -1 0
757 2 3394.12 2106.76 1672.13 -1 0 0
758 2 1624.71 3359.38 2290.56 0 -1 0
759 2 1983.44 1861.93 1785.22 0 0 0
760 2 1920.29 3238.29 2764.62 0 -1 0
761 2 1720.75 2096.13 1871.84 0 0 0
762 2 1975.21 2068.54 2059.37 0 0 0
763 2 3148.27 1952.54 2238.13 -1 0 0
764 2 1822.71 2376.71 2036.57 0 0 0
765 2 2021.37 2141.28 2615.89 -1 1 0
766 2 2092.46 2549.59 1814.94 -1 0 0
767 2 2211.24 1971.8 3229.03 0 0 -1
768 2 3326.53 3356.21 3391.66 -1 -1 0
769 2 1737.67 2212.9 2238.85 0 0 0
770 2 2196.26 2001.05 1779.95 0 0 0
771 2 3340.15 2188.88 1975.45 -1 0 0
772 2 1963.99 2165.28 3389.28 0 0 -1
773 2 1906.07 2000.17 2417.12 0 0 0
774 2 2440.86 2128.35 3400.83 0 0 -1
775 2 3359.73 3014.74 1835.63 -1 0 0
776 2 1620.72 1684.23 1872.76 0 0 0
777 2 1810.13 2662.39 2871.95 1 0 0
778 2 2206.4 2233.42 1672.2 0 0 0
779 2 3246.02 1992.48 1891.9 0 0 0
780 2 3246.74 3249.63 2208.32 -1 -1 0
781 2 1729.91 1790.87 3355.88 0 0 -1
782 2 1994 2060.75 3153.23 0 0 -1
783 2 1675.66 2219.99 2359.41 0 0 0
784 2 3377.31 1712.77 2118.92 -1 0 0
785 2 2930.18 2811.14 3054.67 0 0 0
786 2 1811.71 2201.05 2350.85 0 0 0
787 2 3213.76 2204.6 1989.84 -1 0 0
788 2 1870.29 3073.4 1702.71 1 0 1
789 2 1810.84 2268.92 2565.53 0 -1 0
790 2 2713.16 3398.11 2730.54 1 0 0
791 2 3089.43 3391.5 1978.15 0 0 0
792 2 2702.47 2968.73 2342.95 0 -1 0
793 2 1797.02 2342.94 3332.96 0 0 -1
794 2 2899.37 2315.88 1895.28 0 0 0
795 2 3199.81 3191.82 1943.27 -1 -1 0
796 2 1700.94 1962.53 1881.37 0 0 0
797 2 2031 1749.91 2797.97 0 0 0
798 2 3157.46 2050.73 3124.93 0 1 -1
799 2 1790.59 1855.3 3103.94 0 0 -1
800 2 1674.68 2296.96 3370.07 0 0 -1
801 2 1661.62 1772.12 2590.06 0 0 0
802 2 1684.95 1818.13 1666.64 0 0 0
803 2 1755.86 2326.48 2383.58 0 0 0
804 2 1954.62 1814.82 3127.11 0 1 -1
805 2 2199.54 1761.09 2428.02 0 0 0
806 2 2393.12 1853.21 1984.49 0 0 0
807 2 3082.58 1799.02 2062.45 -1 0 0
808 2 2422.26 3275.3 2587.87 1 -1 -1
809 2 3342.87 3087.57 2081.18 -1 0 1
810 2 2261.48 3175.39 2166.83 0 0 0
811 2 2024.87 2000 2165.7 0 0 0
812 2 3213.78 1993.55 3229.45 -1 0 -1
813 2 3355.2 2188.81 3238.57 -1 0 -1
814 2 2626.48 2787.11 2406.03 0 -1 0
815 2 1839.62 1754.64 3156.13 0 0 -1
816 2 3270.22 2054.08 1653.03 -1 0 0
817 2 1905.64 2008.08 1953.96 0 0 0
818 2 3384.94 1893.87 2411.3 -1 0 0
819 2 3172.06 2136.73 1635.65 0 0 0
820 2 1944.69 3288.85 2039.05 0 -1 0
821 2 3188.42 1877 1859.91 -1 0 0
822 2 1999.41 1963.1 1688.99 0 0 1
823 2 3245.68 1910.57 2170.71 -1 0 0
824 2 1700.93 2324.78 2497.63 1 0 0