ITEM: TIMESTEP
726000
ITEM: NUMBER OF ATOMS
1000
ITEM: BOX BOUNDS pp pp pp
1.0541940242231303e+03 3.9458059757763340e+03
1.0541940242231303e+03 3.9458059757763340e+03
1.0541940242231303e+03 3.9458059757763340e+03
ITEM: ATOMS id type x y z ix iy iz
1 1 2841.87 2402.27 1245.15 -1 0 1
2 1 1979.06 1092.21 2657.72 0 0 0
3 1 3472.48 2600.09 2068.35 0 0 0
4 1 2186.69 1488.78 3442.53 0 -1 0
5 1 3638.8 3112.43 2757.71 -1 -1 1
6 1 1795.4 1572.55 3635.42 0 0 0
7 1 1467.04 3168.79 2956.82 0 -1 0
8 1 2096.86 1554.93 2467.21 0 0 1
9 1 3128.01 3184.85 2462.51 0 0 0
10 1 2953.3 2512.32 2680.03 0 0 0
11 1 2755.5 2042.77 2634.03 0 0 0
12 1 1179.42 3377.71 3862.28 0 0 0
13 1 3307.13 3763.81 3705.87 -1 0 -1
14 1 2146.75 2777.06 2979.39 0 0 -1
15 1 3414.52 2149.61 1944.35 0 0 0
16 1 2108.96 3935.37 2442.61 0 0 -1
17 1 2417.86 3011.34 3030.77 1 0 -1
18 1 3288.84 2314.08 2484.23 -1 1 0
19 1 2985.06 1726.96 1582.04 -1 0 0
20 1 1226.22 3187.85 3105.39 0 -1 0
21 1 1929.89 2546.36 2596.48 0 1 0
22 1 2720.35 3128.37 2814.41 2 -1 0
23 1 2984.12 2064.92 2751.25 0 0 1
24 1 3104.38 3584.59 2082.23 0 0 0
25 1 1553.79 1772.33 2888.15 -1 0 0
26 1 3097.02 3185.81 3072.85 0 0 0
27 1 3260.76 2367.97 2926.65 -1 0 1
28 1 1911.23 2439.03 2364.96 0 0 0
29 1 2589.59 2203.87 2699.6 0 0 -1
30 1 2886.22 3665.08 2998.18 0 0 0
31 1 1203.79 1440.88 3025.27 0 0 0
32 1 1413.89 3295.19 3453.52 0 0 -1
33 1 2111.13 2359.91 3307.17 0 0 0
34 1 2436.14 1086.38 3000.44 0 0 0
35 1 1875.49 2097.42 2360.51 0 0 -1
36 1 1285.68 2929.92 1159.29 0 -1 0
37 1 1634.07 1658.26 1715.66 0 0 0
38 1 2132.06 3128.43 2095.09 0 0 0
39 1 3408.13 2312.98 2988.01 -2 0 -1
40 1 3290.39 2467.87 1847.62 -1 -1 2
41 1 1816.93 3038.57 1696.31 0 0 -1
42 1 3045.77 2762.37 1936.82 0 -1 0
43 1 2442.89 2621.72 1928.91 0 -2 0
44 1 3135.08 3625.45 1534.59 0 -1 0
45 1 2449.75 2265.92 2895.56 0 0 0
46 1 3035.59 3796.52 3188.58 -1 -1 0
47 1 3614.56 3437.52 2116.02 -1 -1 -1
48 1 3407.36 1947.39 2890.2 0 0 -1
49 1 3020.99 2573.01 2179.1 -1 0 1
50 1 3209.62 1484.03 3525.84 -1 0 0
51 1 3480.95 1182.66 2163.19 -1 -1 1
52 1 3919.07 2550.83 3753.11 -1 0 -1
53 1 3269.7 1778.25 3627.74 -2 0 -1
54 1 3513.95 2188.92 3137.87 0 0 -1
55 1 3147.02 3186.65 3093.23 -2 0 -1
56 1 3286.95 2051.42 1433.07 0 0 0
57 1 1774.16 2507.25 3792.99 0 0 -1
58 1 2455.2 2666.88 3746.52 0 0 -1
59 1 2689.74 3613.75 2873.1 -1 -1 0
60 1 1878.16 3352.61 1315.81 -1 -1 1
61 1 1696.89 2918.12 2443.73 -1 0 0
62 1 2619.23 1138.28 3308.41 0 0 -1
63 1 3389.34 2104.54 3326.26 -1 0 0
64 1 3000.01 2675.26 3423.35 0 -1 -1
65 1 3425.08 3229.13 2826.74 -1 -1 -1
66 1 3487.18 3055.16 2541.17 -1 0 1
67 1 2491.38 2405.27 1457.52 0 0 0
68 1 2134.1 3067.42 3544.1 0 -1 -1
69 1 1195.83 2610.42 2923.21 0 0 0
70 1 1464.42 1219.79 3623.29 0 1 -1
71 1 1775.3 2760.69 2552.77 -1 0 -1
72 1 2827.99 1894.48 3902.77 0 0 -1
73 1 2707.27 1287.07 1076.57 0 1 1
74 1 3345.28 2804.8 2003.12 -1 0 -1
75 1 1798.79 2465.8 1419.09 0 0 1
76 1 1341.75 1433.12 3213.45 -1 0 0
77 1 2713.5 2526.16 3630.32 -1 -1 -1
78 1 1391.69 3887.55 1578.14 0 -1 0
79 1 1885.91 2281.44 2536.03 0 -1 0
80 1 3331.35 2333.47 2457.51 -1 0 0
81 1 3907.29 1592.87 1604.83 -1 0 0
82 1 1651.46 2116.45 3659.74 1 0 0
83 1 2469.86 1840.38 2793.4 -1 -1 -1
84 1 1777.13 3896.83 3739.83 1 0 -1
85 1 2505.21 2375.24 2398.86 0 -1 0
86 1 3686.47 2328.1 3008.03 -1 0 0
87 1 1471.26 1770.3 3111.06 0 -1 -1
88 1 1220.87 2893.19 1827.23 0 -1 0
89 1 3027.62 2986.61 1506.97 0 0 0
90 1 3762.03 3511.71 2237.47 -2 -1 0
91 1 1371.96 3757.78 3171.67 0 -1 -1
92 1 1750.24 2920.7 2436.95 0 -1 -1
93 1 2093.64 3661.34 2839.99 1 0 0
94 1 2172.68 1961.83 3696.2 0 0 -1
95 1 1503.26 2399.75 3047.26 -1 -1 -1
96 1 2905.12 2440.88 1719.13 -1 0 0
97 1 2199.06 2366.62 1803.37 0 -1 1
98 1 2798.45 1904.21 3215.57 -1 -1 0
99 1 2444.04 3051.45 3258.04 0 -1 -1
100 1 2865.28 1757.1 1210.66 -1 0 0
101 1 1195.63 3119.5 2295.24 0 -1 0
102 1 2149.66 1122.96 2769.43 -1 0 0
103 1 3073.9 2514.99 1875.57 -1 0 0
104 1 3791.95 2807.86 2403.56 0 -1 -1
105 1 3701.77 3365.6 2911.16 -1 0 0
106 1 3781.18 1742.12 3014.95 0 1 -1
107 1 2905.13 2016.88 2416.85 -1 -2 0
108 1 3618.08 3460.45 1309.76 -1 0 -1
109 1 2124.65 2550.45 2362.54 -1 -1 0
110 1 2897.84 2879.67 1297.9 0 -1 0
111 1 3770.79 1054.89 3779.49 -1 0 -1
112 1 2736.03 1338.67 3246.99 0 0 0
113 1 2322.66 2855.95 3199.94 0 0 -1
114 1 2834.75 2369.39 3167.03 -1 0 0
115 1 2133.8 2764.43 3323.34 0 0 -1
116 1 3056.85 2383.64 3110.98 0 0 0
117 1 2283.33 3835.42 2880.34 0 -1 -1
118 1 1916.89 2952.11 2158.06 -1 0 -1
119 1 3688.75 3216.64 2102.04 0 -1 0
120 1 2918.86 2217.41 1486.61 1 0 0
121 1 3412.01 3569.63 3346.45 -1 0 0
122 1 2955.41 3398.27 2443.49 0 0 -1
123 1 1403.37 1354.1 3809.47 -1 1 -1
124 1 2647.14 2529.46 1219.83 0 0 1
125 1 1408.1 3374.84 1707.65 0 -2 0
126 1 2041.71 3938.61 3279.15 0 0 -1
127 1 2922.22 2142.74 1905.49 -1 -1 0
128 1 1853.5 2162.43 3941.37 -1 0 0
129 1 2481.1 2398.27 2356.45 -1 0 0
130 1 3759.46 2709.1 1756.66 0 -1 0
131 1 3146.2 3494.66 1107.37 -1 -1 0
132 1 2680.83 2971.5 3291.36 0 -1 -1
133 1 2522.6 2387.87 3065.74 0 0 -1
134 1 1661.55 3576.69 2476.43 -1 -1 -1
135 1 2009 3834.77 3742.91 0 -1 -1
136 1 3228.5 1915.27 3445.24 -1 0 0
137 1 3492.68 1602.86 1671.39 -1 0 0
138 1 2901.73 2624.48 1582.17 0 -1 0
139 1 3232.16 2639.03 1824.22 -1 -1 -1
140 1 3183.84 3276.09 2912.15 -1 -1 -1
141 1 3078.44 2973.16 1838.06 -1 1 0
142 1 2406.33 2120.73 3076.46 0 1 -1
143 1 3475.03 3242.81 2137.2 -1 0 0
144 1 1182.05 3268.66 2600.44 -1 -1 0
145 1 2209.49 2090.1 1888.3 0 0 0
146 1 3690.32 2618.89 1965.86 -1 -1 0
147 1 1376.61 2470.66 2843.17 0 0 -1
148 1 2847.99 2823.86 2275.2 -1 -1 1
149 1 3298.41 3034 2908.53 0 0 0
150 1 2386.94 2647.72 2593.79 0 0 0
151 1 2581.37 3334.04 2908.16 0 -2 -1
152 1 3723.56 2707.58 3180.11 -1 -1 0
153 1 3134.47 2957.35 3080.76 -1 -1 -1
154 1 3583.06 2798.76 2151.48 -1 0 -1
155 1 3251.19 2296.05 2518.05 0 0 0
156 1 1784.37 2519 3505.48 0 0 -2
157 1 3887.23 3248.92 2237.5 0 0 -1
158 1 2866.24 2885.39 1769.9 -1 -1 0
159 1 3350.26 2740.63 2758.79 0 -1 0
160 1 3152.81 1617.87 3039.81 -1 0 0
161 1 2811.14 2864.42 1529.72 0 0 -1
162 1 2983.29 1815.89 2556.1 0 -1 0
163 1 2323.37 2632.75 3090.05 0 0 -1
164 1 3541.32 2401.63 1610.33 0 -1 -1
165 1 2178.13 1957.69 3749.9 0 0 -1
166 1 1120.27 2843.95 1638.8 0 0 -1
167 1 2794.81 2830.69 2268.76 0 -1 0
168 1 1529.81 1966.56 3284.5 0 0 0
169 1 1998.22 3627.16 1442.53 0 -1 -1
170 1 3239.18 3197.88 2271.57 0 -1 0
171 1 3007.37 1901.11 3357.68 -1 -1 -1
172 1 2683.15 3210.56 1907.19 0 -1 -1
173 1 2988.77 2317.96 2538.09 -1 0 -1
174 1 3088.73 1447.14 3803.35 -2 0 -1
175 1 3484.88 3311.54 1143.87 -1 -1 -1
176 1 1898.52 1854.38 3260.73 0 0 0
177 1 3010.51 3708.05 1292.93 -1 0 0
178 1 3694.86 2015.88 2983.26 -1 0 0
179 1 1562.93 1968.67 3327.01 -1 0 0
180 1 3600.87 3140.42 3252.44 0 0 -1
181 1 1309.36 2749.61 3400.12 0 -1 1
182 1 3081.37 3772.2 1991.93 0 -1 0
183 1 1156.94 3313.63 1728 0 -1 0
184 1 3198.31 2069.61 2803.31 0 -1 1
185 1 1293.56 2168.97 2718 0 0 -1
186 1 3399.48 2235.86 1505.05 -1 0 -1
187 1 3900.43 2760.19 3018.01 0 0 -1
188 1 2631.71 1099.54 3858.21 0 1 -1
189 1 3845.68 1847.1 3720.26 -1 0 -1
190 1 2647.73 2770.11 2476.98 -1 0 0
191 1 3101.73 1273.44 3536.09 0 0 0
192 1 3630.02 3692.58 1384.68 -1 -1 0
193 1 3751.86 2979.01 3178.29 -2 -1 0
194 1 3150.48 1922.84 1630.15 0 -1 -1
195 1 1946.3 2668.1 2941.89 -1 0 0
196 1 2330.44 2526.12 3888.28 0 0 -1
197 1 1990.15 2172.69 1222.94 -1 1 1
198 1 3016.41 3604.83 3720.58 -1 -1 0
199 1 2233.32 3552.7 1137.29 0 0 1
200 1 1826.88 1597.52 3280.64 0 0 -1
201 1 3606.15 1996 3274.21 -1 0 0
202 1 2639.05 2297.26 3738.96 -1 -1 -1
203 1 3449.36 3431.97 3773.12 -1 -1 0
204 1 2414.37 2253.06 3293.99 0 -1 -2
205 1 3291.05 2705.25 3394.55 -1 -1 0
206 1 3664.49 1224.21 3634.31 -1 0 0
207 1 2368.65 2905.5 3709.9 -1 -1 -1
208 1 2384.55 2038.93 2850.41 0 0 -1
209 1 2851.75 2790.9 3275.33 -1 -1 0
210 1 3418.96 2570.08 1399.48 0 -1 0
211 1 3047.17 3198.73 1410.21 -1 -1 0
212 1 2282.77 1071.17 2280.95 0 0 -1
213 1 3370.18 2811.08 2502.66 0 1 -1
214 1 2351.79 3132 2451 0 -1 0
215 1 1055.7 3242.52 1527.55 0 0 -1
216 1 2771.87 2239.06 3585.98 -1 0 -1
217 1 3196.42 1953.45 1854.28 -1 0 1
218 1 1953.16 2683.08 1652.46 0 0 0
219 1 3439.58 3222.48 2395.02 0 -1 0
220 1 1980.71 2395.05 3568.86 -1 0 -1
221 1 3295.69 1308.4 3391.88 -1 0 -1
222 1 3088.1 1992.82 1061.25 0 -1 1
223 1 2440.65 2428.25 3674.99 0 -1 -2
224 1 1246.44 3688.08 2492.44 0 -1 0
225 1 2998.66 3838.85 2411.7 0 -1 0
226 1 2956.91 2583.44 3165.48 0 -1 0
227 1 3714.29 2337.44 2775.19 -1 -1 -1
228 1 1128.14 3549.59 1147.7 0 0 1
229 1 3130.21 1823.81 2061.35 -1 -1 0
230 1 1216.33 2382.23 2668.52 0 0 -1
231 1 1796.57 2908.33 2412.46 -1 -1 0
232 1 1863.03 3804.08 3934.85 0 -1 -1
233 1 3716.76 2926.49 2930.73 -1 0 1
234 1 1676.5 1437.76 2622.61 0 -1 -1
235 1 2847.89 2301.17 1269.81 -1 -1 0
236 1 2495.23 2620.74 1916.3 -1 0 0
237 1 3397.59 2548.36 3241.37 0 -1 0
238 1 3297.68 3033.79 2431.51 0 -1 0
239 1 2865.43 2638.62 1816.03 -1 -1 0
240 1 1970.34 2574.55 2575.48 1 0 -1
241 1 2830.23 3784.67 1497.21 0 -1 0
242 1 2724.6 1783.87 1405.32 0 -2 0
243 1 1536.16 3888.91 1352.26 0 -1 0
244 1 3198.73 2669.8 2970.82 0 -1 -1
245 1 3573.33 1172.91 2529.2 -1 0 0
246 1 3153.79 1534.47 2806.52 0 -1 0
247 1 2386.61 3853.85 2676.69 0 -1 0
248 1 3560.68 3004.62 1733.39 -1 -1 0
249 1 3565.87 2728.42 3385.4 0 0 0
250 1 3866.74 1362.89 3630.57 -1 0 -1
251 1 3396.75 2825.91 1679.61 0 -1 0
252 1 3201.67 1288.18 2796.13 -1 0 0
253 1 1347.01 2752.41 1720.61 1 0 0
254 1 3772.99 2112.08 2662.91 -1 0 -1
255 1 3055.81 1622.34 3666.76 -1 0 -1
256 1 2426.51 2387.98 3062.74 -1 0 0
257 1 3119.44 3403.33 1607.51 -1 -1 0
258 1 2621.14 1761.92 3143.28 0 0 -1
259 1 2713.56 1828.07 3721.45 -1 0 -1
260 1 2724.82 2566.8 3290.33 0 0 0
261 1 1169.91 1762.11 2175.69 0 0 0
262 1 3513.35 2544.47 1810.8 -1 0 -1
263 1 2642.86 3062.16 3038.8 -1 0 -1
264 1 2062.18 2322.82 1427.02 0 0 -1
265 1 3770.74 1649.37 3297.73 -1 0 -1
266 1 3358.79 1334.02 3636.82 -1 0 -1
267 1 1156.04 2171.63 3231.68 0 0 -1
268 1 1980.47 2527.67 2599.78 0 -1 0
269 1 3042.51 1171.17 3133.43 -1 0 0
270 1 2221.31 1963.58 3718.68 0 0 -1
271 1 1717.62 3069.8 2301.62 0 -1 -1
272 1 2623.31 2344.32 3315.97 -1 0 -1
273 1 1899.21 2295.41 3262.17 0 0 -1
274 1 2221.32 2598.74 3335.38 1 -1 0
275 1 3135.92 2404.05 1437.7 -1 0 1
276 1 3001.66 2773.35 1104.47 -1 -1 0
277 1 2687.59 2711.54 1678.64 0 0 1
278 1 1099.17 1226.28 2975.53 0 0 -1
279 1 2241.32 2883.02 2407.6 0 -1 0
280 1 2415.76 2442.93 3441.05 -1 0 -1
281 1 1565.39 3133.91 2791.13 0 -1 0
282 1 1661.7 2195.41 3205.58 0 -1 0
283 1 2198.38 3716.02 3835.94 0 -1 -1
284 1 1900.34 2135.64 3645.01 0 0 -1
285 1 3933.86 2898.76 3216.78 -1 0 -1
286 1 3177.3 1782.2 3195.09 -1 1 0
287 1 2995.95 1659.25 1353.52 0 0 0
288 1 2218.74 2229.28 2887.11 1 0 0
289 1 1868.13 2848.74 2819.46 0 -1 0
290 1 3349.42 2471.66 2236.81 -1 -1 0
291 1 2067.72 2825.23 2427.91 -1 -1 0
292 1 3700.76 2060 2952.77 -1 0 -1
293 1 2722.36 2597.56 2593.25 0 0 1
294 1 2587.23 2751.73 2761.66 0 -1 -1
295 1 1549.99 3751.77 2576.96 0 -1 0
296 1 3662.37 2472.01 3209.07 0 0 0
297 1 3139.08 2213.44 2636.62 -1 0 0
298 1 2299.01 2412.91 2691.86 0 0 0
299 1 1287.75 1918.19 2581.54 1 0 0
300 1 1732.76 2435.84 3742.72 0 0 0
301 1 2257.86 2454.94 2636.69 -1 0 -1
302 1 3734.02 1582.07 1168.44 -1 0 0
303 1 3329.41 3795.56 1462.1 0 -1 0
304 1 2147.76 3028.19 3578.43 1 -1 -1
305 1 2340.22 1386.74 3621.34 0 0 -1
306 1 1235.9 3748.97 1134.76 0 -1 0
307 1 3516.62 2377.59 1651.9 -1 0 -1
308 1 1221.34 1309.85 1098.26 0 0 0
309 1 2763.95 3280.35 2197.74 0 0 -1
310 1 1372.19 1611.19 2925.39 0 0 -1
311 1 1908.26 3048.98 1150.04 0 -1 -1
312 1 3106.2 2215.61 2679.41 0 -1 1
313 1 1861.92 1730.73 3460.67 0 -1 -1
314 1 1382.75 2220.26 3132.62 1 0 0
315 1 1519.18 1393.75 2797.52 0 0 0
316 1 3171.65 3209.96 1198.54 -1 0 0
317 1 1975.12 3101.24 2684.78 1 0 -1
318 1 3873.18 3519.51 3032.14 0 -1 -1
319 1 3246.52 1934.08 1193.55 -1 0 0
320 1 2389.91 2803.79 2854.07 0 -1 0
321 1 2741.98 2075.98 3744.07 -1 0 0
322 1 2162.29 2456.39 1305.19 0 -1 0
323 1 1657.7 1773.85 3273.28 0 0 -1
324 1 3847.07 2220.97 1159.36 0 0 0
325 1 1804.72 3665.07 3176.14 0 0 0
326 1 2856.54 3000.54 3154.77 0 0 -1
327 1 2666.08 3430.66 2696.28 0 -1 0
328 1 1856.98 2025.36 2591.46 0 0 0
329 1 1833.48 2987.22 1694.8 0 0 0
330 1 2811.74 2536.07 2998.36 0 0 0
331 1 2453.29 2634.74 1684.08 -1 0 0
332 1 2101.79 3085.15 3504.79 0 -1 -1
333 1 3166.88 2517.48 3305.89 0 0 0
334 1 3211.63 3943.45 3677.39 -2 -1 0
335 1 2560.81 3201.54 2338.33 0 0 0
336 1 2429.65 2287.13 3893.05 0 -1 -1
337 1 1222.82 2366.88 1969.37 0 0 0
338 1 2845.91 2883.57 3814.03 0 -1 -1
339 1 3142.3 2829.61 3538.21 0 -1 0
340 1 2351.75 2408.88 2687.81 0 -1 0
341 1 2860.45 3732.15 3564.49 0 -1 -2
342 1 3024.19 3123.82 3288.8 0 -1 0
343 1 2956.46 1723.81 3171.53 1 -1 0
344 1 3288.23 3382.15 3360.94 0 -1 -1
345 1 2581.11 2106.89 1058.42 0 0 0
346 1 2836.21 2353.72 1267.8 0 -1 0
347 1 2474.18 2408.23 3077.27 -1 0 -1
348 1 1940.36 2501.7 2624.62 -1 -1 -1
349 1 3040.6 2740.31 2687.07 -1 0 0
350 1 2051.08 2117.43 1688.26 0 1 0
351 1 1673.46 1100.7 3551.52 0 0 -1
352 1 2247.78 2098.14 3442.99 0 1 0
353 1 3405.38 2708.4 2268.68 0 -1 0
354 1 1936.86 2701.5 2203.53 0 0 0
355 1 2259.3 2975.13 3397.12 0 -1 -1
356 1 2046.39 3535.12 1232.58 0 -1 0
357 1 1867 3199 3087.73 0 -1 -1
358 1 3390.71 3925.2 2002.32 -1 -1 0
359 1 2732.03 2146.62 3214.01 0 0 0
360 1 1974.16 1129.12 3864.91 0 1 -1
361 1 3783.88 2655.6 2210.24 -1 0 0
362 1 3068.42 2709.16 3025.06 0 -1 0
363 1 2526.64 2284.41 3521.59 0 0 -1
364 1 3070.5 2871.29 3314.36 -1 0 0
365 1 1881.2 3625.09 2957.19 0 -1 0
366 1 1622.46 2668.43 1298.95 0 0 0
367 1 2062.86 2635.27 3143.02 0 -1 -1
368 1 2746.59 1449.63 2655.2 -1 0 0
369 1 3491.09 2910.54 2820.87 0 0 -1
370 1 3612.51 3010.97 1950.98 -2 0 0
371 1 3742.54 1987.69 1584.06 -1 0 0
372 1 3308.29 3329.57 3862.97 -1 -1 -1
373 1 3122.1 2709.78 3027.97 0 1 0
374 1 2547.54 1479.96 2602.74 0 0 0
375 1 3469.21 1167.66 2213.57 0 0 -1
376 1 2864.04 2766.03 2507.31 0 1 0
377 1 3594.11 2483.03 2221.11 0 0 0
378 1 2190.56 1554.8 3219.19 0 1 -1
379 1 3226.4 2592.57 2037 -1 -1 0
380 1 2706.76 1905.49 1628.82 -1 0 0
381 1 2083.34 2580.14 3488.77 0 0 -1
382 1 3650.04 3154.49 2997.56 -1 -1 0
383 1 2902.96 2178.83 2232.4 -1 0 0
384 1 3092.65 3006.9 2287.5 0 -1 0
385 1 3384.61 2915.55 2204.1 0 0 0
386 1 3098.89 3343.81 2673.78 -1 0 0
387 1 3400.51 2261.87 2972.34 -1 0 -1
388 1 1055.8 2934.1 3178.27 0 0 -1
389 1 2398.11 2527.77 1270.39 0 0 0
390 1 1137.07 2771.73 1071.69 0 -1 0
391 1 2347.62 1538.62 1288.13 0 0 0
392 1 1476.15 2598.32 3365.22 -1 -1 -1
393 1 2660.26 2367.65 2848.22 0 0 1
394 1 1529.6 1888.02 3615.79 1 0 -1
395 1 2426.83 2417.99 1722.46 0 -1 -1
396 1 1178.24 3038.88 2647.27 1 0 0
397 1 2994.33 3052.62 1148.27 -1 0 0
398 1 2000.79 2383.84 3092.63 0 -1 0
399 1 1817.77 1282.35 3079.73 0 0 0
400 1 1962.47 2228.78 2897.29 -1 0 -1
401 1 2512.92 2427.64 2388.62 0 0 -1
402 1 2009.5 2603.41 3911.8 0 0 -2
403 1 1237.57 1780.62 3462.12 0 0 -1
404 1 2674.1 2796.58 1920.34 0 0 0
405 1 2803.42 3461.31 3036.58 -1 0 0
406 1 1824.25 3153.1 2132.4 0 -1 0
407 1 1440.44 3239.99 3219.84 -1 -1 0
408 1 3844.12 2338.94 3210.7 0 0 -1
409 1 3577.52 2794.52 2613.74 0 -1 -1
410 1 2658.29 2064.31 2388.16 0 0 -1
411 1 1851.84 1726.11 1636.73 0 0 0
412 1 2330.04 3414.62 3076.76 0 0 0
413 1 1218.22 2791 3141.94 0 0 -1
414 1 1673.4 3093.27 3053.64 0 -1 -1
415 1 1723.17 2299.49 2988.16 0 0 -1
416 1 2739.59 2796.04 1159.05 0 0 0
417 1 1331.69 1811.5 2360.56 -1 0 -1
418 1 3823.36 3366.7 1695.49 -1 0 1
419 1 1999.66 2612.83 2551.96 0 0 0
420 1 3605.11 3093.19 2243.18 -2 -1 -1
421 1 3130.24 2567.6 1298.17 -1 0 0
422 1 1251.25 3369.31 1506.62 0 -1 0
423 1 3462.93 2891.57 1201.49 0 -1 0
424 1 1654.93 3091.89 3666.94 0 -1 -1
425 1 2287.71 3109.66 3783.43 0 0 -1
426 1 3097.25 2680.62 2989.77 -1 0 -1
427 1 3573.94 2161.7 2078.71 -1 -1 0
428 1 2254.54 3270.68 2636.51 0 -1 -1
429 1 3199.4 2975.58 2049.23 -1 0 0
430 1 1736.82 1445.62 2069.92 0 -1 0
431 1 2701.49 2315.3 1107.95 0 0 0
432 1 1586.5 3096.54 2105.09 0 -1 0
433 1 2029.87 2814.49 2464.9 -1 -1 -1
434 1 3542.88 2861.54 2378.2 -1 0 0
435 1 3107.91 1725.09 3430.6 -1 0 0
436 1 3214.19 2868.06 1132.39 -1 0 0
437 1 2917.84 2022.48 1643.38 0 1 0
438 1 3884.11 2506.15 2781.75 -1 -1 -1
439 1 3082.33 2321.71 1410.27 0 0 0
440 1 3419.56 1608.45 3512.56 -1 0 -1
441 1 2935.88 1435.98 3587.13 -1 0 -1
442 1 1403.5 2623.31 3003.29 0 0 0
443 1 3467.66 2541.06 3469.98 0 -1 0
444 1 3059.16 2774.02 1679.5 -2 0 0
445 1 2355.98 3288.19 2618.39 0 -1 0
446 1 3290.31 1545 3749.76 -1 0 -1
447 1 2748.8 2867.18 2695.98 0 0 0
448 1 1681.15 2869.34 2119.19 -1 -1 0
449 1 2118.31 2441.04 1332.3 -1 0 0
450 1 1587.69 2378.43 3545.73 0 0 -1
451 1 1644.24 2918.19 2901.49 0 -1 -1
452 1 1890.66 1976.24 3483.61 0 0 0
453 1 3542.06 3518.46 2314.32 -1 0 0
454 1 1583.59 2004.22 2051.55 0 0 -1
455 1 2854.12 2657.38 3628.07 -1 0 -1
456 1 3277.86 1269.45 1122.16 0 1 0
457 1 2493.15 2955.25 2373.52 0 -1 -1
458 1 1522.07 1933.41 3326.22 0 1 -1
459 1 1739.07 2409.51 1974.54 0 -1 -1
460 1 3603.37 2471.8 2608.46 -1 -1 0
461 1 3082.94 2899.47 2503.76 0 -1 0
462 1 3323.93 2967.61 2656.86 -1 0 -1
463 1 3775.2 1701.09 3311.37 -1 0 -1
464 1 2817.71 2716.31 2780.45 0 0 0
465 1 1121.35 2898.28 2412.73 1 0 -2
466 1 2983.71 3339.5 2861.32 -1 -1 0
467 1 2836.89 2658.34 1326.08 0 1 0
468 1 3638.69 3049.78 1215.63 0 -1 1
469 1 3184.73 2543.64 2761.9 0 -1 -1
470 1 3174.5 3393.52 1359.48 -1 -1 -1
471 1 3183.91 2780.3 2195.46 0 0 0
472 1 2939.3 3284.7 1207.15 0 -1 0
473 1 1093.91 2316.9 3426.91 1 -1 0
474 1 3300.64 2240.72 3119.09 -2 -1 -1
475 1 3106.09 2534.34 1644.04 0 -1 0
476 1 3176.1 3880.45 1750.12 -1 -1 0
477 1 3621.27 2219.37 1584.31 0 -1 -1
478 1 2703.99 2480.87 1581.37 -1 -1 0
479 1 2703 1190.42 2140.49 0 0 -1
480 1 3719.25 2053.26 2429.82 -1 0 0
481 1 3263.75 1274.3 1070.32 0 1 1
482 1 2775.9 1559.51 3155.73 0 -1 -1
483 1 3339.83 2014.29 3077.43 -1 1 0
484 1 2984.08 3244.39 2229.69 -1 -1 0
485 1 2241.69 3537.17 2687.08 -1 -1 -1
486 1 3861.41 3256.9 1280.16 -1 -1 0
487 1 2895.33 2330 2934.41 -1 0 -1
488 1 1858.3 1252.86 2504.3 0 0 0
489 1 3554.75 2790.38 1838.58 -1 0 0
490 1 3330.1 2341.01 3380.6 -1 0 -1
491 1 2759.77 2920.55 2893.9 0 0 -1
492 1 3063.82 2566.33 3909.66 0 -1 0
493 1 2903.31 2425.76 2324.45 -1 0 0
494 1 2197.72 2322.73 3533.29 1 -1 0
495 1 3376.94 3039.97 1894.26 0 -1 0
496 1 3150.79 2684.25 2990.48 1 0 0
497 1 2720.52 3843.96 2746.89 -1 -1 0
498 1 2855.88 3307.55 2649.31 0 -1 0
499 1 2174.76 2508.71 1308.54 -1 0 -1
500 1 2868.88 3460.29 2183.81 0 -1 -1
501 1 2458.21 2901.11 2609.61 -1 0 -1
502 1 1268.46 3324.92 3267.53 -1 0 0
503 1 2477.94 2448.16 3113.06 0 0 0
504 1 2036.31 2646.4 2531.68 0 0 0
505 1 1740.84 2465.59 3786.62 -1 0 -1
506 1 1138.81 1853.7 1968.47 -1 0 0
507 1 3732.49 1672.76 3327.32 -1 0 -1
508 1 1459.12 1290.76 1504.65 0 0 -1
509 1 1476.21 1359.73 2529.71 0 0 0
510 1 2826.19 2232.71 2709.47 -1 -1 -1
511 1 3854.26 3423.33 2440.24 0 0 -1
512 1 1343.94 3460.18 3647.6 0 -1 -1
513 1 3383.55 2509.59 1632.86 0 -1 0
514 1 2996.91 2013.13 2095.08 -2 0 1
515 1 2471.7 1919.56 2401 -1 0 -1
516 1 2542.64 3826.46 2845.13 -1 -1 0
517 1 3327.54 3295.37 3654.06 0 -1 -1
518 1 1835.01 3119.94 2877.72 0 0 -1
519 1 2768.58 2660.78 2320.67 0 0 0
520 1 3394.27 3057.9 1192.4 -1 0 0
521 1 2515.6 2310.96 1225.31 -1 0 1
522 1 2470.2 2667.83 1923.72 -1 0 0
523 1 3360.42 3249.28 1351.95 0 0 0
524 1 2729.15 2357.7 2496.66 -1 -1 0
525 1 3424.22 1868.08 3286.84 0 0 -1
526 1 1755.26 2251.91 2747.93 0 0 0
527 1 1054.97 1971.01 3142.84 0 -1 -1
528 1 3580.81 2375.32 2010.14 0 1 0
529 1 2497.32 2681.09 1103.23 -1 -1 0
530 1 1568.26 2870.83 2667.32 0 0 0
531 1 1881.29 3857.28 1454.1 0 -1 0
532 1 3563.67 2668.84 1617.78 -1 0 0
533 1 3430.03 1184.46 2180.65 -1 0 -1
534 1 2231.45 1059.13 3102.26 0 0 -1
535 1 2796.19 3781.08 2476.68 -1 -2 0
536 1 2097.46 2593.02 1822.25 -1 0 0
537 1 2863.6 3316.25 1985.53 -1 -1 0
538 1 1621.87 1694.43 3485.16 0 0 -1
539 1 3446.07 2383.06 2792.86 -2 0 -1
540 1 2963.7 3576.13 2391.52 0 0 0
541 1 2481.05 3239.68 3113.59 0 0 -1
542 1 2265.91 2901.05 2363.22 0 -1 0
543 1 2146.45 2822.76 2723.09 0 0 -1
544 1 3327.29 1537.2 3298.67 -1 1 -1
545 1 2046.26 3052.59 2892.73 -1 0 -1
546 1 3648.29 1406.02 1323.46 -1 0 0
547 1 2474.14 2202.03 2307.45 0 -1 0
548 1 1459.45 1613.37 3309.39 0 0 0
549 1 2815.93 2511.77 3638.89 0 0 0
550 1 1811.55 2045.04 1245.68 0 0 0
551 1 2246.69 2829.68 1348.36 0 -1 0
552 1 2781.12 3807.28 3808.03 0 -1 -1
553 1 3150.06 2751.84 3813.41 -1 0 -1
554 1 2182.74 2394.16 2703.11 0 0 0
555 1 1763.66 2217.84 3484.49 0 0 0
556 1 2580.48 3246.2 2556.31 0 0 -1
557 1 2814.94 2723.78 2099.94 -1 0 0
558 1 2570.46 3731.44 2596.02 -1 0 -1
559 1 2565.46 3467.85 3116.73 -1 0 0
560 1 1515.88 2986.77 1059.71 0 0 0
561 1 3669 2287.02 2458.01 -1 -1 -1
562 1 1689.84 3691.14 3832.8 0 0 -1
563 1 3837.62 2510.9 3076.09 -1 0 0
564 1 2630.13 2863.19 3701.41 0 1 -1
565 1 3742.05 2742.9 3695.77 0 0 -1
566 1 3742.89 2027.48 2961.6 -1 0 1
567 1 2570.24 1303.63 3055.65 0 0 0
568 1 3335.61 3204.04 2572.54 -1 -1 -1
569 1 2833.6 2025.01 3404.91 0 0 0
570 1 1335.05 3196.52 2750.25 0 -1 0
571 1 3198.23 3027.05 1325.95 -1 -1 0
572 1 2582.27 2921.42 2842.69 -1 -1 0
573 1 2025.92 2184.09 3455.18 1 0 -1
574 1 3246.31 3533.31 3801.04 -1 0 0
575 1 1495.51 2349.07 3279.03 0 0 0
576 1 3723.36 2057.81 3001.71 0 -1 -1
577 1 3604.44 2651.5 2411.56 -1 -1 -1
578 1 1115.31 2701.41 2277.45 1 0 1
579 1 3175.47 3761.03 2580.54 0 0 -1
580 1 2279.95 2853.57 2384.38 0 1 1
581 1 1428.78 2102.7 2420.96 -1 0 0
582 1 3374.17 3470.39 2150.76 0 -1 0
583 1 2534.46 2390.35 2356.12 0 0 0
584 1 3663.41 3305.82 2278 0 0 1
585 1 3364.91 3524.57 3572.61 -1 -1 -1
586 1 3264.64 1918.84 3851.32 -1 -1 -2
587 1 1088.47 1970.03 2719.57 1 0 -1
588 1 1618.6 2325.18 1584.13 0 0 0
589 1 3071.63 3381.49 3847.06 1 -1 0
590 1 3715.52 2876.34 1594.06 -1 -1 1
591 1 1948.1 1480.44 3461.87 -1 -1 -1
592 1 1529.57 2190.99 2931.4 0 0 0
593 1 1274.8 1978.84 3268.12 0 0 0
594 1 1850.63 3435.04 3199.27 -1 1 0
595 1 3179.38 1098.75 3278.97 -1 0 -1
596 1 3094.27 2372.24 1424.9 1 0 0
597 1 2814.63 2618.88 3638 0 0 0
598 1 3227.26 3621.57 1325.81 0 -1 0
599 1 2137.32 3805.49 2659.61 -1 -1 0
600 1 3219.41 1840.54 2969.15 -1 0 -1
601 2 3909.82 2242.63 1432.34 -1 0 0
602 2 1456.02 1599.08 2098.14 1 0 0
603 2 3342.87 3625.71 1870.84 -1 0 1
604 2 3469.81 3395.01 3084.42 0 -1 0
605 2 1180.09 1127.41 3706.96 0 0 0
606 2 1114.44 2615.14 1958.14 1 0 0
607 2 1847.23 2682.54 1866 0 0 0
608 2 2943.46 3563.98 2635.43 0 -1 0
609 2 3214.99 1950.28 2291.01 0 0 0
610 2 2729.44 3253.69 3285.15 0 0 0
611 2 1275.9 3224.02 1219.42 0 0 1
612 2 2459.61 3841.45 2032.94 0 -1 0
613 2 1655.58 2605.92 2799.2 0 0 -1
614 2 2670.12 1716.87 2549.78 0 0 0
615 2 1149.86 2835.06 3622.97 0 0 0
616 2 3803.14 3768.5 1138.31 0 0 0
617 2 1275.97 3162.85 1971.62 0 -1 0
618 2 2442.28 3753.14 3222.86 0 0 0
619 2 2928.62 1742.79 2826.99 0 1 0
620 2 3855.68 3742.83 2425.1 -1 0 0
621 2 1063.09 3780.81 3050.17 0 0 -1
622 2 2117.88 3835.88 1211.69 0 0 0
623 2 2122.62 2591.01 3543.84 0 0 -1
624 2 1077.19 2244.71 2911.35 0 0 -1
625 2 2796.58 1530.78 3812.76 0 0 0
626 2 1304.16 3500.35 2996.03 1 0 -1
627 2 1648.35 1113.28 2696.8 0 1 0
628 2 3605.89 2617.95 2864.72 -1 0 0
629 2 2083.04 1630.35 2109.51 0 0 0
630 2 2551.58 1258.31 1821.72 0 1 0
631 2 3589.33 1374.2 3348.85 0 1 0
632 2 1904.84 3402.64 1614.77 0 -1 0
633 2 1262.98 3414.07 2292.09 0 -1 0
634 2 3424.62 2845.09 3104.51 -1 0 0
635 2 1219.39 1238.81 2059.36 0 0 0
636 2 3012.12 1418.03 3249.4 -1 0 0
637 2 1300.68 1938.51 2910.69 1 0 -1
638 2 1181.97 1549.33 1848.01 0 0 0
639 2 3539.05 3135.02 3753.33 0 0 0
640 2 2757.23 3913.24 3013.97 0 0 0
641 2 2217.64 1616.88 2726.96 0 0 0
642 2 2567.66 3365.08 1605.89 0 -1 0
643 2 1228.14 1093.78 2389.17 0 0 0
644 2 3850.15 2587.38 1441.44 -1 0 1
645 2 2600.81 3499.31 2005.86 0 -1 0
646 2 2006.31 3385.47 1982.92 0 -1 0
647 2 1879.39 1806.38 3743.52 0 0 0
648 2 2573.21 2753.89 3054.1 0 0 0
649 2 3496.81 1765.51 1091.8 -1 0 0
650 2 3536.39 2155.47 2135.67 0 0 0
651 2 3720.98 1738.46 1783.46 -1 0 0
652 2 1220.06 1206.2 1684.4 0 0 0
653 2 3186.68 2496.79 3593.48 0 0 -1
654 2 2500.08 3700.57 3883.22 0 -1 -1
655 2 2575.27 1550.75 2863.8 0 0 0
656 2 2904.72 1362.24 2893.71 0 0 0
657 2 3456.77 1636.57 2994.51 -1 0 -1
658 2 2669.87 2001.82 2901.48 -1 0 -1
659 2 1099.87 1652.76 2777.61 1 0 0
660 2 2332.12 2139.26 1537.53 0 0 0
661 2 2704.84 1149.51 1502.82 0 0 0
662 2 1491.26 1392.85 1183.52 0 0 0
663 2 1446.58 3150.37 2452.45 0 -1 0
664 2 2656.74 3473.55 3607.85 0 0 -1
665 2 2415.13 2287.56 1971.57 0 0 0
666 2 2621.88 3727.51 1720.4 0 -1 0
667 2 3063.08 1086.27 1445.61 0 0 0
668 2 1471.03 2206.42 1839.5 0 0 0
669 2 3623.04 2234.63 3425.92 -1 0 0
670 2 1871.84 1292.72 3120.5 0 0 -1
671 2 2999.22 1334.17 1169.37 0 0 1
672 2 1472.88 2589.05 1947.3 0 0 0
673 2 2135.49 2184.83 2338.75 0 0 0
674 2 3804.96 1092.08 1872.18 -1 0 0
675 2 3298.54 3059.24 3425.55 -1 0 0
676 2 2644.83 1473.21 1288.01 0 0 0
677 2 1662.77 3305.19 1852.09 0 -1 0
678 2 3629.37 3199.71 1476.93 -1 -1 0
679 2 1635.57 3390.36 3629.84 0 0 0
680 2 3499.25 1494.18 1926.48 -1 0 0
681 2 2110.73 3594.22 3158.62 0 0 0
682 2 3145.42 2251.17 2059.57 0 0 0
683 2 2318.8 3249.8 2661.31 0 -1 0
684 2 1389.63 3533.49 1972.17 0 -1 0
685 2 1451.93 3704.32 3595.34 0 0 -1
686 2 1442.65 2401.33 1298.47 0 0 0
687 2 2534.44 3134.9 3553.66 -1 -1 0
688 2 3261.43 3461.66 2431.4 -1 -1 0
689 2 1827.87 3691.68 3481.15 0 -1 0
690 2 3751.2 3437.44 3881.74 0 1 -1
691 2 2659.14 2175.49 1726.32 -1 0 0
692 2 1694.8 1067.13 3218.92 0 0 -1
693 2 3628.5 3757.25 2106.51 -1 -1 0
694 2 1314.59 2897.32 2839.41 0 0 0
695 2 2856.95 1795.65 1858.79 0 0 0
696 2 2297.73 1149.52 3370.85 0 1 0
697 2 1440.31 1643.97 2601.8 0 0 0
698 2 1496.87 2365.06 2530.57 1 0 0
699 2 2446.77 1114.65 1215.15 0 0 0
700 2 1100.3 2446.55 1158.57 0 0 0
701 2 3936.83 3140.47 2807.6 0 -1 -1
702 2 1309.14 2440.03 2252.29 0 0 0
703 2 1592.71 3610.82 1676.11 0 0 0
704 2 1964.41 3509.11 2324.96 0 -1 0
705 2 1654.41 1463.73 3050.04 0 0 -1
706 2 1437.53 2640.48 3923.46 0 0 0
707 2 1424.25 3476.32 2639.9 0 -1 0
708 2 1323.03 2686.51 2519.49 1 0 0
709 2 1312.2 1089.02 3359.51 0 0 0
710 2 2892.53 1183.93 3752.29 0 0 -1
711 2 1574.35 3329.98 1429.17 0 -1 0
712 2 1869.97 2813.95 3492.12 0 0 -1
713 2 2245.98 2416.92 2692.31 0 0 -1
714 2 3178.57 1521.5 2124.61 -1 0 0
715 2 2618.3 2063.84 1352.37 0 0 0
716 2 2141.16 3241.69 1124.29 0 0 0
717 2 3471.51 1081.8 3812.05 -1 0 -1
718 2 2786.5 2378.43 1992.34 -1 0 0
719 2 1521.66 1361.54 1814.24 0 0 0
720 2 1087.89 1552.72 3826.27 0 0 -1
721 2 3794.63 2390.51 1747.43 0 0 0
722 2 3911.38 3424.19 1947.61 -1 -1 0
723 2 2827.37 3549.31 3945.01 0 0 -1
724 2 3468.89 3737.25 2517.93 0 -1 0
725 2 1931.42 3895.25 2936.97 0 -1 -1
726 2 2043.52 1939.09 1411 0 0 0
727 2 3656.89 2386.17 1202.53 -1 0 0
728 2 2084.68 1849.61 2413.13 0 0 0
729 2 3257.91 1168.67 2480.44 -1 0 0
730 2 3283.13 3130.86 1596.87 -1 -1 0
731 2 2131.47 2880.2 3907.07 0 0 0
732 2 3780.7 1237.07 3934.37 -1 0 -1
733 2 2014.36 1203.73 1524.33 0 1 0
734 2 1297.75 2041.84 2107.12 0 0 0
735 2 2274.53 1292.45 2499.67 0 0 0
736 2 1973.23 3779.3 1724 0 -1 0
737 2 1868.76 3025.66 1738.96 -1 0 0
738 2 3723.86 3004.79 3463.26 0 0 0
739 2 2022.76 3390.07 3453.23 0 0 0
740 2 3195.16 1289.89 1849.97 0 0 0
741 2 2770.75 1678.88 3404.7 -1 1 0
742 2 2528.39 1791.6 1069.87 0 0 0
743 2 3902.13 1766.55 2431.32 -1 0 0
744 2 2664.16 2029.46 2042.07 0 0 0
745 2 1945.33 3494.26 3788.18 0 0 -1
746 2 1921.02 2715.62 1286.16 0 0 0
747 2 2999.57 3310.26 3512.66 0 0 -1
748 2 2381.99 1340.77 1515.01 0 0 0
749 2 1991.47 1696.24 2963.47 0 0 0
750 2 1200.95 1460.99 2368.17 0 0 0
751 2 3895.85 2817.72 2674.84 0 0 -1
752 2 3450.97 1091.17 2807.42 0 1 0
753 2 1168.08 2112.84 1764.43 0 0 0
754 2 2961.65 2268.81 3772.39 -1 0 0
755 2 2185.7 1780.02 3367.98 0 0 0
756 2 2670.85 3488.38 2365.73 0 -1 0
757 2 2297.86 1942.45 2158.03 0 0 0
758 2 3633.38 3679.49 2897.87 -1 -1 0
759 2 2889.55 1090.67 1819.72 0 0 0
760 2 2463.63 2753.81 3414.12 0 0 -1
761 2 1703.69 3620.24 1252.28 0 -1 0
762 2 1765.4 1739.95 1952.1 0 0 0
763 2 1314.72 1737.5 1184.09 0 0 0
764 2 2284.29 3194.19 1794.28 0 -1 0
765 2 1607.89 2235.21 2200.67 0 0 0
766 2 3678.97 1676.69 1382.21 -1 0 0
767 2 2313.43 1522.87 1830.09 0 1 0
768 2 1555.04 1246.76 2203.74 0 0 0
769 2 1455.53 3882.19 1898.33 0 -1 0
770 2 1119.19 2161.12 2426.61 1 -1 0
771 2 1221.77 3031.85 3362.57 1 0 -1
772 2 1626.2 1866.26 2305.32 0 0 0
773 2 3303.8 1314.7 1108.28 -1 0 1
774 2 1423.33 3516.4 3899.12 0 -1 -1
775 2 3815.37 3898.2 1519.17 -1 -1 0
776 2 3151.38 3058.86 3720.44 -1 0 -1
777 2 3713.34 2721.89 1110.92 -1 0 0
778 2 1779.27 1964.69 2963.14 0 0 -1
779 2 3121.78 1686.29 1062.78 -1 0 0
780 2 3352.39 2592.02 1077.22 -1 0 0
781 2 3521.96 1095.86 1289.88 -1 0 0
782 2 2508.66 1908.19 3325.81 0 0 0
783 2 1545.81 3525.76 3285.62 0 -1 -1
784 2 1220.46 1314.87 2686.71 0 0 -1
785 2 3424.01 3480.02 1536.53 -1 -1 0
786 2 1375.73 1569.97 1528.43 1 0 0
787 2 2578.71 3009.51 1665.93 0 0 0
788 2 2321.48 1799.55 3036.8 0 0 0
789 2 1248.7 1896.55 3753.24 0 0 -1
790 2 3809.26 1564.51 2165.75 -1 0 0
791 2 3647.52 1085.48 3123.87 0 0 -1
792 2 1745.68 2484.91 3851.49 0 0 -1
793 2 1697.38 1301.38 3783.03 0 0 0
794 2 3449.86 1457.9 2694.85 -1 0 0
795 2 1649.02 3367.97 2923.06 0 0 0
796 2 1280.16 2499.44 3550.45 0 0 -1
797 2 3465.54 3918.03 3422.54 -1 -1 -1
798 2 1599.01 3749.96 2923.48 0 0 0
799 2 3563.72 1888.2 3515.18 -1 1 -1
800 2 3580.28 3312.06 3444.41 -1 0 -1
801 2 2098.65 2056.62 3122.35 0 0 0
802 2 1423.33 1172.71 2990.32 0 1 0
803 2 2567.28 3667.85 1352.15 0 -1 0
804 2 2497.86 2994.42 2034.08 0 -1 0
805 2 2035.15 1265.06 2211.12 0 0 0
806 2 3861.2 3075.27 1752.15 -1 -1 0
807 2 3634.56 3662.4 3643.16 -1 0 -1
808 2 3143.73 2201.52 1655.39 -1 0 0
809 2 3739.82 1398.21 2913.82 0 0 0
810 2 2430.55 1432.65 3881.56 0 0 -1
811 2 1284.55 1440.93 3507.28 1 0 0
812 2 2637.45 1342.15 3524.63 0 0 -1
813 2 2273.25 1352.38 2965.55 0 0 0
814 2 1559.85 2921.61 1811.34 0 0 0