ITEM: TIMESTEP
525000
ITEM: NUMBER OF ATOMS
1000
ITEM: BOX BOUNDS pp pp pp
1.3680244790083323e+03 3.6319755209911323e+03
1.3680244790083323e+03 3.6319755209911323e+03
1.3680244790083323e+03 3.6319755209911323e+03
ITEM: ATOMS id type x y z ix iy iz
1 1 2769.23 2431.99 1512.83 -1 0 1
2 1 2092.14 1397.79 2623.49 0 0 0
3 1 3261.39 2578.37 2162.04 0 0 0
4 1 2254.7 1708.28 3237.94 0 -1 0
5 1 3391.61 2979.49 2701.77 -1 -1 1
6 1 1948.34 1773.87 3388.96 0 0 0
7 1 1691.26 3023.62 2857.66 0 -1 0
8 1 2184.36 1760.07 2474.33 0 0 1
9 1 2991.69 3036.19 2470.65 0 0 0
10 1 2854.91 2509.64 2640.95 0 0 0
11 1 2700.04 2142.02 2604.93 0 0 0
12 1 1466.07 3187.19 3566.58 0 0 0
13 1 3131.93 3489.49 3444.12 -1 0 -1
14 1 2223.43 2716.92 2875.33 0 0 -1
15 1 3216.01 2225.67 2064.96 0 0 0
16 1 2193.84 3623.8 2455.07 0 0 -1
17 1 2435.69 2900.34 2915.56 1 0 -1
18 1 3115.95 2353.98 2485.08 -1 1 0
19 1 2879.77 1894.76 1781.29 -1 0 0
20 1 1502.71 3038.54 2973.98 0 -1 0
21 1 2040.8 2526.4 2580.57 0 1 0
22 1 2672.52 2991.97 2746.16 2 -1 0
23 1 2879.03 2159.36 2696.72 0 0 1
24 1 2973.19 3349.17 2172.91 0 0 0
25 1 1759.17 1930.28 2803.9 -1 0 0
26 1 2962.03 3036.86 2946.3 0 0 0
27 1 3095.63 2396.63 2834.04 -1 0 1
28 1 2039.03 2452.26 2394.28 0 0 0
29 1 2570.14 2268.15 2656.27 0 0 -1
30 1 2802.39 3412.18 2890.04 0 0 0
31 1 1485.15 1670.77 2911.25 0 0 0
32 1 1649.65 3122.58 3246.54 0 0 -1
33 1 2195.54 2390.32 3131.97 0 0 0
34 1 2450 1393.23 2891.81 0 0 0
35 1 2011.05 2184.8 2390.79 0 0 -1
36 1 1549.27 2836.6 1450.31 0 -1 0
37 1 1822.03 1840.97 1885.91 0 0 0
38 1 2211.93 2992.02 2182.98 0 0 0
39 1 3211.83 2359.09 2883.78 -2 0 -1
40 1 3118.83 2474.84 1989.23 -1 -1 2
41 1 1958.78 2925.85 1866.31 0 0 -1
42 1 2927.3 2705.42 2059.07 0 -1 0
43 1 2448.36 2592.2 2049.2 0 -2 0
44 1 2997.23 3381.16 1744.14 0 -1 0
45 1 2460.65 2316.73 2809.7 0 0 0
46 1 2919.34 3515.09 3039.12 -1 -1 0
47 1 3372.63 3234.02 2199.37 -1 -1 -1
48 1 3210.41 2067.34 2805.51 0 0 -1
49 1 2907.9 2557.16 2248.76 -1 0 1
50 1 3055.59 1704.56 3303.17 -1 0 0
51 1 3272.56 1469.56 2231.39 -1 -1 1
52 1 3611.05 2539.79 3481.1 -1 0 -1
53 1 3102.62 1934.91 3382.95 -2 0 -1
54 1 3293.86 2256.45 2999.41 0 0 -1
55 1 3011.98 3037.69 2966.66 -2 0 -1
56 1 3116.13 2148.79 1664.66 0 0 0
57 1 1936.67 2510.94 3513.75 0 0 -1
58 1 2464.92 2630.65 3475.95 0 0 -1
59 1 2648.55 3372 2792.12 -1 -1 0
60 1 2013.14 3167.54 1572.85 -1 -1 1
61 1 1861.09 2826.34 2456.56 -1 0 0
62 1 2593.35 1433.86 3132.94 0 0 -1
63 1 3196.3 2190.38 3146.91 -1 0 0
64 1 2891.47 2637.22 3222.93 0 -1 -1
65 1 3224.28 3070.87 2755.82 -1 -1 -1
66 1 3272.9 2934.65 2532.23 -1 0 1
67 1 2493.25 2425.83 1683.8 0 0 0
68 1 2217.88 2949.28 3318.63 0 -1 -1
69 1 1478.92 2586.46 2831.35 0 0 0
70 1 1689.21 1497.68 3379.47 0 1 -1
71 1 1932.61 2704.1 2541.31 -1 0 -1
72 1 2756.79 2025.92 3598.28 0 0 -1
73 1 2662.28 1550.35 1385.54 0 1 1
74 1 3161.8 2738.64 2110.97 -1 0 -1
75 1 1951 2473.22 1653.71 0 0 1
76 1 1593.16 1664.7 3058.59 -1 0 0
77 1 2654.38 2511.14 3379.52 -1 -1 -1
78 1 1632.26 3586.36 1778.24 0 -1 0
79 1 2019.21 2328.88 2528.21 0 -1 0
80 1 3160.61 2373.99 2461.31 -1 0 0
81 1 3601.82 1789.78 1799.14 -1 0 0
82 1 1835.65 2199.71 3408 1 0 0
83 1 2476.4 1983.56 2729.71 -1 -1 -1
84 1 1934.04 3593.63 3470.71 1 0 -1
85 1 2503.39 2397.46 2425.93 0 -1 0
86 1 3428.93 2365.41 2897.76 -1 0 0
87 1 1694.56 1928.69 2978.42 0 -1 -1
88 1 1498.52 2807.84 1973.27 0 -1 0
89 1 2913.09 2880.98 1722.52 0 0 0
90 1 3488.09 3292.11 2294.46 -2 -1 0
91 1 1616.82 3484.76 3025.87 0 -1 -1
92 1 1914.79 2833.23 2455.19 0 -1 -1
93 1 2181.85 3409.26 2766.19 1 0 0
94 1 2231.41 2078.7 3432.02 0 0 -1
95 1 1719.62 2421.51 2928.47 -1 -1 -1
96 1 2817.18 2453.71 1888.63 -1 0 0
97 1 2264.38 2395.57 1954.58 0 -1 1
98 1 2733.67 2033.53 3060.24 -1 -1 0
99 1 2456.19 2931.75 3093.5 0 -1 -1
100 1 2785.99 1918.35 1490.53 -1 0 0
101 1 1478.76 2985.03 2339.69 0 -1 0
102 1 2225.7 1421.87 2710.95 -1 0 0
103 1 2949.33 2511.74 2011.11 -1 0 0
104 1 3511.52 2741.03 2424.5 0 -1 -1
105 1 3440.91 3177.71 2821.91 -1 0 0
106 1 3503.08 1906.63 2903.18 0 1 -1
107 1 2817.19 2121.75 2434.9 -1 -2 0
108 1 3375.39 3251.97 1568.12 -1 0 -1
109 1 2206.13 2539.5 2392.38 -1 -1 0
110 1 2811.48 2797.26 1558.83 0 -1 0
111 1 3494.95 1368.57 3501.76 -1 0 -1
112 1 2684.8 1590.75 3084.85 0 0 0
113 1 2361.15 2778.69 3048.01 0 0 -1
114 1 2762.09 2397.74 3022.25 -1 0 0
115 1 2213.29 2707.04 3144.62 0 0 -1
116 1 2935.98 2408.89 2978.36 0 0 0
117 1 2330.36 3545.55 2797.78 0 -1 -1
118 1 2043.46 2853.97 2232.29 -1 0 -1
119 1 3430.72 3061.08 2188.43 0 -1 0
120 1 2827.94 2278.75 1706.58 1 0 0
121 1 3214.05 3337.45 3162.72 -1 0 0
122 1 2856.56 3203.29 2455.75 0 0 -1
123 1 1641.41 1602.83 3525.23 -1 1 -1
124 1 2615.2 2523.07 1497.71 0 0 1
125 1 1645.11 3184.95 1879.64 0 -2 0
126 1 2141.19 3626.34 3110.03 0 0 -1
127 1 2830.57 2220.29 2034.54 -1 -1 0
128 1 1993.83 2235.71 3628.5 -1 0 0
129 1 2479.33 2420.44 2383.63 -1 0 0
130 1 3486.08 2663.71 1918.01 0 -1 0
131 1 3005.93 3278.76 1409.66 -1 -1 0
132 1 2641.58 2869.16 3119.58 0 -1 -1
133 1 2528.26 2407.48 2940.94 0 0 -1
134 1 1843.54 3342.98 2481.54 -1 -1 -1
135 1 2115.58 3545.04 3473.12 0 -1 -1
136 1 3070.37 2042.2 3240.07 -1 0 0
137 1 3277.2 1797.6 1851.25 -1 0 0
138 1 2814.53 2597.46 1781.4 0 -1 0
139 1 3073.24 2608.86 1970.91 -1 -1 -1
140 1 3035.41 3107.63 2822.69 -1 -1 -1
141 1 2952.89 2870.45 1981.74 -1 1 0
142 1 2426.66 2203.06 2951.33 0 1 -1
143 1 3263.39 3081.57 2215.95 -1 0 0
144 1 1468.13 3101.81 2578.64 -1 -1 0
145 1 2272.55 2179.08 2021.07 0 0 0
146 1 3431.95 2593.08 2081.8 -1 -1 0
147 1 1620.46 2477.03 2768.68 0 0 -1
148 1 2778.2 2752.83 2324.69 -1 -1 1
149 1 3125.1 2918.09 2819.85 0 0 0
150 1 2411.48 2615.65 2573.43 0 0 0
151 1 2563.7 3153 2819.56 0 -2 -1
152 1 3457.97 2662.52 3032.48 -1 -1 0
153 1 2996.75 2858.08 2954.7 -1 -1 -1
154 1 3347.97 2733.91 2227.13 -1 0 -1
155 1 3080.08 2336.4 2522.13 0 0 0
156 1 1939.71 2514.88 3287.23 0 0 -2
157 1 3586.12 3086.35 2294.48 0 0 -1
158 1 2786.75 2801.73 1928.38 -1 -1 0
159 1 3165.7 2688.4 2702.61 0 -1 0
160 1 3011.11 1809.35 2922.64 -1 0 0
161 1 2743.6 2785.32 1740.33 0 0 -1
162 1 2878.39 1964.38 2543.92 0 -1 0
163 1 2361.71 2603.94 2961.97 0 0 -1
164 1 3317.96 2425.58 1798.96 0 -1 -1
165 1 2236.91 2074.59 3485.42 0 0 -1
166 1 1419.76 2769.29 1825.73 0 0 -1
167 1 2725.07 2759.65 2318.26 0 -1 0
168 1 1738.58 2084.62 3108.12 0 0 0
169 1 2107.14 3382.49 1672.07 0 -1 -1
170 1 3078.73 3046.39 2321.16 0 -1 0
171 1 2897.24 2031.1 3171.51 -1 -1 -1
172 1 2643.4 3056.32 2035.86 0 -1 -1
173 1 2882.68 2357.48 2529.82 -1 0 -1
174 1 2960.94 1675.67 3520.44 -2 0 -1
175 1 3271.1 3135.39 1438.24 -1 -1 -1
176 1 2029.08 1994.52 3095.6 0 0 0
177 1 2899.7 3445.83 1554.94 -1 0 0
178 1 3431.08 2115.73 2880.17 -1 0 0
179 1 1771.62 2086.67 3150.61 -1 0 0
180 1 3361.91 3001.41 3089.11 0 0 -1
181 1 1567.8 2695.43 3204.73 0 -1 1
182 1 2955.17 3496.06 2102.21 0 -1 0
183 1 1448.47 3137.02 1895.57 0 -1 0
184 1 3046.73 2163.03 2737.48 0 -1 1
185 1 1555.43 2240.82 2670.68 0 0 -1
186 1 3204.23 2293.19 1721.02 -1 0 -1
187 1 3596.45 2703.71 2905.57 0 0 -1
188 1 2603.12 1403.53 3563.39 0 1 -1
189 1 3553.58 1988.82 3455.39 -1 0 -1
190 1 2615.66 2711.48 2481.97 -1 0 0
191 1 2971.11 1539.68 3311.19 0 0 0
192 1 3384.73 3433.72 1626.77 -1 -1 0
193 1 3480.13 2875.03 3031.06 -2 -1 0
194 1 3009.29 2048.12 1818.96 0 -1 -1
195 1 2066.49 2631.61 2845.97 -1 0 0
196 1 2367.24 2520.45 3586.93 0 0 -1
197 1 2100.82 2243.74 1500.14 -1 1 1
198 1 2904.32 3365.01 3455.64 -1 -1 0
199 1 2291.21 3324.2 1433.09 0 0 1
200 1 1972.99 1793.42 3111.19 0 0 -1
201 1 3366.05 2105.4 3106.16 -1 0 0
202 1 2608.87 2341.27 3470.02 -1 -1 -1
203 1 3243.29 3229.67 3496.77 -1 -1 0
204 1 2432.96 2306.66 3121.65 0 -1 -2
205 1 3119.34 2660.7 3200.37 -1 -1 0
206 1 3411.72 1501.14 3388.09 -1 0 0
207 1 2397.16 2817.48 3447.28 -1 -1 -1
208 1 2409.61 2139.01 2774.35 0 0 -1
209 1 2775.4 2727.75 3107.03 -1 -1 0
210 1 3219.49 2554.87 1638.36 0 -1 0
211 1 2928.4 3047.06 1646.76 -1 -1 0
212 1 2329.92 1381.31 2328.5 0 0 -1
213 1 3181.3 2743.56 2502.08 0 1 -1
214 1 2383.96 2994.82 2461.63 0 -1 0
215 1 1369.2 3081.35 1738.63 0 0 -1
216 1 2712.86 2295.7 3350.25 -1 0 -1
217 1 3045.26 2072.08 1994.44 -1 0 1
218 1 2071.86 2643.34 1836.43 0 0 0
219 1 3235.63 3065.65 2417.8 0 -1 0
220 1 2093.43 2417.83 3336.85 -1 0 -1
221 1 3122.97 1567.05 3198.28 -1 0 -1
222 1 2960.45 2102.91 1373.55 0 -1 1
223 1 2453.53 2443.82 3419.94 0 -1 -2
224 1 1518.54 3430.19 2494.08 0 -1 0
225 1 2890.42 3548.23 2430.86 0 -1 0
226 1 2857.73 2565.33 3021.03 0 -1 0
227 1 3450.71 2372.73 2715.46 -1 -1 -1
228 1 1425.92 3321.76 1441.24 0 0 1
229 1 2993.42 1970.59 2156.56 -1 -1 0
230 1 1494.97 2407.8 2631.94 0 0 -1
231 1 1957.58 2816.87 2426.29 -1 -1 0
232 1 2001.3 3521.02 3623.4 0 -1 -1
233 1 3452.65 2833.91 2837.24 -1 0 1
234 1 1855.25 1668.33 2595.99 0 -1 -1
235 1 2775.01 2334.86 1536.53 -1 -1 0
236 1 2500.64 2591.22 2036.6 -1 0 0
237 1 3202.76 2537.86 3080.45 0 -1 0
238 1 3124.54 2917.93 2446.37 0 -1 0
239 1 2786.11 2608.53 1964.49 -1 -1 0
240 1 2076.7 2560.4 2558.66 1 0 -1
241 1 2758.55 3505.81 1714.88 0 -1 0
242 1 2675.85 1939.31 1642.93 0 -2 0
243 1 1745.37 3587.43 1601.39 0 -1 0
244 1 3062.9 2627.86 2862.42 0 -1 -1
245 1 3340.35 1460.98 2522.86 -1 0 0
246 1 3011.88 1744.05 2739.98 0 -1 0
247 1 2411.23 3559.98 2638.34 0 -1 0
248 1 3330.45 2895.09 1899.79 -1 -1 0
249 1 3334.51 2678.84 3193.21 0 0 0
250 1 3570.07 1609.71 3385.17 -1 0 -1
251 1 3202.1 2755.16 1857.68 0 -1 0
252 1 3049.36 1551.22 2731.85 -1 0 0
253 1 1597.28 2697.62 1889.78 1 0 0
254 1 3496.67 2196.28 2627.55 -1 0 -1
255 1 2935.16 1812.85 3413.5 -1 0 -1
256 1 2431.39 2407.24 2937.74 -1 0 0
257 1 2984.98 3207.25 1801.24 -1 -1 0
258 1 2594.85 1922.13 3003.65 0 0 -1
259 1 2667.2 1973.92 3456.32 -1 0 -1
260 1 2676.02 2552.3 3118.78 0 0 0
261 1 1458.62 1922.28 2246.08 0 0 0
262 1 3293.39 2534.82 1960.4 -1 0 -1
263 1 2611.85 2940.14 2921.85 -1 0 -1
264 1 2157.22 2361.28 1659.92 0 0 -1
265 1 3494.81 1829.82 3117.12 -1 0 -1
266 1 3172.38 1587.11 3390.06 -1 0 -1
267 1 1447.76 2242.91 3072.86 0 0 -1
268 1 2092.96 2513.92 2580.89 0 -1 0
269 1 2924.75 1459.61 2995.93 -1 0 0
270 1 2280.64 2075.83 3453.87 0 0 -1
271 1 1887.44 2946.12 2344.68 0 -1 -1
272 1 2596.55 2378.11 3138.85 -1 0 -1
273 1 2029.62 2339.82 3096.73 0 0 -1
274 1 2281.81 2577.3 3154.05 1 -1 0
275 1 3005.23 2429.48 1670.27 -1 0 1
276 1 2892.77 2714.02 1407.39 -1 -1 0
277 1 2646.87 2665.62 1856.93 0 0 1
278 1 1403.24 1502.76 2872.31 0 0 -1
279 1 2292.89 2800.71 2432.56 0 -1 0
280 1 2434.04 2455.32 3236.79 -1 0 -1
281 1 1768.26 2996.31 2727.93 0 -1 0
282 1 1843.66 2261.52 3052.43 0 -1 0
283 1 2263.85 3452.07 3545.95 0 -1 -1
284 1 2030.5 2214.73 3396.47 0 0 -1
285 1 3621.16 2808.39 3065.35 -1 0 -1
286 1 3030.28 1938.01 3044.21 -1 1 0
287 1 2888.3 1841.74 1602.38 0 0 0
288 1 2279.79 2288.04 2803.08 1 0 0
289 1 2005.29 2773.04 2750.12 0 -1 0
290 1 3165.04 2477.81 2293.93 -1 -1 0
291 1 2165.64 2755.8 2439.56 -1 -1 0
292 1 3436.96 2159.73 2849.76 -1 0 -1
293 1 2674.1 2576.38 2573.01 0 0 1
294 1 2568.29 2697.09 2704.86 0 -1 -1
295 1 1756.2 3480.06 2560.26 0 -1 0
296 1 3410.07 2478.09 3055.16 0 0 0
297 1 3003.91 2275.41 2602.34 -1 0 0
298 1 2356.83 2427.26 2651.3 0 0 0
299 1 1550.88 2044.48 2563.84 1 0 0
300 1 1898.18 2439.32 3460.04 0 0 0
301 1 2312.14 2470.11 2597.82 -1 0 -1
302 1 3466.16 1781.32 1457.47 -1 0 0
303 1 3149.38 3514.34 1687.39 0 -1 0
304 1 2226.02 2906.09 3350.14 1 -1 -1
305 1 2374.9 1628.38 3377.94 0 0 -1
306 1 1510.29 3477.87 1431.1 0 -1 0
307 1 3293.28 2401.56 1840.48 -1 0 -1
308 1 1498.89 1568.19 1402.52 0 0 0
309 1 2706.66 3110.97 2263.35 0 0 -1
310 1 1617 1804.12 2833.05 0 0 -1
311 1 2036.71 2929.81 1443.07 0 -1 -1
312 1 2971.07 2277.57 2645.09 0 -1 1
313 1 2000.42 1897.71 3252.14 0 -1 -1
314 1 1625.26 2280.98 2995.3 1 0 0
315 1 1732.08 1633.87 2732.94 0 0 0
316 1 3025.86 3055.85 1481.04 -1 0 0
317 1 2089.05 2970.73 2644.67 1 0 -1
318 1 3575.12 3298.21 2916.63 0 -1 -1
319 1 3084.48 2056.92 1477.13 -1 0 0
320 1 2413.8 2737.85 2777.21 0 -1 0
321 1 2689.46 2168.02 3474.03 -1 0 0
322 1 2238.68 2461.19 1558.59 0 -1 0
323 1 1840.53 1931.47 3105.43 0 0 -1
324 1 3554.67 2281.54 1450.36 0 0 0
325 1 1955.64 3412.18 3029.37 0 0 0
326 1 2779.15 2891.89 3012.64 0 0 -1
327 1 2630.03 3228.65 2653.67 0 -1 0
328 1 1996.56 2128.39 2571.61 0 0 0
329 1 1975.29 2874.58 1864.79 0 0 0
330 1 2744.08 2528.24 2890.18 0 0 0
331 1 2463.43 2605.49 1861.19 -1 0 0
332 1 2182.06 2960.56 3279.72 0 -1 -1
333 1 3022.12 2513.68 3130.96 0 0 0
334 1 3057.16 3630.13 3421.82 -2 -1 0
335 1 2547.61 3049.26 2373.42 0 0 0
336 1 2444.92 2333.33 3590.67 0 -1 -1
337 1 1500.05 2395.77 2084.55 0 0 0
338 1 2770.82 2800.31 3528.8 0 -1 -1
339 1 3002.88 2758.06 3312.85 0 -1 0
340 1 2410.62 2427.46 2644.14 0 -1 0
341 1 2782.21 3464.7 3333.43 0 -1 -2
342 1 2910.41 2988.41 3117.58 0 -1 0
343 1 2857.38 1892.29 3025.77 1 -1 0
344 1 3117.14 3190.67 3174.06 0 -1 -1
345 1 2563.51 2192.22 1371.33 0 0 0
346 1 2759.03 2386.44 1540.26 0 -1 0
347 1 2479.47 2429.93 2948.9 -1 0 -1
348 1 2058.31 2484.84 2610.3 -1 -1 -1
349 1 2923.25 2688.15 2646.47 -1 0 0
350 1 2148.52 2200.47 1864.46 0 1 0
351 1 1852.87 1404.43 3323.27 0 0 -1
352 1 2302.53 2185.37 3238.31 0 1 0
353 1 3208.85 2663.16 2318.89 0 -1 0
354 1 2059.1 2657.76 2267.88 0 0 0
355 1 2311.55 2872 3202.39 0 -1 -1
356 1 2144.86 3310.43 1507.69 0 -1 0
357 1 2004.4 3047.28 2960.16 0 -1 -1
358 1 3197.37 3615.84 2110.35 -1 -1 0
359 1 2681.66 2223.33 3059.02 0 0 0
360 1 2088.3 1426.69 3568.64 0 1 -1
361 1 3505.2 2621.83 2273.14 -1 0 0
362 1 2932.02 2668.41 2916.05 0 -1 0
363 1 2520.86 2331.2 3299.84 0 0 -1
364 1 2946.66 2790.69 3137.59 -1 0 0
365 1 2015.52 3380.87 2857.95 0 -1 0
366 1 1812.94 2631.87 1559.65 0 0 0
367 1 2157.75 2605.91 3003.45 0 -1 -1
368 1 2693.07 1677.62 2621.51 -1 0 0
369 1 3275.96 2821.43 2751.22 0 0 -1
370 1 3371.03 2900.06 2070.15 -2 0 0
371 1 3472.83 2098.89 1782.88 -1 0 0
372 1 3132.84 3149.5 3567.12 -1 -1 -1
373 1 2985.78 2667.45 2919.78 0 1 0
374 1 2537.22 1701.37 2580.44 0 0 0
375 1 3260.82 1454.56 2281.77 0 0 -1
376 1 2785.02 2708.28 2505.72 0 1 0
377 1 3356.62 2486.71 2281.65 0 0 0
378 1 2257.73 1759.97 3063.08 0 1 -1
379 1 3068.73 2572.48 2137.5 -1 -1 0
380 1 2661.88 2034.54 1817.92 -1 0 0
381 1 2168.2 2561.2 3266.32 0 0 -1
382 1 3400.41 3012.43 2889.56 -1 -1 0
383 1 2815.49 2248.54 2290.49 -1 0 0
384 1 2964.01 2896.87 2333.63 0 -1 0
385 1 3192.59 2825.35 2268.33 0 0 0
386 1 2968.89 3160.65 2636.06 -1 0 0
387 1 3204.22 2308.04 2868.11 -1 0 -1
388 1 1370.75 2843.69 3026.88 0 0 -1
389 1 2420.23 2521.74 1537.29 0 0 0
390 1 1432.91 2712.75 1381.72 0 -1 0
391 1 2380.7 1747.3 1551.18 0 0 0
392 1 1698.39 2576.98 3177.42 -1 -1 -1
393 1 2625.47 2396.38 2772.64 0 0 1
394 1 1740.23 2020.86 3373.59 1 0 -1
395 1 2442.71 2435.79 1891.23 0 -1 -1
396 1 1465.15 2921.91 2615.3 1 0 0
397 1 2887.03 2932.67 1441.68 -1 0 0
398 1 2109.15 2409.05 2963.99 0 -1 0
399 1 1958.17 1545.19 2948.1 0 0 0
400 1 2079.15 2287.65 2811.06 -1 0 -1
401 1 2511.08 2449.73 2415.72 0 0 -1
402 1 2115.97 2580.97 3605.35 0 0 -2
403 1 1511.6 1936.77 3253.28 0 0 -1
404 1 2636.31 2732.21 2046.16 0 0 0
405 1 2737.56 3252.65 2920.11 -1 0 0
406 1 1970.93 3011.33 2212.19 0 -1 0
407 1 1670.43 3079.37 3063.59 -1 -1 0
408 1 3552.36 2373.9 3056.43 0 0 -1
409 1 3343.63 2730.59 2589.05 0 -1 -1
410 1 2623.93 2158.88 2412.43 0 0 -1
411 1 1992.53 1894.09 1824.11 0 0 0
412 1 2366.93 3216.09 2951.57 0 0 0
413 1 1496.45 2727.84 3002.6 0 0 -1
414 1 1852.83 2964.49 2933.47 0 -1 -1
415 1 1891.79 2343.01 2882.2 0 0 -1
416 1 2687.58 2731.78 1450.12 0 0 0
417 1 1585.29 1960.95 2390.83 -1 0 -1
418 1 3536.11 3178.58 1870.12 -1 0 1
419 1 2112.12 2605.3 2529.5 0 0 0
420 1 3365.23 2964.43 2298.93 -2 -1 -1
421 1 2992.41 2544.14 1555 -1 0 0
422 1 1522.31 3180.62 1722.25 0 -1 0
423 1 3252.97 2806.33 1473.66 0 -1 0
424 1 1838.36 2963.41 3413.64 0 -1 -1
425 1 2333.79 2977.33 3504.85 0 0 -1
426 1 2961 2638.49 2881.86 -1 0 -1
427 1 3346.16 2236.01 2162.06 -1 -1 0
428 1 2300.88 3106.09 2603.7 0 -1 -1
429 1 3047.59 2872.35 2147.08 -1 0 0
430 1 1902.48 1674.49 2163.28 0 -1 0
431 1 2657.75 2355.39 1410.12 0 0 0
432 1 1784.79 2967.05 2190.81 0 -1 0
433 1 2127.83 2745.07 2476.51 -1 -1 -1
434 1 3316.51 2783.06 2404.64 -1 0 0
435 1 2975.96 1893.29 3228.6 -1 0 0
436 1 3059.16 2788.17 1429.25 -1 0 0
437 1 2827.14 2126.13 1829.32 0 1 0
438 1 3583.67 2504.82 2720.59 -1 -1 -1
439 1 2954.75 2351.92 1644.44 0 0 0
440 1 3219.96 1801.97 3292.77 -1 0 -1
441 1 2841.26 1666.94 3351.15 -1 0 -1
442 1 1641.51 2596.54 2894.05 0 0 0
443 1 3257.61 2532.15 3259.44 0 -1 0
444 1 2937.78 2714.54 1857.6 -2 0 0
445 1 2392.32 3122.61 2586.52 0 -1 0
446 1 3118.76 1752.3 3478.49 -1 0 -1
447 1 2694.79 2787.48 2653.44 0 0 0
448 1 1858.9 2789.17 2201.85 -1 -1 0
449 1 2192.82 2448.54 1583.88 -1 0 0
450 1 1785.72 2404.82 3318.74 0 0 -1
451 1 1829.99 2827.42 2814.34 0 -1 -1
452 1 2022.93 2089.93 3270.11 0 0 0
453 1 3315.87 3297.39 2354.62 -1 0 0
454 1 1782.51 2111.84 2148.89 0 0 -1
455 1 2789.35 2633.76 3380.77 -1 0 -1
456 1 3102.01 1523.22 1427.23 0 1 0
457 1 2494.63 2856.43 2400.97 0 -1 -1
458 1 1730.86 2051.47 3149.86 0 1 -1
459 1 1904.24 2429.15 2088.6 0 -1 -1
460 1 3363.87 2477.92 2584.92 -1 -1 0
461 1 2956.4 2812.76 2502.94 0 -1 0
462 1 3145.08 2866.11 2622.81 -1 0 -1
463 1 3499.48 1881.73 3130.94 -1 0 -1
464 1 2748.75 2669.36 2719.58 0 0 0
465 1 1420.6 2811.83 2431.67 1 0 -2
466 1 2878.72 3157.28 2782.89 -1 -1 0
467 1 2763.76 2623.97 1580.89 0 1 0
468 1 3391.52 2930.44 1494.42 0 -1 1
469 1 3036.1 2534.16 2705.06 0 -1 -1
470 1 3028.09 3199.57 1607.04 -1 -1 -1
471 1 3035.46 2719.46 2261.56 0 0 0
472 1 2843.94 3114.37 1487.78 0 -1 0
473 1 1399.12 2356.64 3225.72 1 -1 0
474 1 3126.85 2297 2984.71 -2 -1 -1
475 1 2974.53 2526.88 1829.84 0 -1 0
476 1 3029.35 3580.8 1912.89 -1 -1 0
477 1 3377.88 2280.28 1783.07 0 -1 -1
478 1 2659.71 2485.02 1780.77 -1 -1 0
479 1 2658.94 1474.68 2218.53 0 0 -1
480 1 3454.6 2150.23 2445.05 -1 0 0
481 1 3094.29 1537.32 1375.8 0 1 1
482 1 2716.01 1763.66 3013.4 0 -1 -1
483 1 3157.53 2119.72 2952.09 -1 1 0
484 1 2879 3082.81 2288.36 -1 -1 0
485 1 2288.75 3312.5 2642.81 -1 -1 -1
486 1 3565.9 3092.6 1544.94 -1 -1 0
487 1 2809.52 2366.9 2840.11 -1 0 -1
488 1 1997.59 1523.57 2503.37 0 0 0
489 1 3325.81 2727.35 1982.15 -1 0 0
490 1 3149.92 2375.52 3189.45 -1 0 -1
491 1 2703.38 2829.26 2808.4 0 0 -1
492 1 2941.43 2551.93 3603.67 0 -1 0
493 1 2815.77 2441.87 2362.56 -1 0 0
494 1 2263.34 2361.21 3309 1 -1 0
495 1 3186.59 2922.77 2025.75 0 -1 0
496 1 3014.61 2644.4 2880.45 1 0 0
497 1 2672.65 3552.24 2693.3 -1 -1 0
498 1 2778.64 3132.26 2616.9 0 -1 0
499 1 2247.64 2514.27 1560.8 -1 0 -1
500 1 2788.81 3251.85 2252.44 0 -1 -1
501 1 2467.28 2814.05 2585.82 -1 0 -1
502 1 1535.78 3145.86 3100.93 -1 0 0
503 1 2483.55 2467.42 2987.89 0 0 0
504 1 2158.37 2629.75 2515.9 0 0 0
505 1 1899.37 2473.92 3501.71 -1 0 -1
506 1 1434.27 1993.99 2083.85 -1 0 0
507 1 3456.52 1853.23 3146.75 -1 0 -1
508 1 1685.06 1553.24 1720.7 0 0 -1
509 1 1698.44 1607.24 2523.26 0 0 0
510 1 2755.39 2290.73 2664 -1 -1 -1
511 1 3560.3 3222.91 2453.22 0 0 -1
512 1 1594.87 3251.76 3398.5 0 -1 -1
513 1 3191.77 2507.51 1821.08 0 -1 0
514 1 2889.05 2118.81 2182.98 -2 0 1
515 1 2486.88 2040.54 2414.96 -1 0 -1
516 1 2533.39 3538.54 2770.21 -1 -1 0
517 1 3147.91 3122.73 3403.56 0 -1 -1
518 1 1979.35 2985.38 2795.73 0 0 -1
519 1 2710.28 2625.88 2359.6 0 0 0
520 1 3200.16 2936.8 1476.23 -1 0 0
521 1 2512.22 2351.99 1501.99 -1 0 1
522 1 2475.64 2638.26 2044.01 -1 0 0
523 1 3173.65 3086.64 1601.15 0 0 0
524 1 2679.41 2388.59 2497.39 -1 -1 0
525 1 3223.6 2005.25 3116.05 0 0 -1
526 1 1916.91 2305.76 2694.11 0 0 0
527 1 1368.63 2085.84 3003.31 0 -1 -1
528 1 3346.21 2402.38 2116.47 0 1 0
529 1 2497.9 2641.78 1406.42 -1 -1 0
530 1 1770.51 2790.34 2631 0 0 0
531 1 2015.59 3562.67 1681.12 0 -1 0
532 1 3332.78 2632.19 1809.28 -1 0 0
533 1 3221.63 1471.36 2248.85 -1 0 -1
534 1 2289.74 1371.89 2971.53 0 0 -1
535 1 2731.9 3503.01 2481.75 -1 -2 0
536 1 2184.84 2572.83 1969.37 -1 0 0
537 1 2784.68 3139.07 2097.2 -1 -1 0
538 1 1812.48 1869.29 3271.32 0 0 -1
539 1 3240.71 2408.44 2729.29 -2 0 -1
540 1 2863.05 3342.54 2415.07 0 0 0
541 1 2485.16 3079.12 2980.41 0 0 -1
542 1 2317.48 2818.74 2388.16 0 -1 0
543 1 2223.19 2752.7 2674.67 0 0 -1
544 1 3147.72 1746.19 3125.31 -1 1 -1
545 1 2144.75 2932.65 2807.49 -1 0 -1
546 1 3399.04 1643.48 1578.84 -1 0 0
547 1 2479.76 2266.71 2349.24 0 -1 0
548 1 1685.32 1805.82 3133.7 0 0 0
549 1 2753.6 2502.19 3390.31 0 0 0
550 1 1965.53 2136.95 1512.53 0 0 0
551 1 2301.68 2758.12 1598.34 0 -1 0
552 1 2720.1 3523.52 3524.11 0 -1 -1
553 1 3008.96 2697.17 3528.32 -1 0 -1
554 1 2229.81 2407.77 2661 0 0 0
555 1 1923.49 2279.09 3270.79 0 0 0
556 1 2563.01 3084.22 2544.09 0 0 -1
557 1 2746.58 2675.21 2186.77 -1 0 0
558 1 2555.17 3464.14 2575.18 -1 0 -1
559 1 2551.25 3257.76 2982.86 -1 0 0
560 1 1729.5 2881.11 1372.34 0 0 0
561 1 3415.26 2333.25 2467.13 -1 -1 -1
562 1 1865.69 3432.59 3543.5 0 0 -1
563 1 3547.28 2508.54 2951.04 -1 0 0
564 1 2601.88 2784.36 3440.63 0 1 -1
565 1 3472.45 2690.18 3436.21 0 0 -1
566 1 3478.99 2127.29 2858.56 -1 0 1
567 1 2554.99 1563.32 2935.04 0 0 0
568 1 3154.23 3051.22 2556.79 -1 -1 -1
569 1 2761.19 2128.11 3208.49 0 0 0
570 1 1587.91 3045.33 2695.93 0 -1 0
571 1 3046.67 2912.65 1580.79 -1 -1 0
572 1 2564.42 2829.95 2768.3 -1 -1 0
573 1 2128.82 2252.66 3247.84 1 0 -1
574 1 3084.31 3309.02 3518.63 -1 0 0
575 1 1713.55 2381.83 3109.93 0 0 0
576 1 3459.51 2157.55 2898.57 0 -1 -1
577 1 3364.71 2618.61 2430.76 -1 -1 -1
578 1 1415.87 2657.69 2325.75 1 0 1
579 1 3028.85 3487.31 2563.06 0 0 -1
580 1 2331.54 2771.25 2409.33 0 1 1
581 1 1661.3 2188.94 2438.11 -1 0 0
582 1 3184.42 3259.75 2226.56 0 -1 0
583 1 2532.57 2412.53 2383.3 0 0 0
584 1 3410.88 3130.91 2326.19 0 0 1
585 1 3177.17 3302.17 3339.79 -1 -1 -1
586 1 3098.66 2044.99 3558 -1 -1 -2
587 1 1394.86 2085.07 2671.91 1 0 -1
588 1 1809.92 2363.13 1782.93 0 0 0
589 1 2947.55 3190.15 3554.66 1 -1 0
590 1 3451.67 2794.65 1790.71 -1 -1 1
591 1 2067.9 1701.75 3253.08 -1 -1 -1
592 1 1740.21 2258.07 2837.76 0 0 0
593 1 1540.74 2091.97 3101.39 0 0 0
594 1 1991.59 3232.08 3047.49 -1 1 0
595 1 3031.91 1402.91 3109.89 -1 0 -1
596 1 2959.11 2403.86 1658.65 1 0 0
597 1 2748.86 2599.7 3387.98 0 0 0
598 1 3069.4 3378.12 1580.68 0 -1 0
599 1 2216.04 3522.12 2624.96 -1 -1 0
600 1 3063.25 1983.69 2867.32 -1 0 -1
601 2 3603.8 2298.49 1664.09 -1 0 0
602 2 1682.63 1794.63 2185.37 1 0 0
603 2 3159.92 3381.36 2007.41 -1 0 1
604 2 3259.3 3200.74 2957.57 0 -1 0
605 2 1466.59 1425.35 3444.98 0 0 0
606 2 1415.19 2590.15 2075.76 1 0 0
607 2 1988.92 2642.91 2003.62 0 0 0
608 2 2847.2 3333.03 2606.03 0 -1 0
609 2 3059.79 2069.6 2336.38 0 0 0
610 2 2679.64 3090.09 3114.72 0 0 0
611 2 1541.6 3066.86 1497.39 0 0 1
612 2 2468.37 3550.27 2134.32 0 -1 0
613 2 1838.87 2582.93 2734.25 0 0 -1
614 2 2633.19 1886.86 2538.98 0 0 0
615 2 1442.93 2762.33 3379.22 0 0 0
616 2 3520.28 3493.16 1433.88 0 0 0
617 2 1541.66 3018.97 2086.31 0 -1 0
618 2 2454.81 3481.13 3065.96 0 0 0
619 2 2835.58 1907.15 2756.01 0 1 0
620 2 3561.41 3473.06 2441.36 -1 0 0
621 2 1374.99 3502.79 2930.75 0 0 -1
622 2 2200.83 3545.91 1491.33 0 0 0
623 2 2207.47 2572.06 3321.37 0 0 -1
624 2 1386.03 2300.12 2822.06 0 0 -1
625 2 2732.2 1741.16 3527.81 0 0 0
626 2 1563.73 3283.21 2888.36 1 0 -1
627 2 1833.21 1414.29 2654.08 0 1 0
628 2 3365.84 2592.34 2785.55 -1 0 0
629 2 2173.54 1819.12 2194.27 0 0 0
630 2 2540.38 1527.83 1968.95 0 1 0
631 2 3352.88 1618.57 3164.6 0 1 0
632 2 2034.03 3206.71 1806.92 0 -1 0
633 2 1531.49 3215.66 2337.22 0 -1 0
634 2 3223.92 2770.18 2973.3 -1 0 0
635 2 1497.36 1512.57 2155 0 0 0
636 2 2900.96 1652.88 3086.73 -1 0 0
637 2 1561 2060.39 2821.55 1 0 -1
638 2 1468.07 1755.68 1989.53 0 0 0
639 2 3313.51 2997.18 3481.28 0 0 0
640 2 2701.4 3606.47 2902.41 0 0 0
641 2 2278.93 1808.57 2677.7 0 0 0
642 2 2552.97 3177.31 1799.96 0 -1 0
643 2 1504.22 1399.02 2413.23 0 0 0
644 2 3557.09 2568.41 1671.22 -1 0 1
645 2 2578.93 3282.4 2113.12 0 -1 0
646 2 2113.47 3193.27 2095.16 0 -1 0
647 2 2014.1 1956.94 3473.6 0 0 0
648 2 2557.32 2698.78 2933.83 0 0 0
649 2 3280.44 1924.94 1397.46 -1 0 0
650 2 3308.62 2229.79 2219.01 0 0 0
651 2 3455.95 1903.76 1938.99 -1 0 0
652 2 1497.88 1487.03 1861.44 0 0 0
653 2 3037.63 2497.49 3356.12 0 0 -1
654 2 2500.07 3439.97 3582.97 0 -1 -1
655 2 2558.93 1756.79 2784.83 0 0 0
656 2 2816.87 1609.21 2808.25 0 0 0
657 2 3249.09 1823.98 2887.17 -1 0 -1
658 2 2633 2109.96 2814.33 -1 0 -1
659 2 1403.79 1836.66 2717.35 1 0 0
660 2 2368.56 2217.56 1746.45 0 0 0
661 2 2660.37 1442.65 1719.27 0 0 0
662 2 1710.22 1633.17 1469.28 0 0 0
663 2 1675.24 3009.2 2462.77 0 -1 0
664 2 2622.71 3262.23 3367.37 0 0 -1
665 2 2433.55 2333.67 2086.27 0 0 0
666 2 2595.42 3461.06 1889.62 0 -1 0
667 2 2940.85 1393.14 1674.48 0 0 0
668 2 1694.38 2270.14 1982.87 0 0 0
669 2 3379.27 2292.23 3224.94 -1 0 0
670 2 2012.23 1555.55 2988.86 0 0 -1
671 2 2890.86 1587.22 1458.2 0 0 1
672 2 1695.83 2569.72 2067.27 0 0 0
673 2 2214.61 2253.24 2373.75 0 0 0
674 2 3521.7 1397.69 2008.45 -1 0 0
675 2 3125.21 2937.85 3224.65 -1 0 0
676 2 2613.39 1696.09 1551.09 0 0 0
677 2 1844.5 3130.41 1992.72 0 -1 0
678 2 3384.22 3047.83 1699 -1 -1 0
679 2 1823.2 3197.09 3384.59 0 0 0
680 2 3282.35 1712.51 2050.97 -1 0 0
681 2 2195.22 3356.7 3015.66 0 0 0
682 2 3005.33 2305.18 2155.17 0 0 0
683 2 2359.1 3082.73 2631.21 0 -1 0
684 2 1630.65 3309.16 2086.75 0 -1 0
685 2 1679.43 3442.9 3357.58 0 0 -1
686 2 1672.16 2422.74 1559.27 0 0 0
687 2 2526.97 2997.08 3324.95 -1 -1 0
688 2 3096.15 3252.92 2446.29 -1 -1 0
689 2 1973.77 3433.01 3268.18 0 -1 0
690 2 3479.61 3233.96 3581.82 0 1 -1
691 2 2624.6 2245.93 1894.26 -1 0 0
692 2 1869.58 1378.15 3062.87 0 0 -1
693 2 3383.54 3484.35 2191.92 -1 -1 0
694 2 1571.9 2811.07 2765.73 0 0 0
695 2 2779.47 1948.54 1997.97 0 0 0
696 2 2341.64 1442.66 3181.82 0 1 0
697 2 1670.33 1829.78 2579.71 0 0 0
698 2 1714.61 2394.35 2523.93 1 0 0
699 2 2458.32 1415.36 1494.04 0 0 0
700 2 1404.12 2458.15 1449.74 0 0 0
701 2 3624.95 3001.44 2740.83 0 -1 -1
702 2 1567.63 2453.04 2306.06 0 0 0
703 2 1789.64 3369.7 1854.95 0 0 0
704 2 2080.67 3290.07 2362.95 0 -1 0
705 2 1837.95 1688.67 2930.64 0 0 -1
706 2 1668.16 2609.99 3614.48 0 0 0
707 2 1657.75 3264.4 2609.54 0 -1 0
708 2 1578.5 2646.03 2515.26 1 0 0
709 2 1570.02 1395.29 3172.94 0 0 0
710 2 2807.33 1469.6 3480.46 0 0 -1
711 2 1775.28 3149.83 1661.61 0 -1 0
712 2 2006.73 2745.8 3276.77 0 0 -1
713 2 2290.18 2440.07 2655.32 0 0 -1
714 2 3031.28 1733.9 2206.09 -1 0 0
715 2 2592.62 2158.52 1601.48 0 0 0
716 2 2219.05 3080.7 1422.91 0 0 0
717 2 3260.63 1389.64 3527.25 -1 0 -1
718 2 2724.31 2404.82 2102.54 -1 0 0
719 2 1734.02 1608.66 1963.09 0 0 0
720 2 1394.41 1758.34 3538.39 0 0 -1
721 2 3513.61 2414.28 1910.78 0 0 0
722 2 3605.02 3223.58 2067.52 -1 -1 0
723 2 2756.31 3321.54 3631.35 0 0 -1
724 2 3258.58 3468.69 2514.04 0 -1 0
725 2 2054.84 3592.39 2842.12 0 -1 -1
726 2 2142.6 2060.85 1647.38 0 0 0
727 2 3405.78 2410.88 1484.16 -1 0 0
728 2 2174.83 1990.79 2431.99 0 0 0
729 2 3093.4 1457.65 2484.68 -1 0 0
730 2 3113.14 2993.93 1792.9 -1 -1 0
731 2 2211.47 2797.67 3601.65 0 0 0
732 2 3502.71 1511.21 3623.02 -1 0 -1
733 2 2119.78 1485.1 1736.11 0 1 0
734 2 1558.71 2141.29 2192.4 0 0 0
735 2 2323.47 1554.57 2499.74 0 0 0
736 2 2087.57 3501.61 1892.44 0 -1 0
737 2 2010.66 2912.98 1909.01 -1 0 0
738 2 3458.21 2895.22 3254.17 0 0 0
739 2 2126.35 3196.87 3246.32 0 0 0
740 2 3044.27 1552.56 1991.07 0 0 0
741 2 2711.98 1857.11 3208.32 -1 1 0
742 2 2522.22 1945.37 1380.3 0 0 0
743 2 3597.78 1925.76 2446.23 -1 0 0
744 2 2628.53 2131.6 2141.47 0 0 0
745 2 2065.73 3278.45 3508.57 0 0 -1
746 2 2046.69 2668.82 1549.64 0 0 0
747 2 2891.13 3134.38 3292.85 0 0 -1
748 2 2407.6 1592.39 1728.82 0 0 0
749 2 2101.85 1870.7 2862.87 0 0 0
750 2 1482.92 1686.52 2396.79 0 0 0
751 2 3592.87 2748.75 2636.89 0 0 -1
752 2 3244.55 1396.97 2740.69 0 1 0
753 2 1457.19 2196.88 1924.09 0 0 0
754 2 2861.44 2318.99 3496.2 -1 0 0
755 2 2253.92 1936.3 3179.58 0 0 0
756 2 2633.77 3273.84 2394.87 0 -1 0
757 2 2341.74 2063.47 2232.26 0 0 0
758 2 3387.37 3423.47 2811.51 -1 -1 0
759 2 2804.99 1396.58 1967.38 0 0 0
760 2 2471.52 2698.72 3215.7 0 0 -1
761 2 1876.54 3377.07 1523.11 0 -1 0
762 2 1924.85 1904.93 2071.03 0 0 0
763 2 1572 1903.01 1469.73 0 0 0
764 2 2331.11 3043.51 1947.46 0 -1 0
765 2 1801.53 2292.69 2265.64 0 0 0
766 2 3423.06 1855.4 1624.84 -1 0 0
767 2 2353.92 1734.97 1975.51 0 1 0
768 2 1760.16 1518.79 2268.05 0 0 0
769 2 1682.24 3582.17 2028.93 0 -1 0
770 2 1418.91 2234.68 2442.54 1 -1 0
771 2 1499.23 2916.4 3175.34 1 0 -1
772 2 1815.87 2003.82 2347.58 0 0 0
773 2 3134.95 1580.59 1409.78 -1 0 1
774 2 1657.03 3295.78 3595.42 0 -1 -1
775 2 3529.86 3594.7 1732.07 -1 -1 0
776 2 3009.99 2937.55 3455.52 -1 0 -1
777 2 3449.97 2673.73 1412.43 -1 0 0
778 2 1935.71 2080.88 2862.61 0 0 -1
779 2 2986.81 1862.91 1374.75 -1 0 0
780 2 3167.37 2572.05 1386.05 -1 0 0
781 2 3300.13 1400.65 1552.55 -1 0 0
782 2 2506.78 2036.65 3146.56 0 0 0
783 2 1752.93 3303.11 3115.09 0 -1 -1
784 2 1498.2 1572.11 2646.18 0 0 -1
785 2 3223.44 3267.29 1745.66 -1 -1 0
786 2 1619.76 1771.85 1739.32 1 0 0
787 2 2561.62 2898.91 1846.98 0 0 0
788 2 2360.23 1951.59 2920.28 0 0 0
789 2 1520.31 2027.53 3481.21 0 0 -1
790 2 3525.07 1767.57 2238.3 -1 0 0
791 2 3398.44 1392.52 2988.45 0 0 -1
792 2 1910.68 2490.46 3567.15 0 0 -1
793 2 1871.6 1561.55 3504.53 0 0 0
794 2 3243.68 1684.1 2652.56 -1 0 0
795 2 1833.74 3179.57 2831.23 0 0 0
796 2 1544.94 2499.56 3322.44 0 0 -1
797 2 3255.96 3610.23 3222.29 -1 -1 -1
798 2 1794.58 3478.64 2831.56 0 0 0
799 2 3332.83 2021 3294.82 -1 1 -1
800 2 3345.79 3135.8 3239.42 -1 0 -1
801 2 2185.77 2152.86 2987.26 0 0 0
802 2 1657.03 1460.82 2883.89 0 1 0
803 2 2552.67 3414.35 1601.31 0 -1 0
804 2 2498.32 2887.1 2135.21 0 -1 0
805 2 2136.05 1533.12 2273.83 0 0 0
806 2 3565.73 2950.4 1914.48 -1 -1 0
807 2 3388.29 3410.09 3395.02 -1 0 -1
808 2 3004 2266.31 1838.73 -1 0 0
809 2 3470.7 1637.37 2824 0 0 0
810 2 2445.62 1664.33 3581.67 0 0 -1
811 2 1548.38 1670.81 3288.64 1 0 0
812 2 2607.62 1593.48 3302.22 0 0 -1
813 2 2322.47 1601.48 2864.5 0 0 0