ITEM: TIMESTEP
42000
ITEM: NUMBER OF ATOMS
1000
ITEM: BOX BOUNDS pp pp pp
2.0319160919526951e+03 2.9680839080463647e+03
2.0319160919526951e+03 2.9680839080463647e+03
2.0319160919526951e+03 2.9680839080463647e+03
ITEM: ATOMS id type x y z ix iy iz
1 2 2743.24 2724.76 2355.75 0 0 0
2 2 2321.41 2081.85 2673.42 0 1 -1
3 2 2404.25 2850.66 2074.53 0 -1 1
4 2 2228.62 2452.64 2716.91 0 0 -1
5 2 2847.02 2869.92 2778.33 0 -1 -1
6 2 2368.63 2507.73 2301.96 -1 0 -1
7 2 2361 2510.83 2463.49 0 0 0
8 2 2949.53 2874.41 2640.48 -1 0 0
9 2 2845.9 2654.65 2485.15 -1 0 0
10 2 2331.98 2811.72 2726.82 0 0 0
11 2 2617.92 2450.12 2896.1 0 0 0
12 2 2932.23 2777.89 2620.21 -1 0 -1
13 2 2964.92 2465.76 2088.17 0 0 1
14 2 2053.4 2779.41 2321.96 0 0 0
15 2 2723.48 2084.47 2807.85 0 0 -1
16 2 2222.31 2865.56 2075.09 0 -1 0
17 2 2564.58 2340.77 2692.96 2 1 0
18 2 2465.91 2497.4 2825.34 0 1 -1
19 2 2504.77 2222.93 2848.8 0 0 0
20 2 2707.11 2920.08 2685.85 0 0 0
21 2 2335.26 2649.02 2079.31 0 1 1
22 2 2960.78 2696.35 2211.25 -1 0 1
23 2 2648.48 2729.96 2329.85 -1 1 0
24 2 2961.87 2197.54 2812.88 0 0 -1
25 2 2503.84 2938.05 2894.37 0 0 0
26 2 2581.25 2388.04 2513.93 0 0 1
27 2 2965.77 2705.52 2806.14 -1 0 0
28 2 2946.36 2545.38 2863.22 -1 0 0
29 2 2741.63 2404.44 2654.93 -1 1 0
30 2 2775.2 2172.34 2808.65 -1 1 0
31 2 2038.98 2806.35 2718.34 0 -1 0
32 2 2083.54 2916.15 2693.29 0 0 0
33 2 2423.2 2325.63 2386.56 0 0 0
34 2 2446.21 2143.64 2821.76 0 1 0
35 2 2595.33 2734.95 2922.39 0 -1 0
36 2 2522.4 2943.87 2693.37 0 0 0
37 2 2246.18 2956.98 2683.27 0 -1 0
38 2 2819.59 2591 2803.62 -1 1 -1
39 2 2771.09 2598.58 2239.57 -1 1 0
40 2 2438.81 2320.27 2724.34 0 -1 0
41 2 2095.12 2646.29 2264.28 1 -1 0
42 2 2799.97 2486.48 2919.27 -1 0 -1
43 2 2159.01 2541.17 2416.08 1 0 1
44 2 2686.46 2737.61 2883.79 1 -1 0
45 2 2095.79 2530.69 2340.61 0 0 0
46 2 2719.63 2046.44 2435.11 0 1 0
47 2 2749.46 2546.53 2421.39 -1 0 0
48 2 2875.97 2627.12 2050.73 0 0 0
49 2 2675.6 2571.9 2838.43 0 0 0
50 2 2561.68 2654.13 2090.94 0 0 1
51 2 2700.79 2066.91 2629.57 -1 1 1
52 2 2680.89 2493.19 2301.89 0 0 0
53 2 2388.77 2567.14 2093.49 0 0 1
54 2 2332.41 2942.28 2735.12 0 0 0
55 2 2636.46 2099.8 2554.57 0 0 -1
56 2 2328.44 2344.99 2377.77 0 0 0
57 2 2149.3 2613.32 2750.47 0 0 -1
58 2 2919.78 2383.41 2647.43 -1 0 0
59 2 2675.39 2613.28 2178.23 -1 2 0
60 2 2354.9 2755.16 2047.84 0 0 0
61 2 2753.69 2498.11 2683.35 -1 0 0
62 2 2861.7 2811.35 2876.96 0 -1 0
63 2 2937.26 2751.94 2886.41 -1 0 0
64 2 2814.58 2550.33 2057.61 0 0 1
65 2 2557.63 2396.03 2611.43 0 -1 0
66 2 2890.84 2205.61 2706.94 0 0 -1
67 2 2624.91 2075.73 2816.2 0 1 1
68 2 2243.52 2583.76 2611.67 0 0 1
69 2 2662.47 2235.42 2916.7 0 0 -1
70 2 2272.88 2747.52 2682.99 0 0 0
71 2 2915.31 2039.13 2074.19 -1 0 1
72 2 2552.26 2573.04 2495.61 -1 -1 0
73 2 2704.74 2037.24 2231.11 -2 -1 0
74 2 2387.01 2913.28 2846.43 0 0 -1
75 2 2727.82 2307.1 2943.85 0 0 -1
76 2 2691.63 2467.65 2406.87 0 -1 0
77 2 2712.58 2187.13 2051.01 -1 1 1
78 2 2953.23 2133.77 2732.82 -1 0 0
79 2 2729.7 2616.76 2767.86 -1 0 -1
80 2 2408.54 2675.05 2954.88 0 0 -2
81 2 2582.81 2062.2 2632.96 0 2 0
82 2 2630.06 2902.07 2309.57 -1 0 -1
83 2 2462.08 2820.85 2566.26 0 0 0
84 2 2682.99 2198.24 2830.2 1 1 0
85 2 2645.54 2141.23 2932.23 0 1 -1
86 2 2867.68 2521.52 2180.64 -1 0 1
87 2 2177.63 2515.48 2579.78 1 0 0
88 2 2779.63 2630.48 2951.87 -1 0 0
89 2 2677.69 2645.1 2371.59 0 0 1
90 2 2738.53 2431.07 2748.88 0 1 -1
91 2 2686.73 2683.58 2720.77 0 0 -1
92 2 2520.83 2480.63 2912.89 -1 0 -1
93 2 2551.88 2858.4 2867.17 0 -1 0
94 2 2528.52 2374.14 2779.49 1 1 -1
95 2 2358.73 2320.14 2662.42 0 0 -1
96 2 2337.69 2744.75 2887.42 1 0 0
97 2 2937.81 2098.59 2824.32 0 0 0
98 2 2740.08 2929.86 2954.73 0 -1 -1
99 2 2071.56 2306.55 2965.55 0 0 -1
100 2 2478.25 2081.68 2738.17 1 0 0
101 2 2421.05 2498.64 2713.18 0 0 0
102 2 2303.85 2820.04 2107.47 0 -1 0
103 2 2885.41 2223.66 2286.66 -1 0 0
104 2 2557.26 2060.88 2100.87 0 0 0
105 2 2149.05 2074.33 2732.41 0 0 0
106 2 2660.5 2296.55 2118.53 0 0 0
107 2 2197.37 2350.02 2483.28 0 0 0
108 2 2804.91 2757.4 2159.56 -1 0 0
109 2 2374.6 2311.64 2292.55 0 0 0
110 2 2199.67 2522.32 2966.28 0 0 -1
111 2 2092.27 2892.86 2790.03 1 -1 -1
112 2 2809.64 2041.72 2477.75 -1 -1 0
113 2 2299.61 2752.9 2367.52 0 -1 0
114 2 2568.79 2527.73 2313.92 0 0 1
115 2 2848.83 2264.75 2797.51 -1 0 -1
116 2 2393.12 2381.98 2581.43 0 0 0
117 2 2476.78 2765.92 2177.88 0 -1 1
118 2 2091.28 2812.02 2634.3 0 -1 0
119 2 2458.93 2083.73 2123.53 0 0 0
120 2 2841.52 2864.64 2413.6 -1 -1 0
121 2 2768.7 2268.99 2559.04 -1 0 0
122 2 2119.63 2908.12 2884.7 0 -1 -1
123 2 2301.09 2324.53 2047.55 0 0 0
124 2 2217.69 2099.26 2051.79 0 0 0
125 2 2059.79 2765.6 2964.8 0 -1 -1
126 2 2908.2 2335.75 2180.29 -1 0 0
127 2 2883.97 2469.13 2510.4 -1 0 0
128 2 2198.05 2931.5 2206.47 0 -1 0
129 2 2046.34 2395.16 2805.62 0 0 -1
130 2 2958.76 2111.24 2583.67 -1 0 0
131 2 2153.83 2966.44 2640.15 0 -1 -1
132 2 2076.39 2560.72 2790.45 0 0 -1
133 2 2436.42 2178.34 2157.01 0 0 0
134 2 2093.05 2718.25 2878.9 1 -1 0
135 2 2227.83 2358.19 2232.3 0 0 0
136 2 2700.32 2633.05 2469.04 0 -1 -1
137 2 2570.84 2300.55 2606.42 0 1 0
138 2 2941.22 2282.21 2623.6 -1 0 0
139 2 2759.94 2318.65 2362.94 -1 0 0
140 2 2631.75 2393.44 2093.5 -1 -1 0
141 2 2709.91 2338.13 2729.89 -1 0 0
142 2 2895.62 2506.45 2939.36 -1 0 -1
143 2 2362.45 2099.1 2143.69 0 0 0
144 2 2950.39 2263.83 2353.1 -1 0 0
145 2 2158.61 2344.65 2575.06 0 0 0
146 2 2464.55 2510.48 2056.33 0 0 0
147 2 2055.44 2201.36 2277.81 0 0 0
148 2 2342.07 2114.87 2864.87 0 0 -1
149 2 2416.17 2111.48 2226.69 0 0 0
150 2 2075.13 2724.33 2677.09 0 0 0
151 2 2583.85 2347.08 2306.82 0 0 -1
152 2 2834.49 2448.37 2597.42 -1 0 -1
153 2 2334.65 2945.83 2419.89 0 -1 0
154 2 2318.63 2411.07 2093.6 0 0 0
155 2 2556.34 2963.91 2534.5 0 -1 0
156 2 2790.83 2075.39 2196.76 -1 0 0
157 2 2741.66 2913.09 2160.96 0 -1 0
158 2 2664.95 2882.94 2216.96 0 -1 0
159 2 2129.74 2759.78 2259.87 0 -1 0
160 2 2238.94 2596.84 2788.95 1 0 0
161 2 2779.9 2340.89 2851.04 -1 0 -1
162 2 2486.78 2069.04 2375.88 0 0 0
163 2 2624.66 2809.16 2276.11 0 0 0
164 2 2685.64 2271.37 2406.22 0 0 0
165 2 2370.34 2177.82 2083.2 0 0 0
166 2 2772.59 2448.52 2069.36 0 0 0
167 2 2282.97 2046.29 2576.59 0 0 0
168 2 2195.44 2191.75 2084.14 0 0 0
169 2 2060.82 2957.48 2949.43 0 -1 -1
170 2 2771.56 2932.93 2793.86 -1 0 0
171 2 2190.32 2687.96 2413.96 0 -1 0
172 2 2957.3 2269.23 2105.93 -1 0 0
173 2 2313.78 2560.88 2961.35 0 0 -1
174 2 2817.45 2181.3 2560.69 -1 0 -1
175 2 2060.21 2209.54 2035.35 0 0 0
176 2 2237.62 2708.63 2600.57 0 0 0
177 2 2951.84 2706.2 2382.77 0 -1 0
178 2 2103.65 2493.68 2933.72 0 0 -1
179 2 2396.12 2401.58 2328.71 0 0 0
180 2 2134.6 2819.02 2068.69 0 -1 0
181 2 2674.44 2939.29 2780.09 -1 -1 -1
182 2 2473.67 2920.5 2082.67 0 -1 0
183 2 2794.05 2045.51 2289.97 -1 0 0
184 2 2078.34 2341.52 2320.94 0 0 0
185 2 2381.71 2880.78 2478.95 0 -1 0
186 2 2188.82 2562.55 2117.06 0 0 0
187 2 2826.19 2385.91 2515.04 -1 0 0
188 2 2881.54 2124.44 2048.15 -1 0 0
189 2 2604.01 2301.7 2448.73 0 0 -1
190 2 2636.65 2044.16 2045.21 0 0 0
191 2 2190.52 2226.55 2852.14 0 0 -1
192 2 2965.42 2390.19 2243.69 -1 0 0
193 2 2295.5 2398.16 2664.51 0 1 0
194 2 2320.02 2649.85 2918.34 0 0 -1
195 2 2918.98 2553.59 2102.76 -1 0 0
196 2 2603.61 2060.53 2186.13 0 0 0
197 2 2122.63 2357.67 2097.78 0 0 0
198 2 2656.18 2218.26 2243.04 0 0 0
199 2 2215.89 2234.4 2339.38 0 0 0
200 2 2865.18 2573.45 2267.89 -1 0 0
201 2 2733.98 2732.69 2792.94 0 -1 -1
202 2 2874.28 2540.08 2580.42 -1 0 0
203 2 2127.36 2789.9 2163.66 0 -1 0
204 2 2557.83 2251.57 2518.7 0 0 0
205 2 2889.16 2939.48 2594.26 -1 -1 0
206 2 2942.79 2468.31 2590.58 -1 0 0
207 2 2887.94 2635.7 2715.09 0 0 0
208 2 2074.54 2190.53 2545.13 0 0 0
209 2 2761.41 2795.49 2425.02 1 -2 2
210 2 2490.7 2376.08 2321.29 0 0 0
211 2 2524.84 2933.96 2166.1 0 -1 0
212 2 2485.11 2854.98 2706.78 -1 -2 -1
213 2 2462.13 2044.95 2283.17 0 0 0
214 2 2350.84 2714.91 2208.74 0 -1 0
215 2 2716.91 2282.41 2200.72 0 0 0
216 2 2276.19 2876.91 2791.9 0 -1 -1
217 2 2749.38 2894.83 2268.81 -1 -1 0
218 2 2600.48 2253.84 2841.97 1 1 -1
219 2 2215.76 2840.31 2172.37 0 -1 0
220 2 2800.62 2349.79 2179.88 -1 0 0
221 2 2628.26 2078.34 2280.49 1 0 -1
222 2 2930.23 2127.73 2308.95 -1 0 0
223 2 2585.42 2767.54 2400.28 0 -2 -1
224 2 2258.42 2862.52 2694 0 -1 -1
225 2 2336.97 2961.32 2204.72 0 -1 1
226 2 2467.39 2161.67 2064.23 0 0 0
227 2 2286.24 2355.69 2820.46 0 0 0
228 2 2584.78 2472.08 2051.24 0 0 0
229 2 2118.6 2066.29 2078.59 0 0 0
230 2 2369.05 2293.72 2791.98 0 0 -1
231 2 2260.31 2961.23 2482.29 0 -1 0
232 2 2424.33 2453.88 2510.75 0 0 0
233 2 2239.45 2943.46 2954.03 0 -1 -1
234 2 2531.7 2158 2140.6 0 0 0
235 2 2266.97 2340.06 2141.88 0 0 0
236 2 2135.12 2144.1 2955.62 0 0 -1
237 2 2757.84 2234.96 2885.07 -1 0 -1
238 2 2033.78 2185.65 2648.64 0 0 0
239 2 2960.85 2352.88 2892.05 -1 0 -1
240 2 2603.42 2256.95 2353.04 0 0 0
241 2 2761.45 2567.45 2878.42 -1 0 -1
242 2 2521.45 2076.52 2826.58 0 0 0
243 2 2882.92 2823.95 2699.92 0 0 0
244 2 2303.11 2194.53 2484.26 0 0 0
245 2 2118.03 2332.39 2784.37 0 0 -1
246 2 2476.09 2896.19 2508.55 0 -1 -1
247 2 2240.17 2477.73 2110.52 0 0 0
248 2 2761.1 2342.26 2268.75 -1 0 0
249 2 2832.85 2726.67 2416.64 -1 -1 0
250 2 2654.67 2482.63 2796.51 -1 1 -1
251 2 2260.15 2801.17 2852.79 0 -1 0
252 2 2111.24 2195.41 2453.24 0 0 0
253 2 2743.96 2520.64 2792.42 0 0 -2
254 2 2529.55 2825.72 2304.28 0 -1 0
255 2 2862.29 2716.64 2560.08 0 0 0
256 2 2735.16 2476.15 2587.93 0 1 -1
257 2 2382.22 2898.92 2264.25 0 -1 0
258 2 2223.01 2694.1 2771.01 0 0 -1
259 2 2334.64 2308.81 2889.34 0 0 -1
260 2 2240.09 2509.7 2879.44 0 0 -1
261 2 2470.58 2242.3 2942.99 0 0 -1
262 2 2083.29 2599.64 2180.94 0 0 0
263 2 2413.59 2119.26 2481.69 0 0 0
264 2 2894.41 2042.25 2755.82 -1 0 -1
265 2 2160.06 2209.57 2174.92 0 0 0
266 2 2510.36 2086.71 2207.59 0 0 0
267 2 2221.88 2094.41 2419.47 0 0 0
268 2 2404.88 2463.89 2890.43 0 0 -1
269 2 2440.91 2556.86 2634.4 0 0 0
270 2 2536.6 2119.16 2565.46 0 -1 -1
271 2 2368.83 2727.84 2302.79 0 -1 0
272 2 2879.83 2148.1 2628.4 -1 0 0
273 2 2082.45 2535.51 2597.59 0 0 0
274 2 2237.51 2935.7 2389.27 0 -1 0
275 2 2322.36 2554.36 2224.53 0 0 0
276 2 2577.44 2157.85 2849.91 -1 1 0
277 2 2098.61 2160.72 2110.81 0 0 0
278 2 2621.54 2523.15 2135.06 0 0 0
279 2 2284.97 2582.51 2133.42 0 0 0
280 2 2882.61 2759.41 2218.34 -1 -1 0
281 2 2961.21 2895.46 2541.24 -1 -1 -1
282 2 2756.74 2474.31 2487.16 0 0 0
283 2 2840.24 2117.97 2891.32 -1 0 -1
284 2 2905.2 2236.95 2188.28 -1 0 0
285 2 2180.02 2619.67 2195.9 0 -1 0
286 2 2556.31 2456.96 2820.69 -1 0 -1
287 2 2427.23 2255.15 2629.93 0 0 0
288 2 2381.58 2941.99 2109.17 0 -1 0
289 2 2667 2372.19 2413.68 0 0 1
290 2 2768.43 2482.38 2348.17 -1 0 0
291 2 2089.88 2964.24 2513.94 0 -1 0
292 2 2203.14 2206.54 2684.05 1 0 0
293 2 2853.97 2290.28 2358.29 -1 0 0
294 2 2759.92 2893.95 2456.59 0 -1 0
295 2 2198.54 2439.22 2823.71 0 0 -1
296 2 2052.51 2862.91 2035.18 0 -1 0
297 2 2037.1 2511.52 2174.06 0 0 0
298 2 2950.21 2256.3 2899.38 -1 0 -1
299 2 2844.45 2797.12 2483.45 -1 -1 0
300 2 2133.13 2367.34 2404.42 0 0 0
301 2 2235.81 2137.89 2304.85 0 0 0
302 2 2087.82 2359.17 2492.84 0 0 0
303 2 2494.65 2326.42 2054.26 0 0 0
304 2 2467.35 2283.39 2542.1 0 -1 0
305 2 2660.44 2523.16 2620.66 0 -1 0
306 2 2768.9 2405.01 2414.3 -1 0 0
307 2 2367.69 2236.2 2710.51 -1 0 -1
308 2 2799.68 2950.76 2385.51 -1 -1 0
309 2 2529.58 2349.39 2223.02 0 0 0
310 2 2570.22 2863.19 2387.94 -1 -1 0
311 2 2510.46 2623.19 2264.46 0 0 -1
312 2 2253.09 2701.38 2864.88 0 -1 -1
313 2 2312.57 2438.73 2354.91 0 0 0
314 2 2298.69 2052.95 2082.67 0 0 0
315 2 2409.86 2631.23 2865.31 0 0 -1
316 2 2500.52 2144.01 2906.52 0 0 -1
317 2 2572.57 2074.67 2912.11 0 0 -1
318 2 2151.27 2577.98 2655.63 0 0 0
319 2 2949.04 2640.4 2457.89 -1 0 0
320 2 2170.94 2275.84 2418.23 0 0 0
321 2 2789.56 2956.41 2612.61 -1 -1 -1
322 2 2179.38 2086.56 2238.68 0 0 0
323 2 2113.22 2626.94 2432.41 0 0 0
324 2 2939.07 2891.23 2746.71 -1 -1 -1
325 2 2900.29 2792.35 2381.72 -1 -1 0
326 2 2878.08 2072.2 2241.26 -1 0 0
327 2 2053.59 2117.75 2482.02 0 0 0
328 2 2428.69 2934.64 2676.41 0 -1 0
329 2 2770.09 2050.12 2705.79 0 0 0
330 2 2833.01 2608.87 2138.81 -1 0 0
331 2 2741.62 2556.97 2127.22 -1 0 0
332 2 2650.46 2370.83 2933.63 0 -1 0
333 2 2051.77 2551.35 2429.03 0 0 0
334 2 2393.14 2085.85 2048.95 0 0 0
335 2 2317.72 2724.02 2538.5 0 0 -1
336 2 2317.66 2103.13 2451.56 0 0 0
337 2 2525.34 2306.72 2896.2 0 0 -1
338 2 2511.61 2328.61 2467.79 0 -1 -1
339 2 2232.62 2901.99 2604.65 0 -1 -1
340 2 2607.57 2190.99 2584.13 0 0 0
341 2 2917.31 2618.07 2809.63 -1 0 -1
342 2 2612.25 2443.56 2345.68 0 0 0
343 2 2863.88 2474.64 2331.39 -1 0 0
344 2 2281.4 2428.97 2185.95 0 0 0
345 2 2826 2369.28 2950.71 -1 0 -1
346 2 2367.59 2639.66 2540.4 0 -1 0
347 2 2428.49 2330.34 2916.28 -1 0 -1
348 2 2136.3 2500.13 2170.2 0 0 0
349 2 2216.16 2772.05 2100.04 0 -1 0
350 2 2419.27 2483.82 2384.46 0 0 0
351 2 2185.22 2167.75 2773.26 0 0 0
352 2 2118 2097.55 2574.77 0 0 0
353 2 2925.77 2064.08 2664.04 -1 0 0
354 2 2179.23 2060.87 2335.32 0 0 0
355 2 2114.44 2528.5 2502.65 0 0 0
356 2 2055.35 2174.22 2373.46 0 0 0
357 2 2669.5 2453.44 2689.18 0 0 0
358 2 2319.93 2209.1 2898.25 0 0 -1
359 2 2117.37 2040.88 2174.77 0 0 0
360 2 2477.26 2602.53 2171.11 0 0 0
361 2 2918 2064.27 2915.52 -1 0 -1
362 2 2284.28 2695.88 2448.88 0 0 0
363 2 2275.45 2867.76 2450.02 0 -1 0
364 2 2438.57 2674.41 2223.38 0 -1 0
365 2 2674.4 2525.29 2482.13 0 0 0
366 2 2804.2 2337.06 2752.56 0 0 -1
367 2 2670.99 2953.36 2513.27 0 -1 0
368 2 2848.94 2737.08 2657.25 -1 -1 0
369 2 2339.81 2276.52 2574.19 0 0 0
370 2 2758.09 2353.25 2090.99 -1 0 0
371 2 2339.29 2125.81 2546.63 0 0 0
372 2 2667.46 2159.49 2656.91 0 0 0
373 2 2550.37 2563.67 2051.59 0 0 1
374 2 2584.37 2419.28 2178.64 0 0 0
375 2 2372.94 2487.62 2796.83 -1 0 0
376 2 2782.55 2734.23 2264.34 0 0 0
377 2 2799.81 2448.2 2164.88 -1 0 0
378 2 2346.75 2390.36 2750.18 1 0 -1
379 2 2059.69 2438.7 2672.56 0 0 -1
380 2 2685.98 2306.36 2855.57 -1 0 -1
381 2 2564.59 2220.53 2925.75 0 0 -1
382 2 2785.18 2111.81 2630.28 0 0 0
383 2 2696.08 2372.47 2170.29 -1 -1 -1
384 2 2566.58 2151.36 2666.6 0 0 0
385 2 2236.62 2116.13 2708.73 0 -1 0
386 2 2408.51 2246.86 2867.55 0 0 -1
387 2 2280.66 2887.19 2237.33 0 -1 0
388 2 2094.87 2112.64 2304.27 0 0 0
389 2 2175.36 2733.67 2678.28 0 -1 -1
390 2 2272.7 2657.14 2199.14 0 -1 1
391 2 2056.93 2931.03 2109.21 0 -1 0
392 2 2702.18 2464.95 2135.81 -1 0 0
393 2 2921.66 2482.43 2251.3 -1 0 0
394 2 2779.19 2656.47 2564.38 -1 1 0
395 2 2058.37 2902.95 2204.16 0 -1 0
396 2 2258.98 2665.83 2342.63 0 -1 0
397 2 2318.99 2118.47 2233.78 0 0 0
398 2 2710.15 2745.49 2117.92 -1 -1 1
399 2 2962.76 2642.86 2109.46 -1 -1 0
400 2 2572.74 2753.73 2090.95 -1 -1 0
401 2 2923.88 2890.2 2361.55 -1 -1 0
402 2 2901.49 2905.54 2937.09 -1 -1 -1
403 2 2266.75 2262.23 2421.05 0 0 0
404 2 2100.25 2134.17 2205.47 0 0 0
405 2 2917.93 2528.73 2764.88 -1 0 -1
406 2 2848.96 2249.62 2624.66 0 0 0
407 2 2802.59 2250.32 2713.88 -1 0 0
408 2 2544.49 2757.3 2572.35 0 -1 0
409 2 2939.5 2146.89 2211.2 -1 0 0
410 2 2936.71 2159.1 2903.75 0 1 0
411 2 2202.35 2408.2 2633.61 0 0 0
412 2 2613.44 2919.68 2122.11 -1 0 1
413 2 2231.3 2424.92 2542.27 0 0 0
414 2 2124.18 2711.41 2765.58 0 -1 -1
415 2 2177.1 2113.79 2143.31 0 0 0
416 2 2050.69 2936.31 2427.12 0 -1 0
417 2 2788.57 2251.16 2293.37 -1 0 0
418 2 2574.79 2080.71 2733.85 0 0 0
419 2 2174.07 2752.77 2836.78 1 0 -1
420 2 2628.55 2292.53 2753.57 0 0 0
421 2 2402.38 2805.1 2234.06 0 -1 0
422 2 2923.91 2548.69 2352.91 -1 0 0
423 2 2195.34 2517.01 2325.64 0 0 0
424 2 2870.67 2946.33 2846.7 -1 0 -1
425 2 2354.65 2747.13 2624.85 0 -1 -1
426 2 2639.44 2598.94 2071.75 0 0 0
427 2 2112.86 2234.95 2792.44 0 0 0
428 2 2411.26 2922.24 2944.43 0 -1 -1
429 2 2914.61 2797.46 2796.55 -2 0 0
430 2 2038.24 2346.88 2722.78 0 0 -1
431 2 2128.52 2374.61 2238.38 0 0 0
432 2 2275.25 2729.34 2270.67 0 -1 0
433 2 2404.6 2164.24 2924.47 0 0 -1
434 2 2747.33 2870.88 2364.95 -1 -1 0
435 2 2705.2 2526.74 2213.75 -1 0 0
436 2 2860.3 2379.03 2106.22 -1 0 0
437 2 2243.4 2117.34 2515.4 0 0 0
438 2 2918.5 2428.98 2732.92 -1 1 0
439 2 2273.35 2502.07 2787.8 0 0 -1
440 2 2419.09 2574.86 2780.36 0 0 -1
441 2 2194.55 2325.66 2849.42 0 0 -1
442 2 2269.09 2418.26 2452.11 0 0 0
443 2 2359.68 2035.14 2513.69 0 0 0
444 2 2157.28 2159.75 2370.11 0 0 0
445 2 2246.38 2274.29 2917.9 0 0 -1
446 2 2645.8 2830.18 2890.97 1 0 -1
447 2 2294.7 2075.47 2358.29 0 0 0
448 2 2812.74 2146.01 2315.43 -1 0 0
449 2 2051.92 2632.02 2718.54 0 0 0
450 2 2105.27 2289.71 2874.26 0 0 -1
451 2 2561.41 2142.41 2047.3 0 0 0
452 2 2119.76 2436.8 2584.38 0 0 0
453 2 2198.86 2956.84 2109.91 0 -1 0
454 2 2501.92 2913.49 2340.46 0 -1 0
455 2 2117.21 2690.95 2175.28 0 -1 0
456 2 2360.73 2275.6 2445.28 0 0 0
457 2 2204.61 2750.75 2341.92 0 -1 -1
458 2 2390.62 2057.55 2603.81 0 0 1
459 2 2092.69 2129.61 2800.35 1 0 -1
460 2 2457.03 2450.33 2609.24 0 -1 0
461 2 2528.18 2937.55 2434.94 -1 -1 0
462 2 2128.88 2179.72 2624.13 0 0 0
463 2 2134.06 2724.23 2077.79 0 -1 0
464 2 2561.13 2380.31 2402.42 0 0 0
465 2 2689.81 2128.56 2476.82 0 0 0
466 2 2519.11 2460.09 2487.79 0 0 -1
467 2 2673.96 2081.66 2722.85 0 1 0
468 2 2918.03 2357.33 2325.52 -1 0 0
469 2 2615.1 2167.17 2318.19 0 0 0
470 2 2922.32 2738.87 2474.21 -1 -1 0
471 2 2855.39 2313.92 2261.77 -1 0 0
472 2 2718.05 2113.67 2295.03 -1 0 0
473 2 2374.81 2260.71 2963.19 0 0 -1
474 2 2888.39 2691.35 2146.95 -1 0 1
475 2 2045.95 2737.58 2125.05 0 -1 0
476 2 2954.01 2292.11 2257.42 -1 0 0
477 2 2523.19 2200.54 2333.85 0 0 0
478 2 2841.73 2102.88 2402.17 -1 0 0
479 2 2046.17 2836.61 2131.84 0 -1 0
480 2 2207.9 2363.77 2760.21 0 0 0
481 2 2455.47 2253.37 2445.25 0 0 0
482 2 2353.71 2671.9 2381.79 0 0 0
483 2 2532.98 2681.64 2185.23 0 -1 0
484 2 2802.13 2890.67 2890.89 -1 0 -1
485 2 2730.63 2576.81 2328.08 0 1 0
486 2 2276.02 2481.76 2272.14 0 0 0
487 2 2125.13 2888.86 2577.86 0 -1 0
488 2 2325.73 2480.12 2708.64 0 0 -2
489 2 2777.76 2644.21 2413.44 -1 1 0
490 2 2706.29 2585.46 2558.77 0 1 0
491 2 2124.46 2919.76 2363.92 0 -1 0
492 2 2737.31 2718.24 2962.05 0 0 -1
493 2 2765.51 2254.19 2104.08 -1 0 0
494 2 2416.86 2431.45 2118.66 0 0 0
495 2 2118.97 2701.13 2344.28 0 -1 0
496 2 2224.12 2390.32 2067.57 0 0 0
497 2 2154.66 2794.84 2516.43 0 -1 0
498 2 2182.66 2919.61 2753.59 -1 -1 -1
499 2 2531.97 2277.4 2772.52 0 0 0
500 2 2316.49 2389.56 2270.75 0 0 0
501 2 2323.29 2914.48 2637.82 0 -1 -1
502 2 2567.74 2863.77 2217.63 0 -1 0
503 2 2747.84 2185.49 2230.55 -1 0 0
504 2 2389.43 2088.43 2385.65 0 0 0
505 2 2034.94 2379.03 2408.3 0 0 0
506 2 2258.6 2338.56 2589.3 0 0 0
507 2 2474.6 2931.58 2797.67 0 -1 -1
508 2 2253.77 2240.46 2150.92 0 0 0
509 2 2939.66 2093.16 2400 -1 0 0
510 2 2348.66 2823.25 2824.14 0 0 0
511 2 2879.04 2641.95 2382.68 -1 -1 0
512 2 2122.27 2363.79 2667.25 0 0 -1
513 2 2433.16 2954.84 2192.55 0 -1 0
514 2 2860.37 2896.72 2504.97 0 0 -1
515 2 2396.32 2345.39 2074.2 0 0 0
516 2 2304.84 2739.39 2792.11 0 0 0
517 2 2433.16 2370.96 2240.16 0 0 0
518 2 2543.87 2850.7 2109.77 0 0 0
519 2 2058.78 2958.49 2606.32 -1 -1 -1
520 2 2596.97 2889.13 2482.78 0 -1 -1
521 2 2587.36 2302.98 2038.48 -1 0 0
522 2 2681.42 2252.3 2607.58 -1 0 0
523 2 2131.25 2267.64 2697.25 0 0 0
524 2 2936.18 2585.63 2642.61 -1 -1 0
525 2 2069.51 2845.17 2392.66 0 -1 0
526 2 2831 2923.29 2218.8 -1 -1 0
527 2 2408.45 2283.38 2195.87 0 0 0
528 2 2870.99 2292.08 2533.4 -1 0 0
529 2 2337.19 2641.5 2271.01 0 -1 0
530 2 2603.57 2772.65 2495.24 -1 0 0
531 2 2078.15 2420.99 2163.67 0 0 0
532 2 2685.75 2058.28 2132.7 0 0 0
533 2 2622.55 2216.73 2070.73 0 0 0
534 2 2689.37 2205.2 2146.96 0 0 0
535 2 2296.7 2725.98 2128.68 0 -1 0
536 2 2870.84 2165.17 2796.93 -1 0 -1
537 2 2906.36 2826.02 2288.84 -1 -1 0
538 2 2627.32 2696.06 2151.97 0 -1 0
539 2 2723.3 2090.75 2039.17 -1 0 0
540 2 2678.07 2298.86 2301.23 0 0 0
541 2 2644.23 2691.69 2054.39 -1 0 0
542 2 2319.47 2643.43 2820.56 0 0 -1
543 2 2836.27 2892.22 2315.78 -1 -1 0
544 2 2163.65 2516.24 2760.06 0 0 -1
545 2 2457.3 2532.86 2464.17 -1 -1 -1
546 2 2515.36 2295.91 2374.9 0 0 0
547 2 2624.83 2132.53 2121.96 0 0 0
548 2 2470.99 2161.47 2408.98 0 0 0
549 2 2415.1 2348.23 2488.04 0 0 0
550 2 2638.36 2818.06 2126.3 0 -1 0
551 2 2930.29 2471.93 2422.53 -1 0 0
552 2 2563.73 2129.47 2391.63 0 0 0
553 2 2113.66 2248.74 2342.4 0 0 0
554 2 2923.56 2377.39 2524.92 -1 0 0
555 2 2296.31 2821.71 2614.52 -1 0 0
556 2 2329.25 2037.8 2925.25 0 0 -1
557 2 2958.47 2846.88 2876.34 0 0 -1
558 2 2387.43 2839.3 2647.52 -1 -1 -1
559 2 2655.37 2096.12 2374.55 0 1 0
560 2 2278.33 2809.01 2949.84 0 -1 -1
561 2 2507.89 2693.65 2955.89 0 -1 0
562 2 2552.17 2951.76 2262.05 0 -1 0
563 2 2390.5 2618.02 2695.72 -1 0 0
564 2 2266.83 2191.42 2576.17 0 0 0
565 2 2419.75 2578.09 2245.24 0 0 0
566 2 2440.27 2419.06 2771.24 0 0 -1
567 2 2184.73 2409.14 2158.61 0 0 0
568 2 2810.97 2691.58 2084.07 0 0 0
569 2 2279.58 2170.49 2388.08 0 0 0
570 2 2890.68 2561.66 2446.47 -1 0 -1
571 2 2652.6 2881.31 2036.35 -2 -1 0
572 2 2833.26 2035.92 2958.18 -1 0 -1
573 2 2573.48 2933.67 2803.7 0 -1 -1
574 2 2609.11 2673.23 2248.87 0 0 0
575 2 2457.12 2869.89 2416.2 0 -1 0
576 2 2746.26 2080.33 2544.27 0 0 0
577 2 2463.78 2405 2426.75 0 0 0
578 2 2644.03 2549.14 2372.36 0 0 1
579 2 2655.35 2423.87 2593.93 0 0 0
580 2 2394.59 2209.45 2261.63 0 0 0
581 2 2262.25 2161.64 2832.87 0 0 -1
582 2 2174.24 2848.82 2821.69 0 -1 0
583 2 2624.54 2317.31 2215.88 0 0 0
584 2 2038.47 2565.74 2266.42 0 0 0
585 2 2116.94 2274.96 2247.74 0 0 0
586 2 2182.8 2600.5 2493.13 0 0 0
587 2 2877.03 2100.14 2147.05 -1 0 0
588 2 2076.01 2403.89 2960.07 0 0 -1
589 2 2073.89 2285.21 2429.45 0 0 0
590 2 2490.76 2182.29 2503.2 0 0 0
591 2 2720.74 2803.04 2295.85 -1 -1 0
592 2 2256.78 2068.83 2173.74 0 0 0
593 2 2849.36 2919.4 2688.89 -1 -1 -1
594 2 2400.16 2901.27 2572.9 0 -1 0
595 2 2231.3 2776.86 2434.03 0 -1 0
596 2 2181.61 2457.83 2245.66 0 0 0
597 2 2870.94 2313.71 2881.73 -1 0 -1
598 2 2706.83 2206.04 2333.39 -1 0 0
599 2 2328.07 2783.56 2459.44 0 0 0
600 2 2478.23 2889.42 2249.99 0 -1 0
601 2 2103.03 2872.76 2482.98 0 -1 0
602 2 2575.73 2595.18 2191.86 0 0 0
603 2 2780.26 2562.97 2611.94 -1 1 0
604 2 2490.39 2525.25 2552.01 0 -1 -1
605 2 2471.29 2550.22 2325.9 -1 -1 0
606 2 2236.65 2160.26 2207.02 0 0 0
607 2 2459.07 2317.72 2821.89 0 0 -1
608 2 2327.62 2607.35 2456.76 -1 0 -1
609 2 2507.81 2532.14 2231.65 0 -1 -1
610 2 2903.01 2882.01 2099.16 0 -1 0
611 2 2526.8 2822.24 2466 0 -1 0
612 2 2395.34 2537.73 2550.27 0 0 0
613 2 2561.94 2919.62 2038.53 0 -1 0
614 2 2119.84 2257.31 2099.66 0 0 0
615 2 2116.65 2385.97 2869.99 0 0 -1
616 2 2375.9 2451.34 2220.6 0 0 0
617 2 2043.89 2967.02 2332.68 0 -1 0
618 2 2360.67 2365.36 2170.26 0 0 0
619 2 2032.89 2445.02 2332.38 0 0 0
620 2 2674.44 2125.48 2205.18 0 1 1
621 2 2366.44 2810.33 2548.33 0 -1 0
622 2 2309.18 2129.84 2958.25 0 0 -1
623 2 2827.18 2485.12 2750.77 -1 0 -1
624 2 2564.11 2249.16 2256.69 0 0 0
625 2 2311.34 2291.71 2215.27 0 0 0
626 2 2579.67 2768.59 2192.29 0 0 1
627 2 2790.04 2137.12 2477.64 -1 0 0
628 2 2856.83 2507.79 2843.63 -1 0 0
629 2 2471.61 2777.95 2078.8 0 0 0
630 2 2698.6 2609.9 2655.27 0 0 0
631 2 2035.52 2281.03 2525.74 0 0 0
632 2 2444.83 2138.68 2317.4 0 0 0
633 2 2306.1 2662.9 2724.54 0 0 0
634 2 2032.01 2575.22 2954.65 0 0 -1
635 2 2134.42 2273.35 2510.33 0 0 0
636 2 2269.87 2640.47 2533.39 0 0 0
637 2 2281.57 2258.12 2822.17 0 0 -1
638 2 2432.75 2839.05 2324.35 0 -1 0
639 2 2625.17 2162.73 2748.41 0 0 0
640 2 2330.08 2442.55 2526.19 0 0 0
641 2 2319.83 2895.49 2046.9 0 -1 0
642 2 2279.16 2911.34 2141.02 0 -1 0
643 2 2845.2 2665.07 2231.78 -1 0 0
644 2 2536.71 2108.22 2300.2 0 0 0
645 2 2780.97 2855.63 2717.45 -1 -1 0
646 2 2397.85 2058.78 2794.08 0 0 0
647 2 2397.82 2213.69 2517.3 0 0 0
648 2 2431.99 2515.43 2169.27 0 0 0
649 2 2237.32 2616.25 2050.12 0 0 0
650 2 2103.85 2079.38 2398.97 0 0 0
651 2 2530.55 2238.82 2083.91 0 0 0
652 2 2212.88 2318.01 2673.53 0 0 0
653 2 2428.2 2069.66 2888.54 0 0 -1
654 2 2169.18 2130.49 2862.34 0 0 -1
655 2 2550.51 2715.07 2323.03 0 0 0
656 2 2314.07 2346.36 2504.27 0 0 0
657 2 2165.13 2872.14 2666.14 0 -1 0
658 2 2928.02 2683.58 2641.57 -1 0 -1
659 2 2154.75 2240.66 2944.53 0 0 -1
660 2 2100.75 2268.35 2599.99 0 0 0
661 2 2834.3 2348.76 2608.15 0 0 -1
662 2 2214.8 2506.87 2488.1 0 0 0
663 2 2034.99 2946.96 2851.55 -1 0 -1
664 2 2578.15 2037.18 2356.1 0 0 0
665 2 2711.84 2904.94 2868.42 -1 0 -1
666 2 2294.65 2210.57 2268.85 0 0 0
667 2 2430.83 2232.41 2351.84 0 0 0
668 2 2388 2705.89 2470.56 -1 -1 1
669 2 2580.96 2620.45 2342 0 0 1
670 2 2199.86 2882.67 2511.6 0 -1 0
671 2 2059.08 2801.34 2541.45 0 -1 -2
672 2 2804.88 2179.46 2959.71 -1 0 -1
673 2 2256.27 2801.58 2525.86 0 0 0
674 2 2782.25 2441 2837.31 -1 0 -1
675 2 2136.77 2770.9 2414.16 0 -1 0
676 2 2746.65 2145.65 2714.02 0 0 -1
677 2 2178.67 2859.56 2418.89 0 -1 0
678 2 2223.01 2079.1 2797.25 0 0 -1
679 2 2250.13 2083.69 2892.45 0 0 -1
680 2 2918.39 2921.1 2266.69 -1 -1 0
681 2 2515.6 2463.27 2363.7 0 0 0
682 2 2503.13 2259.59 2177.33 0 0 0
683 2 2129.97 2426.53 2324.65 0 0 0
684 2 2869.46 2715.51 2826.28 -1 0 -1
685 2 2313.02 2654.02 2624.34 0 0 0
686 2 2339.37 2197.64 2178.84 0 0 0
687 2 2639.59 2185.92 2411.65 0 0 0
688 2 2678.06 2832.68 2463.22 -1 -1 0
689 2 2161.87 2610.68 2343.74 0 0 0
690 2 2766.3 2836.41 2818.06 0 -1 -1
691 2 2824.72 2561.09 2358.69 -1 0 0
692 2 2739.85 2137.61 2892.57 0 0 -1
693 2 2188.36 2037.74 2546.36 0 0 0
694 2 2907.19 2810.36 2964.14 -1 0 -1
695 2 2524.31 2409.41 2099.83 0 0 0
696 2 2485.39 2383.23 2544.9 -1 -1 0
697 2 2953.33 2540.26 2520.65 0 -1 -1
698 2 2849.12 2219.42 2469.76 -1 0 0
699 2 2456.71 2690.99 2401.36 0 -1 0
700 2 2913.16 2411.81 2962.97 -1 0 -1
701 2 2212.29 2289 2075.56 0 0 0
702 2 2501.4 2417.63 2692.45 0 0 0
703 2 2306.86 2891.36 2542.07 0 -1 0
704 2 2062.76 2873.67 2300.11 0 -1 0
705 2 2363.11 2471.08 2616.81 0 0 0
706 2 2128.6 2588.02 2944.05 1 0 -1
707 2 2163.86 2952.36 2450.26 0 -1 0
708 2 2511.18 2210.76 2593.55 0 0 0
709 2 2123.78 2630.6 2097 1 0 0
710 2 2937.2 2173.35 2116.66 -1 0 0
711 2 2721.87 2322.17 2480.4 0 0 0
712 2 2597.83 2234.05 2164.67 0 1 0
713 2 2164.42 2656.01 2839.31 0 0 0
714 2 2850.27 2629.82 2626.23 -1 0 0
715 2 2069.02 2665.8 2959.12 1 0 0
716 2 2351.81 2852.52 2387.51 0 -1 0
717 2 2306.47 2966.08 2829.5 0 -1 -1
718 2 2310.79 2917.45 2327.34 0 -1 0
719 2 2297.37 2534.84 2541.97 0 0 0
720 2 2208.11 2713.36 2508.02 0 0 0
721 2 2471.04 2285.64 2275.24 0 0 0
722 2 2866.36 2473.7 2092.39 -1 0 0
723 2 2271.87 2510.39 2410.89 0 0 0
724 2 2926.15 2654.29 2901.52 -1 0 -1
725 2 2613.82 2922.39 2892.98 0 0 0
726 2 2650.77 2327.25 2549.48 0 0 -1
727 2 2816.41 2827.25 2243.12 0 -1 0
728 2 2371.13 2482.03 2046.82 0 0 0
729 2 2831.27 2484.86 2422.87 -1 0 0
730 2 2111.07 2708.15 2493.16 0 -1 0
731 2 2229.38 2348.51 2390.65 0 0 0
732 2 2537.45 2553.54 2402.55 0 0 0
733 2 2470.46 2617.93 2068.8 0 0 1
734 2 2406.71 2930.48 2355.46 0 -1 0
735 2 2083.48 2472.42 2249.82 0 0 0
736 2 2190.88 2448.59 2399.56 0 0 0
737 2 2731.16 2839.07 2088.87 -1 -1 0
738 2 2204.06 2265.22 2761.14 0 0 -1
739 2 2202.82 2904.51 2301.44 0 -1 0
740 2 2915.9 2715.51 2055.96 -1 0 1
741 2 2336.93 2497.07 2140.69 0 0 0
742 2 2280.86 2198.49 2742.9 0 0 -1
743 2 2120.56 2948.23 2269.26 0 -1 0
744 2 2843.99 2162.45 2216.93 -1 0 0
745 2 2227.32 2408.82 2314.73 0 0 0
746 2 2341.92 2278.35 2122.49 0 0 0
747 2 2189.35 2768.47 2941.72 0 -1 -1
748 2 2846.77 2086.27 2558.38 -1 0 0
749 2 2840.75 2188.23 2117.9 -1 0 0
750 2 2958.72 2368.31 2101.55 -1 0 0
751 2 2678.47 2545.22 2723.7 0 0 0
752 2 2681.85 2058.15 2895.21 0 0 -1
753 2 2395.87 2580.41 2387.99 0 0 1
754 2 2209.39 2188.91 2450.64 0 0 0
755 2 2348.37 2150.8 2323.57 0 0 0
756 2 2263.61 2711.31 2036.5 0 -1 0
757 2 2909.42 2315.44 2033.76 -1 0 0
758 2 2927.77 2843.77 2460.47 -1 -1 0
759 2 2278.79 2146.75 2116.84 0 0 0
760 2 2135.92 2804.93 2736.39 0 -1 0
761 2 2069.38 2322.86 2175.25 0 0 0
762 2 2272.29 2308.78 2305.71 0 0 0
763 2 2747.47 2225.94 2472.08 -1 0 0
764 2 2136.34 2555.21 2254.75 0 0 0
765 2 2479.51 2345.38 2637.28 -1 1 0
766 2 2366.06 2625.58 2174.17 -1 0 0
767 2 2444.02 2230.67 2772.65 0 0 -1
768 2 2737.37 2827.4 2926.9 -1 -1 0
769 2 2092.83 2460.35 2411.59 0 0 0
770 2 2437.69 2261.29 2102.56 0 0 0
771 2 2850.66 2411.98 2240.67 -1 0 0
772 2 2257.75 2372.88 2912.63 0 0 -1
773 2 2248.16 2270.55 2518.21 0 0 0
774 2 2600.77 2357.17 2847.49 0 0 -1
775 2 2922.56 2645.98 2289.19 -1 0 0
776 2 2914.96 2949.59 2170.83 -1 -1 0
777 2 2076.98 2640.7 2622.96 1 0 0
778 2 2457.09 2415.02 2961.48 0 0 -1
779 2 2810.79 2253.01 2194.22 0 0 0
780 2 2677.37 2743.15 2426.25 -1 -1 0
781 2 2075.47 2095.46 2888.72 0 0 -1
782 2 2290.03 2308.11 2734.93 0 0 -1
783 2 2051.64 2451.39 2502.01 0 0 0
784 2 2882.05 2042.18 2337.1 -1 0 0
785 2 2780.62 2755.66 2873.41 0 0 0
786 2 2149.27 2436.74 2488.76 0 0 0
787 2 2734.82 2433.65 2238.39 -1 0 0
788 2 2174.77 2672 2936.35 1 0 0
789 2 2169.13 2642 2581.9 0 -1 0
790 2 2491.52 2923.04 2601.97 1 0 0
791 2 2733.26 2818.63 2186.52 0 0 0
792 2 2490.01 2783.47 2382.22 0 -1 0
793 2 2156.11 2558.52 2850.28 0 0 -1
794 2 2645.51 2582.33 2278.72 0 0 0
795 2 2707.23 2663.54 2280.35 -1 -1 0
796 2 2064.51 2222 2180.99 0 0 0
797 2 2402.93 2876.94 2754.33 0 -1 0
798 2 2702.69 2239.48 2706.88 0 1 -1
799 2 2103.76 2176.75 2717.46 0 0 -1
800 2 2963.05 2449.04 2888.95 -1 0 -1
801 2 2078.54 2097.69 2663.81 0 0 0
802 2 2040.24 2112.89 2044.16 0 0 0
803 2 2078.8 2619.36 2525.71 0 0 0
804 2 2313.98 2107.86 2769.73 0 1 -1
805 2 2462.12 2054.32 2540.92 0 0 0
806 2 2583.35 2153.54 2225.48 0 0 0
807 2 2709.7 2959.69 2336.12 -1 -1 0
808 2 2552.86 2853.18 2562.89 1 -1 -1
809 2 2799.65 2651.13 2317.12 -1 0 1
810 2 2462.86 2751.27 2291.31 0 0 0
811 2 2333.81 2245.73 2353.24 0 0 0
812 2 2749.49 2267.53 2792.01 -1 0 -1
813 2 2892.92 2354.04 2794.29 -1 0 -1
814 2 2504.42 2729.42 2487.5 0 -1 0
815 2 2056.23 2046.72 2761.82 0 0 -1
816 2 2819.52 2273.31 2957.09 -1 0 -1
817 2 2214.43 2260.85 2241.97 0 0 0
818 2 2912.41 2205.24 2554.33 -1 0 0
819 2 2740.32 2404.7 2916.85 0 0 -1