ITEM: TIMESTEP
606000
ITEM: NUMBER OF ATOMS
1000
ITEM: BOX BOUNDS pp pp pp
1.2415554897665345e+03 3.7584445102329300e+03
1.2415554897665345e+03 3.7584445102329300e+03
1.2415554897665345e+03 3.7584445102329300e+03
ITEM: ATOMS id type x y z ix iy iz
1 1 2798.35 2419.92 1405.19 -1 0 1
2 1 2046.57 1274.64 2637.28 0 0 0
3 1 3346.45 2587.12 2124.29 0 0 0
4 1 2227.3 1619.83 3320.39 0 -1 0
5 1 3491.22 3033.06 2724.31 -1 -1 1
6 1 1886.71 1692.74 3488.28 0 0 0
7 1 1600.9 3082.12 2897.62 0 -1 0
8 1 2149.1 1677.4 2471.46 0 0 1
9 1 3046.63 3096.1 2467.37 0 0 0
10 1 2894.56 2510.72 2656.7 0 0 0
11 1 2722.39 2102.02 2616.66 0 0 0
12 1 1350.56 3263.97 3685.75 0 0 0
13 1 3202.53 3600.04 3549.61 -1 0 -1
14 1 2192.53 2741.16 2917.27 0 0 -1
15 1 3296.01 2195.02 2016.36 0 0 0
16 1 2159.64 3749.36 2450.05 0 0 -1
17 1 2428.51 2945.07 2961.99 1 0 -1
18 1 3185.9 2337.98 2485.12 -1 1 0
19 1 2922.2 1827.14 1700.99 -1 0 0
20 1 1391.29 3098.71 3026.93 0 -1 0
21 1 1997.02 2536.29 2586.27 0 1 0
22 1 2691.8 3046.94 2773.67 2 -1 0
23 1 2921.38 2121.3 2718.69 0 0 1
24 1 3026.06 3444.04 2136.37 0 0 0
25 1 1676.41 1866.62 2837.85 -1 0 0
26 1 3016.51 3096.88 2997.33 0 0 0
27 1 3162.18 2385.08 2871.36 -1 0 1
28 1 1987.53 2446.93 2382.46 0 0 0
29 1 2577.98 2242.24 2673.73 0 0 -1
30 1 2836.17 3514.1 2933.62 0 0 0
31 1 1371.77 1578.13 2957.2 0 0 0
32 1 1554.64 3192.14 3329.95 0 0 -1
33 1 2161.53 2378.07 3202.57 0 0 0
34 1 2444.41 1269.57 2935.58 0 0 0
35 1 1956.42 2149.59 2378.58 0 0 -1
36 1 1443.05 2874.2 1333.03 0 -1 0
37 1 1746.28 1767.34 1817.31 0 0 0
38 1 2179.75 3046.99 2147.56 0 0 0
39 1 3290.92 2340.43 2925.76 -2 0 -1
40 1 3187.97 2472.03 1932.16 -1 -1 2
41 1 1899.99 2971.7 1796.47 0 0 -1
42 1 2975.04 2728.37 2009.8 0 -1 0
43 1 2446.04 2604.02 2000.78 0 -2 0
44 1 3052.78 3479.6 1659.7 0 -1 0
45 1 2456.26 2296.25 2844.3 0 0 0
46 1 2966.19 3628.5 3099.35 -1 -1 0
47 1 3470.12 3316.03 2165.78 -1 -1 -1
48 1 3289.78 2019 2839.64 0 0 -1
49 1 2953.47 2563.55 2220.69 -1 0 1
50 1 3117.66 1615.69 3392.9 -1 0 0
51 1 3356.57 1353.95 2203.87 -1 -1 1
52 1 3735.18 2544.24 3590.72 -1 0 -1
53 1 3169.95 1871.78 3481.59 -2 0 -1
54 1 3382.55 2229.23 3055.21 0 0 -1
55 1 3066.32 3097.72 3017.63 -2 0 -1
56 1 3184.97 2109.55 1571.33 0 0 0
57 1 1871.75 2510.09 3624.05 0 0 -1
58 1 2461 2645.25 3584.98 0 0 -1
59 1 2665.15 3469.42 2824.75 -1 -1 0
60 1 1958.74 3242.12 1469.27 -1 -1 1
61 1 1795.19 2863.47 2451.52 -1 0 0
62 1 2603.78 1314.75 3203.65 0 0 -1
63 1 3274.09 2155.79 3219.18 -1 0 0
64 1 2935.21 2652.55 3303.7 0 -1 -1
65 1 3305.2 3134.65 2784.4 -1 -1 -1
66 1 3359.25 2983.22 2535.84 -1 0 1
67 1 2492.5 2417.54 1592.61 0 0 0
68 1 2183.82 2996.54 3409.41 0 -1 -1
69 1 1364.84 2596.11 2868.37 0 0 0
70 1 1598.62 1385.69 3477.73 0 1 -1
71 1 1869.22 2726.91 2545.93 -1 0 -1
72 1 2785.48 1972.95 3720.98 0 0 -1
73 1 2680.41 1444.25 1261.03 0 1 1
74 1 3235.74 2765.3 2067.51 -1 0 -1
75 1 1889.66 2470.23 1559.16 0 0 1
76 1 1491.84 1571.38 3121 -1 0 0
77 1 2678.92 2517.68 3481.3 -1 -1 -1
78 1 1535.31 3707.73 1697.6 0 -1 0
79 1 1965.49 2309.76 2531.36 0 -1 0
80 1 3228.77 2357.38 2459.97 -1 0 0
81 1 3724.92 1710.43 1720.84 -1 0 0
82 1 1761.42 2166.16 3509.45 1 0 0
83 1 2473.76 1925.86 2755.37 -1 -1 -1
84 1 1870.81 3715.82 3579.16 1 0 -1
85 1 2504.12 2388.5 2415.03 0 -1 0
86 1 3532.72 2350.38 2942.2 -1 0 0
87 1 1604.58 1864.86 3031.87 0 -1 -1
88 1 1386.63 2842.24 1914.42 0 -1 0
89 1 2959.25 2923.55 1635.66 0 0 0
90 1 3598.49 3380.6 2271.49 -2 -1 0
91 1 1518.14 3594.78 3084.63 0 -1 -1
92 1 1848.33 2868.15 2447.44 0 -1 -1
93 1 2146.3 3510.84 2795.93 1 0 0
94 1 2207.65 2031.42 3538.51 0 0 -1
95 1 1632.43 2412.74 2976.34 -1 -1 -1
96 1 2852.62 2448.54 1820.32 -1 0 0
97 1 2238.06 2383.9 1893.64 0 -1 1
98 1 2759.77 1981.41 3122.84 -1 -1 0
99 1 2451.3 2979.99 3159.8 0 -1 -1
100 1 2817.94 1853.37 1377.74 -1 0 0
101 1 1364.66 3039.22 2321.77 0 -1 0
102 1 2195.06 1301.41 2734.52 -1 0 0
103 1 2999.53 2513.05 1956.49 -1 0 0
104 1 3624.53 2767.96 2416.06 0 -1 -1
105 1 3546.03 3253.43 2857.88 -1 0 0
106 1 3615.15 1840.33 2948.22 0 1 -1
107 1 2852.63 2079.49 2427.63 -1 -2 0
108 1 3473.19 3335.98 1464.01 -1 0 -1
109 1 2173.29 2543.92 2380.35 -1 -1 0
110 1 2846.28 2830.47 1453.68 0 -1 0
111 1 3606.11 1242.16 3613.68 -1 0 -1
112 1 2705.44 1489.16 3150.19 0 0 0
113 1 2345.64 2809.82 3109.23 0 0 -1
114 1 2791.37 2386.32 3080.59 -1 0 0
115 1 2181.26 2730.17 3216.64 0 0 -1
116 1 2984.69 2398.72 3031.8 0 0 0
117 1 2311.4 3662.37 2831.05 0 -1 -1
118 1 1992.45 2893.52 2202.38 -1 0 -1
119 1 3534.7 3123.77 2153.61 0 -1 0
120 1 2864.58 2254.03 1617.94 1 0 0
121 1 3293.83 3431.01 3236.76 -1 0 0
122 1 2896.4 3281.86 2450.81 0 0 -1
123 1 1545.48 1502.6 3639.78 -1 1 -1
124 1 2628.07 2525.64 1385.73 0 0 1
125 1 1549.6 3261.47 1810.33 0 -2 0
126 1 2101.1 3752.18 3178.18 0 0 -1
127 1 2867.51 2189.03 1982.53 -1 -1 0
128 1 1937.28 2206.18 3754.58 -1 0 0
129 1 2480.04 2411.5 2372.67 -1 0 0
130 1 3596.25 2682.01 1852.99 0 -1 0
131 1 3062.46 3365.77 1287.84 -1 -1 0
132 1 2657.39 2910.4 3188.81 0 -1 -1
133 1 2525.47 2399.88 2991.2 0 0 -1
134 1 1770.2 3437.16 2479.48 -1 -1 -1
135 1 2072.63 3661.8 3581.84 0 -1 -1
136 1 3134.09 1991.05 3322.75 -1 0 0
137 1 3364.04 1719.12 1778.77 -1 0 0
138 1 2849.67 2608.35 1701.11 0 -1 0
139 1 3137.28 2621.02 1911.79 -1 -1 -1
140 1 3095.22 3175.51 2858.74 -1 -1 -1
141 1 3003.48 2911.84 1923.84 -1 1 0
142 1 2418.46 2169.88 3001.76 0 1 -1
143 1 3348.68 3146.55 2184.22 -1 0 0
144 1 1352.85 3169.05 2587.43 -1 -1 0
145 1 2247.14 2143.22 1967.57 0 0 0
146 1 3536.07 2603.48 2035.08 -1 -1 0
147 1 1522.19 2474.46 2798.7 0 0 -1
148 1 2806.23 2781.46 2304.73 -1 -1 1
149 1 3194.94 2964.8 2855.59 0 0 0
150 1 2401.59 2628.57 2581.64 0 0 0
151 1 2570.82 3225.95 2855.26 0 -2 -1
152 1 3565 2680.68 3091.97 -1 -1 0
153 1 3052.25 2898.09 3005.5 -1 -1 -1
154 1 3442.71 2760.04 2196.64 -1 0 -1
155 1 3149.4 2320.33 2519.91 0 0 0
156 1 1877.11 2516.54 3375.18 0 0 -2
157 1 3707.46 3151.86 2271.51 0 0 -1
158 1 2818.78 2835.44 1864.52 -1 -1 0
159 1 3240.07 2709.45 2725.25 0 -1 0
160 1 3068.21 1732.18 2969.85 -1 0 0
161 1 2770.82 2817.19 1655.46 0 0 -1
162 1 2920.66 1904.54 2548.83 0 -1 0
163 1 2346.26 2615.55 3013.59 0 0 -1
164 1 3407.93 2415.89 1723.01 0 -1 -1
165 1 2213.12 2027.31 3591.96 0 0 -1
166 1 1299.07 2799.38 1750.4 0 0 -1
167 1 2753.26 2788.27 2298.32 0 -1 0
168 1 1654.45 2037.07 3179.15 0 0 0
169 1 2063.25 3481.09 1579.57 0 -1 -1
170 1 3143.39 3107.44 2301.17 0 -1 0
171 1 2941.62 1978.72 3246.54 -1 -1 -1
172 1 2659.42 3118.48 1984.01 0 -1 -1
173 1 2925.43 2341.55 2533.16 -1 0 -1
174 1 3012.44 1583.58 3634.45 -2 0 -1
175 1 3357.25 3206.38 1319.61 -1 -1 -1
176 1 1976.47 1938.05 3162.14 0 0 0
177 1 2944.35 3551.5 1449.35 -1 0 0
178 1 3537.38 2075.48 2921.72 -1 0 0
179 1 1687.52 2039.11 3221.71 -1 0 0
180 1 3458.2 3057.43 3154.93 0 0 -1
181 1 1463.65 2717.26 3283.47 0 -1 1
182 1 3006.03 3607.34 2057.77 0 -1 0
183 1 1330.99 3208.19 1828.04 0 -1 0
184 1 3107.81 2125.38 2764.01 0 -1 1
185 1 1449.9 2211.87 2689.75 0 0 -1
186 1 3282.91 2270.09 1633.98 -1 0 -1
187 1 3718.95 2726.47 2950.88 0 0 -1
188 1 2614.64 1281.03 3682.2 0 1 -1
189 1 3671.3 1931.71 3562.13 -1 0 -1
190 1 2628.58 2735.1 2479.96 -1 0 0
191 1 3023.75 1432.39 3401.82 0 0 0
192 1 3483.58 3538.04 1529.21 -1 -1 0
193 1 3589.64 2916.93 3090.39 -2 -1 0
194 1 3066.18 1997.63 1742.88 0 -1 -1
195 1 2018.05 2646.32 2884.63 -1 0 0
196 1 2352.41 2522.73 3708.37 0 0 -1
197 1 2056.22 2215.11 1388.43 -1 1 1
198 1 2949.49 3461.66 3562.41 -1 -1 0
199 1 2267.88 3416.28 1313.89 0 0 1
200 1 1914.11 1714.48 3179.48 0 0 -1
201 1 3462.8 2061.32 3173.88 -1 0 0
202 1 2621.03 2323.53 3578.4 -1 -1 -1
203 1 3326.33 3311.19 3608.14 -1 -1 0
204 1 2425.46 2285.06 3191.1 0 -1 -2
205 1 3188.54 2678.65 3278.62 -1 -1 0
206 1 3513.58 1389.54 3487.31 -1 0 0
207 1 2385.67 2852.95 3553.11 -1 -1 -1
208 1 2399.51 2098.68 2805 0 0 -1
209 1 2806.16 2753.2 3174.85 -1 -1 0
210 1 3299.87 2561 1542.1 0 -1 0
211 1 2976.27 3108.18 1551.44 -1 -1 0
212 1 2310.92 1256.33 2309.33 0 0 -1
213 1 3257.42 2770.77 2502.32 0 1 -1
214 1 2370.99 3050.1 2457.35 0 -1 0
215 1 1242.87 3146.3 1653.57 0 0 -1
216 1 2736.64 2272.87 3445.24 -1 0 -1
217 1 3106.17 2024.27 1937.96 -1 0 1
218 1 2024.02 2659.35 1762.29 0 0 0
219 1 3317.82 3128.85 2408.62 0 -1 0
220 1 2048.01 2408.65 3430.35 -1 0 -1
221 1 3192.57 1462.82 3276.3 -1 0 -1
222 1 3011.89 2058.55 1247.7 0 -1 1
223 1 2448.34 2437.55 3522.72 0 -1 -2
224 1 1408.89 3534.12 2493.42 0 -1 0
225 1 2934.04 3665.35 2423.14 0 -1 0
226 1 2897.7 2572.63 3079.24 0 -1 0
227 1 3556.93 2358.51 2739.53 -1 -1 -1
228 1 1305.92 3413.57 1322.95 0 0 1
229 1 3048.54 1911.44 2118.19 -1 -1 0
230 1 1382.68 2397.49 2646.68 0 0 -1
231 1 1892.58 2853.91 2420.98 -1 -1 0
232 1 1945.58 3635.09 3748.91 0 -1 -1
233 1 3559.08 2871.22 2874.91 -1 0 1
234 1 1783.21 1575.41 2606.72 0 -1 -1
235 1 2804.21 2321.45 1429.21 -1 -1 0
236 1 2498.59 2603.03 1988.11 -1 0 0
237 1 3281.27 2542.09 3145.3 0 -1 0
238 1 3194.31 2964.62 2440.38 0 -1 0
239 1 2818.07 2620.66 1904.66 -1 -1 0
240 1 2036.02 2566.92 2564.44 1 0 -1
241 1 2787.44 3618.19 1627.16 0 -1 0
242 1 2695.5 1876.67 1547.18 0 -2 0
243 1 1661.06 3708.92 1501 0 -1 0
244 1 3117.54 2644.89 2906.06 0 -1 -1
245 1 3434.23 1344.89 2525.42 -1 0 0
246 1 3069.07 1659.59 2766.8 0 -1 0
247 1 2401.31 3678.4 2653.79 0 -1 0
248 1 3423.23 2939.23 1832.73 -1 -1 0
249 1 3427.74 2698.82 3270.66 0 0 0
250 1 3689.62 1510.25 3484.06 -1 0 -1
251 1 3280.54 2783.67 1785.92 0 -1 0
252 1 3110.74 1445.22 2757.75 -1 0 0
253 1 1496.43 2719.7 1821.61 1 0 0
254 1 3608.03 2162.35 2641.8 -1 0 -1
255 1 2983.78 1736.08 3515.56 -1 0 -1
256 1 2430 2399.82 2988.13 -1 0 0
257 1 3039.16 3286.27 1723.17 -1 -1 0
258 1 2605.44 1857.57 3059.92 0 0 -1
259 1 2685.88 1915.14 3563.16 -1 0 -1
260 1 2695.68 2558.15 3187.91 0 0 0
261 1 1342.27 1857.73 2217.71 0 0 0
262 1 3382.03 2538.71 1900.11 -1 0 -1
263 1 2624.35 2989.31 2968.98 -1 0 -1
264 1 2118.92 2345.78 1566.06 0 0 -1
265 1 3606.18 1757.01 3189.93 -1 0 -1
266 1 3247.5 1485.12 3489.5 -1 0 -1
267 1 1330.2 2214.18 3136.86 0 0 -1
268 1 2048.33 2520.06 2588.31 0 -1 0
269 1 2972.2 1343.37 3051.34 -1 0 0
270 1 2256.74 2031.15 3560.63 0 0 -1
271 1 1819.01 2995.96 2327.33 0 -1 -1
272 1 2607.33 2364.49 3210.22 -1 0 -1
273 1 1977.07 2321.92 3163.4 0 0 -1
274 1 2257.43 2585.94 3227.12 1 -1 0
275 1 3057.72 2419.33 1576.56 -1 0 1
276 1 2936.65 2737.93 1285.32 -1 -1 0
277 1 2663.28 2684.12 1785.08 0 0 1
278 1 1280.7 1391.34 2913.91 0 0 -1
279 1 2272.07 2833.89 2422.54 0 -1 0
280 1 2426.67 2450.33 3319.1 -1 0 -1
281 1 1686.51 3051.76 2753.4 0 -1 0
282 1 1770.33 2234.88 3114.14 0 -1 0
283 1 2237.47 3558.44 3662.81 0 -1 -1
284 1 1978.05 2182.86 3496.62 0 0 -1
285 1 3747.19 2844.87 3126.31 -1 0 -1
286 1 3089.53 1875.22 3105.01 -1 1 0
287 1 2931.68 1768.2 1502.09 0 0 0
288 1 2255.19 2264.36 2836.95 1 0 0
289 1 1950.02 2803.55 2778.06 0 -1 0
290 1 3239.34 2475.33 2270.91 -1 -1 0
291 1 2126.12 2783.76 2434.93 -1 -1 0
292 1 3543.26 2119.55 2891.26 -1 0 -1
293 1 2693.55 2584.92 2581.17 0 0 1
294 1 2575.92 2719.11 2727.75 0 -1 -1
295 1 1673.1 3589.55 2566.99 0 -1 0
296 1 3511.74 2475.64 3117.19 0 0 0
297 1 3058.33 2250.44 2616.23 -1 0 0
298 1 2329.33 2423.29 2667.7 0 0 0
299 1 1444.84 1993.59 2570.97 1 0 0
300 1 1831.14 2438.9 3574.42 0 0 0
301 1 2289.7 2464.16 2613.4 -1 0 -1
302 1 3574.11 1701.03 1341 -1 0 0
303 1 3221.93 3627.67 1596.6 0 -1 0
304 1 2194.6 2955.52 3442.12 1 -1 -1
305 1 2360.93 1531 3476.03 0 0 -1
306 1 1399.72 3587.12 1311.68 0 -1 0
307 1 3383.32 2391.94 1764.42 -1 0 -1
308 1 1387.05 1464.08 1279.91 0 0 0
309 1 2729.75 3179.22 2236.91 0 0 -1
310 1 1518.35 1726.37 2870.26 0 0 -1
311 1 1984.95 2977.83 1324.98 0 -1 -1
312 1 3025.58 2252.6 2658.85 0 -1 1
313 1 1944.61 1830.42 3336.17 0 -1 -1
314 1 1527.53 2256.52 3050.64 1 0 0
315 1 1646.28 1537.11 2758.96 0 0 0
316 1 3084.61 3117.95 1367.2 -1 0 0
317 1 2043.14 3023.32 2660.83 1 0 -1
318 1 3695.23 3387.39 2963.18 0 -1 -1
319 1 3149.78 2007.41 1362.85 -1 0 0
320 1 2404.17 2764.42 2808.18 0 -1 0
321 1 2710.62 2130.93 3582.85 -1 0 0
322 1 2207.86 2459.21 1456.24 0 -1 0
323 1 1766.85 1867.95 3173.08 0 0 -1
324 1 3672.5 2257.13 1333.09 0 0 0
325 1 1894.82 3514.09 3088.52 0 0 0
326 1 2810.33 2935.67 3069.92 0 0 -1
327 1 2644.55 3310.06 2670.84 0 -1 0
328 1 1940.31 2086.87 2579.61 0 0 0
329 1 1918.54 2920.32 1796.76 0 0 0
330 1 2771.34 2531.4 2933.77 0 0 0
331 1 2459.34 2617.28 1789.82 -1 0 0
332 1 2149.9 3010.9 3370.53 0 -1 -1
333 1 3080.46 2515.21 3201.45 0 0 0
334 1 3119.41 3756.39 3524.81 -2 -1 0
335 1 2552.93 3110.63 2359.28 0 0 0
336 1 2438.76 2314.71 3712.53 0 -1 -1
337 1 1388.33 2384.13 2038.13 0 0 0
338 1 2801.08 2833.87 3643.74 0 -1 -1
339 1 3059.07 2786.89 3403.67 0 -1 0
340 1 2383.33 2419.8 2662.33 0 -1 0
341 1 2813.74 3572.48 3426.54 0 -1 -2
342 1 2956.26 3042.98 3186.58 0 -1 0
343 1 2897.31 1824.4 3084.51 1 -1 0
344 1 3186.09 3267.83 3249.37 0 -1 -1
345 1 2570.6 2157.83 1245.23 0 0 0
346 1 2790.46 2373.18 1430.08 0 -1 0
347 1 2477.31 2420.8 3001.1 -1 0 -1
348 1 2010.4 2492.58 2615.17 -1 -1 -1
349 1 2970.54 2709.17 2662.83 -1 0 0
350 1 2109.25 2167.01 1793.46 0 1 0
351 1 1780.57 1282.03 3415.25 0 0 -1
352 1 2280.46 2150.22 3320.79 0 1 0
353 1 3288.05 2681.39 2298.65 0 -1 0
354 1 2009.84 2675.39 2241.95 0 0 0
355 1 2290.49 2913.56 3280.86 0 -1 -1
356 1 2105.18 3400.98 1396.83 0 -1 0
357 1 1949.03 3108.42 3011.57 0 -1 -1
358 1 3275.28 3740.51 2066.82 -1 -1 0
359 1 2701.96 2192.42 3121.48 0 0 0
360 1 2042.31 1306.77 3688.03 0 1 -1
361 1 3617.5 2635.44 2247.79 -1 0 0
362 1 2986.88 2684.81 2960.07 0 -1 0
363 1 2523.19 2312.35 3389.2 0 0 -1
364 1 2996.57 2823.17 3208.83 -1 0 0
365 1 1961.39 3479.29 2897.94 0 -1 0
366 1 1736.18 2646.6 1454.59 0 0 0
367 1 2119.51 2617.74 3059.69 0 -1 -1
368 1 2714.64 1585.75 2635.09 -1 0 0
369 1 3362.66 2857.34 2779.29 0 0 -1
370 1 3468.34 2944.76 2022.13 -2 0 0
371 1 3581.52 2054.08 1702.76 -1 0 0
372 1 3203.54 3222.07 3686.34 -1 -1 -1
373 1 3040.75 2684.61 2963.27 0 1 0
374 1 2541.38 1612.14 2589.42 0 0 0
375 1 3344.81 1338.92 2254.33 0 0 -1
376 1 2816.87 2731.55 2506.36 0 1 0
377 1 3452.32 2485.23 2257.25 0 0 0
378 1 2230.66 1677.29 3125.99 0 1 -1
379 1 3132.27 2580.57 2097 -1 -1 0
380 1 2679.96 1982.53 1741.72 -1 0 0
381 1 2134.14 2568.87 3356.16 0 0 -1
382 1 3501.01 3069.68 2933.09 -1 -1 0
383 1 2850.74 2220.45 2267.08 -1 0 0
384 1 3015.85 2941.21 2315.04 0 -1 0
385 1 3269.97 2861.7 2242.45 0 0 0
386 1 3021.28 3234.46 2651.26 -1 0 0
387 1 3283.34 2289.52 2910.14 -1 0 -1
388 1 1243.81 2880.07 3087.95 0 0 -1
389 1 2411.31 2524.17 1429.74 0 0 0
390 1 1313.69 2736.52 1256.78 0 -1 0
391 1 2367.37 1663.2 1445.17 0 0 0
392 1 1608.83 2585.58 3253.1 -1 -1 -1
393 1 2639.49 2384.8 2803.1 0 0 1
394 1 1655.35 1967.33 3471.19 1 0 -1
395 1 2436.31 2428.62 1823.22 0 -1 -1
396 1 1349.53 2969.05 2628.19 1 0 0
397 1 2930.27 2981.01 1323.44 -1 0 0
398 1 2065.48 2398.89 3015.83 0 -1 0
399 1 1901.78 1439.3 3001.29 0 0 0
400 1 2032.13 2263.93 2845.81 -1 0 -1
401 1 2511.83 2440.84 2404.8 0 0 -1
402 1 2073.07 2590.01 3728.85 0 0 -2
403 1 1401.17 1873.84 3337.44 0 0 -1
404 1 2651.54 2758.15 1995.45 0 0 0
405 1 2764.1 3336.74 2967.05 -1 0 0
406 1 1911.82 3068.46 2180.03 0 -1 0
407 1 1577.75 3144.1 3126.56 -1 -1 0
408 1 3669.93 2359.82 3118.6 0 0 -1
409 1 3437.88 2756.35 2599 0 -1 -1
410 1 2637.78 2120.77 2402.65 0 0 -1
411 1 1935.84 1826.4 1748.6 0 0 0
412 1 2352.06 3296.09 3002.02 0 0 0
413 1 1384.33 2753.29 3058.75 0 0 -1
414 1 1780.52 3016.39 2981.9 0 -1 -1
415 1 1823.84 2325.47 2924.9 0 0 -1
416 1 2708.54 2757.68 1332.82 0 0 0
417 1 1483.09 1900.73 2378.63 -1 0 -1
418 1 3651.87 3254.39 1799.74 -1 0 1
419 1 2066.14 2604.92 2540.98 0 0 0
420 1 3461.9 3016.32 2276.46 -2 -1 -1
421 1 3047.98 2553.81 1451.6 -1 0 0
422 1 1413.08 3256.66 1635.35 0 -1 0
423 1 3337.61 2840.69 1364.21 0 -1 0
424 1 1764.44 3015.18 3515.72 0 -1 -1
425 1 2315.22 3030.66 3617.11 0 0 -1
426 1 3015.96 2655.57 2925.23 -1 0 -1
427 1 3437.82 2206.04 2128.67 -1 -1 0
428 1 2283.11 3172 2617.41 0 -1 -1
429 1 3108.77 2913.95 2107.65 -1 0 0
430 1 1835.72 1582.26 2125.66 0 -1 0
431 1 2675.38 2339.23 1288.35 0 0 0
432 1 1704.88 3019.23 2156.26 0 -1 0
433 1 2088.42 2773.06 2471.77 -1 -1 -1
434 1 3407.73 2814.69 2393.98 -1 0 0
435 1 3029.13 1825.51 3310 -1 0 0
436 1 3121.64 2820.36 1309.62 -1 0 0
437 1 2863.69 2084.36 1754.39 0 1 0
438 1 3704.74 2505.35 2745.24 -1 -1 -1
439 1 3006 2339.86 1550.09 0 0 0
440 1 3300.4 1723.98 3381.34 -1 0 -1
441 1 2879.39 1573.87 3446.25 -1 0 -1
442 1 1545.6 2607.33 2938.07 0 0 0
443 1 3342.26 2535.74 3344.28 0 -1 0
444 1 2986.7 2738.51 1785.83 -2 0 0
445 1 2378.93 3190.74 2597.8 0 -1 0
446 1 3187.89 1668.76 3587.81 -1 0 -1
447 1 2716.56 2819.6 2670.58 0 0 0
448 1 1787.27 2821.48 2168.54 -1 -1 0
449 1 2162.87 2445.52 1482.6 -1 0 0
450 1 1705.92 2394.19 3410.21 0 0 -1
451 1 1755.14 2864 2849.46 0 -1 -1
452 1 1969.63 2044.11 3356.15 0 0 0
453 1 3407.02 3386.48 2338.38 -1 0 0
454 1 1702.35 2068.47 2109.67 0 0 -1
455 1 2813.87 2641.95 3480.66 -1 0 -1
456 1 3176.35 1426.68 1303.13 0 1 0
457 1 2494.03 2896.25 2389.91 0 -1 -1
458 1 1646.72 2003.87 3220.97 0 1 -1
459 1 1837.68 2421.24 2042.64 0 -1 -1
460 1 3460.39 2475.45 2594.41 -1 -1 0
461 1 3007.4 2847.7 2503.27 0 -1 0
462 1 3217.15 2907.01 2636.53 -1 0 -1
463 1 3610.6 1809.1 3203.53 -1 0 -1
464 1 2776.54 2688.28 2744.11 0 0 0
465 1 1300.01 2846.67 2424.04 1 0 -2
466 1 2921.03 3230.71 2814.5 -1 -1 0
467 1 2793.23 2637.82 1478.21 0 1 0
468 1 3491.13 2978.53 1382.07 0 -1 1
469 1 3096 2537.98 2727.96 0 -1 -1
470 1 3087.1 3277.73 1507.28 -1 -1 -1
471 1 3095.29 2743.98 2234.93 0 0 0
472 1 2882.37 3183.01 1374.69 0 -1 0
473 1 1276.12 2340.63 3306.8 1 -1 0
474 1 3196.89 2274.32 3038.86 -2 -1 -1
475 1 3027.55 2529.89 1754.96 0 -1 0
476 1 3088.49 3701.56 1847.3 -1 -1 0
477 1 3475.96 2255.74 1702.97 0 -1 -1
478 1 2677.55 2483.35 1700.41 -1 -1 0
479 1 2676.69 1360.13 2187.08 0 0 -1
480 1 3561.25 2111.15 2438.91 -1 0 0
481 1 3161.59 1430.57 1251.26 0 1 1
482 1 2740.14 1681.39 3070.76 0 -1 -1
483 1 3230.99 2077.24 3002.6 -1 1 0
484 1 2921.35 3147.92 2264.72 -1 -1 0
485 1 2270.01 3403.02 2660.74 -1 -1 -1
486 1 3684.98 3158.81 1438.24 -1 -1 0
487 1 2844.1 2352.03 2878.11 -1 0 -1
488 1 1941.46 1414.48 2503.75 0 0 0
489 1 3418.07 2752.75 1924.29 -1 0 0
490 1 3222.53 2361.62 3266.48 -1 0 -1
491 1 2726.1 2866.05 2842.86 0 0 -1
492 1 2990.75 2557.73 3726.98 0 -1 0
493 1 2851.05 2435.38 2347.2 -1 0 0
494 1 2236.9 2345.71 3399.38 1 -1 0
495 1 3263.3 2970 1972.76 0 -1 0
496 1 3069.6 2660.15 2924.97 1 0 0
497 1 2691.94 3669.8 2714.9 -1 -1 0
498 1 2809.77 3202.9 2629.97 0 -1 0
499 1 2218.33 2512 1459.25 -1 0 -1
500 1 2821.08 3335.85 2224.78 0 -1 -1
501 1 2463.62 2849.13 2595.41 -1 0 -1
502 1 1428.05 3218.02 3168.07 -1 0 0
503 1 2481.25 2459.4 3037.88 0 0 0
504 1 2106.43 2635.68 2522.63 0 0 0
505 1 1836.77 2469.69 3617.34 -1 0 -1
506 1 1315.21 1937.46 2037.35 -1 0 0
507 1 3567.7 1780.55 3219.71 -1 0 -1
508 1 1594.01 1447.47 1633.64 0 0 -1
509 1 1608.88 1507.5 2525.86 0 0 0
510 1 2783.92 2267.35 2682.32 -1 -1 -1
511 1 3678.76 3303.68 2447.99 0 0 -1
512 1 1493.75 3335.75 3498.88 0 -1 -1
513 1 3269.05 2508.35 1745.23 0 -1 0
514 1 2932.52 2076.23 2147.56 -2 0 1
515 1 2482.74 1990.69 2407.68 -1 0 -1
516 1 2537.12 3654.57 2800.4 -1 -1 0
517 1 3220.3 3192.3 3504.51 0 -1 -1
518 1 1921.18 3039.61 2828.77 0 0 -1
519 1 2733.77 2639.95 2343.91 0 0 0
520 1 3278.38 2985.61 1361.86 -1 0 0
521 1 2513.58 2335.46 1390.49 -1 0 1
522 1 2473.46 2650.32 1995.56 -1 0 0
523 1 3248.92 3152.19 1500.73 0 0 0
524 1 2699.46 2376.14 2497.09 -1 -1 0
525 1 3304.45 1949.97 3184.88 0 0 -1
526 1 1851.77 2284.06 2715.8 0 0 0
527 1 1242.23 2039.56 3059.54 0 -1 -1
528 1 3440.75 2391.47 2073.62 0 1 0
529 1 2497.67 2657.62 1284.24 -1 -1 0
530 1 1689.01 2822.78 2645.64 0 0 0
531 1 1961.47 3681.39 1589.64 0 -1 0
532 1 3425.83 2646.96 1732.11 -1 0 0
533 1 3305.57 1355.75 2221.36 -1 0 -1
534 1 2266.25 1245.85 3024.22 0 0 -1
535 1 2757.8 3615.07 2479.71 -1 -2 0
536 1 2149.63 2580.96 1910.08 -1 0 0
537 1 2816.48 3210.47 2052.2 -1 -1 0
538 1 1735.66 1798.83 3357.49 0 0 -1
539 1 3323.47 2398.21 2754.91 -2 0 -1
540 1 2903.61 3436.67 2405.58 0 0 0
541 1 2483.5 3143.82 3034.08 0 0 -1
542 1 2296.7 2851.95 2378.07 0 -1 0
543 1 2192.26 2780.93 2694.18 0 0 -1
544 1 3220.09 1661.97 3195.17 -1 1 -1
545 1 2105.06 2980.98 2841.84 -1 0 -1
546 1 3499.48 1547.79 1475.92 -1 0 0
547 1 2477.49 2240.65 2332.4 0 -1 0
548 1 1594.3 1728.27 3204.5 0 0 0
549 1 2783.55 2500.67 3489.44 0 0 0
550 1 1903.39 2100.05 1405.1 0 0 0
551 1 2279.52 2786.96 1497.6 0 -1 0
552 1 2744.69 3637.87 3638.52 0 -1 -1
553 1 3065.82 2719.2 3643.2 -1 0 -1
554 1 2212.79 2403.77 2677.65 0 0 0
555 1 1859.08 2254.41 3356.91 0 0 0
556 1 2570.05 3149.5 2549.01 0 0 -1
557 1 2774.13 2694.78 2151.78 -1 0 0
558 1 2561.33 3571.86 2583.58 -1 0 -1
559 1 2556.98 3342.42 3036.81 -1 0 0
560 1 1643.41 2923.69 1246.36 0 0 0
561 1 3517.51 2314.62 2463.45 -1 -1 -1
562 1 1794.82 3536.78 3660.09 0 0 -1
563 1 3664.28 2509.49 3001.44 -1 0 0
564 1 2613.26 2816.13 3545.72 0 1 -1
565 1 3581.1 2711.43 3540.81 0 0 -1
566 1 3585.35 2087.07 2900.08 -1 0 1
567 1 2561.13 1458.67 2983.64 0 0 0
568 1 3227.32 3112.8 2563.14 -1 -1 -1
569 1 2790.37 2086.56 3287.65 0 0 0
570 1 1486.01 3106.26 2717.82 0 -1 0
571 1 3107.74 2958.75 1478.1 -1 -1 0
572 1 2571.61 2866.81 2798.28 -1 -1 0
573 1 2087.35 2225.03 3331.4 1 0 -1
574 1 3149.6 3399.41 3632.44 -1 0 0
575 1 1625.68 2368.63 3178.08 0 0 0
576 1 3565.84 2117.36 2940.14 0 -1 -1
577 1 3461.32 2631.86 2423.02 -1 -1 -1
578 1 1294.75 2675.31 2306.29 1 0 1
579 1 3087.93 3597.61 2570.11 0 0 -1
580 1 2310.78 2804.38 2399.27 0 1 1
581 1 1567.6 2154.19 2431.2 -1 0 0
582 1 3260.89 3344.64 2196.02 0 -1 0
583 1 2533.34 2403.59 2372.34 0 0 0
584 1 3512.65 3201.39 2306.77 0 0 1
585 1 3252.83 3391.8 3433.61 -1 -1 -1
586 1 3165.55 1994.15 3676.21 -1 -1 -2
587 1 1271.39 2038.71 2691.12 1 0 -1
588 1 1732.82 2347.84 1702.82 0 0 0
589 1 2997.55 3267.25 3672.49 1 -1 0
590 1 3558 2827.57 1711.46 -1 -1 1
591 1 2019.62 1612.57 3337.22 -1 -1 -1
592 1 1655.32 2231.04 2875.5 0 0 0
593 1 1433.57 2046.38 3168.58 0 0 0
594 1 1934.79 3313.87 3108.66 -1 1 0
595 1 3091.34 1280.33 3178.03 -1 0 -1
596 1 3013.91 2390.9 1564.43 1 0 0
597 1 2774.3 2605.55 3489.36 0 0 0
598 1 3133.01 3476.22 1477.97 0 -1 0
599 1 2184.32 3636.31 2638.92 -1 -1 0
600 1 3126.18 1926 2908.35 -1 0 -1
601 2 3727.12 2275.98 1570.7 -1 0 0
602 2 1591.31 1715.83 2150.22 1 0 0
603 2 3233.65 3479.83 1952.38 -1 0 1
604 2 3344.13 3279.03 3008.69 0 -1 0
605 2 1351.13 1305.29 3550.55 0 0 0
606 2 1293.99 2600.22 2028.36 1 0 0
607 2 1931.82 2658.88 1948.16 0 0 0
608 2 2885.99 3426.1 2617.88 0 -1 0
609 2 3122.33 2021.52 2318.1 0 0 0
610 2 2699.71 3156.02 3183.4 0 0 0
611 2 1434.53 3130.19 1385.37 0 0 1
612 2 2464.84 3667.62 2093.46 0 -1 0
613 2 1765.01 2592.2 2760.43 0 0 -1
614 2 2648.07 1818.36 2543.33 0 0 0
615 2 1324.83 2791.64 3477.45 0 0 0
616 2 3634.27 3604.12 1314.77 0 0 0
617 2 1434.59 3076.95 2040.09 0 -1 0
618 2 2449.76 3590.75 3129.19 0 0 0
619 2 2873.08 1840.91 2784.62 0 1 0
620 2 3680 3581.77 2434.81 -1 0 0
621 2 1249.29 3614.83 2978.87 0 0 -1
622 2 2167.4 3662.76 1378.64 0 0 0
623 2 2173.21 2579.68 3410.92 0 0 -1
624 2 1261.57 2277.79 2858.04 0 0 -1
625 2 2758.14 1656.38 3642.64 0 0 0
626 2 1459.13 3370.71 2931.75 1 0 -1
627 2 1758.71 1292.99 2671.3 0 1 0
628 2 3462.58 2602.66 2817.46 -1 0 0
629 2 2137.07 1743.05 2160.11 0 0 0
630 2 2544.89 1419.22 1909.62 0 1 0
631 2 3448.17 1520.09 3238.85 0 1 0
632 2 1981.97 3285.67 1729.49 0 -1 0
633 2 1423.29 3295.62 2319.03 0 -1 0
634 2 3304.8 2800.37 3026.18 -1 0 0
635 2 1385.34 1402.25 2116.46 0 0 0
636 2 2945.75 1558.24 3152.28 -1 0 0
637 2 1456.1 2011.28 2857.47 1 0 -1
638 2 1352.77 1672.53 1932.5 0 0 0
639 2 3404.4 3052.73 3590.91 0 0 0
640 2 2723.9 3730.09 2947.36 0 0 0
641 2 2254.23 1731.33 2697.55 0 0 0
642 2 2558.89 3252.98 1721.75 0 -1 0
643 2 1392.96 1276.01 2403.53 0 0 0
644 2 3675.19 2576.05 1578.62 -1 0 1
645 2 2587.75 3369.81 2069.9 0 -1 0
646 2 2070.28 3270.72 2049.93 0 -1 0
647 2 1959.81 1896.27 3582.38 0 0 0
648 2 2563.73 2720.99 2982.3 0 0 0
649 2 3367.64 1860.69 1274.28 -1 0 0
650 2 3400.47 2199.85 2185.32 0 0 0
651 2 3562.75 1837.15 1876.31 -1 0 0
652 2 1385.92 1373.86 1790.09 0 0 0
653 2 3097.7 2497.21 3451.77 0 0 -1
654 2 2500.07 3544.99 3703.97 0 -1 -1
655 2 2565.52 1673.76 2816.66 0 0 0
656 2 2852.27 1509.68 2842.69 0 0 0
657 2 3332.78 1748.46 2930.43 -1 0 -1
658 2 2647.86 2066.38 2849.45 -1 0 -1
659 2 1281.31 1762.55 2741.64 1 0 0
660 2 2353.87 2186.01 1662.26 0 0 0
661 2 2678.29 1324.52 1632.05 0 0 0
662 2 1621.98 1536.32 1354.12 0 0 0
663 2 1583.09 3066.09 2458.61 0 -1 0
664 2 2636.42 3347.39 3464.28 0 0 -1
665 2 2426.13 2315.09 2040.05 0 0 0
666 2 2606.08 3568.44 1821.43 0 -1 0
667 2 2990.11 1269.47 1582.25 0 0 0
668 2 1604.37 2244.46 1925.09 0 0 0
669 2 3477.51 2269.02 3305.93 -1 0 0
670 2 1955.56 1449.62 3041.84 0 0 -1
671 2 2934.52 1485.25 1341.81 0 0 1
672 2 1605.98 2577.51 2018.92 0 0 0
673 2 2182.73 2225.67 2359.65 0 0 0
674 2 3635.85 1274.53 1953.53 -1 0 0
675 2 3195.06 2986.77 3305.61 -1 0 0
676 2 2626.06 1606.27 1445.07 0 0 0
677 2 1771.27 3200.85 1936.05 0 -1 0
678 2 3483.01 3109.03 1609.51 -1 -1 0
679 2 1747.59 3274.97 3483.42 0 0 0
680 2 3369.76 1624.52 2000.81 -1 0 0
681 2 2161.17 3452.42 3073.27 0 0 0
682 2 3061.78 2283.41 2116.64 0 0 0
683 2 2341.73 3149.54 2643.91 0 -1 0
684 2 1533.52 3399.56 2040.58 0 -1 0
685 2 1587.75 3548.25 3453.39 0 0 -1
686 2 1579.67 2414.11 1454.17 0 0 0
687 2 2529.98 3052.62 3417.12 -1 -1 0
688 2 3162.76 3337.03 2440.29 -1 -1 0
689 2 1914.97 3537.25 3354 0 -1 0
690 2 3589.06 3315.96 3702.68 0 1 -1
691 2 2638.52 2217.54 1826.58 -1 0 0
692 2 1799.15 1252.81 3125.76 0 0 -1
693 2 3482.26 3594.33 2157.5 -1 -1 0
694 2 1468.21 2845.83 2795.42 0 0 0
695 2 2810.69 1886.93 1941.89 0 0 0
696 2 2323.94 1324.53 3258 0 1 0
697 2 1577.63 1754.9 2588.61 0 0 0
698 2 1626.87 2382.55 2526.6 1 0 0
699 2 2453.67 1294.18 1381.65 0 0 0
700 2 1281.69 2453.47 1332.4 0 0 0
701 2 3750.63 3057.47 2767.74 0 -1 -1
702 2 1463.46 2447.8 2284.39 0 0 0
703 2 1710.28 3466.87 1782.88 0 0 0
704 2 2033.82 3378.34 2347.64 0 -1 0
705 2 1763.99 1598.02 2978.76 0 0 -1
706 2 1575.22 2622.28 3739 0 0 0
707 2 1563.65 3349.8 2621.77 0 -1 0
708 2 1475.55 2662.34 2516.97 1 0 0
709 2 1466.12 1271.87 3248.12 0 0 0
710 2 2841.66 1354.48 3590 0 0 -1
711 2 1694.31 3222.43 1567.94 0 -1 0
712 2 1951.62 2773.26 3363.55 0 0 -1
713 2 2275.72 2429.01 2670.1 0 0 -1
714 2 3090.64 1648.31 2173.26 -1 0 0
715 2 2602.97 2120.36 1501.09 0 0 0
716 2 2187.66 3145.58 1302.57 0 0 0
717 2 3345.61 1265.59 3642.02 -1 0 -1
718 2 2749.37 2394.19 2058.13 -1 0 0
719 2 1648.44 1509.07 1903.11 0 0 0
720 2 1270.89 1675.48 3654.4 0 0 -1
721 2 3626.86 2404.7 1844.95 0 0 0
722 2 3728.48 3304.42 2019.2 -1 -1 0
723 2 2784.95 3413.33 3757.75 0 0 -1
724 2 3343.33 3576.92 2515.6 0 -1 0
725 2 2005.1 3714.44 2880.34 0 -1 -1
726 2 2102.67 2011.78 1552.12 0 0 0
727 2 3506.97 2400.92 1370.67 -1 0 0
728 2 2138.5 1933.89 2424.39 0 0 0
729 2 3159.69 1341.19 2482.97 -1 0 0
730 2 3181.65 3049.11 1713.9 -1 -1 0
731 2 2179.23 2830.93 3724.73 0 0 0
732 2 3614.73 1400.73 3748.49 -1 0 -1
733 2 2077.3 1371.71 1650.77 0 1 0
734 2 1453.55 2101.21 2158.04 0 0 0
735 2 2303.75 1448.94 2499.71 0 0 0
736 2 2041.49 3613.51 1824.56 0 -1 0
737 2 1954.13 2957.97 1840.94 -1 0 0
738 2 3565.26 2939.37 3338.43 0 0 0
739 2 2084.6 3274.72 3329.7 0 0 0
740 2 3105.08 1446.71 1934.21 0 0 0
741 2 2735.66 1785.29 3287.46 -1 1 0
742 2 2524.71 1883.4 1255.2 0 0 0
743 2 3720.43 1861.6 2440.22 -1 0 0
744 2 2642.89 2090.44 2101.41 0 0 0
745 2 2017.21 3365.42 3621.25 0 0 -1
746 2 1996.05 2687.68 1443.46 0 0 0
747 2 2934.83 3205.26 3381.43 0 0 -1
748 2 2397.28 1490.99 1642.66 0 0 0
749 2 2057.37 1800.4 2903.41 0 0 0
750 2 1369.29 1595.63 2385.25 0 0 0
751 2 3714.97 2776.54 2652.18 0 0 -1
752 2 3327.73 1273.74 2767.58 0 1 0
753 2 1340.68 2163.02 1859.75 0 0 0
754 2 2901.82 2298.77 3607.5 -1 0 0
755 2 2226.43 1873.32 3255.5 0 0 0
756 2 2648.71 3360.3 2383.13 0 -1 0
757 2 2324.05 2014.7 2202.35 0 0 0
758 2 3486.51 3526.64 2846.31 -1 -1 0
759 2 2839.07 1273.3 1907.87 0 0 0
760 2 2468.34 2720.92 3295.66 0 0 -1
761 2 1806.88 3475.06 1413.97 0 -1 0
762 2 1860.59 1838.45 2023.11 0 0 0
763 2 1468.32 1836.31 1354.62 0 0 0
764 2 2312.24 3104.23 1885.73 0 -1 0
765 2 1723.5 2269.52 2239.46 0 0 0
766 2 3526.19 1783.38 1527.06 -1 0 0
767 2 2337.6 1649.49 1916.91 0 1 0
768 2 1677.5 1409.17 2242.13 0 0 0
769 2 1590.88 3703.07 1976.3 0 -1 0
770 2 1298.13 2205.03 2436.12 1 -1 0
771 2 1387.41 2962.93 3250.79 1 0 -1
772 2 1739.43 1948.39 2330.55 0 0 0
773 2 3201.68 1470.83 1289.64 -1 0 1
774 2 1562.85 3384.68 3717.81 0 -1 -1
775 2 3644.91 3717 1646.28 -1 -1 0
776 2 3066.97 2986.43 3562.28 -1 0 -1
777 2 3556.1 2693.13 1290.93 -1 0 0
778 2 1872.67 2034.06 2903.12 0 0 -1
779 2 3041.2 1791.74 1249.03 -1 0 0
780 2 3241.93 2580.1 1261.6 -1 0 0
781 2 3389.52 1277.82 1446.7 -1 0 0
782 2 2507.54 1984.88 3218.79 0 0 0
783 2 1669.46 3392.84 3183.82 0 -1 -1
784 2 1386.27 1468.45 2662.51 0 0 -1
785 2 3304.26 3353.02 1661.39 -1 -1 0
786 2 1521.42 1690.49 1654.34 1 0 0
787 2 2568.51 2943.48 1774.02 0 0 0
788 2 2344.61 1890.32 2967.24 0 0 0
789 2 1410.85 1974.75 3590.83 0 0 -1
790 2 3639.59 1685.74 2209.06 -1 0 0
791 2 3498.82 1268.79 3043.03 0 0 -1
792 2 1843.42 2487.84 3682.23 0 0 -1
793 2 1801.39 1456.71 3616.76 0 0 0
794 2 3326.77 1592.95 2669.6 -1 0 0
795 2 1759.3 3255.49 2868.24 0 0 0
796 2 1438.24 2499.51 3414.32 0 0 -1
797 2 3340.42 3734.27 3302.99 -1 -1 -1
798 2 1715.77 3587.98 2868.6 0 0 0
799 2 3425.87 1967.48 3383.62 -1 1 -1
800 2 3440.28 3206.83 3322.03 -1 0 -1
801 2 2150.66 2114.08 3041.7 0 0 0
802 2 1562.85 1344.72 2926.78 0 1 0
803 2 2558.56 3516.51 1500.9 0 -1 0
804 2 2498.13 2930.35 2094.46 0 -1 0
805 2 2095.39 1425.09 2248.56 0 0 0
806 2 3684.8 3000.72 1849.07 -1 -1 0
807 2 3487.53 3511.77 3495.02 -1 0 -1
808 2 3060.31 2240.2 1764.84 -1 0 0
809 2 3579.15 1540.99 2860.19 0 0 0
810 2 2439.55 1570.96 3702.52 0 0 -1
811 2 1442.06 1578.17 3376.75 1 0 0
812 2 2619.64 1492.2 3391.85 0 0 -1
813 2 2302.63 1501.1 2905.22 0 0 0
814 2 1681.69 2866.98 1900.59 0 0 0