ITEM: TIMESTEP
232000
ITEM: NUMBER OF ATOMS
1000
ITEM: BOX BOUNDS pp pp pp
1.6644121972051801e+03 3.3355878027938797e+03
1.6644121972051801e+03 3.3355878027938797e+03
1.6644121972051801e+03 3.3355878027938797e+03
ITEM: ATOMS id type x y z ix iy iz
1 2 2933.06 2901.53 2240.51 0 0 0
2 2 2177.2 1748.06 2812.65 0 1 -1
3 2 2331.34 3129.44 1739.28 0 -1 1
4 2 2015.95 2419.54 2884.98 0 0 -1
5 2 3100.55 3149.14 2978.15 0 -1 -1
6 2 2265.41 2511.96 2144.87 -1 0 -1
7 2 2256 2515.51 2439.28 0 0 0
8 2 3305.16 3167.58 2752.04 -1 0 0
9 2 3115.75 2777.47 2472.99 -1 0 0
10 2 2195.74 3057.97 2906.92 0 0 0
11 2 2713.42 2405.5 3213.68 0 0 0
12 2 3273.7 2994.1 2717.13 -1 0 -1
13 2 3325.98 2435.97 1770.24 0 0 1
14 2 1704.46 3003.68 2181.28 0 0 0
15 2 2900.65 1754.06 3052.51 0 0 -1
16 2 2004.83 3152.93 1741.4 0 -1 0
17 2 2613.72 2213.01 2838.88 2 1 0
18 2 2435.7 2486.95 3083.2 0 1 -1
19 2 2510.34 2005.14 3123.45 0 0 0
20 2 2875.13 3258.27 2834.76 0 0 0
21 2 2205.38 2764.52 1747.63 0 1 1
22 2 3320.7 2849.58 1980.89 -1 0 1
23 2 2767.33 2912.08 2197.35 -1 1 0
24 2 3329.41 1957.6 3058.98 0 0 -1
25 2 2508.85 3283.38 3204.78 0 0 0
26 2 2643.96 2302.73 2526.54 0 0 1
27 2 3329.32 2872.39 3050.9 -1 0 0
28 2 3293.69 2584.12 3147.22 -1 0 0
29 2 2915.48 2344.68 2785.76 -1 1 0
30 2 2988.37 1913.81 3053.62 -1 1 0
31 2 1672.26 3046.6 2888.95 0 -1 0
32 2 1755.48 3242.77 2844.75 0 0 0
33 2 2362.48 2187.87 2298.56 0 0 0
34 2 2405.66 1863.27 3070.78 0 1 0
35 2 2675.17 2919.06 3261.96 0 -1 0
36 2 2529.7 3297.94 2839.68 0 0 0
37 2 2051.11 3312.13 2824.92 0 -1 0
38 2 3066.34 2663.4 3043.13 -1 1 -1
39 2 2984.47 2678.9 2040.03 -1 1 0
40 2 2389.19 2177.77 2900.4 0 -1 0
41 2 1777.58 2757.22 2077.42 1 -1 0
42 2 3034.27 2475.91 3243.81 -1 0 -1
43 2 1890.81 2575.12 2351.09 1 0 1
44 2 2836.97 2922.9 3187.69 1 -1 0
45 2 1779.6 2556.65 2215.85 0 0 0
46 2 2891.4 1690.11 2383.19 0 1 0
47 2 2947.08 2578.06 2359.24 -1 0 0
48 2 3167.53 2729.23 1697.56 0 0 0
49 2 2824.15 2625.34 3104.25 0 0 0
50 2 2621.97 2770.84 1745.74 0 0 1
51 2 2866.89 1728.99 2733.58 -1 1 1
52 2 2821.22 2487.66 2146.65 0 0 0
53 2 2300.38 2617.17 1770.05 0 0 1
54 2 2199.95 3291.45 2919.24 0 0 0
55 2 2743.28 1787.51 2593.46 0 0 -1
56 2 2196.62 2222.54 2278.71 0 0 0
57 2 1875.45 2701.57 2948.92 0 0 -1
58 2 3248.84 2292.86 2770.18 -1 0 0
59 2 2814.62 2701.95 1924.22 -1 2 0
60 2 2238.81 2957.8 1690.5 0 0 0
61 2 2928.53 2469.81 2842.52 -1 0 0
62 2 3150.21 3052.76 3172.23 0 -1 0
63 2 3279.83 2951.46 3185.71 -1 0 0
64 2 3061.51 2591.72 1708.45 0 0 1
65 2 2597.29 2305.75 2700.53 0 -1 0
66 2 3198.55 1972.9 2867.74 0 0 -1
67 2 2721.56 1735.73 3060.2 0 1 1
68 2 2042.69 2648.88 2702.06 0 0 1
69 2 2791.46 2025.99 3240.09 0 0 -1
70 2 2094.58 2942.28 2826.94 0 0 0
71 2 3241.2 1677.74 1739.43 -1 0 1
72 2 2588.27 2629.35 2488.78 -1 -1 0
73 2 2866.77 1674.84 2020.39 -2 -1 0
74 2 2296.57 3239.69 3116.56 0 0 -1
75 2 2906.73 2155.84 3287.14 0 0 -1
76 2 2842.42 2443.65 2336.86 0 -1 0
77 2 2878.56 1938.64 1699.31 -1 1 1
78 2 3311.97 1846.36 2916.17 -1 0 0
79 2 2888.08 2736.33 2982.58 -1 0 -1
80 2 2336.35 2812.9 3312.93 0 0 -2
81 2 2642.09 1723.25 2737.56 0 2 0
82 2 2731.99 3217.32 2163.43 -1 0 -1
83 2 2431.38 3074.93 2612.94 0 0 0
84 2 2830.61 1965.54 3094.8 1 1 0
85 2 2761.98 1859.01 3273.36 0 1 -1
86 2 3159.89 2537.36 1930.02 -1 0 1
87 2 1921.57 2526.8 2644.76 1 0 0
88 2 2999.51 2733.46 3308.32 -1 0 0
89 2 2819.96 2758.69 2267.06 0 0 1
90 2 2913.86 2397.88 2915.22 0 1 -1
91 2 2831.04 2795.28 2931 0 0 -1
92 2 2538.22 2459.41 3237.24 -1 0 -1
93 2 2602.73 3151.68 3162.91 0 -1 0
94 2 2550.74 2275.61 2999.95 1 1 -1
95 2 2247.84 2176.12 2791.62 0 0 -1
96 2 2206.42 2940.61 3192.07 1 0 0
97 2 3286.86 1783.22 3077.94 0 0 0
98 2 2945.62 3265.18 3258.56 0 -1 -1
99 2 1734.31 2154.49 3330.98 0 0 -1
100 2 2464.13 1753.34 2927.66 1 0 0
101 2 2354.77 2495.21 2883.83 0 0 0
102 2 2149.53 3070.61 1799.71 0 -1 0
103 2 3187.94 2010.37 2120.12 -1 0 0
104 2 2604.69 1714.22 1787.86 0 0 0
105 2 1873.62 1739.78 2919.61 0 0 0
106 2 2783.35 2135.23 1824.37 0 0 0
107 2 1957.22 2232.89 2468.92 0 0 0
108 2 3045.59 2960.93 1894.01 -1 0 0
109 2 2275.24 2166.13 2130.52 0 0 0
110 2 1962.53 2535.11 3333.31 0 0 -1
111 2 1773.66 3205.1 3018.14 1 -1 -1
112 2 3052.64 1682.13 2455.7 -1 -1 0
113 2 2142.38 2949.69 2263.75 0 -1 0
114 2 2623.74 2549.23 2170.66 0 0 1
115 2 3110.29 2096.2 3019.5 -1 0 -1
116 2 2317.5 2298.94 2647.32 0 0 0
117 2 2455.16 2974.88 1922.69 0 -1 1
118 2 1767.95 3055.52 2738.96 0 -1 0
119 2 2426.29 1758.64 1826.78 0 0 0
120 2 3109.66 3151.87 2347.38 -1 -1 0
121 2 2979.98 2084.03 2609.92 -1 0 0
122 2 1823.79 3230.18 3185.87 0 -1 -1
123 2 2144.97 2186.75 1691.62 0 0 0
124 2 1996.6 1784.76 1699.11 0 0 0
125 2 1713.81 2973.94 3329.38 0 -1 -1
126 2 3230.42 2206.93 1927.99 -1 0 0
127 2 3189.79 2444.57 2521.16 -1 0 0
128 2 1960.32 3270.32 1976.42 0 -1 0
129 2 1693.02 2305.62 3046.05 0 0 -1
130 2 3322.53 1805.03 2654.19 -1 0 0
131 2 1880.08 3331.38 2747.78 0 -1 -1
132 2 1746.02 2608.32 3019.07 0 0 -1
133 2 2387.33 1924 1885.36 0 0 0
134 2 1771.75 2891.22 3175.14 1 -1 0
135 2 2013.71 2245.75 2023.18 0 0 0
136 2 2862.56 2737.95 2441.82 0 -1 -1
137 2 2626.36 2148.31 2698.73 0 1 0
138 2 3287.84 2111.01 2718.56 -1 0 0
139 2 2969.51 2180.63 2249.84 -1 0 0
140 2 2734.45 2310.41 1774.61 -1 -1 0
141 2 2874.58 2209.2 2907.76 -1 0 0
142 2 3204.52 2512.8 3281.79 -1 0 -1
143 2 2254.35 1784.62 1862.71 0 0 0
144 2 3303.73 2077.96 2235.68 -1 0 0
145 2 1889.14 2222.05 2635.88 0 0 0
146 2 2434.1 2520.02 1707 0 0 0
147 2 1708.73 1966.77 2104.52 0 0 0
148 2 2214.98 1811.94 3151.45 0 0 -1
149 2 2352.19 1805.55 2013.24 0 0 0
150 2 1741.36 2901.05 2814.17 0 0 0
151 2 2648.1 2229.84 2152.77 0 0 -1
152 2 3099.74 2407.28 2674.66 -1 0 -1
153 2 2204.78 3296.15 2356.03 0 -1 0
154 2 2175.74 2341.25 1774.42 0 0 0
155 2 2596.51 3330.97 2559.31 0 -1 0
156 2 3024.08 1739.47 1961.12 -1 0 0
157 2 2932.71 3234.03 1898.35 0 -1 0
158 2 2797.15 3183.48 1996.71 0 -1 0
159 2 1840.76 2966.49 2071.69 0 -1 0
160 2 2034.37 2673.82 3015.08 1 0 0
161 2 2996.93 2215.67 3126.38 -1 0 -1
162 2 2478.39 1731.04 2277.72 0 0 0
163 2 2724.57 3053.48 2100.39 0 0 0
164 2 2829.47 2092.17 2333.57 0 0 0
165 2 2268.06 1923.03 1755.66 0 0 0
166 2 2985.98 2407.05 1731.25 0 0 0
167 2 2111.67 1687.48 2633.17 0 0 0
168 2 1956.29 1950.37 1757.05 0 0 0
169 2 1716.56 3318.69 3302.91 0 -1 -1
170 2 2983.01 3274.05 3029.48 -1 0 0
171 2 1948.53 2839.12 2343.81 0 -1 0
172 2 3315.88 2087.68 1795.52 -1 0 0
173 2 2173.23 2611.76 3323.45 0 0 -1
174 2 3068.51 1931.19 2611.65 -1 0 -1
175 2 1715.01 1981.76 1670.52 0 0 0
176 2 2031.65 2870.13 2679.26 0 0 0
177 2 3304 2866.33 2291.69 0 -1 0
178 2 1794.95 2487.18 3277.56 0 0 -1
179 2 2312.47 2322.26 2193.57 0 0 0
180 2 1848.97 3067.58 1730.55 0 -1 0
181 2 2812.71 3292.42 3001.59 -1 -1 -1
182 2 2451.42 3246.59 1753.97 0 -1 0
183 2 3024.74 1685.43 2123.25 -1 0 0
184 2 1747.06 2217.18 2178.4 0 0 0
185 2 2290.4 3181.78 2463.9 0 -1 0
186 2 1945.25 2610.6 1817.36 0 0 0
187 2 3086.75 2295.12 2528.19 -1 0 0
188 2 3185.43 1829.83 1691.89 -1 0 0
189 2 2684.24 2144.35 2407.69 0 0 -1
190 2 2741.06 1683.33 1687.04 0 0 0
191 2 1948.51 2010.75 3128.39 0 0 -1
192 2 3333.2 2303.95 2041.09 -1 0 0
193 2 2133.86 2321.52 2795.03 0 1 0
194 2 2177.24 2767.83 3246.57 0 0 -1
195 2 3246.63 2594.41 1792.38 -1 0 0
196 2 2685.14 1718.99 1937.44 0 0 0
197 2 1824.35 2245.98 1782.21 0 0 0
198 2 2778.17 1997.13 2038.62 0 0 0
199 2 1990.91 2026.16 2212.06 0 0 0
200 2 3153.11 2633.96 2084.14 -1 0 0
201 2 2911.47 2880.22 3041 0 -1 -1
202 2 3171.1 2570.21 2644.11 -1 0 0
203 2 1835.14 3018.98 1899.86 0 -1 0
204 2 2602.07 2052.57 2532.13 0 0 0
205 2 3197.61 3286.34 2666.62 -1 -1 0
206 2 3287.45 2446.64 2659.3 -1 0 0
207 2 3193.66 2744.3 2878.57 0 0 0
208 2 1742.11 1948.4 2580.57 0 0 0
209 2 2967.82 3026.87 2363.82 1 -2 2
210 2 2484.1 2279.97 2179.35 0 0 0
211 2 2544.56 3274.31 1904.53 0 -1 0
212 2 2469.94 3139.3 2869.19 -1 -2 -1
213 2 2435.57 1687.85 2111.7 0 0 0
214 2 2230.54 2880.46 1981.95 0 -1 0
215 2 2884.69 2111.01 1964.76 0 0 0
216 2 2102.31 3168.32 3024.74 0 -1 -1
217 2 2947.63 3206.54 2087.69 -1 -1 0
218 2 2678.71 2059.69 3113.16 1 1 -1
219 2 1992.21 3107.39 1916.87 0 -1 0
220 2 3037.91 2232.41 1929.44 -1 0 0
221 2 2728.21 1750.73 2107.94 1 0 -1
222 2 3271.58 1835.59 2160.49 -1 0 0
223 2 2654.94 2981.5 2322.01 0 -2 -1
224 2 2070.2 3149.86 2844.24 0 -1 -1
225 2 2207.51 3322.69 1973.91 0 -1 1
226 2 2442.64 1894.95 1722.37 0 0 0
227 2 2120.73 2238.78 3072.74 0 0 0
228 2 2652.35 2448.51 1694.58 0 0 0
229 2 1818.52 1725.46 1747.66 0 0 0
230 2 2267.25 2130.01 3022.79 0 0 -1
231 2 2071.49 3323.75 2468.21 0 -1 0
232 2 2364.16 2421.43 2518.33 0 0 0
233 2 2035.69 3291.86 3310.46 0 -1 -1
234 2 2556.27 1889.19 1856.7 0 0 0
235 2 2085.45 2213.81 1860.32 0 0 0
236 2 1848.56 1864.76 3312.77 0 0 -1
237 2 2957.23 2025.86 3185.92 -1 0 -1
238 2 1668.55 1935.53 2768.63 0 0 0
239 2 3324.3 2237.32 3201.16 -1 0 -1
240 2 2683.19 2063.19 2239.9 0 0 0
241 2 2962.99 2620.44 3174.12 -1 0 -1
242 2 2539.96 1742.69 3081.89 0 0 0
243 2 3187.39 3077.4 2863.57 0 0 0
244 2 2146.84 1952.56 2469.89 0 0 0
245 2 1813.27 2200.94 3012.51 0 0 -1
246 2 2455.84 3206.66 2515.93 0 -1 -1
247 2 2034.86 2457.22 1803.86 0 0 0
248 2 2967.83 2216.5 2091.32 -1 0 0
249 2 3090.87 2904.64 2354.51 -1 -1 0
250 2 2784.79 2466.75 3032.83 -1 1 -1
251 2 2078.44 3037.99 3122.68 0 -1 0
252 2 1805.74 1956.59 2418.64 0 0 0
253 2 2928.93 2536.89 3025.29 0 0 -2
254 2 2548.36 3083.77 2152.64 0 -1 0
255 2 3148.41 2882.09 2608.26 0 0 0
256 2 2912.44 2453.98 2662.64 0 1 -1
257 2 2288.37 3211.86 2079.4 0 -1 0
258 2 2005.94 2847.37 2986.85 0 0 -1
259 2 2204.9 2158.78 3195.04 0 0 -1
260 2 2035.9 2514.92 3177.91 0 0 -1
261 2 2448.88 2042.16 3290.19 0 0 -1
262 2 1757.52 2680.65 1933.38 0 0 0
263 2 2345.49 1820.86 2468.12 0 0 0
264 2 3205.34 1684.38 2956.97 -1 0 -1
265 2 1892.69 1981.13 1918.98 0 0 0
266 2 2518.28 1761.05 1980.48 0 0 0
267 2 2005.47 1775.51 2358.35 0 0 0
268 2 2330.36 2430.73 3194.37 0 0 -1
269 2 2391.81 2599.13 2738.71 0 0 0
270 2 2564.93 1819.78 2615.23 0 -1 -1
271 2 2263.41 2904.94 2148.96 0 -1 0
272 2 3178.37 1872.54 2727.87 -1 0 0
273 2 1756.61 2563.28 2675.03 0 0 0
274 2 2032.77 3277.36 2303.99 0 -1 0
275 2 2182.18 2598.27 2007.37 0 0 0
276 2 2632.74 1889.88 3126.82 -1 1 0
277 2 1783.32 1894.27 1805.75 0 0 0
278 2 2715.4 2541.94 1849.98 0 0 0
279 2 2117.29 2647.72 1847.61 0 0 0
280 2 3182.08 2964.36 1994.94 -1 -1 0
281 2 3325.54 3210.36 2574.58 -1 -1 -1
282 2 2951.42 2459.15 2471.39 0 0 0
283 2 3107.4 1818.65 3200.78 -1 0 -1
284 2 3222.58 2029.41 1941.61 -1 0 0
285 2 1928.1 2713.58 1957.71 0 -1 0
286 2 2597.76 2419.84 3076.59 -1 0 -1
287 2 2370.66 2061.97 2733.53 0 0 0
288 2 2288.21 3289.15 1801.59 0 -1 0
289 2 2800.22 2272.78 2347.13 0 0 1
290 2 2980.2 2470.35 2233.25 -1 0 0
291 2 1767.53 3326.97 2526.43 0 -1 0
292 2 1967.73 1980.88 2833.14 1 0 0
293 2 3129.97 2126.01 2243.74 -1 0 0
294 2 2967.55 3204.2 2413.36 0 -1 0
295 2 1958.42 2393.95 3076.36 0 0 -1
296 2 1699.94 3146.9 1671.22 0 -1 0
297 2 1672.67 2515.87 1918.83 0 0 0
298 2 3304.52 2065.95 3215.06 -1 0 -1
299 2 3119.17 3032.11 2463.74 -1 -1 0
300 2 1845.02 2264.33 2330.48 0 0 0
301 2 2027.51 1853.8 2150.48 0 0 0
302 2 1764.29 2246.71 2486.52 0 0 0
303 2 2491.79 2189.28 1703.98 0 0 0
304 2 2443.43 2112.22 2571.21 0 -1 0
305 2 2794.59 2537.19 2715.02 0 -1 0
306 2 2979.94 2333 2341.86 -1 0 0
307 2 2262.64 2031.18 2876.28 -1 0 -1
308 2 3036.8 3301.97 2298.51 -1 -1 0
309 2 2552.06 2232.92 2004.76 0 0 0
310 2 2626.08 3148.8 2301.52 -1 -1 0
311 2 2513.1 2715.46 2069.96 0 0 -1
312 2 2061.59 2858.92 3146.97 0 -1 -1
313 2 2167.17 2387.09 2237.59 0 0 0
314 2 2140.69 1702.39 1753.59 0 0 0
315 2 2335.28 2730.96 3155.46 0 0 -1
316 2 2503.3 1864.7 3226.08 0 0 -1
317 2 2628.01 1741.69 3236.18 0 0 -1
318 2 1877.04 2637.2 2775.73 0 0 0
319 2 3300.78 2748.79 2424.45 -1 0 0
320 2 1912.94 2100.99 2354.32 0 0 0
321 2 3015.39 1669.4 2706.76 -1 0 -1
322 2 1928.88 1760.72 2031.7 0 0 0
323 2 1810.42 2723.55 2380.43 0 0 0
324 2 3283.78 3195.96 2937.23 -1 -1 -1
325 2 3212.13 3022.73 2288.37 -1 -1 0
326 2 3175.15 1734.46 2034.85 -1 0 0
327 2 1703.22 1818.35 2468.52 0 0 0
328 2 2381.5 3274.75 2813.13 0 -1 0
329 2 2976.86 1696.58 2861.42 0 0 0
330 2 3099.03 2694.84 1852.24 -1 0 0
331 2 2929.66 2602.94 1833.67 -1 0 0
332 2 2766.29 2277.1 3270.69 0 -1 0
333 2 1698.64 2591.9 2372.24 0 0 0
334 2 2308.5 1762.2 1695.68 0 0 0
335 2 2175.06 2897.64 2566.9 0 0 -1
336 2 2174.08 1792.07 2413.24 0 0 0
337 2 2543.74 2150.82 3211.14 0 0 -1
338 2 2519.45 2193.89 2442.38 0 -1 -1
339 2 2026.89 3218.98 2690.29 0 -1 -1
340 2 2692.81 1947.36 2650.07 0 0 0
341 2 3246.12 2708.14 3055.18 -1 0 -1
342 2 2699.87 2400.93 2222.31 0 0 0
343 2 3146.18 2458.23 2200.39 -1 0 0
344 2 2111.61 2371.45 1937.96 0 0 0
345 2 3085.71 2264.5 3304.38 -1 0 -1
346 2 2259.65 2753.12 2568.47 0 -1 0
347 2 2371.32 2195.29 3243.14 -1 0 -1
348 2 1849.91 2498.89 1912.77 0 0 0
349 2 1993.14 2984.91 1784.9 0 -1 0
350 2 2356.62 2471.19 2293.86 0 0 0
351 2 1939.62 1907.22 2988.81 0 0 0
352 2 1818.47 1780.26 2634.9 0 0 0
353 2 3264.43 1725.5 2790.46 -1 0 0
354 2 1925.98 1715.22 2205.03 0 0 0
355 2 1811.98 2550.95 2504.32 0 0 0
356 2 1705.45 1918.63 2271.27 0 0 0
357 2 2852.73 2414.46 2842.06 0 0 0
358 2 2178.26 1981.17 3210.26 0 0 -1
359 2 1816.47 1680.27 1919.83 0 0 0
360 2 2458.8 2683.12 1927.53 0 0 0
361 2 3247.7 1722.93 3243.94 -1 0 -1
362 2 2115.28 2852.54 2409.71 0 0 0
363 2 2097.43 3156.63 2409.84 0 -1 0
364 2 2392.36 2803.91 2003.9 0 -1 0
365 2 2815.3 2531.72 2464.53 0 0 0
366 2 3051.51 2172.96 2953.29 0 0 -1
367 2 2802.22 3315.57 2518.88 0 -1 0
368 2 3133.39 2920.83 2783.65 -1 -1 0
369 2 2211.58 2099.43 2636.33 0 0 0
370 2 2963.19 2238.1 1770.56 -1 0 0
371 2 2213.15 1831.34 2579.91 0 0 0
372 2 2798.91 1896.21 2781.21 0 0 0
373 2 2593.07 2621.85 1693.76 0 0 1
374 2 2646.21 2354.39 1929.76 0 0 0
375 2 2275.03 2480.19 3027.76 -1 0 0
376 2 3005.74 2916.51 2082.88 0 0 0
377 2 3036.41 2406.18 1903.29 -1 0 0
378 2 2227.58 2303.59 2946.11 1 0 -1
379 2 1715.19 2388.27 2808.28 0 0 -1
380 2 2833.9 2152.56 3138.8 -1 0 -1
381 2 2613.57 2002.36 3259 0 0 -1
382 2 3007.35 1784.81 2728.98 0 0 0
383 2 2849.89 2269.98 1910.37 -1 -1 -1
384 2 2621.64 1876.85 2797.53 0 0 0
385 2 2030.33 1814.88 2877.15 0 -1 0
386 2 2335.84 2051.08 3156.27 0 0 -1
387 2 2108.43 3191.08 2030.33 0 -1 0
388 2 1776.05 1809.87 2151.52 0 0 0
389 2 1921.2 2917.45 2817.16 0 -1 -1
390 2 2096.99 2782.27 1963.07 0 -1 1
391 2 1708.66 3269.65 1803.57 0 -1 0
392 2 2862.92 2438.42 1849.9 -1 0 0
393 2 3255.01 2467.57 2052.18 -1 0 0
394 2 3001.82 2777.12 2616.28 -1 1 0
395 2 1711.78 3221.13 1971.09 0 -1 0
396 2 2068.62 2797.16 2218.58 0 -1 0
397 2 2176.59 1817.23 2024.31 0 0 0
398 2 2873.92 2938.27 1816.55 -1 -1 1
399 2 3324.3 2757.46 1803.32 -1 -1 0
400 2 2634 2953.48 1769.89 -1 -1 0
401 2 3256.49 3198.05 2250.91 -1 -1 0
402 2 3215.5 3226.07 3284.16 -1 -1 -1
403 2 2082.9 2071.1 2358.42 0 0 0
404 2 1786.05 1846.92 1972.63 0 0 0
405 2 3244.95 2550.95 2975.72 -1 0 -1
406 2 3122.04 2052.54 2722.17 0 0 0
407 2 3040.92 2075.42 2890.12 -1 0 0
408 2 2578.46 2963.8 2623.47 0 -1 0
409 2 3284.61 1868.41 1981.89 -1 0 0
410 2 3280.84 1890.58 3222.52 0 1 0
411 2 1968.27 2334.54 2737.55 0 0 0
412 2 2696.93 3252.54 1820.06 -1 0 1
413 2 2019.31 2365.41 2573.07 0 0 0
414 2 1832.82 2880.28 2975.97 0 -1 -1
415 2 1923.02 1810.35 1864.45 0 0 0
416 2 1699.72 3278.21 2365.53 0 -1 0
417 2 3018.61 2058.39 2132.69 -1 0 0
418 2 2633.11 1755.51 2918.6 0 0 0
419 2 1918.14 2949 3099.02 1 0 -1
420 2 2728.57 2132.31 2950.06 0 0 0
421 2 2323.97 3045.72 2024.56 0 -1 0
422 2 3256.19 2587.68 2240.1 -1 0 0
423 2 1952.28 2531.03 2187.72 0 0 0
424 2 3161.05 3298.61 3118.93 -1 0 -1
425 2 2236.25 2945.75 2718.21 0 -1 -1
426 2 2732.77 2690.67 1716.54 0 0 0
427 2 1806.84 2026.26 3020.43 0 0 0
428 2 2341.37 3250.97 3296.35 0 -1 -1
429 2 3237.6 3026.06 3028.33 -2 0 0
430 2 1673.35 2229.12 2901.75 0 0 -1
431 2 1836.4 2276.06 2033.45 0 0 0
432 2 2099.06 2909.66 2090.42 0 -1 0
433 2 2329.2 1900.38 3259.78 0 0 -1
434 2 2946.21 3161.51 2260.52 -1 -1 0
435 2 2864.81 2547.68 1989.43 -1 0 0
436 2 3146.24 2283.74 1797.34 -1 0 0
437 2 2041.46 1816.87 2527.47 0 0 0
438 2 3246.08 2370.11 2908.57 -1 1 0
439 2 2097.48 2506.13 3010.55 0 0 -1
440 2 2350.41 2629.45 2998.34 0 0 -1
441 2 1953.36 2187.77 3124.2 0 0 -1
442 2 2087.75 2354.53 2416.44 0 0 0
443 2 2248.94 1669.63 2524.86 0 0 0
444 2 1886.99 1892.97 2266.35 0 0 0
445 2 2047.88 2096.33 3246.6 0 0 -1
446 2 2749.89 3092.55 3249.8 1 0 -1
447 2 2136.1 1742.18 2248.32 0 0 0
448 2 3055.65 1869.15 2173.59 -1 0 0
449 2 1699.41 2733.14 2885.31 0 0 0
450 2 1794.56 2126.28 3166.88 0 0 -1
451 2 2608.16 1862.66 1692.14 0 0 0
452 2 1823.72 2386.68 2653.34 0 0 0
453 2 1962.15 3315.44 1803.71 0 -1 0
454 2 2502.19 3238.62 2214.46 0 -1 0
455 2 1816.1 2838.41 1918.53 0 -1 0
456 2 2252.75 2098.42 2399.51 0 0 0
457 2 1972.86 2945.76 2220.01 0 -1 -1
458 2 2307.18 1708.6 2681.27 0 0 1
459 2 1770.79 1838.29 3037.38 1 0 -1
460 2 2414.2 2401.7 2694.04 0 -1 0
461 2 2548.16 3280.6 2382.56 -1 -1 0
462 2 1835.62 1928.73 2718.6 0 0 0
463 2 1847.29 2901.8 1746.66 0 -1 0
464 2 2606.77 2284.02 2324.18 0 0 0
465 2 2838.63 1834.4 2459.88 0 0 0
466 2 2531.88 2429.74 2481.7 0 0 -1
467 2 2812.79 1754.36 2899.69 0 1 0
468 2 3248.42 2241.93 2187 -1 0 0
469 2 2702.84 1904.65 2178.29 0 0 0
470 2 3250.67 2926.48 2452.47 -1 -1 0
471 2 3132.67 2166.82 2077.11 -1 0 0
472 2 2888.36 1808.29 2135.08 -1 0 0
473 2 2276.19 2074.41 3326.4 0 0 -1
474 2 3196.41 2841.54 1870.78 -1 0 1
475 2 1688.43 2922.24 1830.33 0 -1 0
476 2 3309.62 2130.17 2067.89 -1 0 0
477 2 2542.46 1963.03 2205.6 0 0 0
478 2 3111.36 1788.75 2327.16 -1 0 0
479 2 1689.42 3103.04 1844.72 0 -1 0
480 2 1977.66 2254.74 2966.95 0 0 0
481 2 2420.9 2060.19 2401.45 0 0 0
482 2 2239.34 2810.39 2289.32 0 0 0
483 2 2561.31 2820.17 1939.94 0 -1 0
484 2 2998.64 3230.15 3204.23 -1 0 -1
485 2 2909.44 2638.44 2193.4 0 1 0
486 2 2099.38 2464.08 2092.54 0 0 0
487 2 1830.45 3196.98 2638.11 0 -1 0
488 2 2186.87 2468.51 2871.16 0 0 -2
489 2 2994.74 2764.95 2351.08 -1 1 0
490 2 2872.99 2651.22 2609.43 0 1 0
491 2 1826.73 3247.63 2256.06 0 -1 0
492 2 2922.63 2887.35 3326.3 0 0 -1
493 2 2976.78 2060.93 1794.12 -1 0 0
494 2 2349.81 2376.44 1819.17 0 0 0
495 2 1824.1 2858.24 2220.18 0 -1 0
496 2 2009.34 2306.28 1726.3 0 0 0
497 2 1884.05 3024.29 2531.1 0 -1 0
498 2 1932.32 3249.77 2954.92 -1 -1 -1
499 2 2554.84 2103.99 2987.83 0 0 0
500 2 2170.26 2304.52 2092.87 0 0 0
501 2 2178.74 3237.99 2743.69 0 -1 -1
502 2 2620.04 3150.17 1998.53 0 -1 0
503 2 2940.33 1941.17 2019.3 -1 0 0
504 2 2300.5 1764.95 2295.36 0 0 0
505 2 1671.76 2284.66 2334.33 0 0 0
506 2 2065.19 2210.24 2660.04 0 0 0
507 2 2453.92 3274.9 3033.1 0 -1 -1
508 2 2060.85 2036.84 1875.86 0 0 0
509 2 3283.52 1773.29 2319.17 -1 0 0
510 2 2217.98 3078.51 3079.72 0 0 0
511 2 3176.01 2753.69 2291.34 -1 -1 0
512 2 1826.29 2258.77 2796.01 0 0 -1
513 2 2382.6 3312.06 1952.66 0 -1 0
514 2 3146.97 3208.39 2501.74 0 0 -1
515 2 2314.73 2222.52 1739.88 0 0 0
516 2 2141.23 2931.09 3024.92 0 0 0
517 2 2382.38 2268.55 2036.51 0 0 0
518 2 2579.46 3129.44 1801.48 0 0 0
519 2 1713.39 3319.93 2689.1 -1 -1 -1
520 2 2670.74 3195.21 2466.37 0 -1 -1
521 2 2649.54 2146.17 1678.15 -1 0 0
522 2 2828.87 2053.83 2697.05 -1 0 0
523 2 1845.7 2080.98 2854.77 0 0 0
524 2 3278.54 2658.87 2754.02 -1 -1 0
525 2 1734.01 3121.2 2302.97 0 -1 0
526 2 3091.75 3256.08 1998.25 -1 -1 0
527 2 2336.54 2116.42 1956.47 0 0 0
528 2 3163.21 2128.66 2557.96 -1 0 0
529 2 2209.86 2755.33 2087.62 0 -1 0
530 2 2680.93 2988.79 2487.23 -1 0 0
531 2 1743.89 2358.88 1901.26 0 0 0
532 2 2827.09 1714.62 1846.74 0 0 0
533 2 2716.95 1994.05 1733.73 0 0 0
534 2 2836.62 1974.36 1870.13 0 0 0
535 2 2135.61 2905.82 1836.24 0 -1 0
536 2 3161.49 1900.7 3029.13 -1 0 -1
537 2 3225.78 3084.67 2122.09 -1 -1 0
538 2 2723.59 2853.07 1879.66 0 -1 0
539 2 2892.94 1770.94 1672.59 -1 0 0
540 2 2818.06 2138.59 2144.5 0 0 0
541 2 2742.7 2826.52 1696.28 -1 0 0
542 2 2174.72 2754.75 3073.38 0 0 -1
543 2 3100.16 3200.87 2170.88 -1 -1 0
544 2 1898.67 2527.13 2965.31 0 0 -1
545 2 2427.25 2554.02 2452.22 -1 -1 -1
546 2 2526.74 2135.14 2279.27 0 0 0
547 2 2721 1842.56 1828.66 0 0 0
548 2 2449.95 1896.84 2336.97 0 0 0
549 2 2352.13 2231.39 2476.88 0 0 0
550 2 2746.33 3065.66 1828.99 0 -1 0
551 2 3268.95 2451.3 2362.33 -1 0 0
552 2 2614.18 1839.99 2304.8 0 0 0
553 2 1810.36 2050.58 2216.12 0 0 0
554 2 3256.17 2281.15 2543.95 -1 0 0
555 2 2139.51 3076.45 2703.99 -1 0 0
556 2 2192.19 1675.86 3260.05 0 0 -1
557 2 3317.4 3114.83 3174.21 0 0 -1
558 2 2293.43 3106.89 2759.23 -1 -1 -1
559 2 2776.5 1779.9 2274.92 0 1 0
560 2 2105.66 3053.35 3302.93 0 -1 -1
561 2 2515.01 2842.39 3317.2 0 -1 0
562 2 2588.8 3308.39 2075.63 0 -1 0
563 2 2298.46 2704.83 2851.61 -1 0 0
564 2 2082.93 1950.16 2632.72 0 0 0
565 2 2362.74 2643.97 2041.1 0 0 0
566 2 2392.12 2356.84 2984.57 0 0 -1
567 2 1937.38 2337.55 1890.17 0 0 0
568 2 3056.53 2839.71 1750.45 0 0 0
569 2 2108.61 1912.28 2302.33 0 0 0
570 2 3200.92 2608.87 2401.86 -1 0 -1
571 2 2752.47 3154.96 3321.48 -2 -1 -1
572 2 3099.11 1667.57 3317.04 -1 0 -1
573 2 2632.45 3281.69 3046.77 0 -1 -1
574 2 2695.4 2808.87 2049.92 0 0 0
575 2 2424.06 3162.06 2352.01 0 -1 0
576 2 2940.85 1753.35 2580.88 0 0 0
577 2 2433.6 2329.03 2371.4 0 0 0
578 2 2755.89 2586.87 2264.83 0 0 1
579 2 2787.55 2364.83 2664.82 0 0 0
580 2 2312.07 1980.17 2076.15 0 0 0
581 2 2075.54 1895.52 3093.4 0 0 -1
582 2 1919.14 3123.36 3075.57 0 -1 0
583 2 2722.63 2171.51 1992.45 0 0 0
584 2 1677.98 2619.29 2083.34 0 0 0
585 2 1816.56 2097.44 2050.75 0 0 0
586 2 1931.02 2676.24 2484.01 0 0 0
587 2 3176.76 1786.06 1872.48 -1 0 0
588 2 1740.04 2327.69 3320.35 0 0 -1
589 2 1739.81 2116.67 2376.89 0 0 0
590 2 2484.5 1932.78 2505.96 0 0 0
591 2 2894.83 3039.36 2137.66 -1 -1 0
592 2 2064.76 1730.31 1919.17 0 0 0
593 2 3122.63 3246.7 2840.24 -1 -1 -1
594 2 2320.85 3215.29 2628.22 0 -1 0
595 2 2020.95 2992.57 2380.72 0 -1 0
596 2 1930.11 2424.84 2047.28 0 0 0
597 2 3162.93 2168.53 3184.38 -1 0 -1
598 2 2868.66 1975.14 2202.82 -1 0 0
599 2 2192.23 3003.22 2427.32 0 0 0
600 2 2462.9 3198.99 2055.78 0 -1 0
601 2 1793.13 3168.39 2472.03 0 -1 0
602 2 2631.85 2671.72 1952.64 0 0 0
603 2 2996.76 2615.39 2698.52 -1 1 0
604 2 2472.81 2542.92 2575.87 0 -1 -1
605 2 2449.46 2586.95 2186.79 -1 -1 0
606 2 2030.04 1892.12 1976.64 0 0 0
607 2 2425.9 2172.62 3074.3 0 0 -1
608 2 2191.87 2694.69 2423.03 -1 0 -1
609 2 2510.53 2563.1 2019.48 0 -1 -1
610 2 3218.76 3182.73 1785.56 0 -1 0
611 2 2548.41 3074.61 2437.67 0 -1 0
612 2 2316.35 2562.24 2587.09 0 0 0
613 2 2615.38 3248.9 1678.35 0 -1 0
614 2 1821.48 2065.48 1784.73 0 0 0
615 2 1813.93 2293.74 3160.01 0 0 -1
616 2 2278.09 2411.82 2000.41 0 0 0
617 2 1686.02 3331.81 2202.23 0 -1 0
618 2 2250.84 2258.53 1909.73 0 0 0
619 2 1668.57 2400.57 2201.02 0 0 0
620 2 2807.77 1830.03 1973.46 0 1 1
621 2 2262.46 3054.6 2587.43 0 -1 0
622 2 2159.02 1838.28 3318.03 0 0 -1
623 2 3083.12 2472.26 2946.96 -1 0 -1
624 2 2614.69 2050.21 2062.83 0 0 0
625 2 2162.9 2127.56 1989.27 0 0 0
626 2 2644.88 2976.64 1947.38 0 0 1
627 2 3019.14 1850.87 2460.34 -1 0 0
628 2 3136.52 2515.87 3116.6 -1 0 0
629 2 2447.62 2998.64 1747.06 0 0 0
630 2 2857.9 2694.25 2777.51 0 0 0
631 2 1672.31 2108.52 2546.42 0 0 0
632 2 2403.25 1855.68 2173.83 0 0 0
633 2 2150.57 2789.88 2901.57 0 0 0
634 2 1667.28 2636.72 3309.97 0 0 -1
635 2 1843.79 2096.33 2519.32 0 0 0
636 2 2092.27 2755.8 2561.44 0 0 0
637 2 2111.34 2067.36 3074.71 0 0 -1
638 2 2383.4 3106.48 2186.35 0 -1 0
639 2 2720.49 1891.81 2939.48 0 0 0
640 2 2199.11 2398.09 2542.81 0 0 0
641 2 2178.48 3206.04 1689.67 0 -1 0
642 2 2105.19 3234.09 1859.87 0 -1 0
643 2 3117.1 2793.42 2024.65 -1 0 0
644 2 2565.88 1800.21 2144.05 0 0 0
645 2 3022.15 3138.89 2906.62 -1 -1 0
646 2 2316.8 1713.31 3027.27 0 0 0
647 2 2319.62 1987.28 2528.05 0 0 0
648 2 2381.11 2526.75 1910.51 0 0 0
649 2 2032.6 2708.54 1696.65 0 0 0
650 2 1791.92 1747.42 2317.75 0 0 0
651 2 2555.82 2035.54 1755.67 0 0 0
652 2 1987.41 2173.04 2809.07 0 0 0
653 2 2371.69 1733.24 3194.89 0 0 -1
654 2 1909.96 1840.07 3146.24 0 0 -1
655 2 2592.47 2884.82 2184.94 0 0 0
656 2 2168.79 2226 2508.59 0 0 0
657 2 1901.95 3166.08 2794.04 0 -1 0
658 2 3261.92 2826.04 2753.64 -1 0 -1
659 2 1884.23 2036.33 3294.11 0 0 -1
660 2 1788.2 2087.02 2673.24 0 0 0
661 2 3097.67 2230.95 2693.06 0 0 -1
662 2 1986.94 2510.78 2477.6 0 0 0
663 2 1672.24 3302.18 3128.16 -1 0 -1
664 2 2637.73 1675.21 2241.33 0 0 0
665 2 2919.47 3244.01 3182.72 -1 0 -1
666 2 2134 1982.01 2086.41 0 0 0
667 2 2377.45 2021.16 2237.04 0 0 0
668 2 2299.2 2871.1 2448.15 -1 -1 1
669 2 2646.4 2710.44 2217.24 0 0 1
670 2 1963.19 3184.26 2518.56 0 -1 0
671 2 1715.7 3038.21 2577.2 0 -1 -2
672 2 3049 1932.49 3316.06 -1 0 -1
673 2 2064.45 3038.69 2544.21 0 0 0
674 2 2997.35 2398.56 3109.13 -1 0 -1
675 2 1858 2983.61 2344.5 0 -1 0
676 2 2939.85 1864.48 2878.28 0 0 -1
677 2 1927.75 3143.04 2354.9 0 -1 0
678 2 2004.46 1752.46 3032.55 0 0 -1
679 2 2054.76 1757.07 3200.34 0 0 -1
680 2 3246.63 3251.72 2083.82 -1 -1 0
681 2 2528.37 2434.55 2252.93 0 0 0
682 2 2506.04 2072.83 1922.77 0 0 0
683 2 1839.4 2368.65 2187.1 0 0 0
684 2 3164.3 2890.73 3081.44 -1 0 -1
685 2 2162.33 2774.88 2719.67 0 0 0
686 2 2211.72 1960.74 1926.46 0 0 0
687 2 2744.9 1938.9 2339.65 0 0 0
688 2 2816.61 3090.03 2426.61 -1 -1 0
689 2 1895.68 2696.84 2221.81 0 0 0
690 2 2981.49 3103.87 3066.9 0 -1 -1
691 2 3079.39 2605.98 2248.3 -1 0 0
692 2 2927.9 1851.44 3200.46 0 0 -1
693 2 1944.48 1676.93 2582.32 0 0 0
694 2 3229.33 3054.62 3327.52 -1 0 -1
695 2 2543.56 2335.48 1785.93 0 0 0
696 2 2471.35 2292.14 2580.43 -1 -1 0
697 2 3310.03 2569.58 2537.39 0 -1 -1
698 2 3123.76 1998.33 2446.46 -1 0 0
699 2 2419.4 2844.88 2325.7 0 -1 0
700 2 3239.22 2341.47 3326.41 -1 0 -1
701 2 1987.73 2121.62 1741.97 0 0 0
702 2 2491.16 2332.29 2828.63 0 0 0
703 2 2156.65 3199.58 2577.09 0 -1 0
704 2 1720.1 3167.22 2146.95 0 -1 0
705 2 2256.23 2446.93 2709.31 0 0 0
706 2 1831.86 2657.44 3294.08 1 0 -1
707 2 1901.8 3306.97 2412.69 0 -1 0
708 2 2518.95 1982.78 2666.22 0 0 0
709 2 1826.82 2733.22 1781.75 1 0 0
710 2 3280.13 1916.18 1816.22 -1 0 0
711 2 2895.34 2179.71 2464.7 0 0 0
712 2 2675.36 2027.04 1901.74 0 1 0
713 2 1903.68 2780.09 3104.92 0 0 0
714 2 3126.88 2732.25 2727.36 -1 0 0
715 2 1731.26 2793.17 3318.53 1 0 0
716 2 2234.06 3131.61 2298.86 0 -1 0
717 2 2154.96 3332.94 3089.97 0 -1 -1
718 2 2163.84 3245.57 2192.55 0 -1 0
719 2 2139.43 2560.09 2575.51 0 0 0
720 2 1980.44 2882.69 2512.99 0 0 0
721 2 2446.74 2119.28 2096.23 0 0 0
722 2 3157.05 2452.61 1774.04 -1 0 0
723 2 2090.8 2517.25 2342.09 0 0 0
724 2 3261.47 2774.43 3218.17 -1 0 -1
725 2 2695.49 3245.43 3202.37 0 0 0
726 2 2770.49 2192.29 2590.71 0 0 -1
727 2 3066.06 3085.64 2041.1 0 -1 0
728 2 2271.1 2469.26 1692.45 0 0 0
729 2 3090.14 2473.35 2358.45 -1 0 0
730 2 1808.02 2871.78 2491.03 0 -1 0
731 2 2014.37 2228.79 2304.67 0 0 0
732 2 2568.8 2595.02 2324.52 0 0 0
733 2 2448.23 2711.32 1727.18 0 0 1
734 2 2332.33 3267.81 2242.06 0 -1 0
735 2 1755.91 2450.66 2051.52 0 0 0
736 2 1945.9 2408.54 2320.93 0 0 0
737 2 2910.94 3103.1 1766.19 -1 -1 0
738 2 1971.55 2079.03 2964.03 0 0 -1
739 2 1968.21 3221.79 2144.21 0 -1 0
740 2 3243.38 2883.79 1709.77 -1 0 1
741 2 2210.37 2493.07 1858.31 0 0 0
742 2 2106.98 1961.92 2937.24 0 0 -1
743 2 1823.1 3298.71 2087.7 0 -1 0
744 2 3116.7 1897.73 1992.64 -1 0 0
745 2 2013.53 2336.85 2167.24 0 0 0
746 2 2217.05 2106.06 1826.8 0 0 0
747 2 1945.23 2980.63 3292.88 0 -1 -1
748 2 3116.08 1762.35 2604.44 -1 0 0
749 2 3111.28 1946.05 1817.59 -1 0 0
750 2 3318.53 2266.17 1789.03 -1 0 0
751 2 2822.6 2579.84 2898.89 0 0 0
752 2 2829.76 1712.23 3208.41 0 0 -1
753 2 2312.23 2643.02 2298.98 0 0 1
754 2 1982.45 1942.93 2411.53 0 0 0
755 2 2228.9 1876.29 2186.46 0 0 0
756 2 2077.56 2877.28 1674.87 0 -1 0
757 2 3230.33 2169.95 1666.74 -1 0 0
758 2 3256.33 3113.36 2428.42 -1 -1 0
759 2 2105.5 1869.66 1815.12 0 0 0
760 2 1849.21 3041.81 2923.64 0 -1 0
761 2 1730.21 2185.44 1920.45 0 0 0
762 2 2092.45 2159.09 2151.13 0 0 0
763 2 2942.65 2013.21 2449.77 -1 0 0
764 2 1848.54 2598.57 2062.48 0 0 0
765 2 2472.07 2242.49 2758.3 -1 1 0
766 2 2259.46 2726.46 1921.09 -1 0 0
767 2 2398.17 2020.7 2991.3 0 0 -1
768 2 2921.67 3086.15 3262.75 -1 -1 0
769 2 1773.11 2428.22 2341.09 0 0 0
770 2 2389.51 2076.31 1790.45 0 0 0
771 2 3125.14 2343.56 2034.9 -1 0 0
772 2 2069.63 2272.89 3239.49 0 0 -1
773 2 2052.23 2090.47 2534.74 0 0 0
774 2 2682.74 2246.22 3120.32 0 0 -1
775 2 3252.1 2756.76 2120.38 -1 0 0
776 2 3240.04 3303.18 1912.15 -1 -1 0
777 2 1741.61 2752.06 2719.99 1 0 0
778 2 2424.63 2347.4 3323.3 0 0 -1
779 2 3055.78 2058.63 1953.15 0 0 0
780 2 2817.26 2941.77 2364.7 -1 -1 0
781 2 1741.19 1778.19 3193.22 0 0 -1
782 2 2124.83 2156.44 2921.08 0 0 -1
783 2 1699.36 2415.15 2503.18 0 0 0
784 2 3182.86 1680.01 2211.53 -1 0 0
785 2 2997.42 2955.32 3166.33 0 0 0
786 2 1873.58 2388.16 2478.82 0 0 0
787 2 2917.36 2382.75 2033.47 -1 0 0
788 2 1921.2 2805.82 3278.36 1 0 0
789 2 1910.56 2754.11 2646.97 0 -1 0
790 2 2481.48 3261.36 2679.68 1 0 0
791 2 2918.9 3071.06 1937.64 0 0 0
792 2 2480.9 3008.26 2287.31 0 -1 0
793 2 1885.51 2606.6 3123.08 0 0 -1
794 2 2759.98 2643.62 2108.85 0 0 0
795 2 2871.59 2792.36 2110.36 -1 -1 0
796 2 1722.76 2001.99 1929.46 0 0 0
797 2 2326.6 3174.98 2953.52 0 -1 0
798 2 2865.35 2036.25 2862.6 0 1 -1
799 2 1787.43 1928.69 2889.16 0 0 -1
800 2 3327.26 2404.66 3197.58 -1 0 -1
801 2 1742.67 1783.41 2788.12 0 0 0
802 2 1677.82 1808.25 1685.74 0 0 0
803 2 1745.81 2714.17 2544.74 0 0 0
804 2 2167.33 1801.43 2983.93 0 1 -1
805 2 2433.83 1703.74 2576.2 0 0 0
806 2 2649.26 1880.82 2011.18 0 0 0
807 2 2875.38 3320.72 2207.49 -1 -1 0
808 2 2588.09 3128.87 2608.02 1 -1 -1
809 2 3033.04 2770.41 2170.91 -1 0 1
810 2 2432.62 2952.43 2129.52 0 0 0
811 2 2203.43 2045.07 2240.31 0 0 0
812 2 2949.41 2086.89 3021 -1 0 -1
813 2 3203.51 2236.69 3024.85 -1 0 -1
814 2 2506.05 2912.81 2479.07 0 -1 0
815 2 1708.12 1692.06 2971.79 0 0 -1
816 2 3073.97 2091.9 3315.02 -1 0 -1
817 2 1989.59 2074.49 2040.03 0 0 0
818 2 3234.86 1975.44 2596.15 -1 0 0
819 2 2927.92 2333.84 3239.24 0 0 -1