ITEM: TIMESTEP
943000
ITEM: NUMBER OF ATOMS
1000
ITEM: BOX BOUNDS pp pp pp
-3.5840580359148635e+02 3.3584058035914818e+03
-3.5840580359148635e+02 3.3584058035914818e+03
-3.5840580359148635e+02 3.3584058035914818e+03
ITEM: ATOMS id type x y z ix iy iz
1 1 2572.13 1004.86 2601.75 0 0 -1
2 1 1588.37 1014.92 2018.79 0 0 0
3 1 1748.38 -81.2353 3260.02 0 1 0
4 1 832.748 1230.63 480.331 0 0 0
5 1 3036.77 -145.955 -202.561 0 0 0
6 1 -118.754 2834.93 3016.47 1 0 -1
7 1 1060.92 1401.96 599.422 0 0 0
8 1 1133.75 2153.11 523.967 0 0 0
9 1 2912.82 1812.55 2254.49 0 0 0
10 1 1121.76 419.009 -336.863 0 1 0
11 1 746.237 837.259 2509.05 0 0 0
12 1 3259.17 1630.81 1738.31 0 0 0
13 1 2004.72 2801.16 2340.27 0 0 0
14 1 1546.42 57.1743 2457 1 0 0
15 1 2293.38 2937.72 968.684 0 -1 0
16 1 404.117 632.153 1597.7 0 0 0
17 1 2209.83 2678.24 1898.26 0 0 -1
18 1 1866.82 3034.24 1307.95 0 0 0
19 1 1186.68 3075.96 -326.026 0 0 1
20 1 1628.92 1634.06 2662.75 0 0 -1
21 1 2380.09 1226.4 2517.3 0 0 -1
22 1 1338.66 2590.5 2346.19 0 -1 0
23 1 1245.7 1321.69 1818.9 1 0 0
24 1 1789.66 2164.03 1330.24 0 0 0
25 1 3019.34 643.568 672.299 -1 0 0
26 1 2413.71 3137.11 1643.16 0 0 1
27 1 1361.78 3351.17 1275.28 0 0 0
28 1 1643.52 970.889 1356.94 1 0 0
29 1 1606.29 1092.3 718.995 0 0 0
30 1 927.492 1592.51 404.713 0 1 1
31 1 -157.651 1418.36 3094.93 1 0 -1
32 1 1476.41 997.842 2340.34 0 2 1
33 1 2999.26 -169.673 1904.42 -1 0 0
34 1 2221.06 1390 2009.31 0 0 0
35 1 2598.74 1406.56 -180.93 0 0 1
36 1 2473.31 1931.8 2342.53 -1 -1 -1
37 1 565.296 680.566 756.924 0 1 0
38 1 2053.68 2197.52 1187.14 0 0 0
39 1 2451.02 2644.83 2075.65 0 0 0
40 1 1652.13 251.461 483.324 0 0 0
41 1 683.683 -62.1306 1396.98 0 0 -1
42 1 -339.85 593.294 944.096 0 0 0
43 1 1952.88 -210.236 2210.84 -1 1 0
44 1 2707.16 1575.7 48.2953 0 -2 0
45 1 3215.49 1700.52 2328.64 0 0 0
46 1 -166.766 1725.28 -47.1821 0 -1 0
47 1 2939.87 1704.32 189.305 -1 1 0
48 1 2281.85 2431.61 2593.99 0 0 0
49 1 1379 -200.579 2445.66 0 1 0
50 1 2328.93 2341.13 2306.76 -1 -1 -1
51 1 1982.76 1987.53 990.514 0 -1 0
52 1 1768.01 1428.54 2665.49 0 0 -1
53 1 469.187 143.855 204.618 0 0 0
54 1 1916.11 1564.9 1673.19 0 0 -1
55 1 1090.9 22.9892 -77.4133 0 0 0
56 1 -313.603 874.864 827.842 0 0 0
57 1 3132.29 2598.86 925.607 0 0 0
58 1 693.782 2634.43 2180.06 0 -1 -1
59 1 2269.38 1995.11 1074.7 -1 -1 0
60 1 -144.794 589.901 343.642 0 0 0
61 1 2312.28 1053.9 296.847 -1 -1 0
62 1 2499.25 1260.96 3026.81 -1 0 0
63 1 1717.19 3357.43 1925.26 0 -1 0
64 1 75.5342 2174.16 7.66632 0 0 0
65 1 967.628 1204.24 1729.75 0 0 0
66 1 -214.646 616.345 3357.15 0 0 -1
67 1 1756.33 3358.04 -350.005 0 -1 0
68 1 2400.57 1981.79 798.571 0 -1 0
69 1 207.689 1146.4 36.2956 0 0 0
70 1 1917.52 2414.4 544.676 0 0 0
71 1 2037.63 -245.984 1922.42 0 0 -1
72 1 3201.88 16.5457 3305.17 -1 0 -1
73 1 2276.79 849.364 991.348 0 0 0
74 1 1679.77 166.441 512.533 -1 0 0
75 1 2512.38 2869.3 2277.82 -1 -1 -1
76 1 1796.02 95.0894 3015.92 0 0 -1
77 1 2029.15 157.999 2900.65 -1 0 -1
78 1 228.58 2690.25 3049.61 0 0 -1
79 1 3118.92 253.159 2822.91 -1 0 -1
80 1 805.577 1671.14 2503.42 0 0 0
81 1 3101.27 2930.36 678.476 0 0 0
82 1 1282.81 779.691 -73.4512 0 0 0
83 1 1252.3 2118.26 113.853 0 0 0
84 1 2977.24 -334.373 2129.65 -1 0 -1
85 1 1440.29 566.386 1750.02 0 -1 0
86 1 1806.01 -342.107 555.357 0 1 0
87 1 2081.91 941.265 3144.48 -1 0 0
88 1 811.044 2817.15 2976.14 0 0 -1
89 1 1740.62 188.964 491.888 0 0 0
90 1 1383.47 1404.79 61.7188 0 0 0
91 1 743.208 -245.662 3066.2 0 1 0
92 1 2707.84 359.824 2243.28 0 0 -1
93 1 -188.547 448.393 3357.59 0 0 0
94 1 3080.81 2506.14 3130.49 0 0 -1
95 1 1139.45 1198.75 1163.42 0 0 1
96 1 2749.93 808.81 402.88 -1 0 0
97 1 533.28 1295.78 720.564 0 0 0
98 1 2535.69 1462.14 3240.94 -1 0 -1
99 1 3073.03 2143.11 751.759 0 0 0
100 1 1169.66 392.948 3085.01 0 0 -1
101 1 -355.021 2609.62 3174.44 1 -1 -1
102 1 3291.84 443.771 1184.66 -1 0 0
103 1 1644.52 2733.32 1659.07 0 0 -1
104 1 656.236 940.217 405.958 0 0 0
105 1 1838.66 2610.95 2911.99 0 -1 -1
106 1 2267.98 689.807 1264.58 0 1 0
107 1 2732.62 2651.05 -190.493 0 -1 0
108 1 1893.54 1544 2933.21 0 0 0
109 1 1431.7 2848.17 4.913 0 -1 1
110 1 1042.63 -185.642 3108.51 -1 0 0
111 1 1920.3 2882.44 3035.66 0 0 0
112 1 746.313 2594.55 2483.12 -1 -1 -1
113 1 1701.55 2624.19 1930.46 0 0 0
114 1 1952.94 2754.46 2044.78 -1 0 -1
115 1 936.839 338.917 609.534 0 0 0
116 1 515.967 436.753 110.984 0 0 0
117 1 1958.16 587.144 3103.39 0 0 0
118 1 1736.39 -8.43481 -159.644 0 0 0
119 1 1058.65 1321.73 304.193 0 0 1
120 1 2408.3 1266.34 2211.13 0 -1 0
121 1 400.212 372.013 1220.94 0 0 0
122 1 2285.9 955.063 2697.33 0 1 0
123 1 2090.56 1120.88 2530.74 0 0 0
124 1 611.773 641.306 457.14 0 0 0
125 1 1156.24 8.46091 2523.77 0 0 -1
126 1 1882.77 776.289 128.378 -1 0 1
127 1 291.22 -136.675 3358.35 0 0 -1
128 1 856.542 1496.86 72.4051 0 0 0
129 1 3092.91 351.773 3134.15 0 0 0
130 1 2176.54 442.361 -306.266 -1 0 0
131 1 2804.99 2150.97 2638.24 0 0 0
132 1 3139.58 424.612 925.141 -1 0 0
133 1 659.935 3164.05 319.908 0 -1 1
134 1 2955.51 2547.96 1683.17 0 -1 0
135 1 145.673 2366.82 2984.3 0 0 -1
136 1 2555.82 1038.94 442.255 0 -1 0
137 1 -328.494 2461.34 604.714 1 0 0
138 1 -27.9819 1444.9 2360.66 0 0 -1
139 1 -189.723 296.893 2852.78 0 0 0
140 1 32.0332 2998.4 -197.95 1 -1 0
141 1 2051.1 2866.28 1477.77 -1 -1 0
142 1 905.094 915.304 1778.43 0 0 0
143 1 2489.86 -197.367 366.544 -1 0 0
144 1 2619.93 869.554 -320.432 0 0 1
145 1 673.429 1310.91 2992.3 0 0 -1
146 1 1878.82 3113.41 1014.1 -1 -1 0
147 1 1788.49 -325.794 659.15 -1 0 0
148 1 796.454 440.92 312.203 0 -1 0
149 1 2578.13 2369.38 2111.45 -1 -1 0
150 1 18.9223 2572.4 862.116 0 0 0
151 1 -228.711 1139.74 -357.337 0 0 1
152 1 -305.595 670.448 96 0 0 0
153 1 3022.18 3280.59 1431.12 -1 -1 0
154 1 107.988 2577.28 1718.09 0 -1 -1
155 1 3306.54 -164.353 3070.95 -1 0 -1
156 1 2785.46 2594.34 1045.71 0 0 1
157 1 1521.11 305.574 964.419 -1 0 0
158 1 2170.08 1589.76 394.571 -1 0 0
159 1 191.494 330.313 681.61 1 0 0
160 1 1375.45 2952.77 2255.42 0 -1 0
161 1 3250.15 2430.55 1156.88 -1 0 0
162 1 315.37 1369.97 1841.76 0 0 -1
163 1 2523.51 3274.18 2671.13 -1 -1 0
164 1 2023.16 3056.72 3268.7 0 -1 -1
165 1 2774.98 1647.07 -248.167 -1 1 0
166 1 -187.037 1637.61 -67.6033 0 0 0
167 1 1948.43 3329.58 2459.75 0 -1 -1
168 1 3138.13 1849.11 620.605 -1 0 0
169 1 283.142 2389.21 74.6165 0 0 0
170 1 1035.79 1048.36 1468.5 0 0 -1
171 1 2543.95 277.991 1480.94 -1 0 0
172 1 2062.67 1428.81 2560.96 0 0 0
173 1 2113.43 1431.81 -180.111 -1 0 0
174 1 235.657 3316.65 639.515 0 0 0
175 1 335.58 2994.34 -214.577 0 -2 0
176 1 2566.23 2581.54 1768.81 0 -1 0
177 1 1963.24 2346.59 2821.13 0 -1 -1
178 1 1730.87 2852.73 1069.56 0 -1 0
179 1 2398.03 1522.59 2895.44 -1 0 0
180 1 2355.24 1518.09 2592.78 0 0 0
181 1 1580.82 1384.66 -211.774 0 0 1
182 1 1678.56 77.3563 2731.6 0 0 0
183 1 2502.1 -79.1743 83.9256 -1 0 0
184 1 1045.3 1106.46 642.16 0 0 0
185 1 3124.53 2095.58 -4.33009 -1 -1 1
186 1 2231.23 2842.24 2158.39 0 0 -1
187 1 1118.01 1302.72 877.087 0 0 0
188 1 689.371 2724.03 616.037 1 -1 0
189 1 1028.99 1042.42 343.055 0 -1 -2
190 1 2753.28 1572.85 545.085 0 0 -1
191 1 449.132 -179.972 -102.075 0 0 0
192 1 767.799 923.968 2212.98 0 0 0
193 1 1039.44 2448.02 1543.43 0 0 0
194 1 1500.87 300.773 2275.92 0 0 -1
195 1 -341.131 1071.81 94.6211 0 1 0
196 1 2246.98 192.95 3245.99 -1 0 -1
197 1 2730.77 1698.4 1968.29 -1 0 0
198 1 393.414 1565.97 939.655 0 0 0
199 1 627.36 1761 2.72431 0 1 0
200 1 253.14 3251.11 1599.52 0 0 0
201 1 2981.76 498.751 1183.69 -1 -1 0
202 1 2035.05 192.256 2941.59 -1 0 0
203 1 2133.88 775.711 2880.24 0 0 0
204 1 1546.08 1430.35 2454.93 0 0 0
205 1 935.123 2835.39 1982.16 0 -1 0
206 1 1620.68 2646.26 833.036 0 0 0
207 1 908.122 1493.76 56.2782 0 0 0
208 1 765.322 2133.32 463.454 0 0 0
209 1 650.374 2747.63 1894.4 1 0 0
210 1 294.677 1361.75 1890.64 0 0 0
211 1 95.2143 2677.44 1428.16 0 -1 0
212 1 -251.01 825.698 1123.76 0 0 0
213 1 -202.646 1688.95 -64.5388 0 -1 0
214 1 2455.59 2849.25 1845.32 0 -1 -1
215 1 1612.19 1240.82 2219.97 0 0 0
216 1 1854.74 996.57 1889.9 0 1 0
217 1 2599.07 2650.36 404.165 -1 -1 0
218 1 670.099 3182.51 1651.5 -1 -1 0
219 1 2550.39 5.3247 1358.96 0 1 0
220 1 515.246 1149.44 2807.29 -1 0 -1
221 1 3270.68 -195.846 1375.29 0 1 0
222 1 3183.47 2742.72 1725.86 0 0 0
223 1 234.406 496.865 3340.38 0 0 0
224 1 2328.28 522.219 265.249 0 0 0
225 1 1901.6 2136.62 2156.37 -1 0 -1
226 1 1658.85 2206.09 2879.77 -1 -1 -1
227 1 1854.81 983.876 2675.9 0 0 0
228 1 2695.37 1926.62 2439.54 0 0 0
229 1 3156.44 1472.11 1289.74 -1 -1 0
230 1 706.254 1045.6 691.67 0 0 -1
231 1 829.506 1303.78 775.663 0 0 0
232 1 63.2843 22.9274 -234.244 -1 0 -1
233 1 3022.83 141.55 930.17 -1 0 0
234 1 1634.35 2543.43 552.938 0 -1 0
235 1 2128.59 3264.24 929.713 1 0 0
236 1 756.915 2302.06 2849.68 0 0 0
237 1 812.732 3002.52 2212.42 0 0 0
238 1 1615.84 1689.62 2592.1 0 -1 0
239 1 554.335 38.1382 1136.96 0 1 0
240 1 585.214 848.521 2772.71 0 0 -1
241 1 1867.81 3040.54 2479.6 0 0 0
242 1 3247.31 2779.13 325.166 0 -1 -1
243 1 2405.6 1632.96 1964.66 0 1 0
244 1 3279.38 1812.17 1159.69 0 0 0
245 1 774.964 3113.75 1378.01 0 -1 0
246 1 1.71644 657.631 93.5675 0 0 1
247 1 1541.17 795.602 371.163 0 0 1
248 1 876.453 1673.12 -149.934 1 0 0
249 1 2070.63 790.636 2571.56 0 0 0
250 1 2639.7 1242.28 656.496 -1 0 0
251 1 1966.55 2638.53 2601.74 -1 -1 -1
252 1 1624.07 3117.6 2318.89 0 0 -1
253 1 706.811 2438.02 636.614 0 -1 0
254 1 1701.58 1660.09 2603.48 0 0 0
255 1 624.54 2559.21 1652.26 0 -1 0
256 1 2166.73 784.422 228.63 0 -1 0
257 1 713.859 2270.98 2555.13 0 0 -1
258 1 1203.5 56.3994 1019.63 0 0 0
259 1 892.491 3094.91 -249.225 0 0 1
260 1 2263.3 797.974 982.797 -1 0 0
261 1 67.0129 3247.04 2834.67 0 -1 -1
262 1 -156.584 1773.98 -26.5558 0 -1 0
263 1 668.293 5.91834 27.2986 0 0 0
264 1 2906.68 2066.48 1172.68 -2 -1 0
265 1 2083.95 -224.384 1415.16 -1 0 0
266 1 1998.85 1268.08 1842.99 0 0 0
267 1 1622.19 321.777 2563.48 0 1 0
268 1 20.3723 2121.62 554.753 1 0 0
269 1 1458.39 2699.33 2094.7 0 -1 0
270 1 1900.22 1094.07 819.218 0 0 0
271 1 1890 2134.35 431.866 0 0 0
272 1 291.873 1304.69 908.198 0 0 -1
273 1 411.366 1576.53 889.995 0 0 0
274 1 -161.879 403.048 109.409 0 0 0
275 1 1271.88 3336.83 3252.38 0 -1 -1
276 1 181.783 2037.68 1879.91 0 0 0
277 1 704.927 2241.13 2158.02 0 -1 0
278 1 899.242 -85.3966 1977.14 -1 1 -1
279 1 -215.246 402.944 3350.96 0 -1 -1
280 1 3135.16 1663.88 367.893 0 0 0
281 1 -235.994 871.542 305.17 0 0 0
282 1 1719.1 2844.37 2221.68 0 -1 0
283 1 161.74 245.927 1372.98 1 0 0
284 1 1508.7 3269.32 2567.12 0 -1 0
285 1 2357.09 815.485 467.922 -1 0 0
286 1 -170.192 937.788 2780.53 0 0 -1
287 1 3315.34 -244.422 -288.176 0 0 1
288 1 2040.96 828.878 772.446 0 0 0
289 1 -166.498 2310.56 -81.4621 0 -1 0
290 1 3335.94 3004.71 1729.92 -1 -1 -1
291 1 931.613 2833.68 3310.09 0 0 -1
292 1 2346.58 1338.57 -24.1397 -1 0 0
293 1 1939.15 2712.36 3293.5 0 -1 0
294 1 2694.82 32.9289 358.974 -1 0 1
295 1 569.993 1517.98 2614.37 0 0 -1
296 1 1693 214.621 489.477 0 0 0
297 1 1334.05 3051.58 398.497 0 -1 1
298 1 846.365 1138.79 1199.4 0 1 0
299 1 1204.02 3008.4 2809.37 0 -1 0
300 1 1654.46 2714.63 3159.17 0 -1 -1
301 1 291.551 2106.56 2157.83 0 -1 -1
302 1 2700.83 235.645 1228.3 -1 0 0
303 1 3141.53 1551.33 658.571 -1 0 0
304 1 -208.079 871.879 -107.966 0 0 0
305 1 151.447 2237.09 294.288 0 -1 0
306 1 2401.63 2866.31 459.071 -1 0 0
307 1 -303.492 94.2454 3269.24 1 0 -1
308 1 807.959 1219.64 178.069 0 0 0
309 1 -352.093 2476.02 -272.945 1 0 0
310 1 1271.96 856.526 1417.54 0 0 0
311 1 2192.42 2175.27 440.031 0 0 0
312 1 1668.05 -297.766 2358.11 0 1 0
313 1 1102.73 146.42 3243.6 -1 0 -1
314 1 3231.71 1859.06 157.22 0 0 0
315 1 2991.97 1390.71 2472.17 0 0 0
316 1 325.794 859.7 1403.25 0 0 0
317 1 2515.33 3007.84 3098.23 0 0 0
318 1 2472.86 547.459 2274.69 -1 0 0
319 1 1058.81 889.592 2121.74 0 0 0
320 1 2260.14 1949.39 3040.14 0 0 -1
321 1 3297.3 1561.83 128.978 0 0 0
322 1 2664.56 2971.97 2039.35 0 1 0
323 1 -195.488 -142.767 742.937 0 0 0
324 1 3356.8 983.473 1667.12 -1 0 0
325 1 882.501 1874.69 1652.01 0 -1 0
326 1 1112.95 -207.19 117.695 0 1 0
327 1 2261.32 3029.14 674.753 -1 -1 0
328 1 1642.9 775.73 1827.8 0 0 0
329 1 -342.785 2089.5 -185.762 0 0 0
330 1 336.274 582.674 580.838 0 -1 0
331 1 2928.61 1338.31 639.895 0 -1 0
332 1 3104.69 1884.6 916.476 -1 -1 -1
333 1 914.631 1042.54 911.773 0 0 0
334 1 1711.51 195.771 58.152 0 0 0
335 1 -322.947 1350.18 2347.06 0 0 -1
336 1 2893.43 2773.83 826.837 -1 0 0
337 1 263.889 -30.8957 2577.59 0 0 -1
338 1 2119.16 1487.72 109.038 0 0 0
339 1 463.249 1148.74 299.728 0 0 0
340 1 2915.13 2397.03 838.342 0 0 0
341 1 -7.75544 2439.17 142.434 0 0 0
342 1 2781.6 -78.9256 -57.3388 0 -1 0
343 1 1796.62 -341.067 608.198 0 0 0
344 1 1762.86 2754.55 1360.63 0 1 -1
345 1 1069.7 1871.38 -252.114 0 0 0
346 1 417.21 1984.08 1562.3 1 0 0
347 1 1060.19 3333.39 -248.832 0 -1 0
348 1 2890.05 1581.32 1750.28 0 0 0
349 1 2865.63 1118.74 836.324 -1 0 0
350 1 1300.8 2396.64 72.7287 0 0 0
351 1 2141.22 1727.71 980.098 0 0 1
352 1 1389.49 2183.85 1988.53 0 1 0
353 1 1650.81 1660.12 2621.09 0 0 0
354 1 2110.72 1217.87 2236.95 0 0 -1
355 1 1278.69 1935.63 367.233 0 0 0
356 1 560.049 684.259 1328.49 1 0 0
357 1 3246.8 1314.76 -43.3514 -1 0 0
358 1 660.994 2059.75 3006.11 0 -1 0
359 1 -336.608 2456.59 657.729 1 0 0
360 1 869.753 1466.74 29.224 0 0 0
361 1 -153.682 1790.04 1078.33 0 0 0
362 1 -149.892 1674.53 -55.4059 1 0 0
363 1 3164.42 2161.21 1039 -1 -1 -1
364 1 726.354 802.635 1561.44 0 1 0
365 1 2085.72 2518.52 2245.59 0 -1 0
366 1 535.092 286.888 958.53 0 0 0
367 1 1220.97 840.562 217.938 0 0 0
368 1 2936.22 951.615 590.626 -1 0 0
369 1 739.854 2333.78 1158.85 0 0 -1
370 1 361.671 75.4703 1929.59 0 0 0
371 1 993.403 15.6194 1241.85 -1 1 0
372 1 2413.68 2870.18 1491.52 0 -1 -1
373 1 2875.84 1466.19 282.454 0 0 0
374 1 2849.78 1130.41 342.537 0 0 0
375 1 734.285 -265.553 723.524 0 0 0
376 1 2343.69 2577.91 1566.17 0 1 0
377 1 2527.67 2167.21 2517.46 -1 0 0
378 1 1183.54 1687.38 538.784 0 0 0
379 1 477.614 -26.648 798.999 0 1 1
380 1 1845.65 -195.123 2677.79 0 0 0
381 1 817.104 2931.52 1719.19 0 -1 0
382 1 177.267 2492.73 2701.02 1 0 0
383 1 2403.47 2549.23 -3.22612 -1 -1 0
384 1 2435.78 3165.32 382.537 0 0 0
385 1 906.759 1658.84 3263.51 0 0 0
386 1 2232.46 506.915 2993.89 0 -1 -1
387 1 -231.959 2905.36 1479.04 0 -1 0
388 1 3287.38 132.597 3044.12 -1 0 0
389 1 477.181 38.8003 3205.4 0 0 0
390 1 883.356 909.604 2818.7 0 1 0
391 1 3007.12 3279.58 1379.3 -1 0 0
392 1 2997.22 1188.65 81.0211 -1 0 0
393 1 1701.73 515.376 2341.06 0 0 0
394 1 1259.72 3097.02 1723.2 0 -1 0
395 1 2004.55 532.318 1295.68 0 0 0
396 1 222.08 527.073 -67.7666 -1 0 0
397 1 1842.78 1451.7 2241.65 -1 0 -1
398 1 2744.08 2088.45 1430.34 -1 -1 0
399 1 -22.1718 969.064 119.204 0 0 0
400 1 946.789 1668.38 2238.19 0 0 -1
401 1 1173.65 -109.92 -347.09 0 0 0
402 1 772.386 506.197 1604.65 -2 0 0
403 1 -3.79904 2443.31 1280.7 0 -1 0
404 1 1216.5 478.867 -49.2132 0 0 0
405 1 2957.44 2360.3 1132.56 0 0 0
406 1 2001.46 2102.73 1542.14 0 -1 0
407 1 2022.93 753.882 1982.3 -1 0 0
408 1 2965.66 -231.063 2408.89 -1 0 0
409 1 540.707 2261.92 945.658 1 0 0
410 1 2520.58 745.244 213.543 -1 0 0
411 1 1668.68 1175.68 2511.45 1 1 0
412 1 1346.19 1202.4 2072.08 1 0 0
413 1 372.624 2240.51 -171.136 0 0 0
414 1 1635.16 1017.41 1657.54 -1 0 -1
415 1 2802.22 3040.57 3046.6 -1 -1 0
416 1 164.039 2710.75 1124.48 -1 0 0
417 1 3319.46 1664.33 881.461 0 0 0
418 1 1870.05 3214.05 2729.27 0 0 -1
419 1 1912.2 2829.18 1746.21 0 0 0
420 1 1949.22 2450.42 1980.84 0 0 -1
421 1 1100.88 3088.57 2257.77 0 0 0
422 1 1747.76 -204.525 2969.99 0 1 0
423 1 2212.18 684.206 3237.81 -1 -1 -1
424 1 2373.75 1516.54 1263.55 -1 -1 0
425 1 3207.07 2893.8 956.433 -1 0 0
426 1 579.836 1399.21 430.628 0 0 -1
427 1 1977.08 2288.24 179.334 0 0 0
428 1 2830.3 167.204 119.787 -1 0 0
429 1 1063.77 2288.72 2853.23 0 0 -1
430 1 1384.15 63.8833 2715.63 0 0 -1
431 1 1672.39 2354.99 1790.07 0 -1 -1
432 1 200.187 3303.2 -257.659 0 -1 0
433 1 1484.19 2325.19 1067.95 0 1 0
434 1 -71.368 3178.51 2579.63 0 -1 -1
435 1 1972.62 3103.52 720.026 0 0 0
436 1 3147.75 587.797 -204.064 -1 0 0
437 1 1351.03 1949.01 1938.36 0 0 0
438 1 546.818 566.358 1043.43 0 0 0
439 1 -222.638 2601.88 303.279 0 0 0
440 1 1274.88 3084.32 2511.27 0 -1 -1
441 1 1152.38 2657.15 2115.52 1 0 1
442 1 2170.18 2967 1832.28 0 -1 -1
443 1 291.565 694.352 1146.31 0 0 0
444 1 1757.21 1256.34 2921.75 1 0 -1
445 1 275.754 489.705 925.689 0 0 0
446 1 2393.59 1892.44 2462.85 0 0 -1
447 1 1957.28 1539.55 1980.11 -1 0 0
448 1 3247.92 947.585 581.903 -1 0 0
449 1 2086.73 489.055 1850.56 -1 0 0
450 1 331.751 2540.27 -232.998 1 0 1
451 1 2939.6 1096.34 1935.55 1 0 0
452 1 1215.27 2979.68 1994.01 -1 0 -1
453 1 1737.37 839.239 839.88 0 0 0
454 1 767.942 752.138 3063.33 0 0 -1
455 1 3276.17 469.115 3330.48 -1 0 0
456 1 1773.5 2415.2 2679.63 0 0 -1
457 1 1530.17 754.881 1545.46 0 0 0
458 1 -52.5578 1650.39 2913.17 0 0 -1
459 1 491.793 3231.93 1404.95 0 -1 0
460 1 1545.92 -191.73 2738.39 0 0 0
461 1 123.896 508.728 1529.62 1 0 0
462 1 646.662 3235.99 2363.16 0 -1 -1
463 1 1029.97 761.473 1571.08 0 1 0
464 1 2299.47 645.683 1987.62 0 0 0
465 1 1936.1 -221.391 949.505 0 0 0
466 1 2252.31 3251.79 1878.88 -1 -1 0
467 1 1033.51 3028.89 1526.24 -1 0 0
468 1 1273.43 837.898 515.891 0 0 0
469 1 3209.07 -231.687 611.814 -1 0 0
470 1 -151.194 -62.8326 2001.27 0 0 -1
471 1 2177.96 2454.98 3203.55 0 0 -1
472 1 -253.766 785.158 2530.72 0 0 -1
473 1 199.38 3318.54 679.4 0 -1 0
474 1 -201.82 2379 947.074 0 -1 0
475 1 416.588 2131.44 1301.16 -1 -1 0
476 1 2912.15 1722.53 231.793 -1 0 1
477 1 1179.2 -132.035 1894.2 -1 0 0
478 1 -74.4301 1942.24 2007.21 1 0 0
479 1 967.201 1912.08 539.065 0 0 0
480 1 2031.69 2869.36 1112.64 0 -2 0
481 1 40.4717 827.054 379.291 0 1 0
482 1 1954.78 2915.17 2742.68 0 0 0
483 1 123.942 332.311 147.998 1 0 0
484 1 2120.51 1289.23 349.495 0 0 1
485 1 2910.04 1383.97 -179.161 0 0 0
486 1 2265.67 2692.48 2414.28 0 0 0
487 1 1531.5 2606.92 2897.39 0 0 -1
488 1 771.65 450.413 870.585 0 0 0
489 1 1316.6 1243.16 2424.97 0 0 0
490 1 -330.134 2505.63 636.559 0 0 0
491 1 2787.94 -307.071 -252.14 -1 0 0
492 1 156.704 1103.5 312.909 0 0 0
493 1 1368.6 1539.82 337.038 0 0 0
494 1 1868.39 3266.95 3113.45 0 -1 0
495 1 981.769 2554.67 570.151 0 0 0
496 1 -156.788 534.071 2669.55 0 1 0
497 1 2397.65 3100.03 2115.55 0 0 0
498 1 1065.74 1109.89 2969.11 0 1 0
499 1 1134.5 2817.83 2380.17 0 0 0
500 1 640.756 1158.76 2366.77 0 0 0
501 2 2566.82 1825.04 1649.64 0 0 0
502 2 549.125 1879.19 1023.86 1 0 0
503 2 -63.4653 845.159 1460.76 0 0 0
504 2 1220.12 1518.5 -274.923 0 0 1
505 2 2857.09 1614.56 3067.62 0 0 -1
506 2 798.675 150.953 2458.49 0 0 0
507 2 600.933 1786.31 478.177 0 0 0
508 2 1269.67 2789.28 3122.19 0 0 -1
509 2 3045.26 3297.21 3177.9 0 0 0
510 2 558.418 1542.63 -325.808 0 0 0
511 2 1177.27 -320.272 2747.12 0 1 -1
512 2 1368.62 652.346 2186.92 0 0 0
513 2 41.4871 2137.04 2445.01 0 0 0
514 2 1821.8 1899.37 3066.71 0 0 0
515 2 2763.62 1124.76 2292.51 0 0 -1
516 2 -295.14 3306.01 1952.36 1 -1 0
517 2 148.504 1831.76 771.349 1 0 0
518 2 895.045 3061.86 2574.02 0 0 0
519 2 2693.78 1361.39 2702.45 0 0 0
520 2 3062.14 2748.33 1278.74 -1 0 0
521 2 1742.73 1443.3 178.493 0 0 0
522 2 582.73 1437.49 1076.85 0 1 0
523 2 2395.48 180.798 2401.48 0 0 0
524 2 1028.95 1994.69 3098.13 0 0 -1
525 2 2035.42 2723.32 743.035 1 0 0
526 2 2424.69 2926.91 67.1991 0 0 1
527 2 3240.01 3235.64 2372.2 0 -1 0
528 2 -53.2632 2332.19 1973.66 1 0 0
529 2 76.5299 2951.61 839.316 0 0 0
530 2 2608.94 2898.62 2736.87 -1 -1 -1
531 2 3189.27 758.573 1380.76 0 0 0
532 2 3252.05 2480.86 2369.43 -1 0 0
533 2 2611.31 1571.72 2299.92 0 1 0
534 2 2360.46 1715.87 -76.981 0 0 1
535 2 -243.623 2523.26 1569.55 0 0 0
536 2 2626.54 2530.74 2450.08 0 0 0
537 2 2961.53 3179.99 932.146 -1 0 0
538 2 2104.49 1781.32 1353.62 0 0 0
539 2 2729.62 3025.44 -285.698 0 -1 1
540 2 1021.01 112.189 2863.07 0 1 0
541 2 912.319 565.633 2282.33 0 0 0
542 2 846.513 69.8337 872.188 0 0 0
543 2 2743.44 408.287 868.673 0 -1 -1
544 2 885.567 1554.29 1868.36 0 0 -1
545 2 3196.4 2351.11 1914.73 0 0 0
546 2 1569.01 555.026 66.8172 0 0 1
547 2 3315.41 1128.85 2021.55 0 1 0
548 2 1340.48 1091.56 3253.53 0 0 0
549 2 643.428 2896.3 -25.0913 0 0 0
550 2 1494.78 3022.15 1425.87 0 0 0
551 2 130.925 180.458 3130.5 1 0 0
552 2 -262.491 2856.65 -4.36297 1 0 0
553 2 2540.64 -26.4673 3354.1 -1 0 0
554 2 2428.79 648.636 1612.2 0 0 0
555 2 216.417 475.97 1905.12 0 1 0
556 2 549.498 958.195 1037.53 1 0 0
557 2 722.348 -329.854 1099.18 0 1 0
558 2 1968.82 2350.5 2763.92 0 0 0
559 2 1245.62 108.218 637.348 0 0 0
560 2 1291.52 1655.46 1638.46 0 0 0
561 2 2100.36 -141.435 3112.12 0 0 -1
562 2 1126.49 1486.59 2986.48 0 0 0
563 2 1287.66 912.907 1792.59 0 0 0
564 2 2387.66 170.395 2882.1 0 0 0
565 2 394.155 2950.52 501.271 0 0 0
566 2 927.036 1678.31 837.967 1 0 0
567 2 2908.29 14.9839 3043.94 0 -1 -1
568 2 2275.75 1450.26 1629.6 0 0 0
569 2 43.4289 90.5961 1698.82 0 0 0
570 2 1508.91 2403.18 1438.95 0 0 0
571 2 1125.14 1122.45 -33.2379 0 1 0
572 2 1736.56 -318.275 1271.86 0 0 0
573 2 -190.246 2481.22 2837.68 1 -1 0
574 2 1447.05 44.2408 1319.11 0 1 0
575 2 843.874 772.617 107.436 0 0 0
576 2 1892.26 110.399 1189.25 0 0 0
577 2 1973.17 768.672 1595.51 0 0 0
578 2 2631.06 1071.79 8.37847 -1 0 1
579 2 33.0102 1067.14 3074.86 1 0 -1
580 2 -273.226 49.0521 -53.7954 1 0 1
581 2 193.853 847.686 2675.56 0 0 0
582 2 2977.18 1745.21 2629.81 -1 0 0
583 2 -40.5514 493.747 1159.69 0 0 0
584 2 -249.55 220.431 2473.51 0 0 0
585 2 196.534 2766.93 57.5884 0 0 0
586 2 1837.55 2476.57 1103.42 0 0 0
587 2 419.902 2412.64 2346.34 0 0 0
588 2 2259.96 1144.36 658.617 0 0 -1
589 2 3211.74 1403.31 3279.23 -1 0 -1
590 2 3319.53 3154.82 1226.27 0 -1 0
591 2 2091.13 128.874 1995.03 0 1 -1
592 2 -96.6501 1259.9 1693.24 0 0 0
593 2 1697.1 2455.73 2283.27 0 0 0
594 2 287.976 1279.13 2508.62 0 0 -1
595 2 2334.4 2169.71 67.8836 0 0 0
596 2 2992.55 247.301 2459.77 -1 0 0
597 2 587.183 -178.167 1754.05 0 0 0
598 2 -150.85 756.374 1905.58 0 0 0
599 2 3263.31 555.405 573.136 -1 0 0
600 2 2763.17 -112.159 1044.81 0 1 0
601 2 2809.21 1166.24 3229.65 -1 0 -1
602 2 1405.13 1907.73 2827.22 0 0 0
603 2 3239.24 605.719 2281.34 -1 0 0
604 2 -182.807 68.7786 1292.59 0 0 0
605 2 551.608 2556.46 294.98 0 0 0
606 2 254.981 1740.2 2669.98 1 0 -1
607 2 1218.59 447.814 1419.02 -1 0 0
608 2 888.791 2147.57 822.685 0 0 0
609 2 1854.56 1018.68 426.665 -1 -1 -1
610 2 1061.37 3056.51 1133.3 0 0 0
611 2 166.805 2238.02 1006.18 0 -1 0
612 2 2343.1 1148.79 -356.106 0 0 0
613 2 2319.86 467.875 655.613 0 0 0
614 2 1967.87 3132.42 2111.84 0 -2 0
615 2 527.696 1619.15 1498.12 -1 -1 -1
616 2 3149.16 981.18 -214.433 -1 0 0
617 2 1450.96 -270.208 -137.392 -1 0 0
618 2 2638.62 1326 1896.27 0 0 0
619 2 -54.016 2997.58 393.284 1 -1 1
620 2 3222.73 -50.3901 2177.5 -1 0 -1
621 2 1595.01 2976.51 1869.54 0 0 0
622 2 274.909 1357.01 1955.58 0 0 -1
623 2 -214.877 2730.19 1128.93 0 0 0
624 2 1834.93 -40.196 1641.43 0 1 0
625 2 3232.82 1219.86 842.713 -1 0 0
626 2 -41.4968 2033.18 2895.16 0 0 -1
627 2 123.861 2233.35 1546.79 0 -1 0
628 2 1852.01 921.869 2280.43 -1 0 -1
629 2 -198.791 1752.7 2559.35 0 0 -1
630 2 2970.34 2575.89 490.346 0 0 0
631 2 408.737 200.708 -185.383 0 0 0
632 2 181.665 1746.83 2212.06 0 0 -1
633 2 -270.014 2022.71 1692.79 0 0 -1
634 2 2051.18 2991.16 354.429 0 -1 0
635 2 560.766 652.611 -234.46 0 0 0
636 2 2045.41 1100.27 7.0042 0 0 0
637 2 2489.78 1388.47 327.087 0 0 0
638 2 2497.69 35.5189 686.038 0 1 0
639 2 2801.55 674.598 2445.72 -1 -1 0
640 2 -205.205 -278.064 378.2 0 0 0
641 2 630.992 689.369 1915.1 1 0 0
642 2 2968.09 2853.54 2434.91 0 -1 -1
643 2 971.511 -262.603 2312.37 0 0 0
644 2 136.695 1354.44 -285.023 0 0 1
645 2 1176.16 3129.57 55.975 0 -1 0
646 2 339.694 1881.65 3117.76 0 0 -1
647 2 1260.89 2707.34 1713.09 0 -1 0
648 2 1334.02 2666.37 330.737 0 0 0
649 2 861.741 1265.71 2667.05 0 0 0
650 2 144.605 2882.76 2717.47 0 0 0
651 2 -276.488 2022.2 790.626 0 -1 0
652 2 2551.32 856.943 763.305 0 0 0
653 2 2484.95 2358.01 -327.361 0 -1 0
654 2 2829.67 2608.82 2044.58 0 -1 0
655 2 1179.7 1587.09 2534.98 0 0 0
656 2 2175.63 -317.975 562.112 0 1 0
657 2 900.603 2449.87 1894.24 0 0 0
658 2 2750.66 2237.11 1789.46 0 0 0
659 2 1555.63 2818.76 2566.32 0 0 -1
660 2 2208.5 2150.07 2021.94 0 0 -1
661 2 956.649 3252.48 1893.26 0 -1 0
662 2 1900.73 758.524 -280.6 0 0 0
663 2 -283.044 3050.52 3296.14 0 -1 0
664 2 2969.65 2485.31 2756.03 -1 0 -1
665 2 2223.7 72.0461 303.033 0 0 0
666 2 968.69 1989.04 2631.44 0 0 0
667 2 2861.95 473.061 1558.99 -1 0 0
668 2 981.083 3335.59 432.482 0 0 0
669 2 2652.53 3337.69 1412.03 -1 -1 0
670 2 799.638 -48.6216 -331.328 0 0 0
671 2 -111.67 1098.87 586.282 1 0 0
672 2 499.085 2880.7 2408.87 0 -1 0
673 2 567.368 1956.37 2376.93 0 0 -1
674 2 3079.69 -137.831 181.683 -1 0 0
675 2 529.262 1860.92 1917.31 0 0 0
676 2 1027.78 2355.62 2337.99 0 -1 0
677 2 1144.12 -289.539 864.694 0 0 0
678 2 1394.83 2337.35 2629.01 0 0 0
679 2 -61.8422 1054.98 2340.52 0 0 0
680 2 1217.17 751.61 2943 0 0 -1
681 2 1434.02 1923.47 3322.37 0 0 -1
682 2 1491.78 3135.62 974.995 0 -1 0
683 2 2084.63 513.3 2278.73 0 0 0
684 2 151.912 329.841 2687.02 0 0 -1
685 2 2558.27 1251.26 1030.26 0 0 0
686 2 273.592 1862.35 -143.484 0 0 0
687 2 2231.82 3357.27 107.753 0 -1 1
688 2 433.29 2890.15 1594.51 0 0 0
689 2 701.121 239.735 2013.26 0 0 0
690 2 364.317 913.23 2234.24 0 0 0
691 2 2369.85 2163.81 1404.76 0 0 0
692 2 2776.22 2928.48 1617.16 -1 -1 0
693 2 1378.62 50.9328 200.35 0 0 0
694 2 1939.28 468.983 2723.9 0 1 0
695 2 2468.72 1847.88 372.587 0 0 0
696 2 1716.38 1797 2124.26 0 0 0
697 2 3103.87 752.629 1844.65 0 0 0
698 2 1572.22 3021.2 -316.023 0 0 0
699 2 93.5451 3039.69 1302.86 0 -1 0
700 2 2336.77 -138.757 1692.5 -1 0 0
701 2 2170.2 2288.29 822.113 0 0 0
702 2 2284.21 -129.579 1084.87 0 1 0
703 2 2319.62 2786.48 3341.73 0 -1 0
704 2 1383.64 175.055 1758.21 0 1 0
705 2 -91.5407 -224.464 2340.87 0 0 -1
706 2 1081.19 2692.61 -73.8268 0 0 -1
707 2 1349.73 2327.82 3097.92 0 0 -1
708 2 1553.16 739.67 2613.58 0 0 0
709 2 1289.47 954.898 891.859 0 0 0
710 2 519.231 -146.265 2213.59 0 -1 -1
711 2 1443.24 -290.238 1650.13 0 0 0
712 2 328.217 3212.6 96.3642 0 -1 1
713 2 1783.58 2617.79 204.091 -1 0 1
714 2 936.704 114.818 1627.44 0 0 0
715 2 116.763 2572.49 478.285 0 0 0
716 2 393.511 2199.32 592.27 0 0 0
717 2 2331.67 -236.812 2175.35 0 1 0
718 2 1807.64 3354.75 -305.923 0 -1 1
719 2 517.115 3135.63 2000.91 0 -1 0
720 2 1720.46 2145.62 -91.2752 0 0 1
721 2 565.335 3252.17 3318.34 0 -1 -1
722 2 2420.91 1588.28 743.636 -1 0 0
723 2 2540.2 2327.44 2862.87 0 -1 0
724 2 2175.73 1620.34 3196.95 0 0 -1
725 2 1144.92 153.275 2157.39 0 1 0
726 2 2688.1 2502.81 1402.4 0 0 0
727 2 2760.65 979.915 1602.21 0 0 0
728 2 3096.97 846.731 233.621 0 1 0
729 2 2700.76 1432.32 1443.14 0 0 0
730 2 1376.23 1234.98 1459.63 0 0 0
731 2 3128.66 3195.78 -91.1617 -1 -1 0
732 2 -17.46 2667.31 3348.62 0 -1 -1
733 2 3017.73 1476.5 2088.87 0 0 0
734 2 772.056 3070.29 760.416 0 -1 0
735 2 470.156 2328.12 3182.2 0 0 -1
736 2 2684.08 3317.01 1874.39 -1 -1 -1
737 2 958.77 775.469 1188.64 0 1 0
738 2 1314.08 2424.3 729.29 0 0 0
739 2 392.649 2172.26 2751.54 0 0 -1
740 2 3142.82 3154.1 367.285 -1 -1 0
741 2 1369.21 3324.48 2108.61 0 -1 -1
742 2 2562.11 1864.23 2803.79 -1 -1 -1
743 2 2026.4 421.347 26.5192 0 0 0
744 2 155.874 -298.546 1940.27 -1 0 0
745 2 1539.95 654.521 1146.22 0 0 0
746 2 1962.61 896.83 1141.68 0 0 0
747 2 2090.41 1338.59 1053.07 0 0 1
748 2 2123.83 2042.65 -327.092 0 0 0
749 2 770.521 3349.06 15.1234 0 -1 0
750 2 1538.82 3131.2 2929.32 0 0 0
751 2 567.984 1100.65 -105.693 0 0 1
752 2 262.456 939.48 1777.48 1 0 0
753 2 3200.75 622.821 2756.17 -1 0 0
754 2 1244.7 392.47 2557.26 0 0 0
755 2 545.816 2785.42 3245.38 0 0 0
756 2 3347.16 2045.2 2232.23 -1 0 0
757 2 971.403 1997.79 2017.67 0 0 0
758 2 1449.16 1986.2 1245.43 -1 0 0
759 2 184.621 119.445 1011.54 1 0 0
760 2 2337.26 737.748 -124.239 0 0 1
761 2 3092.56 1854.77 -326.92 -1 0 0
762 2 517.915 2953.68 1135 0 0 0
763 2 2492.57 1974.42 2095.54 0 0 0
764 2 156.723 1843.29 310.935 0 0 0
765 2 989.402 2360.22 219.159 0 0 0
766 2 2595.89 2257.39 1006.24 0 0 0
767 2 2664.31 723.84 1216.39 0 0 0
768 2 2953.05 2299.11 -286.931 0 0 0
769 2 -40.4308 610.036 3015.33 0 0 -1
770 2 2232.42 -197.495 2638.67 0 0 -1
771 2 371.597 1479.85 103.758 0 0 0
772 2 2743.76 2988 541.878 0 -1 0
773 2 2125.93 22.3365 -151.551 0 0 1
774 2 1896.45 1438.41 627.622 0 0 0
775 2 1638.8 1236.07 1072.09 0 0 0
776 2 1701.29 1732.56 933.794 -1 -1 0
777 2 3118.85 1284.84 1625.56 0 0 0
778 2 2793.81 638.644 -56.1859 0 0 0
779 2 895.024 1223.53 3292.44 0 0 -1
780 2 961.025 3148.41 3082.58 0 0 -1
781 2 1750.56 2047.17 2540.72 0 -1 -1
782 2 2969.15 1136.75 1212.41 0 0 0
783 2 1618.33 1362.37 1835.39 0 0 0
784 2 1403.66 1147.9 339.592 0 0 0
785 2 -67.2345 -249.121 3220.44 0 1 0
786 2 6.76597 3005.56 1761.94 0 -1 0
787 2 3034.95 3262.23 1495.41 0 -1 0
788 2 3282.45 984.447 3056.91 -1 0 -1
789 2 421.203 580.751 2996.26 0 0 -1
790 2 2481.16 861.332 3020.53 -1 -1 -1
791 2 -122.119 1315.63 2713.35 0 0 -1
792 2 1530.62 382.121 2932.62 0 0 -1
793 2 3005.83 319.096 1989.03 -1 0 0
794 2 12.5147 587.035 2317.07 0 0 -1
795 2 2825.56 -271.054 556.002 -1 0 0
796 2 3047.29 1903.23 1901.24 0 0 0
797 2 2193.09 3150.83 2936.98 0 -1 0
798 2 637.702 1159.09 1932.92 0 0 0
799 2 1976.36 2920.65 -95.8773 0 -1 0
800 2 2134.42 1242.08 2901.36 0 0 -1
801 2 2889.69 2849.81 117.317 -1 -1 1
802 2 3073.58 134.873 1310.12 0 0 0
803 2 2750.46 -27.7467 2163.5 0 0 0
804 2 3193.18 1043.86 2468.89 -1 0 0
805 2 1582.47 1025.93 -64.6984 0 -1 0
806 2 143.804 -46.635 579.929 0 0 0
807 2 698.206 1997.15 -285.767 0 -1 0
808 2 -238.853 646.35 3320.85 0 0 0
809 2 2234.1 3151.67 1281.2 -1 -1 -1
810 2 330.405 962.686 625.055 0 0 -1
811 2 2782.74 426.618 2848.35 0 0 -1
812 2 -109.664 -321.031 1533.73 0 0 0
813 2 162.4 1839.28 1292.43 0 0 0
814 2 -257.691 433.198 1573.26 0 0 0
815 2 1189.02 2109.91 1613.35 0 0 0
816 2 556.956 261.718 555.03 0 1 0
817 2 1455.34 631.913 3330.68 0 0 -1