ITEM: TIMESTEP
329000
ITEM: NUMBER OF ATOMS
1000
ITEM: BOX BOUNDS pp pp pp
1.6740482060625591e+03 3.3259517939369052e+03
1.6740482060625591e+03 3.3259517939369052e+03
1.6740482060625591e+03 3.3259517939369052e+03
ITEM: ATOMS id type x y z ix iy iz
1 1 2702.67 2464.69 1767.27 -1 0 1
2 1 2202.4 1695.76 2590.1 0 0 0
3 1 3055.55 2557.18 2253.41 0 0 0
4 1 2321.02 1922.32 3038.45 0 -1 0
5 1 3150.57 2849.86 2647.22 -1 -1 1
6 1 2097.48 1970.17 3148.64 0 0 0
7 1 1909.9 2882.06 2760.97 0 -1 0
8 1 2269.69 1960.11 2481.27 0 0 1
9 1 2858.77 2891.23 2478.58 0 0 0
10 1 2758.96 2507.04 2602.84 0 0 0
11 1 2645.96 2238.8 2576.57 0 0 0
12 1 1745.59 3001.41 3278.24 0 0 0
13 1 2961.09 3221.98 3188.89 -1 0 -1
14 1 2298.2 2658.28 2773.86 0 0 -1
15 1 3022.44 2299.83 2182.57 0 0 0
16 1 2276.61 3319.99 2467.22 0 0 -1
17 1 2453.08 2792.11 2803.21 1 0 -1
18 1 2939.04 2390.26 2469.7 -1 1 0
19 1 2777.1 2058.38 1975.59 -1 0 0
20 1 1772.32 2892.95 2845.84 0 -1 0
21 1 2152.44 2507.44 2559 0 1 0
22 1 2625.88 2858.97 2679.61 2 -1 0
23 1 2776.56 2251.45 2643.54 0 0 1
24 1 2845.27 3119.6 2261.34 0 0 0
25 1 1959.45 2084.3 2721.74 -1 0 0
26 1 2822.09 2891.47 2819.52 0 0 0
27 1 2934.6 2424.57 2743.74 -1 0 1
28 1 2163.65 2465.17 2422.86 0 0 0
29 1 2551.18 2330.83 2614.03 0 0 -1
30 1 2720.64 3165.58 2784.59 0 0 0
31 1 1759.51 1894.95 2800.07 0 0 0
32 1 1879.53 2954.27 3044.72 0 0 -1
33 1 2277.85 2419.97 2961.12 0 0 0
34 1 2463.52 1692.44 2785.89 0 0 0
35 1 2143.23 2270.02 2420.31 0 0 -1
36 1 1806.29 2745.6 1734.09 0 -1 0
37 1 2005.31 2019.13 2051.93 0 0 0
38 1 2289.81 2859.01 2268.69 0 0 0
39 1 3021.84 2413.62 2785.07 -2 0 -1
40 1 2951.53 2481.64 2127.31 -1 -1 2
41 1 2097.12 2816 2032.11 0 0 -1
42 1 2811.78 2649.88 2178.27 0 -1 0
43 1 2454.06 2563.71 2165.84 0 -2 0
44 1 2862.81 3142.94 1948.48 0 -1 0
45 1 2471.29 2366.28 2725.97 0 0 0
46 1 2805.97 3240.67 2893.37 -1 -1 0
47 1 3136.72 3035.58 2280.64 -1 -1 -1
48 1 3018.35 2184.31 2722.91 0 0 -1
49 1 2797.63 2541.71 2316.68 -1 0 1
50 1 2905.39 1919.6 3086.03 -1 0 0
51 1 3069.34 1749.24 2298.14 -1 -1 1
52 1 3310.68 2529.04 3215.87 -1 0 -1
53 1 2939.71 2087.68 3144.25 -2 0 -1
54 1 3079.24 2322.29 2864.4 0 0 -1
55 1 2888.61 2892.58 2846.63 -2 0 -1
56 1 2949.56 2243.74 1890.49 0 0 0
57 1 2098.1 2514.47 3231.97 0 0 -1
58 1 2474.4 2595.33 3212.1 0 0 -1
59 1 2608.39 3136.26 2713.14 -1 -1 0
60 1 2144.76 2987.07 1823.5 -1 -1 1
61 1 2014 2732.65 2465.08 -1 0 0
62 1 2568.11 1722.09 2961.83 0 0 -1
63 1 3008.06 2274.09 2972.02 -1 0 0
64 1 2785.64 2600.12 3027.49 0 -1 -1
65 1 3028.48 2916.54 2686.66 -1 -1 -1
66 1 3063.95 2817.15 2523.52 -1 0 1
67 1 2495.08 2445.88 1904.46 0 0 0
68 1 2308.75 2844.65 3101.22 0 -1 -1
69 1 1754.96 2563.08 2741.77 0 0 0
70 1 1908.4 1768.65 3141.71 0 1 -1
71 1 2086 2648.92 2530.14 -1 0 -1
72 1 2687.37 2154.08 3301.36 0 0 -1
73 1 2618.41 1807.08 1686.83 0 1 1
74 1 2982.89 2674.12 2216.14 -1 0 -1
75 1 2099.42 2480.46 1882.5 0 0 1
76 1 1838.32 1890.52 2907.58 -1 0 0
77 1 2592.47 2493.45 3124.72 -1 -1 -1
78 1 1866.85 3292.67 1973.36 0 -1 0
79 1 2149.19 2375.14 2520.58 0 -1 0
80 1 3007.21 2418.8 2465.28 -1 0 0
81 1 3303.95 1981.78 1988.62 -1 0 0
82 1 2015.25 2280.89 3162.53 1 0 0
83 1 2482.78 2123.17 2667.61 -1 -1 -1
84 1 2087.04 3297.98 3208.28 1 0 -1
85 1 2501.6 2419.02 2452.44 0 -1 0
86 1 3177.8 2401.8 2790.23 -1 0 0
87 1 1912.31 2083.14 2849.08 0 -1 -1
88 1 1769.27 2724.62 2115.67 0 -1 0
89 1 2801.42 2777.99 1932.71 0 0 0
90 1 3220.97 3077.96 2350.02 -2 -1 0
91 1 1855.58 3218.54 2883.71 0 -1 -1
92 1 2078.58 2757.46 2484.45 0 -1 -1
93 1 2267.86 3163.44 2694.23 1 0 0
94 1 2286.66 2201.08 3170.05 0 0 -1
95 1 1930.59 2442.73 2812.64 -1 -1 -1
96 1 2731.43 2466.23 2053.91 -1 0 0
97 1 2328.08 2423.8 2102.03 0 -1 1
98 1 2670.5 2159.64 2908.79 -1 -1 0
99 1 2468.03 2815.03 2933.05 0 -1 -1
100 1 2708.67 2075.6 1763.43 -1 0 0
101 1 1754.85 2853.91 2383.03 0 -1 0
102 1 2299.86 1713.33 2653.92 -1 0 0
103 1 2827.85 2508.56 2143.28 -1 0 0
104 1 3238.06 2675.87 2444.91 0 -1 -1
105 1 3186.54 2994.49 2734.89 -1 0 0
106 1 3231.91 2067.04 2794.18 0 1 -1
107 1 2731.44 2224.01 2452.5 -1 -2 0
108 1 3138.73 3048.68 1820.05 -1 0 -1
109 1 2285.57 2528.82 2421.47 -1 -1 0
110 1 2727.27 2716.9 1813.27 0 -1 0
111 1 3225.97 1674.44 3230.94 -1 0 -1
112 1 2634.84 1836.56 2926.74 0 0 0
113 1 2398.69 2703.34 2899.86 0 0 -1
114 1 2691.24 2425.39 2881.06 -1 0 0
115 1 2290.8 2651.06 2970.35 0 0 -1
116 1 2818.12 2433.52 2849.04 0 0 0
117 1 2376.22 3262.89 2717.28 0 -1 -1
118 1 2166.88 2758.28 2304.66 -1 0 -1
119 1 3179.1 2909.4 2272.66 0 -1 0
120 1 2739.29 2338.56 1921.08 1 0 0
121 1 3021.01 3111.05 2983.56 -1 0 0
122 1 2760.17 3013.16 2467.71 0 0 -1
123 1 1873.52 1845.38 3248.07 -1 1 -1
124 1 2584.06 2516.83 1768.67 0 0 1
125 1 1876.23 2999.77 2047.35 0 -2 0
126 1 2238.19 3321.84 2945.11 0 0 -1
127 1 2741.21 2295.91 2160.37 -1 -1 0
128 1 2130.67 2307.16 3323.41 -1 0 0
129 1 2477.49 2442.05 2410.04 -1 0 0
130 1 3219.5 2619.46 2075.35 0 -1 0
131 1 2869.16 3068.23 1704.43 -1 -1 0
132 1 2603.3 2769.36 2952.08 0 -1 -1
133 1 2540.79 2417.91 2823.29 0 0 -1
134 1 2021.01 3115.08 2486.53 -1 -1 -1
135 1 2219.5 3262.52 3210.04 0 -1 -1
136 1 2916.17 2165.96 3039.99 -1 0 0
137 1 3067.09 1987.49 2026.64 -1 0 0
138 1 2729.5 2571.11 1975.67 0 -1 0
139 1 2918.27 2579.43 2113.94 -1 -1 -1
140 1 2890.66 2943.36 2735.45 -1 -1 -1
141 1 2830.45 2770.3 2121.85 -1 1 0
142 1 2446.49 2283.33 2829.32 0 1 -1
143 1 3057.01 2924.35 2292.74 -1 0 0
144 1 1747.09 2939.12 2557.38 -1 -1 0
145 1 2334.04 2265.84 2150.55 0 0 0
146 1 3180 2567.92 2194.86 -1 -1 0
147 1 1858.24 2483.24 2696.05 0 0 -1
148 1 2720.26 2682.26 2374.18 -1 -1 1
149 1 2956.11 2805.06 2733.38 0 0 0
150 1 2435.41 2584.39 2553.58 0 0 0
151 1 2546.48 2976.46 2733.17 0 -2 -1
152 1 3198.99 2618.58 2888.53 -1 -1 0
153 1 2862.46 2761.28 2831.77 -1 -1 -1
154 1 3118.73 2670.67 2300.9 -1 0 -1
155 1 2915.79 2381.62 2536.47 0 0 0
156 1 2091.18 2510.86 3074.41 0 0 -2
157 1 3292.49 2927.84 2350.04 0 0 -1
158 1 2709.23 2720.16 2082.92 -1 -1 0
159 1 2985.73 2637.47 2647.84 0 -1 0
160 1 2872.93 1996.06 2808.38 -1 0 0
161 1 2677.75 2708.18 1945.7 0 0 -1
162 1 2776.09 2109.18 2532.05 0 -1 0
163 1 2399.1 2575.84 2837.08 0 0 -1
164 1 3100.23 2449.01 1982.76 0 -1 -1
165 1 2297.12 2192.65 3229.77 0 0 -1
166 1 1711.8 2696.49 2008.02 0 0 -1
167 1 2646.95 2691.67 2365.3 0 -1 0
168 1 1940.69 2200.04 2933.59 0 0 0
169 1 2213.35 3143.92 1895.89 0 -1 -1
170 1 2922.27 2898.68 2369.5 0 -1 0
171 1 2789.85 2157.87 2989.97 -1 -1 -1
172 1 2604.63 2905.92 2161.34 0 -1 -1
173 1 2779.22 2396.01 2521.76 -1 0 -1
174 1 2836.33 1898.53 3244.57 -2 0 -1
175 1 3062.64 2963.61 1725.28 -1 -1 -1
176 1 2156.39 2131.18 2934.58 0 0 0
177 1 2791.64 3190.13 1810.43 -1 0 0
178 1 3173.76 2212.97 2779.69 -1 0 0
179 1 1979.31 2204.15 2980.55 -1 0 0
180 1 3128.9 2865.85 2929.85 0 0 -1
181 1 1819.82 2642.59 3014.21 0 -1 1
182 1 2832.12 3226.78 2209.75 0 -1 0
183 1 1732.75 2964.81 2058.97 0 -1 0
184 1 2898.93 2254.13 2673.28 0 -1 1
185 1 1810.79 2310.89 2624.54 0 0 -1
186 1 3013.85 2349.1 1931.61 -1 0 -1
187 1 3300.03 2648.64 2795.93 0 0 -1
188 1 2575.24 1699.95 3275.91 0 1 -1
189 1 3268.75 2127.01 3197.11 -1 0 -1
190 1 2584.39 2654.31 2486.85 -1 0 0
191 1 2843.75 1799.3 3091.89 0 0 0
192 1 3145.55 3181.29 1862.85 -1 -1 0
193 1 3215.16 2773.64 2887.49 -2 -1 0
194 1 2871.6 2170.28 2003.08 0 -1 -1
195 1 2183.68 2596.03 2752.44 -1 0 0
196 1 2403.13 2514.92 3293.09 0 0 -1
197 1 2208.74 2313.02 1770.45 -1 1 1
198 1 2795.01 3131.16 3197.29 -1 -1 0
199 1 2347.65 3101.38 1721.52 0 0 1
200 1 2115.47 1984.44 2945.96 0 0 -1
201 1 3131.92 2212.08 2942.29 -1 0 0
202 1 2579.44 2384.18 3207.78 -1 -1 -1
203 1 3042.35 3032.41 3227.3 -1 -1 0
204 1 2451.08 2358.93 2953.59 0 -1 -2
205 1 2951.91 2617.25 3011.03 -1 -1 0
206 1 3165.24 1771.17 3148 -1 0 0
207 1 2424.96 2731.65 3191.19 -1 -1 -1
208 1 2434.04 2236.6 2700.18 0 0 -1
209 1 2700.94 2666.18 2942.92 -1 -1 0
210 1 3024.98 2540.03 1871.3 0 -1 0
211 1 2812.59 2899.17 1877.43 -1 -1 0
212 1 2375.9 1683.74 2374.86 0 0 -1
213 1 2997.11 2677.71 2501.52 0 1 -1
214 1 2415.33 2861.05 2472.01 0 -1 0
215 1 1674.91 2924.18 1944.46 0 0 -1
216 1 2655.31 2350.93 3120.39 -1 0 -1
217 1 2897.85 2187.77 2131.12 -1 0 1
218 1 2187.6 2604.59 2015.82 0 0 0
219 1 3036.76 2912.73 2440.03 0 -1 0
220 1 2203.34 2440.05 3110.61 -1 0 -1
221 1 2954.55 1819.27 3009.51 -1 0 -1
222 1 2835.97 2210.26 1678.08 0 -1 1
223 1 2466.09 2459.01 3171.24 0 -1 -2
224 1 1783.87 3178.72 2495.68 0 -1 0
225 1 2784.87 3264.85 2449.56 0 -1 0
226 1 2761.02 2547.67 2880.17 0 -1 0
227 1 3193.69 2407.13 2657.21 -1 -1 -1
228 1 1716.29 3099.6 1727.47 0 0 1
229 1 2860.02 2113.71 2249.41 -1 -1 0
230 1 1766.67 2432.72 2596.27 0 0 -1
231 1 2118.46 2722.36 2432.29 -1 -1 0
232 1 2136.12 3244.99 3319.69 0 -1 -1
233 1 3195.11 2743.64 2746.07 -1 0 1
234 1 2029.55 1893.17 2570.04 0 -1 -1
235 1 2708.79 2361.88 1792.35 -1 -1 0
236 1 2506.48 2560.41 2154.15 -1 0 0
237 1 3012.77 2527.63 2923.53 0 -1 0
238 1 2955.7 2804.94 2460.87 0 -1 0
239 1 2708.76 2579.19 2109.26 -1 -1 0
240 1 2183.56 2551 2552.43 1 0 -1
241 1 2688.65 3233.9 1927.13 0 -1 0
242 1 2628.31 2090.89 1874.63 0 -2 0
243 1 1949.38 3293.45 1844.33 0 -1 0
244 1 2936.62 2581.15 2757.43 0 -1 -1
245 1 3113.16 1741.87 2516.68 -1 0 0
246 1 2873.49 1948.42 2675.11 0 -1 0
247 1 2435.23 3273.42 2600.94 0 -1 0
248 1 3105.94 2788.28 2062.05 -1 -1 0
249 1 3108.9 2630.49 3005.81 0 0 0
250 1 3280.78 1850.4 3145.87 -1 0 -1
251 1 3012.29 2686.18 2031.33 0 -1 0
252 1 2900.85 1807.72 2669.17 -1 0 0
253 1 1841.33 2644.19 2054.75 1 0 0
254 1 3227.23 2278.39 2593.07 -1 0 -1
255 1 2817.52 1998.62 3166.54 -1 0 -1
256 1 2428.68 2419.63 2818.46 -1 0 0
257 1 2853.87 3016.05 1990.15 -1 -1 0
258 1 2569.21 2078.35 2867.49 0 0 -1
259 1 2622 2116.14 3197.78 -1 0 -1
260 1 2628.43 2538.16 2951.49 0 0 0
261 1 1740.15 2078.46 2314.73 0 0 0
262 1 3078.9 2525.41 2106.28 -1 0 -1
263 1 2581.61 2821.15 2807.8 -1 0 -1
264 1 2249.89 2398.78 1887.03 0 0 -1
265 1 3227.09 2005.62 2940.66 -1 0 -1
266 1 2990.61 1833.91 3149.43 -1 0 -1
267 1 1732.23 2312.41 2917.99 0 0 -1
268 1 2206.03 2502.21 2557.65 0 -1 0
269 1 2809.92 1740.87 2861.86 -1 0 0
270 1 2327.76 2161.72 3197.93 0 0 -1
271 1 2053.05 2825.51 2386.67 0 -1 -1
272 1 2570.45 2411.06 2966.14 -1 0 -1
273 1 2156.79 2383.12 2935.41 0 0 -1
274 1 2340.8 2556.4 2977.23 1 -1 0
275 1 2880.34 2452.36 1896.82 -1 0 1
276 1 2786.59 2656.16 1702.77 -1 -1 0
277 1 2607.17 2620.84 2030.78 0 0 1
278 1 1699.74 1772.36 2771.66 0 0 -1
279 1 2343.14 2720.45 2456.92 0 -1 0
280 1 2451.87 2467.4 3037.6 -1 0 -1
281 1 1966.08 2862.13 2666.31 0 -1 0
282 1 2021.1 2325.99 2903.08 0 -1 0
283 1 2327.69 3194.68 3263.19 0 -1 -1
284 1 2157.43 2291.85 3154.11 0 0 -1
285 1 3313.66 2713.53 2925.02 -1 0 -1
286 1 2886.92 2089.94 2897.08 -1 1 0
287 1 2783.32 2019.7 1845.04 0 0 0
288 1 2339.32 2345.34 2721.15 1 0 0
289 1 2139.03 2699.23 2682.5 0 -1 0
290 1 2985.25 2483.81 2349.64 -1 -1 0
291 1 2267.62 2689.93 2444.58 -1 -1 0
292 1 3179.66 2257.08 2749.2 -1 0 -1
293 1 2627.03 2555.73 2553.27 0 0 1
294 1 2549.83 2643.81 2649.48 0 -1 -1
295 1 1957.29 3215.1 2543.97 0 -1 0
296 1 3164.03 2484.01 2905.08 0 0 0
297 1 2872.66 2325.97 2563.9 -1 0 0
298 1 2396.29 2429.68 2612.6 0 0 0
299 1 1807.47 2167.63 2546.58 1 0 0
300 1 2063.87 2437.18 3182.76 0 0 0
301 1 2368.31 2482.47 2559.48 -1 0 -1
302 1 3204.97 1975.61 1739.32 -1 0 0
303 1 2973.82 3240.12 1907.08 0 -1 0
304 1 2299.89 2779.09 3129.74 1 -1 -1
305 1 2408.72 1864.02 3140.59 0 0 -1
306 1 1777.85 3213.51 1720.07 0 -1 0
307 1 3075.42 2424.86 2024.5 -1 0 -1
308 1 1769.54 1820.1 1699.22 0 0 0
309 1 2650.79 2945.79 2327.33 0 0 -1
310 1 1855.71 1992.25 2743.01 0 0 -1
311 1 2161.96 2813.62 1728.8 0 -1 -1
312 1 2831.41 2339.32 2622.22 0 -1 1
313 1 2135.48 2060.54 3048.8 0 -1 -1
314 1 1861.74 2340.19 2861.4 1 0 0
315 1 1939.68 1868.03 2669.97 0 0 0
316 1 2883.69 2905.58 1756.51 -1 0 0
317 1 2200.15 2843.47 2605.56 1 0 -1
318 1 3284.46 3082.42 2804 0 -1 -1
319 1 2926.47 2176.7 1753.66 -1 0 0
320 1 2437.11 2673.55 2702.27 0 -1 0
321 1 2638.24 2257.77 3210.7 -1 0 0
322 1 2313.64 2465.5 1805.71 0 -1 0
323 1 2018.81 2085.17 2941.76 0 0 -1
324 1 3269.55 2340.6 1734.13 0 0 0
325 1 2102.81 3165.57 2886.26 0 0 0
326 1 2703.68 2785.95 2874.05 0 0 -1
327 1 2594.88 3031.66 2612.13 0 -1 0
328 1 2132.66 2228.85 2552.25 0 0 0
329 1 2113.64 2764.66 2030.58 0 0 0
330 1 2678.09 2520.61 2784.7 0 0 0
331 1 2473.32 2576.97 2033.89 -1 0 0
332 1 2253.61 2836.43 3055.6 0 -1 -1
333 1 2880.97 2509.98 2960.38 0 0 0
334 1 2906.54 3324.61 3172.61 -2 -1 0
335 1 2534.74 2900.77 2407.64 0 0 0
336 1 2459.81 2378.39 3295.82 0 -1 -1
337 1 1770.38 2423.95 2196.86 0 0 0
338 1 2697.61 2719.13 3250.67 0 -1 -1
339 1 2866.93 2688.3 3093.1 0 -1 0
340 1 2464 2452.09 2600.33 0 -1 0
341 1 2705.91 3203.9 3108.11 0 -1 -2
342 1 2799.46 2856.37 2950.62 0 -1 0
343 1 2760.76 2056.58 2883.63 1 -1 0
344 1 2950.3 3003.95 2991.83 0 -1 -1
345 1 2546.34 2275.42 1676.46 0 0 0
346 1 2674.65 2420.46 1816.81 0 -1 0
347 1 2486.11 2464.38 2805.2 -1 0 -1
348 1 2177.35 2474.87 2594.2 -1 -1 -1
349 1 2808.83 2637.28 2606.87 -1 0 0
350 1 2243.54 2281.45 2036.28 0 1 0
351 1 2027.82 1700.62 3100.7 0 0 -1
352 1 2355.91 2270.43 3038.71 0 1 0
353 1 3017.22 2619.05 2367.85 0 -1 0
354 1 2178.29 2615.11 2330.63 0 0 0
355 1 2362.49 2771.43 3012.5 0 -1 -1
356 1 2240.87 3091.34 1775.96 0 -1 0
357 1 2138.38 2899.32 2835.75 0 -1 -1
358 1 3008.84 3314.18 2215.69 -1 -1 0
359 1 2632.55 2298.13 2907.89 0 0 0
360 1 2199.6 1716.85 3279.74 0 1 -1
361 1 3233.45 2588.89 2334.47 -1 0 0
362 1 2800.16 2629.78 2808.28 0 -1 0
363 1 2515.22 2376.84 3083.61 0 0 -1
364 1 2825.91 2712.11 2965.22 -1 0 0
365 1 2146.5 3142.73 2761.18 0 -1 0
366 1 1998.69 2596.22 1813.87 0 0 0
367 1 2250.28 2577.28 2867.34 0 -1 -1
368 1 2640.87 1899.95 2588.66 -1 0 0
369 1 3066.18 2734.53 2683.31 0 0 -1
370 1 3135.55 2791.91 2186.36 -2 0 0
371 1 3209.83 2207.33 1976.75 -1 0 0
372 1 2961.76 2973.91 3278.63 -1 -1 -1
373 1 2852.88 2622.58 2817.24 0 1 0
374 1 2527.16 1917.28 2558.69 0 0 0
375 1 3057.71 1734.38 2348.04 0 0 -1
376 1 2707.97 2651.97 2504.18 0 1 0
377 1 3125.03 2490.31 2340.68 0 0 0
378 1 2323.22 1960.03 2910.86 0 1 -1
379 1 2914.98 2552.88 2235.5 -1 -1 0
380 1 2618.11 2160.37 2002.32 -1 0 0
381 1 2243.11 2540.57 3038.42 0 0 -1
382 1 3156.99 2873.9 2784.25 -1 -1 0
383 1 2730.2 2316.52 2347.13 -1 0 0
384 1 2838.57 2789.58 2378.6 0 -1 0
385 1 3005.35 2737.39 2330.96 0 0 0
386 1 2842.13 2982.05 2599.28 -1 0 0
387 1 3011.39 2343.5 2763.55 -1 0 -1
388 1 1680.44 2762.26 2871.93 0 0 -1
389 1 2441.79 2515.86 1797.56 0 0 0
390 1 1721.39 2655.23 1684.04 0 -1 0
391 1 2412.95 1950.79 1807.69 0 0 0
392 1 1915.1 2556.17 2994.28 -1 -1 -1
393 1 2591.55 2424.39 2698.93 0 0 1
394 1 1945.63 2150.39 3137.42 1 0 -1
395 1 2458.2 2453.15 2055.81 0 -1 -1
396 1 1744.91 2807.85 2584.13 1 0 0
397 1 2782.4 2815.7 1727.79 -1 0 0
398 1 2214.81 2433.64 2838.55 0 -1 0
399 1 2086.54 1799.84 2813.3 0 0 0
400 1 2192.92 2345.06 2726.96 -1 0 -1
401 1 2509.31 2471.42 2442.2 0 0 -1
402 1 2219.79 2559.08 3306.53 0 0 -2
403 1 1778.81 2089.04 3049.63 0 0 -1
404 1 2599.46 2669.43 2168.85 0 0 0
405 1 2673.34 3049.17 2806.54 -1 0 0
406 1 2113.96 2873.1 2290 0 -1 0
407 1 1894.7 2922.74 2911.23 -1 -1 0
408 1 3267.86 2407.99 2906 0 0 -1
409 1 3115.56 2668.25 2564.98 0 -1 -1
410 1 2590.43 2251.1 2436.11 0 0 -1
411 1 2129.73 2057.9 2006.83 0 0 0
412 1 2402.91 3022.5 2829.49 0 0 0
413 1 1767.75 2666.24 2866.72 0 0 -1
414 1 2027.79 2838.92 2816.28 0 -1 -1
415 1 2056.22 2385.45 2778.87 0 0 -1
416 1 2636.87 2669.12 1733.95 0 0 0
417 1 1832.57 2106.68 2420.34 -1 0 -1
418 1 3256 2995.13 2040.4 -1 0 1
419 1 2206.68 2596.86 2500.93 0 0 0
420 1 3131.32 2838.88 2353.29 -2 -1 -1
421 1 2856.56 2509.05 1799.81 -1 0 0
422 1 1786.62 2996.62 1932.51 0 -1 0
423 1 3047.43 2723.01 1730.64 0 -1 0
424 1 2017.23 2838.13 3166.64 0 -1 -1
425 1 2378.73 2848.29 3233.19 0 0 -1
426 1 2827.85 2593.53 2779.45 -1 0 -1
427 1 3130.43 2309.54 2233.66 -1 -1 0
428 1 2339.57 2949.69 2566.94 0 -1 -1
429 1 2899.55 2771.69 2242.49 -1 0 0
430 1 2064.02 1897.66 2254.31 0 -1 0
431 1 2615.1 2394.48 1704.76 0 0 0
432 1 1978.14 2840.79 2274.4 0 -1 0
433 1 2216.87 2675.55 2494.18 -1 -1 -1
434 1 3095.77 2706.54 2430.42 -1 0 0
435 1 2847.28 2057.31 3031.63 -1 0 0
436 1 2908 2710.26 1718.72 -1 0 0
437 1 2738.7 2227.21 2010.63 0 1 0
438 1 3290.71 2503.51 2660.96 -1 -1 -1
439 1 2832.72 2375.07 1871.37 0 0 0
440 1 3025.32 1990.68 3078.45 -1 0 -1
441 1 2749.01 1892.15 3121.05 -1 0 -1
442 1 1873.6 2570.44 2787.52 0 0 0
443 1 3052.8 2523.46 3054.13 0 -1 0
444 1 2819.43 2656.54 2031.27 -2 0 0
445 1 2428.7 2965.51 2550.52 0 -1 0
446 1 2951.48 1954.44 3213.96 -1 0 -1
447 1 2642.13 2709.76 2611.96 0 0 0
448 1 2032.21 2710.99 2282.45 -1 -1 0
449 1 2265.68 2456.76 1828.86 -1 0 0
450 1 1978.82 2430.55 3097.4 0 0 -1
451 1 2011.13 2738.9 2729.36 0 -1 -1
452 1 2151.9 2200.79 3061.91 0 0 0
453 1 3095.3 3081.82 2393.92 -1 0 0
454 1 1976.48 2216.77 2243.81 0 0 -1
455 1 2738.44 2617.29 3142.19 -1 0 -1
456 1 2935.12 1778.22 1723.2 0 1 0
457 1 2496.08 2760.07 2427.74 0 -1 -1
458 1 1931.76 2163.86 2978.47 0 1 -1
459 1 2065.3 2448.3 2199.82 0 -1 -1
460 1 3130.33 2483.89 2561.96 -1 -1 0
461 1 2833.02 2728.21 2502.15 0 -1 0
462 1 2970.69 2767.13 2589.61 -1 0 -1
463 1 3229.98 2057.5 2954.47 -1 0 -1
464 1 2681.5 2623.57 2660.22 0 0 0
465 1 1712.41 2727.53 2450.15 1 0 -2
466 1 2776.33 2979.58 2706.42 -1 -1 0
467 1 2692.45 2590.46 1829.37 0 1 0
468 1 3150.51 2814.07 1766.27 0 -1 1
469 1 2891.17 2524.93 2649.62 0 -1 -1
470 1 2885.33 3010.45 1848.45 -1 -1 -1
471 1 2890.7 2660.13 2326.02 0 0 0
472 1 2750.96 2948.28 1761.43 0 -1 0
473 1 1696.73 2395.4 3029.52 1 -1 0
474 1 2957.39 2351.88 2853.67 -2 -1 -1
475 1 2846.24 2519.62 2011.01 0 -1 0
476 1 2886.24 3288.61 2071.61 -1 -1 0
477 1 3140.55 2339.68 1976.89 0 -1 -1
478 1 2616.53 2489.07 1975.21 -1 -1 0
479 1 2615.97 1751.87 2294.62 0 0 -1
480 1 3196.53 2244.79 2459.91 -1 0 0
481 1 2927.89 1792.98 3323.77 0 1 0
482 1 2657.61 1962.72 2874.6 0 -1 -1
483 1 2979.77 2222.53 2829.87 -1 1 0
484 1 2776.54 2925.25 2345.58 -1 -1 0
485 1 2322.01 3094.07 2594.49 -1 -1 -1
486 1 3277.74 2932.39 1803.14 -1 -1 0
487 1 2725.84 2402.88 2748.16 -1 0 -1
488 1 2133.42 1787.54 2502.46 0 0 0
489 1 3102.55 2665.89 2122.15 -1 0 0
490 1 2974.22 2409.18 3003.06 -1 0 -1
491 1 2648.4 2740.25 2725.03 0 0 -1
492 1 2822.09 2537.89 3305.3 0 -1 0
493 1 2730.4 2457.59 2399.71 -1 0 0
494 1 2327.32 2398.73 3090.29 1 -1 0
495 1 3000.98 2808.47 2153.96 0 -1 0
496 1 2874.74 2617.74 2768.14 1 0 0
497 1 2625.97 3267.77 2641.04 -1 -1 0
498 1 2703.31 2961.33 2585.3 0 -1 0
499 1 2317.84 2519.28 1806.87 -1 0 -1
500 1 2710.73 3048.59 2319.37 0 -1 -1
501 1 2476.12 2729.15 2562.62 -1 0 -1
502 1 1796.45 2971.26 2938.47 -1 0 0
503 1 2487.99 2487.99 2877.73 0 0 0
504 1 2278.45 2601.54 2510 0 0 0
505 1 2048.48 2494.33 3228.6 -1 0 -1
506 1 1722.39 2130.79 2196.35 -1 0 0
507 1 3187.02 2030.12 2971.65 -1 0 -1
508 1 1905.37 1809.19 1931.38 0 0 -1
509 1 1915.14 1848.59 2516.97 0 0 0
510 1 2686.34 2347.31 2619.66 -1 -1 -1
511 1 3273.66 3027.47 2465.86 0 0 -1
512 1 1839.57 3048.53 3155.6 0 -1 -1
513 1 3004.75 2505.48 2004.63 0 -1 0
514 1 2783.87 2221.87 2268.68 -2 0 1
515 1 2506.25 2155.96 2424.76 -1 0 -1
516 1 2524.36 3257.77 2697.16 -1 -1 0
517 1 2972.75 2954.38 3159.29 0 -1 -1
518 1 2120.11 2854.16 2715.78 0 0 -1
519 1 2653.43 2591.85 2397.55 0 0 0
520 1 3010.87 2818.72 1753 -1 0 0
521 1 2508.91 2392.01 1771.8 -1 0 1
522 1 2479.66 2610.89 2162.1 -1 0 0
523 1 2991.54 2928.05 1844.15 0 0 0
524 1 2630.91 2418.71 2498.09 -1 -1 0
525 1 3027.98 2139 2949.5 0 0 -1
526 1 2074.55 2358.27 2641.64 0 0 0
527 1 1674.49 2197.8 2867.24 0 -1 -1
528 1 3117.44 2428.77 2220.16 0 1 0
529 1 2498.47 2603.45 1702.06 -1 -1 0
530 1 1967.72 2711.85 2595.59 0 0 0
531 1 2146.55 3275.38 1902.5 0 -1 0
532 1 3107.65 2596.45 1996.01 -1 0 0
533 1 3018.33 1751.14 2315.34 -1 0 -1
534 1 2346.58 1676.87 2844.06 0 0 -1
535 1 2669.2 3231.85 2486.68 -1 -2 0
536 1 2270.04 2553.14 2112.82 -1 0 0
537 1 2707.72 2966.3 2206.1 -1 -1 0
538 1 1998.34 2039.8 3062.8 0 0 -1
539 1 3040.47 2433.19 2667.3 -2 0 -1
540 1 2764.9 3114.77 2438.03 0 0 0
541 1 2489.17 2922.56 2850.53 0 0 -1
542 1 2367.78 2738.51 2412.45 0 -1 0
543 1 2298.02 2684.38 2627.45 0 0 -1
544 1 2972.61 1949.98 2956.26 -1 1 -1
545 1 2240.79 2815.68 2724.36 -1 0 -1
546 1 3155.99 1875.04 1827.87 -1 0 0
547 1 2485.23 2329.78 2390 0 -1 0
548 1 1905.56 1993.49 2962.38 0 0 0
549 1 2691.53 2496.19 3146.77 0 0 0
550 1 2121.91 2217.16 1765.3 0 0 0
551 1 2355.29 2688.34 1842.1 0 -1 0
552 1 2660.6 3246.82 3247.24 0 -1 -1
553 1 2871.36 2643.87 3250.32 -1 0 -1
554 1 2279.05 2414.74 2617.78 0 0 0
555 1 2079.35 2338.81 3062.41 0 0 0
556 1 2545.97 2926.28 2532.17 0 0 -1
557 1 2679.92 2627.84 2271.45 -1 0 0
558 1 2540.25 3203.49 2554.85 -1 0 -1
559 1 2537.4 3052.91 2852.32 -1 0 0
560 1 1937.8 2778.08 1677.2 0 0 0
561 1 3167.82 2378.33 2476.01 -1 -1 -1
562 1 2037.17 3180.47 3261.4 0 0 -1
563 1 3264.15 2506.23 2829.11 -1 0 0
564 1 2574.34 2707.48 3186.34 0 1 -1
565 1 3209.55 2638.76 3183.11 0 0 -1
566 1 3221.79 2224.57 2758.02 -1 0 1
567 1 2540.12 1816.54 2817.43 0 0 0
568 1 2977.36 2902.2 2541.44 -1 -1 -1
569 1 2690.58 2228.65 3016.95 0 0 0
570 1 1834.49 2897.9 2642.96 0 -1 0
571 1 2898.88 2801.09 1829.3 -1 -1 0
572 1 2547 2740.75 2695.77 -1 -1 0
573 1 2229.17 2319.53 3045.67 1 0 -1
574 1 2926.35 3090.3 3243.25 -1 0 0
575 1 1926.16 2413.78 2945.04 0 0 0
576 1 3202.26 2254.9 2798.13 0 -1 -1
577 1 3130.94 2586.55 2449.48 -1 -1 -1
578 1 1708.96 2615.06 2372.86 1 0 1
579 1 2885.88 3220.39 2546.01 0 0 -1
580 1 2381.86 2690.94 2433.65 0 1 1
581 1 1888.04 2273.03 2454.84 -1 0 0
582 1 2999.39 3054.36 2300.49 0 -1 0
583 1 2530.85 2434.13 2409.71 0 0 0
584 1 3164.63 2960.34 2373.18 0 0 1
585 1 2994.1 3085.31 3112.75 -1 -1 -1
586 1 2936.82 2168 3271.98 -1 -1 -2
587 1 1693.63 2197.24 2625.43 1 0 -1
588 1 1996.48 2400.13 1976.79 0 0 0
589 1 2826.56 3003.57 3269.54 1 -1 0
590 1 3194.39 2714.99 1982.46 -1 -1 1
591 1 2184.72 1917.55 3049.49 -1 -1 -1
592 1 1945.62 2323.47 2746.45 0 0 0
593 1 1800.07 2202.28 2938.81 0 0 0
594 1 2129.03 3034.17 2899.48 -1 1 0
595 1 2888.11 1699.5 2945.01 -1 0 -1
596 1 2822.38 2442.91 1888.24 1 0 0
597 1 2675.01 2583.78 3125.87 0 0 0
598 1 2915.46 3140.72 1829.21 0 -1 0
599 1 2292.81 3245.79 2591.18 -1 -1 0
600 1 2910.98 2123.27 2768.01 -1 0 -1
601 2 3305.4 2352.97 1890.07 -1 0 0
602 2 1903.6 1985.33 2270.43 1 0 0
603 2 2981.51 3143.09 2140.58 -1 0 1
604 2 3054.03 3011.3 2833.86 0 -1 0
605 2 1745.97 1715.88 3189.51 0 0 0
606 2 1708.46 2565.78 2190.45 1 0 0
607 2 2127.09 2604.28 2137.81 0 0 0
608 2 2753.33 3107.83 2577.37 0 -1 0
609 2 2908.45 2185.96 2380.61 0 0 0
610 2 2631.07 2930.56 2948.53 0 0 0
611 2 1800.7 2913.61 1768.44 0 0 1
612 2 2476.92 3266.34 2233.18 0 -1 0
613 2 2017.61 2560.51 2670.92 0 0 -1
614 2 2597.18 2052.62 2528.44 0 0 0
615 2 1728.7 2691.41 3141.53 0 0 0
616 2 3244.45 3224.66 1722.1 0 0 0
617 2 1800.74 2878.67 2198.15 0 -1 0
618 2 2467.03 3215.89 2912.95 0 0 0
619 2 2744.86 2067.42 2686.8 0 1 0
620 2 3274.46 3210 2457.21 -1 0 0
621 2 1679.13 3231.69 2814.3 0 0 -1
622 2 2281.71 3263.15 1764.02 0 0 0
623 2 2294.33 2554.73 3110.21 0 0 -1
624 2 1687.19 2354.16 2734.99 0 0 -1
625 2 2669.43 1946.31 3249.94 0 0 0
626 2 1816.85 3071.47 2783.37 1 0 -1
627 2 2013.47 1707.8 2612.43 0 1 0
628 2 3131.77 2567.38 2708.36 -1 0 0
629 2 2261.8 2003.19 2276.92 0 0 0
630 2 2529.46 1790.65 2112.52 0 1 0
631 2 3122.31 1856.86 2984.93 0 1 0
632 2 2160 3015.66 1994.29 0 -1 0
633 2 1793.32 3022.19 2381.22 0 -1 0
634 2 3028.21 2697.14 2845.34 -1 0 0
635 2 1768.42 1779.52 2248.27 0 0 0
636 2 2792.56 1881.9 2928.11 -1 0 0
637 2 1814.86 2179.24 2734.62 1 0 -1
638 2 1747.04 1956.91 2127.54 0 0 0
639 2 3093.58 2862.77 3216 0 0 0
640 2 2646.95 3307.35 2793.62 0 0 0
641 2 2338.69 1995.5 2629.66 0 0 0
642 2 2538.65 2994.2 1989.22 0 -1 0
643 2 1773.42 1696.66 2436.68 0 0 0
644 2 3271.31 2549.92 1895.27 -1 0 1
645 2 2557.59 3070.88 2217.71 0 -1 0
646 2 2217.97 3005.85 2204.61 0 -1 0
647 2 2145.46 2103.75 3210.39 0 0 0
648 2 2541.82 2645.04 2816.55 0 0 0
649 2 3069.45 2080.41 1695.53 -1 0 0
650 2 3083.17 2301.7 2305.36 0 0 0
651 2 3197.51 2064.95 2090.66 -1 0 0
652 2 1768.8 1760.88 2034.07 0 0 0
653 2 2892.28 2498.17 3124.67 0 0 -1
654 2 2500.05 3185.86 3290.2 0 -1 -1
655 2 2543 1957.72 2707.83 0 0 0
656 2 2731.21 1850.03 2724.92 0 0 0
657 2 3046.58 2006.74 2782.5 -1 0 -1
658 2 2597.04 2215.4 2729.36 -1 0 -1
659 2 1700.14 2015.99 2658.59 1 0 0
660 2 2404.09 2293.92 1950.17 0 0 0
661 2 2617.02 1728.5 1930.34 0 0 0
662 2 1923.73 1867.51 1747.93 0 0 0
663 2 1898.21 2871.54 2472.83 0 -1 0
664 2 2589.54 3056.17 3132.88 0 0 -1
665 2 2451.52 2378.64 2198.12 0 0 0
666 2 2569.63 3201.25 2054.64 0 -1 0
667 2 2821.67 1692.37 1897.65 0 0 0
668 2 1912.17 2332.28 2122.67 0 0 0
669 2 3141.57 2348.4 3028.96 -1 0 0
670 2 2153.62 1812.71 2863.88 0 0 -1
671 2 2785.19 1833.99 1739.85 0 0 1
672 2 1913.23 2550.87 2184.25 0 0 0
673 2 2291.76 2319.95 2407.88 0 0 0
674 2 3245.49 1695.69 2141.34 -1 0 0
675 2 2956.19 2819.48 3028.74 -1 0 0
676 2 2582.74 1913.42 1807.62 0 0 0
677 2 2021.71 2959.98 2129.86 0 -1 0
678 2 3145.18 2899.73 1915.55 -1 -1 0
679 2 2006.17 3008.64 3145.45 0 0 0
680 2 3070.85 1925.4 2172.37 -1 0 0
681 2 2277.62 3125.1 2876.25 0 0 0
682 2 2868.71 2357.85 2248.39 0 0 0
683 2 2401.33 2915.38 2606.95 0 -1 0
684 2 1865.67 3090.41 2198.47 0 -1 0
685 2 1901.27 3187.99 3125.74 0 0 -1
686 2 1895.96 2443.63 1813.59 0 0 0
687 2 2519.68 2862.7 3101.93 -1 -1 0
688 2 2934.99 3049.37 2460.81 -1 -1 0
689 2 2116.03 3180.78 3060.5 0 -1 0
690 2 3214.78 3035.54 3289.35 0 1 -1
691 2 2590.91 2314.61 2058.02 -1 0 0
692 2 2040.01 1681.44 2910.7 0 0 -1
693 2 3144.68 3218.24 2275.21 -1 -1 0
694 2 1822.81 2726.98 2693.89 0 0 0
695 2 2703.92 2097.62 2133.69 0 0 0
696 2 2384.45 1728.51 2997.49 0 1 0
697 2 1894.62 2010.97 2558.16 0 0 0
698 2 1926.94 2422.91 2517.46 1 0 0
699 2 2469.59 1708.59 1766 0 0 0
700 2 1700.39 2469.46 1733.67 0 0 0
701 2 3320.82 2865.88 2675.72 0 -1 -1
702 2 1819.69 2465.74 2358.49 0 0 0
703 2 1981.69 3134.58 2029.33 0 0 0
704 2 2194.03 3076.48 2400 0 -1 0
705 2 2016.93 1908.01 2814.22 0 0 -1
706 2 1893.04 2580.25 3313.19 0 0 0
707 2 1885.45 3057.75 2579.92 0 -1 0
708 2 1827.62 2606.55 2511.14 1 0 0
709 2 1821.44 1693.95 2991.01 0 0 0
710 2 2724.24 1748.16 3215.4 0 0 -1
711 2 1971.2 2974.15 1888.26 0 -1 0
712 2 2140.08 2679.35 3066.77 0 0 -1
713 2 2340.83 2469.9 2620.81 0 0 -1
714 2 2887.65 1941.01 2285.55 -1 0 0
715 2 2567.58 2250.83 1844.39 0 0 0
716 2 2295 2923.71 1714.09 0 0 0
717 2 3055 1689.82 3249.54 -1 0 -1
718 2 2663.67 2430.55 2209.99 -1 0 0
719 2 1941.1 1849.63 2108.24 0 0 0
720 2 1693.3 1958.84 3257.67 0 0 -1
721 2 3239.59 2437.45 2070.07 0 0 0
722 2 3306.28 3027.97 2184.44 -1 -1 0
723 2 2687.02 3099.44 3325.5 0 0 -1
724 2 3053.5 3206.81 2510.24 0 -1 0
725 2 2175.19 3297.07 2749.63 0 -1 -1
726 2 2239.22 2179.57 1877.88 0 0 0
727 2 3160.9 2434.97 1758.79 -1 0 0
728 2 2262.74 2128.45 2450.37 0 0 0
729 2 2932.98 1739.44 2488.82 -1 0 0
730 2 2947.38 2860.4 1984.06 -1 -1 0
731 2 2289.47 2717.2 3303.82 0 0 0
732 2 3231.63 1778.52 3319.42 -1 0 -1
733 2 2222.57 1759.47 1942.63 0 1 0
734 2 1813.18 2238.26 2275.56 0 0 0
735 2 2371.19 1810.16 2499.81 0 0 0
736 2 2199.07 3230.83 2056.69 0 -1 0
737 2 2148.99 2803.1 2074.8 -1 0 0
738 2 3199.16 2788.37 3050.29 0 0 0
739 2 2227.36 3008.47 3044.55 0 0 0
740 2 2897.13 1808.7 2128.66 0 0 0
741 2 2654.67 2030.91 3016.83 -1 1 0
742 2 2516.22 2095.31 1683 0 0 0
743 2 3301 2081 2460.76 -1 0 0
744 2 2593.78 2231.19 2238.4 0 0 0
745 2 2183.13 3068 3235.91 0 0 -1
746 2 2169.24 2623.18 1806.56 0 0 0
747 2 2785.39 2962.88 3078.51 0 0 -1
748 2 2432.58 1837.76 1937.3 0 0 0
749 2 2209.49 2040.83 2764.77 0 0 0
750 2 1757.88 1906.44 2424.69 0 0 0
751 2 3297.42 2681.5 2599.88 0 0 -1
752 2 3043.26 1695.17 2675.62 0 1 0
753 2 1739.11 2278.83 2079.79 0 0 0
754 2 2763.73 2367.92 3226.89 -1 0 0
755 2 2320.45 2088.69 2995.86 0 0 0
756 2 2597.6 3064.64 2423.29 0 -1 0
757 2 2384.52 2181.49 2304.64 0 0 0
758 2 3147.47 3173.81 2727.29 -1 -1 0
759 2 2722.54 1694.88 2111.37 0 0 0
760 2 2479.22 2644.99 3022.21 0 0 -1
761 2 2045.09 3139.96 1787.21 0 -1 0
762 2 2080.34 2065.8 2187 0 0 0
763 2 1822.88 2064.4 1748.26 0 0 0
764 2 2376.77 2896.57 2096.84 0 -1 0
765 2 1990.36 2348.73 2329 0 0 0
766 2 3173.52 2029.66 1861.44 -1 0 0
767 2 2393.41 1941.79 2117.3 0 1 0
768 2 1960.17 1784.06 2330.75 0 0 0
769 2 1903.32 3289.61 2156.28 0 -1 0
770 2 1711.18 2306.41 2458.07 1 -1 0
771 2 1769.78 2803.83 2992.76 1 0 -1
772 2 2000.82 2137.96 2388.78 0 0 0
773 2 2968.48 1836.33 1705.51 -1 0 1
774 2 1884.92 3080.64 3299.28 0 -1 -1
775 2 3251.44 3298.75 1939.68 -1 -1 0
776 2 2872.12 2819.26 3197.2 -1 0 -1
777 2 3193.15 2626.76 1706.45 -1 0 0
778 2 2088.27 2194.19 2764.58 0 0 -1
779 2 2855.21 2035.15 1678.96 -1 0 0
780 2 2986.95 2552.57 1687.2 -1 0 0
781 2 3083.82 1697.85 1808.69 -1 0 0
782 2 2504.95 2161.91 2971.76 0 0 0
783 2 1954.9 3085.99 2948.81 0 -1 -1
784 2 1769.03 1822.96 2606.66 0 0 -1
785 2 3027.86 3059.86 1949.59 -1 -1 0
786 2 1857.73 1968.7 1944.97 1 0 0
787 2 2544.96 2791.07 2023.52 0 0 0
788 2 2398.02 2099.85 2806.66 0 0 0
789 2 1785.16 2155.26 3215.94 0 0 -1
790 2 3247.95 1965.58 2309.05 -1 0 0
791 2 3155.55 1691.92 2856.4 0 0 -1
792 2 2070.61 2492.35 3293.24 0 0 -1
793 2 2041.49 1815.26 3232.96 0 0 0
794 2 3042.63 1904.68 2611.32 -1 0 0
795 2 2013.86 2995.85 2741.69 0 0 0
796 2 1803.14 2499.68 3100.1 0 0 -1
797 2 3051.59 3310.09 3027.02 -1 -1 -1
798 2 1985.29 3214.07 2741.93 0 0 0
799 2 3107.68 2150.49 3079.94 -1 1 -1
800 2 3117.13 2963.91 3039.52 -1 0 -1
801 2 2270.72 2246.71 2855.53 0 0 0
802 2 1884.93 1741.76 2780.11 0 1 0
803 2 2538.43 3167.16 1844.26 0 -1 0
804 2 2498.77 2782.45 2233.83 0 -1 0
805 2 2234.44 1794.51 2334.97 0 0 0
806 2 3277.62 2828.63 2072.77 -1 -1 0
807 2 3148.14 3164.05 3153.06 -1 0 -1
808 2 2867.75 2329.49 2017.5 -1 0 0
809 2 3208.28 1870.58 2736.41 0 0 0
810 2 2460.32 1890.25 3289.25 0 0 -1
811 2 1805.65 1894.98 3075.43 1 0 0
812 2 2578.52 1838.55 3085.34 0 0 -1
813 2 2370.46 1844.39 2765.96 0 0 0
814 2 1962.92 2740.86 2106.59 0 0 0