ITEM: TIMESTEP
85000
ITEM: NUMBER OF ATOMS
1000
ITEM: BOX BOUNDS pp pp pp
1.7192559335876679e+03 3.2807440664119681e+03
1.7192559335876679e+03 3.2807440664119681e+03
1.7192559335876679e+03 3.2807440664119681e+03
ITEM: ATOMS id type x y z ix iy iz
1 2 3168.64 3045.65 1874.75 0 0 0
2 2 1992.9 1780 2605.24 0 1 -1
3 2 2216.04 3247.87 1879.86 0 -1 1
4 2 1977.5 2139.64 2855.06 0 0 -1
5 2 3176.03 1719.44 2858.48 0 0 -1
6 2 2153.71 2462.5 2164.31 -1 0 -1
7 2 2225.32 2381.45 2189.26 0 0 0
8 2 1774.63 3198.25 2542.78 0 0 0
9 2 3156.43 2460.16 2271.48 -1 0 0
10 2 2049.22 3095.97 2822.9 0 0 0
11 2 2768.87 2396.66 2856.82 0 0 0
12 2 1740.85 3056.4 2838.48 0 0 -1
13 2 1796.72 2324.99 1859 1 0 1
14 2 1824.78 3068.54 2057.28 0 0 0
15 2 3150.21 1833.36 3038.34 0 0 -1
16 2 2017.1 3248.82 1847.33 0 -1 0
17 2 2457.05 2156.57 3124.45 2 1 0
18 2 2385.87 2337.93 3045.78 0 1 -1
19 2 2326.65 2033.48 3223.17 0 0 0
20 2 3213.89 1821.42 2832.74 0 1 0
21 2 2038.27 2526.37 1875.55 0 1 1
22 2 1830.8 2972.89 1994.96 0 0 1
23 2 2786.37 2932.34 2093.06 -1 1 0
24 2 1743.15 2042.83 3158.54 1 0 -1
25 2 2318.15 1780.49 1730.5 0 1 1
26 2 2772.68 2295.07 2660.04 0 0 1
27 2 1971.36 2810.93 3110.71 0 0 0
28 2 1809.01 2436.55 3253.64 0 0 0
29 2 3198.48 2244.54 2542.61 -1 1 0
30 2 3110.07 1994.47 3231.11 -1 1 0
31 2 1873.92 2966.34 3102.54 0 -1 0
32 2 1810.57 3267.38 2622.07 0 0 0
33 2 2224.26 2158.89 2198.32 0 0 0
34 2 2245.73 1949.04 3200.8 0 1 0
35 2 3007.97 3098.81 3260.22 0 -1 0
36 2 2283.24 1726.69 2803.31 0 1 0
37 2 1885.48 1871.43 2620.87 0 0 0
38 2 1752.58 2610.31 1767.45 0 1 0
39 2 3226.84 2479.38 1926.78 -1 1 0
40 2 2250.69 2135.04 3070.47 0 -1 0
41 2 1902.49 2975.32 2088.21 1 -1 0
42 2 3198.45 2345.08 1765.18 -1 0 0
43 2 1915.52 2434.22 2235.72 1 0 1
44 2 2929.67 2824.43 3046.47 1 -1 0
45 2 1850.63 2355.38 2194.66 0 0 0
46 2 2950.18 1825.55 2215.18 0 1 0
47 2 3227.45 2658.22 2330.32 -1 0 0
48 2 1736.05 2533.9 1850.16 1 0 0
49 2 3037.27 2395.47 1721.56 0 0 1
50 2 2372.64 3020.01 2060.31 0 0 1
51 2 2851.13 1827.46 2881.62 -1 1 1
52 2 2668.71 2387.54 2104.44 0 0 0
53 2 2183.88 2438.45 1875.37 0 0 1
54 2 1998.54 1873.83 2668.14 0 1 0
55 2 2625.29 2157.73 2680.27 0 0 -1
56 2 2106.29 2182.13 2200.95 0 0 0
57 2 2035.18 2344.14 2910.85 0 0 -1
58 2 1724.09 2167.85 2551.42 0 0 0
59 2 2797.47 2397.47 2163.73 -1 2 0
60 2 2165.91 3117.38 1852.69 0 0 0
61 2 3237.57 2370.6 2504.79 -1 0 0
62 2 3104.69 3044.91 2975.72 0 -1 0
63 2 1769.4 3128.18 3270.48 0 0 0
64 2 3219.85 2446.56 1822.49 0 0 1
65 2 2701.47 2219.83 2737.68 0 -1 0
66 2 2971.08 1862.27 2917.01 0 0 -1
67 2 2673.84 1767.59 2813.46 0 1 1
68 2 1958.47 2298.91 2459.66 0 0 1
69 2 2638.47 2050.16 1984.5 0 0 0
70 2 2325.71 3110.75 2880.25 0 0 0
71 2 1737.48 1827.8 1845.67 0 0 1
72 2 2732.35 2310.81 2556.31 -1 -1 0
73 2 2949.14 1797.85 2081.33 -2 -1 0
74 2 2210.97 1757.11 3245.85 0 1 -1
75 2 3024.13 2133.43 1834.77 0 0 0
76 2 2701.57 2597.55 2272.4 0 -1 0
77 2 3007.68 2019.69 1926.28 -1 1 1
78 2 1782.07 1968.23 2638.34 0 0 0
79 2 3220.74 2679.55 1752.83 -1 0 0
80 2 2231.07 3043.13 1949.75 0 0 -1
81 2 2347.67 1765.43 3178.65 0 2 0
82 2 2828.18 2971.48 2257.7 -1 0 -1
83 2 2416.53 3056.6 2568.63 0 0 0
84 2 2561.43 2068.55 1857.43 1 1 1
85 2 2976.31 1906.85 1891.07 0 1 0
86 2 3244.69 2379.58 1984.29 -1 0 1
87 2 1949.22 2203.22 2530.76 1 0 0
88 2 3280.14 2956.75 1805.27 -1 0 1
89 2 1749.54 2576.91 1966.96 1 0 1
90 2 3152.56 2305.54 3134.6 0 1 -1
91 2 2594.85 2901.74 2901.93 0 0 -1
92 2 2303.13 2348.72 1738.47 -1 0 0
93 2 2391.34 1773.26 1837.09 0 0 1
94 2 2381.62 2198.27 3193.47 1 1 -1
95 2 1912.75 2205.64 2916.19 0 0 -1
96 2 2170.48 3065.92 1750 1 0 1
97 2 2993.95 3166.34 2822.83 0 -1 0
98 2 3067.04 1852.4 1922.16 0 0 0
99 2 1825.46 2141.79 1773.51 0 0 0
100 2 2228.44 1932.15 3088.37 1 0 0
101 2 2429.75 2371.73 2756.52 0 0 0
102 2 2110.96 3203.24 1900.26 0 -1 0
103 2 3262.42 2016.06 2096.43 -1 0 0
104 2 2379.24 1848.57 1920.36 0 0 0
105 2 2283.07 2022.39 2833.97 0 0 0
106 2 2480.38 2122.36 1908.06 0 0 0
107 2 1948.61 2138.57 2338.03 0 0 0
108 2 3193.92 3132.13 1964.81 -1 0 0
109 2 2159.16 2108.09 2102.45 0 0 0
110 2 1967.53 2398.54 1805.59 0 0 0
111 2 1830.19 3013.72 2945.49 1 -1 -1
112 2 3164.56 1824.15 2336.22 -1 -1 0
113 2 2107.92 3135.14 2239.16 0 -1 0
114 2 2888.83 2466.67 2015.11 0 0 1
115 2 3217.51 2116.7 3136.72 -1 0 -1
116 2 2038.78 2124.92 2516.41 0 0 0
117 2 2296.79 3133.89 2091.43 0 -1 1
118 2 1809.33 3156.36 2644.38 0 -1 0
119 2 2265.69 1873.13 1928.52 0 0 0
120 2 3201.91 3248.94 2262.94 -1 -1 0
121 2 3212.08 2079.64 2387.37 -1 0 0
122 2 1897.19 1724.73 3252.85 0 0 -1
123 2 2085.52 2152.55 1793.8 0 0 0
124 2 1993.98 1894.58 1796.77 0 0 0
125 2 1812.78 3135.15 1833.12 0 -1 0
126 2 3275.78 2167.01 1958.85 -1 0 0
127 2 3227.14 2277.25 2377.01 -1 0 0
128 2 1991.98 1769.31 2006.52 0 0 0
129 2 1786.73 2267.62 3147.87 0 0 -1
130 2 1757.71 1868.09 2462.78 0 0 0
131 2 1881.6 1774.67 2563.51 0 0 -1
132 2 1896.1 2458.72 3173.64 0 0 -1
133 2 2232.63 1982.78 1959.21 0 0 0
134 2 1865.15 3059.15 1767.44 1 -1 1
135 2 2003.82 2187.61 2026.31 0 0 0
136 2 3229.46 2449.94 2592.59 0 -1 -1
137 2 2791.44 2187.56 2651.93 0 1 0
138 2 1878.34 2087.74 2630.27 0 0 0
139 2 3099.12 2092.8 2187.81 -1 0 0
140 2 2806.82 2428.53 1943.72 -1 -1 0
141 2 2684.16 2103.11 3029.29 -1 0 0
142 2 1746.69 2389.57 1778.3 0 0 0
143 2 2150.42 1899.76 1928.98 0 0 0
144 2 1763.89 2070.47 2179.35 0 0 0
145 2 2229.44 2114.36 2794.1 0 0 0
146 2 2267.04 2362.32 1850.46 0 0 0
147 2 1817.8 1998.89 2090.48 0 0 0
148 2 2145.02 1899.64 3222.01 0 0 -1
149 2 2213.47 1889.02 2046.4 0 0 0
150 2 3208.46 2384.89 2679.6 -1 0 0
151 2 2401.41 2217.44 2121.53 0 0 -1
152 2 3221.2 2175.16 2455.98 -1 0 -1
153 2 2107.68 1794.41 2297.38 0 0 0
154 2 2103.7 2258.25 1860.72 0 0 0
155 2 2345.41 1828.58 2415.69 0 0 0
156 2 3158.05 1855.51 1994.34 -1 0 0
157 2 3056.8 1822.79 2045.41 0 0 0
158 2 2553.75 1756.6 2008.73 0 0 0
159 2 1923.43 3123.35 2079.81 0 -1 0
160 2 1973 2377.4 3142.88 1 0 0
161 2 3119.25 2117.94 3225.2 -1 0 -1
162 2 2277.2 1865.48 2234.6 0 0 0
163 2 3044.53 3158.17 2203.25 0 0 0
164 2 2770.55 1952.79 2361.46 0 0 0
165 2 2158.22 1987.62 1852.36 0 0 0
166 2 3136.55 2296.97 1853.65 0 0 0
167 2 2079.36 1825.56 2537.43 0 0 0
168 2 1961.68 2002.31 1832.84 0 0 0
169 2 1825.64 1802.13 1753.52 0 0 0
170 2 2865.35 2981.92 2558.83 -1 0 0
171 2 1975.88 2973.39 2195.87 0 -1 0
172 2 1765.05 2099.33 1869.28 0 0 0
173 2 2074.48 2423.48 1844.25 0 0 0
174 2 3175.2 2016.94 2472.98 -1 0 -1
175 2 1810.78 2026.07 1774.22 0 0 0
176 2 2022.88 2440.98 2472.26 0 0 0
177 2 3186.5 2882.3 2327.6 0 -1 0
178 2 1859.49 2372.77 1770.5 0 0 0
179 2 2174.94 2268.51 2128.82 0 0 0
180 2 1915.59 3186.39 1844.96 0 -1 0
181 2 3095.15 3125.26 2822.5 -1 -1 -1
182 2 2298.72 1764.99 1899.88 0 0 0
183 2 3161.34 1821.1 2104.95 -1 0 0
184 2 1824.95 2160.6 2142.4 0 0 0
185 2 2156.34 1727.2 2370.57 0 0 0
186 2 1982.42 2437.4 1915.32 0 0 0
187 2 3162.9 2181.69 2353.55 -1 0 0
188 2 3244.97 1929.47 1800.81 -1 0 0
189 2 2485.37 2119.77 2298.57 0 0 -1
190 2 2528.41 1847.46 1949.48 0 0 0
191 2 1948.87 2041.88 3197.34 0 0 -1
192 2 1779.24 2219.88 2039.5 0 0 0
193 2 2052.88 2253.89 2511.21 0 1 0
194 2 2019.37 2492 1768.25 0 0 0
195 2 1754.84 2429.72 1887.04 0 0 0
196 2 2439.69 1838.13 2016.94 0 0 0
197 2 1894.95 2193.7 1852.81 0 0 0
198 2 2489.7 2020.99 2067.21 0 0 0
199 2 1991 2037.05 2166.91 0 0 0
200 2 1755.64 2467.65 2007.69 0 0 0
201 2 2758.77 2845.16 2855.57 0 -1 -1
202 2 1728.76 2267.31 2475.82 0 0 0
203 2 1923.1 3154.22 1961.11 0 -1 0
204 2 2502.1 2023.85 2702.46 0 0 0
205 2 3218.37 1821.68 2439.91 -1 0 0
206 2 1844.76 2153.55 2547.96 0 0 0
207 2 2903.07 2773.76 2659.75 0 0 0
208 2 1820.28 1959.97 2418.58 0 0 0
209 2 3136.8 3067.09 2169.79 1 -2 2
210 2 2288.27 2232.13 2129.91 0 0 0
211 2 2360.59 1757.05 2000.6 0 0 0
212 2 2375.51 2836.88 2829.89 -1 -2 -1
213 2 2261.19 1823.07 2127.55 0 0 0
214 2 2192.38 3086.54 2055.84 0 -1 0
215 2 2531.92 2025.82 1959.32 0 0 0
216 2 2102.08 3236.51 3165.27 0 -1 -1
217 2 3118.7 3279.32 2078.91 -1 -1 0
218 2 2497.03 2084.7 1751.81 1 1 0
219 2 2020.95 3221.24 1972.5 0 -1 0
220 2 3160.97 2175.06 1966.9 -1 0 0
221 2 2902.72 1908.67 2170.37 1 0 -1
222 2 1758.13 1909.91 2135.34 0 0 0
223 2 2617.16 2954.62 2703.28 0 -2 -1
224 2 1988.09 3117.97 2618.36 0 -1 -1
225 2 2131.81 1807.2 2012.89 0 0 1
226 2 2269.84 1961.43 1847.08 0 0 0
227 2 2071.03 2189.75 3160.59 0 0 0
228 2 2424.13 2215.27 1855.14 0 0 0
229 2 1888.55 1860.21 1831.41 0 0 0
230 2 2164.75 2107.63 3140.65 0 0 -1
231 2 2010.94 1809.73 2385.65 0 0 0
232 2 2206.4 2278.99 2386.97 0 0 0
233 2 2028.23 1778.11 1769.39 0 0 0
234 2 2345 1956.29 1956.41 0 0 0
235 2 2042.42 2172.84 1910.09 0 0 0
236 2 1898.94 1951.87 1746.52 0 0 0
237 2 3066.82 2060.89 1750.69 -1 0 0
238 2 1766.33 1968.74 2523.89 0 0 0
239 2 1768.79 2208.65 3255.14 0 0 -1
240 2 2470.37 2120.81 2125.56 0 0 0
241 2 2984.85 2590.23 3265.7 -1 0 -1
242 2 2329.8 1872.15 3202.43 0 0 0
243 2 2712.68 2908.03 2661.95 0 0 0
244 2 2079.33 1998.14 2410.52 0 0 0
245 2 1871.19 2188.23 3120.67 0 0 -1
246 2 2261.42 1759.27 2405.19 0 0 -1
247 2 2018.68 2330.86 1886.23 0 0 0
248 2 3100.94 2128.4 2057.64 -1 0 0
249 2 3244.86 3071.37 2231.1 -1 -1 0
250 2 2933.87 2245.13 3213.48 -1 1 -1
251 2 2155.61 3163.36 3234.89 0 -1 0
252 2 1875.35 1952.86 2312.63 0 0 0
253 2 3140.08 2363.44 3230.21 0 0 -2
254 2 2454.5 1735.92 2061.7 0 0 0
255 2 1802.54 3074.58 2234.8 1 0 0
256 2 3137.15 2250.36 2450.27 0 1 -1
257 2 2178.61 1745.52 2102.9 0 0 0
258 2 1938.41 2573.93 1751.79 0 0 0
259 2 2124.27 2133.82 3246.53 0 0 -1
260 2 1980.38 2274.19 3188.9 0 0 -1
261 2 2289.44 2047.71 1772.68 0 0 0
262 2 1871.21 2454.31 2006.76 0 0 0
263 2 2184.23 1933.85 2372.5 0 0 0
264 2 1887.03 1745.98 2906.74 0 0 -1
265 2 1922.27 2021.77 1947.8 0 0 0
266 2 2326.01 1864.42 2031.4 0 0 0
267 2 1972.62 1877.98 2296.12 0 0 0
268 2 2196.3 2332.68 3268.22 0 0 -1
269 2 2497.01 2583.22 2253.04 0 0 0
270 2 2681.83 1816.23 2910.91 0 -1 -1
271 2 2201.56 3124.14 2164.56 0 -1 0
272 2 3226.43 1915.7 2506.28 -1 0 0
273 2 1854.91 2246.26 2475.88 0 0 0
274 2 2001.5 1769.79 2258.22 0 0 0
275 2 2140.47 2393.29 2073.27 0 0 0
276 2 2632.54 1863.76 2832.09 -1 1 0
277 2 1858.69 1967.37 1863.94 0 0 0
278 2 2928.2 2550.2 2090.27 0 0 0
279 2 2088.41 2457.4 1948.49 0 0 0
280 2 1733.36 3130.81 2021.8 0 -1 0
281 2 1758.28 3231 2432.61 0 -1 -1
282 2 3076.59 2249.34 2345.08 0 0 0
283 2 3152.85 1997.32 1776.58 -1 0 0
284 2 3258.1 2051.77 1966.93 -1 0 0
285 2 1933.74 2536.29 1942.42 0 -1 0
286 2 2391.3 2301.21 3236.69 -1 0 -1
287 2 2131.87 2056.23 2495.92 0 0 0
288 2 2183.68 1791.18 1903.72 0 0 0
289 2 2681.65 2234.54 1891.49 0 0 1
290 2 3116.06 2281.09 2168.98 -1 0 0
291 2 1859.11 1785.07 2437.72 0 0 0
292 2 1983.59 2000.65 2996.47 1 0 0
293 2 3210.27 2081.04 2183.66 -1 0 0
294 2 3095.73 1736.92 2299.05 0 0 0
295 2 1980.79 2214.95 3088.57 0 0 -1
296 2 1819.78 3248.91 1801.09 0 -1 0
297 2 1799.28 2365.62 1994.97 0 0 0
298 2 1752.74 2092.69 3258.42 0 0 -1
299 2 1742.33 3164.62 2230.29 0 -1 0
300 2 1885.84 2150.31 2240.16 0 0 0
301 2 2016.86 1928.99 2131.14 0 0 0
302 2 1833.02 2155.83 2346.16 0 0 0
303 2 2298.43 2155.98 1822.36 0 0 0
304 2 2254.66 2095.03 2453.27 0 -1 0
305 2 3035.92 2956.62 2644.38 0 -1 0
306 2 3103.23 2193.35 2249.24 -1 0 0
307 2 2170.21 2044.54 3047.99 -1 0 -1
308 2 3160.18 1786.47 2219.97 -1 0 0
309 2 2332.9 2177.09 2029.78 0 0 0
310 2 2535.72 3168.21 2286.68 -1 -1 0
311 2 2179.6 2801.33 2141.61 0 0 -1
312 2 2052 3121.71 3258.86 0 -1 -1
313 2 2116.01 2362.66 2177.03 0 0 0
314 2 2088.39 1840.35 1849.15 0 0 0
315 2 2110.95 2415.58 1739.7 0 0 0
316 2 2315.78 1941.34 1742.04 0 0 0
317 2 2466.89 1864.67 1857.42 0 0 0
318 2 1897.03 2208.95 2627.36 0 0 0
319 2 1750.42 2454.51 2337.13 0 0 0
320 2 1937.91 2043.57 2270.87 0 0 0
321 2 2790.94 1735.64 2661.47 -1 0 -1
322 2 1962.25 1879.78 2042.03 0 0 0
323 2 1859.14 2441.17 2335.59 0 0 0
324 2 1895.76 1765.9 2671.14 0 0 -1
325 2 1832.26 3149.19 2159.55 0 -1 0
326 2 3257.09 1855.99 2054.89 -1 0 0
327 2 1813.39 1863.58 2352.87 0 0 0
328 2 2094.73 1818.37 2644.94 0 0 0
329 2 3082.66 3236.23 2811.58 0 -1 0
330 2 1766.19 2642.59 1879.23 0 0 0
331 2 3151.2 2393.97 1919.01 -1 0 0
332 2 2620.82 2201.1 3187.62 0 -1 0
333 2 1795.18 2360.36 2298.63 0 0 0
334 2 2192.89 1878.76 1821.69 0 0 0
335 2 2060.66 3047.22 2569.9 0 0 -1
336 2 2079.15 1902.95 2332.45 0 0 0
337 2 2335.45 2136.41 3274.41 0 0 -1
338 2 2470.42 2379.29 2459.35 0 -1 -1
339 2 1985.33 3248.43 2530.88 0 -1 -1
340 2 2393.93 2032.08 2320.63 0 0 0
341 2 1831.7 2547.22 3276.13 0 0 -1
342 2 2512.74 2234.38 2147.68 0 0 0
343 2 3226.37 2273.94 2173.62 -1 0 0
344 2 2065.1 2268.41 1973.5 0 0 0
345 2 3180.31 2231.15 1765.57 -1 0 0
346 2 2167.38 2380.21 2420.83 0 -1 0
347 2 2225.21 2170.17 1727.55 -1 0 0
348 2 1915.85 2354.72 1972.59 0 0 0
349 2 2014.43 3135.13 1876.29 0 -1 0
350 2 2241.72 2272.63 2224.6 0 0 0
351 2 1959.04 1969.62 3099.69 0 0 0
352 2 1866.61 1880.6 2510.57 0 0 0
353 2 3241.51 1811.43 2552.47 -1 0 0
354 2 1957.97 1837.75 2172.95 0 0 0
355 2 1913.36 2342.15 2294.57 0 0 0
356 2 1816.69 1970 2214.35 0 0 0
357 2 3027.51 2321.35 2511.62 0 0 0
358 2 2114.36 2017.65 3254.53 0 0 -1
359 2 1899.86 1823.73 1963.29 0 0 0
360 2 2768.83 2382.76 2039.02 0 0 0
361 2 1727.39 1858.98 3274.95 0 0 -1
362 2 2151.05 3070.13 2337.34 0 0 0
363 2 2044.4 3266.16 2349.14 0 -1 0
364 2 2272.7 3031.25 2119.71 0 -1 0
365 2 2528.66 2241.72 2259.69 0 0 0
366 2 3119.42 2171.83 3124.51 0 0 -1
367 2 2883.02 2040.61 2972.34 0 0 0
368 2 1739.71 2519.52 2662.93 0 -1 0
369 2 2088.39 2122.21 2410.93 0 0 0
370 2 3119.71 2182.15 1856.37 -1 0 0
371 2 2122.06 1929.31 2498.17 0 0 0
372 2 2711.75 2114.08 2503.08 0 0 0
373 2 2753.06 2330.39 1926.84 0 0 1
374 2 2391.36 2247.88 1963.46 0 0 0
375 2 2529.95 2445.19 2868.64 -1 0 0
376 2 3201.05 3095.81 2077.8 0 0 0
377 2 3177.28 2290.71 1960.36 -1 0 0
378 2 2075.57 2181.8 2820.83 1 0 -1
379 2 1991.8 2424.65 3002.44 0 0 -1
380 2 2718.61 1912.44 3180.88 -1 0 -1
381 2 2401.5 2021.55 1748.54 0 0 0
382 2 2741.46 1851.8 2831.1 0 0 0
383 2 2838.58 2488.89 1842.23 -1 -1 -1
384 2 2156.2 2160.79 2689.62 0 0 0
385 2 2067.86 1982.87 2697.01 0 -1 0
386 2 2217.93 2063.15 3234.63 0 0 -1
387 2 2077.26 3273.21 2059.6 0 -1 0
388 2 1874.73 1897.96 2116.4 0 0 0
389 2 1903.22 3042.96 2571.2 0 -1 -1
390 2 2088.71 3015.28 2045.92 0 -1 1
391 2 1835.29 1770.36 1884.14 0 0 0
392 2 3077.98 2245.02 1942.61 -1 0 0
393 2 1735 2316.46 2084.64 0 0 0
394 2 1817.28 2441.83 2444.83 0 1 0
395 2 1843.04 1733.25 2005.09 0 0 0
396 2 2079.45 3025.81 2207.16 0 -1 0
397 2 2099.36 1914.58 2047.66 0 0 0
398 2 3099.28 3128.44 1912.07 -1 -1 1
399 2 1783.18 2896.15 1922.03 0 -1 0
400 2 2869.04 3174.31 1852.95 -1 -1 0
401 2 1751.73 3279.87 2200.34 0 -1 0
402 2 1725.52 1745.92 1763.69 0 0 0
403 2 2040.1 2066.02 2319.68 0 0 0
404 2 1868.29 1935.25 2003.1 0 0 0
405 2 1813.43 2379.45 3147.28 0 0 -1
406 2 3237.45 2010.82 2570.86 0 0 0
407 2 2875.91 1895.07 2959.22 -1 0 0
408 2 2443.02 3120.01 2673.28 0 -1 0
409 2 1753.38 1946.07 2010.6 0 0 0
410 2 1735.35 1976.32 3266.04 1 1 0
411 2 2053.97 2208.63 2709.84 0 0 0
412 2 2971.25 1818.13 1971.21 -1 1 1
413 2 1999.72 2196.04 2424.77 0 0 0
414 2 3140.21 3106.25 3120.36 -1 -1 -1
415 2 1949.3 1915.67 1913.7 0 0 0
416 2 1808.96 1766.72 2288.48 0 0 0
417 2 3146.12 2029.94 2100.33 -1 0 0
418 2 2316.34 1849.95 3093.75 0 0 0
419 2 1923.57 3094.85 3229.76 1 0 -1
420 2 2525.13 2140.72 3210.3 0 0 0
421 2 2206.08 3198.78 2074.85 0 -1 0
422 2 1734.85 2366.3 2197.54 0 0 0
423 2 1966.84 2340.46 2190.71 0 0 0
424 2 3078.51 1767.9 3159.64 -1 1 -1
425 2 2348.98 2870.44 2933.47 0 -1 -1
426 2 3132.68 2501.05 1864.85 0 0 0
427 2 1845.44 2077.39 3122.44 0 0 0
428 2 2227.02 1770.39 1795.66 0 0 0
429 2 3193.32 3135.95 1744.61 -2 0 1
430 2 1783.53 2206.81 3052.88 0 0 -1
431 2 1891.72 2205.09 2035.32 0 0 0
432 2 2096.99 3095.83 2121.93 0 -1 0
433 2 2207.41 1969.57 1747.29 0 0 0
434 2 3040.02 1772.59 2143.15 -1 0 0
435 2 3093.82 2343.6 2012.46 -1 0 0
436 2 3226.42 2228.38 1872.61 -1 0 0
437 2 2017.83 1907.94 2449.86 0 0 0
438 2 1794.93 2163.31 2642.28 0 1 0
439 2 2057.37 2297.51 3114.29 0 0 -1
440 2 1991.55 2248.48 2845.64 0 0 -1
441 2 1966.66 2156.94 3188.35 0 0 -1
442 2 2060.63 2279.31 2249.53 0 0 0
443 2 2123.26 1827.25 2411.43 0 0 0
444 2 1930.69 1945.79 2208.4 0 0 0
445 2 2019.21 2097.04 3274.65 0 0 -1
446 2 2878.83 1756.37 1995.67 1 1 0
447 2 2059.8 1864.67 2218.64 0 0 0
448 2 3202.36 1923.89 2135.28 -1 0 0
449 2 3182.39 2564.25 2930.63 -1 0 0
450 2 1857.01 2131.08 3222.63 0 0 -1
451 2 2379.63 1937.69 1845.8 0 0 0
452 2 1897.26 2143.76 2443.53 0 0 0
453 2 1981.35 1808.5 1877.43 0 0 0
454 2 2307.14 1758.01 2203.13 0 0 0
455 2 1917.97 3044.93 1995.03 0 -1 0
456 2 2164.78 2113.81 2286.72 0 0 0
457 2 2003.14 3112.66 2192.33 0 -1 -1
458 2 2171.99 1867.67 2576.6 0 0 1
459 2 1861.69 1911.87 3125.19 1 0 -1
460 2 2353.64 2728.61 2551.75 0 -1 0
461 2 2316.53 1794.43 2312.48 -1 0 0
462 2 1875.67 1978.39 2573.31 0 0 0
463 2 1913.51 3071 1878.48 0 -1 0
464 2 2375.82 2141.51 2288.17 0 0 0
465 2 2485.2 1900.17 2242.28 0 0 0
466 2 2235.07 2360.29 2300.72 0 0 -1
467 2 2552.02 1789.37 3108.23 0 1 0
468 2 3273.33 2169.83 2144.1 -1 0 0
469 2 2436.92 1964.35 2166.9 0 0 0
470 2 1808.04 3150.87 2336.22 0 -1 0
471 2 3209.89 2116.21 2056.38 -1 0 0
472 2 3101.77 1927.3 2071.46 -1 0 0
473 2 2173.58 2077.91 1780.47 0 0 0
474 2 3274.04 3054.28 1918.36 -1 0 1
475 2 1820.07 3102.78 1946.3 0 -1 0
476 2 1762.95 2106.46 2058.37 0 0 0
477 2 2311.51 2018.05 2168.98 0 0 0
478 2 3202.72 1888.8 2250.81 -1 0 0
479 2 1830.41 3215.94 1919.52 0 -1 0
480 2 1974.49 2139.51 2984.89 0 0 0
481 2 2274.43 2085.14 2268.56 0 0 0
482 2 2194.6 3040.84 2236.51 0 0 0
483 2 2808.8 3129.7 1764.6 0 -1 0
484 2 3116 1773.79 1719.44 -1 1 0
485 2 3091.07 2382.89 2122.57 0 1 0
486 2 2075.07 2308.76 2083.93 0 0 0
487 2 1873.42 3237.14 2503.03 0 -1 0
488 2 2101.34 2307.64 2590.99 0 0 -2
489 2 3250.77 2479.08 2216.48 -1 1 0
490 2 2834.98 2327.84 2509.76 0 1 0
491 2 1898.53 1747.44 2213.49 0 0 0
492 2 3079.31 2986.68 3107.9 0 0 -1
493 2 3062.19 2128.48 1942.32 -1 0 0
494 2 2210.23 2278.94 1897.33 0 0 0
495 2 1902.76 3057.37 2169.2 0 -1 0
496 2 1998.05 2232.99 1819.57 0 0 0
497 2 1924.64 3164.77 2387.32 0 -1 0
498 2 1960.56 2967.2 2882.31 -1 -1 -1
499 2 2356.06 2103.4 3133.2 0 0 0
500 2 2110.83 2204.06 2058.32 0 0 0
501 2 2100.56 1723.02 2575.39 0 0 -1
502 2 2681.45 1839.04 1951.83 0 0 0
503 2 3052.81 2022.11 2032.08 -1 0 0
504 2 2164.25 1890.83 2254.37 0 0 0
505 2 1771.3 2164.58 2246.11 0 0 0
506 2 1933.32 2074.86 2532.74 0 0 0
507 2 2229.02 1845.52 3166 0 0 -1
508 2 2023.84 2057.1 1916.73 0 0 0
509 2 1756.17 1878.91 2252.27 0 0 0
510 2 2253.41 3082.17 2962.58 0 0 0
511 2 1800.93 2450.06 2238.61 0 -1 0
512 2 1923.19 2325.25 2946.24 0 0 -1
513 2 2246.93 1782.93 2003.51 0 0 0
514 2 3213.11 1724.83 2372.03 0 1 -1
515 2 2187.4 2181.44 1838.51 0 0 0
516 2 2073.35 2772.31 1758.08 0 0 1
517 2 2220.96 2190.56 2041.32 0 0 0
518 2 2859.06 1806.66 2156.58 0 1 0
519 2 1772.07 1758.9 2506.73 -1 0 -1
520 2 2536.32 3220.62 2545.99 0 -1 -1
521 2 2404.06 2116.81 1805.12 -1 0 0
522 2 3064.46 2134.41 2336.39 -1 0 0
523 2 1863.03 2135.06 3024.02 0 0 0
524 2 1799.24 2251.73 2570.23 0 -1 0
525 2 1838.01 3220.37 2255.03 0 -1 0
526 2 3211.2 1756.95 2022.42 -1 0 0
527 2 2199.31 2088.5 1992.78 0 0 0
528 2 3273.75 2073.45 2486.54 -1 0 0
529 2 2159.24 3006.9 2133.16 0 -1 0
530 2 3255.9 3140.62 2326.7 -1 0 0
531 2 1842.19 2264.73 1950.34 0 0 0
532 2 3003.7 1926.15 2000.76 0 0 0
533 2 2460.1 2021.32 1868.6 0 0 0
534 2 2518.75 1914.79 2045.5 0 0 0
535 2 2120.71 3078.17 1951.4 0 -1 0
536 2 3200.22 1917.5 3216.58 -1 0 -1
537 2 1743.67 3205.08 2109.98 0 -1 0
538 2 2719.4 2933.98 2267.99 0 -1 0
539 2 3139.33 1899.07 1842.71 -1 0 0
540 2 2952.12 1987.33 2086.5 0 0 0
541 2 2756.18 3131.26 3223.82 -1 0 -1
542 2 1984.46 2518.4 3223.04 0 0 -1
543 2 3212.88 1719.57 2141.34 -1 0 0
544 2 1973.99 2323.57 3042.74 0 0 -1
545 2 2352.79 2329.53 2286.51 -1 -1 -1
546 2 2342.58 2134.84 2178.56 0 0 0
547 2 2455.47 1933.01 1950.23 0 0 0
548 2 2244.84 1971.27 2271.71 0 0 0
549 2 2190.8 2167.57 2389.99 0 0 0
550 2 2937.15 3206.08 1985.05 0 -1 0
551 2 1724.14 2267.39 2279.1 0 0 0
552 2 2354.43 1946.25 2248.68 0 0 0
553 2 1877.47 2058.85 2171.81 0 0 0
554 2 3278.22 2169.74 2351.02 -1 0 0
555 2 2028.63 3039.99 2694.5 -1 0 0
556 2 2134.32 1815.19 1741.62 0 0 0
557 2 1787.97 3238.95 3256.13 1 0 -1
558 2 2095.35 2945.97 2724.26 -1 -1 -1
559 2 3011.43 1924.01 2232.92 0 1 0
560 2 2087.48 3174.13 1790.48 0 -1 0
561 2 2313.92 2990.88 1872.65 0 -1 1
562 2 2369.06 1796.21 2110.27 0 0 0
563 2 2132.54 3128.51 3002.97 -1 0 0
564 2 2030.24 2002.7 2516.43 0 0 0
565 2 2218.76 2702.06 2175.65 0 0 0
566 2 2302.2 2241.96 3123.15 0 0 -1
567 2 1956.17 2247.98 1940.65 0 0 0
568 2 3103 3060.85 1751.36 0 0 0
569 2 2030.79 1972.57 2253.34 0 0 0
570 2 3243.01 2371.92 2297.43 -1 0 -1
571 2 3006.18 3277.13 1930.65 -2 -1 0
572 2 3200.04 1822.78 1784.16 -1 0 0
573 2 2572.2 1764.7 2854.82 0 0 -1
574 2 2556.76 2904.49 2104.52 0 0 0
575 2 2242.76 3269.54 2297.56 0 -1 0
576 2 2679.19 2247.07 2636.21 0 0 0
577 2 2267.44 2195.07 2303.29 0 0 0
578 2 2837.96 2701.67 2274.25 0 0 1
579 2 2977.93 2220.72 2521.95 0 0 0
580 2 2182.13 1998.8 2064.18 0 0 0
581 2 2050 1945.16 3169.25 0 0 -1
582 2 2093.58 1771.54 3082.92 0 0 0
583 2 2442.05 2148.92 2012.59 0 0 0
584 2 1801.53 2405.95 2102.08 0 0 0
585 2 1874.88 2090.09 2046.16 0 0 0
586 2 1968.31 2387.31 2389.69 0 0 0
587 2 3251.48 1896.39 1928.52 -1 0 0
588 2 1840.74 2258.12 1772.25 0 0 0
589 2 1822.45 2062.66 2279.38 0 0 0
590 2 2283.66 2012.17 2373.43 0 0 0
591 2 3114.41 3167.31 2108.46 -1 -1 0
592 2 2043.94 1862.53 1958.17 0 0 0
593 2 2914.3 1785.34 2967.44 -1 0 -1
594 2 2169.46 1772.39 2496.83 0 0 0
595 2 2015.25 3151.22 2315.04 0 -1 0
596 2 1962.41 2294.75 2061.5 0 0 0
597 2 3222.64 2165.8 3239.83 -1 0 -1
598 2 3049.37 1992.64 2146.73 -1 0 0
599 2 2118.23 3177.79 2351.58 0 0 0
600 2 2289.19 3278.49 2086.72 0 -1 0
601 2 1848.94 3251.32 2367.26 0 -1 0
602 2 2592.96 2144.16 1932.21 0 0 0
603 2 3127.16 2385.8 2474.76 -1 1 0
604 2 2452.65 2731.79 2599.23 0 -1 -1
605 2 2330.06 2325.96 2168.45 -1 -1 0
606 2 2013.79 1970.45 1992.83 0 0 0
607 2 2265.33 2153.73 3180.66 0 0 -1
608 2 2250.69 2462.94 2259.94 -1 0 -1
609 2 2648.01 2584.67 1995.31 0 -1 -1
610 2 1735.58 3275.29 1875.15 1 -1 0
611 2 2627.3 3199.05 2486.14 0 -1 0
612 2 2115.74 2332.6 2337.54 0 0 0
613 2 2453.09 1764.57 1930.84 0 0 0
614 2 1879.23 2079.78 1856.13 0 0 0
615 2 1872.35 2247.65 3222.21 0 0 -1
616 2 2169.26 2291.58 2015.42 0 0 0
617 2 1815.39 1807.93 2159.62 0 0 0
618 2 2148.01 2195.83 1950 0 0 0
619 2 1780.61 2262.6 2176.9 0 0 0
620 2 2595.27 1995.06 2079.08 0 1 1
621 2 2066.01 3170.73 2546.65 0 -1 0
622 2 2101.36 1926.11 1766.52 0 0 0
623 2 3261.79 2340.94 3142.38 -1 0 -1
624 2 2378.74 2053.29 2079.82 0 0 0
625 2 2087.59 2111.63 1996.46 0 0 0
626 2 2726.46 3210.13 2067.4 0 0 1
627 2 3110.27 1929.88 2302.71 -1 0 0
628 2 3257.34 2398.05 3241.83 -1 0 0
629 2 2374.19 3248.55 1903.68 0 0 0
630 2 2926.67 2918.17 2632.46 0 0 0
631 2 1766.76 2068.37 2384.02 0 0 0
632 2 2230.66 1936.27 2153.24 0 0 0
633 2 2012.17 2352.99 2540.49 0 0 0
634 2 1819.32 2478.48 1798.64 0 0 0
635 2 1883.75 2049.46 2377.47 0 0 0
636 2 2064.28 2345.43 2439.89 0 0 0
637 2 2056.08 2076.33 3166.99 0 0 -1
638 2 2223.79 3239.76 2182.64 0 -1 0
639 2 2424.12 2094.7 3220.5 0 0 0
640 2 2105.12 2240.45 2405.7 0 0 0
641 2 2122.84 1730.04 1823.71 0 0 0
642 2 2075.71 1751.64 1926.36 0 0 0
643 2 1723.32 3021.37 2031.03 0 0 0
644 2 2340.46 1904.21 2143.23 0 0 0
645 2 3151.26 2972.86 2654.81 -1 -1 0
646 2 2127.42 1880.49 3112.33 0 0 0
647 2 2178.77 2050.12 2388.1 0 0 0
648 2 2234.48 2370.94 1956.11 0 0 0
649 2 1929.53 2504.83 1835.86 0 0 0
650 2 1871.19 1855.33 2250.1 0 0 0
651 2 2349.27 2041.85 1877.52 0 0 0
652 2 2080.84 2056.34 2973.9 0 0 0
653 2 2238.97 1859.37 3278.29 0 0 -1
654 2 1941.7 1916.3 3204.28 0 0 -1
655 2 2681.19 2886.23 2104.89 0 0 0
656 2 2051.45 2187.24 2317.85 0 0 0
657 2 1902.09 3209.02 2611.5 0 -1 0
658 2 1846.02 2723.08 1897.56 0 0 0
659 2 1912.51 2068.13 1745.66 0 0 0
660 2 1827.54 2059.17 2481.95 0 0 0
661 2 3162.62 2137.25 2542.89 0 0 -1
662 2 2011.42 2289.12 2354.11 0 0 0
663 2 1811.11 1781.39 3207.23 -1 1 -1
664 2 2459 1864.15 2130.48 0 0 0
665 2 3108.51 1786.92 1833.01 -1 1 0
666 2 2069.85 2019.77 2083.6 0 0 0
667 2 2201.4 2043.91 2192.99 0 0 0
668 2 2270.19 3026.7 2416.5 -1 -1 1
669 2 2621.4 2906.93 2196.61 0 0 1
670 2 1953.36 3277.51 2422.09 0 -1 0
671 2 1831.27 3147.29 2454.01 0 -1 -2
672 2 3108.9 2067.81 1859.5 -1 0 0
673 2 2023.98 3191.53 2438.67 0 0 0
674 2 3134.17 2238.88 3222.77 -1 0 -1
675 2 1909.71 3132.43 2262.5 0 -1 0
676 2 2802.5 1814.98 2975.07 0 0 -1
677 2 1942.68 3237.44 2298.97 0 -1 0
678 2 2023.32 1840.38 3137.16 0 0 -1
679 2 2038.05 1861.81 3249.55 0 0 -1
680 2 1747.07 1756.25 2084.8 0 0 0
681 2 2349.3 2235.88 2228.92 0 0 0
682 2 2311.91 2065.48 1985.84 0 0 0
683 2 1896.16 2249.91 2170.69 0 0 0
684 2 3114.11 2919.29 3188.6 -1 0 -1
685 2 2378.74 2610.5 2404.96 0 0 0
686 2 2119.3 2006.17 1963.09 0 0 0
687 2 2529.58 2028.14 2177.08 0 0 0
688 2 3113.92 3246.76 2192.36 -1 -1 0
689 2 1982.12 2472.09 2028.76 0 0 0
690 2 3066.2 3223.92 3199.32 0 -1 -1
691 2 3179.03 2372.16 2199.4 -1 0 0
692 2 3021.93 1957.92 1722.75 0 0 0
693 2 1972.08 1803.93 2495.07 0 0 0
694 2 3280.19 3195.94 1788.46 -1 0 0
695 2 2319.72 2256.08 1877.38 0 0 0
696 2 2243.75 2213.53 2475.05 -1 -1 0
697 2 1746.14 2361.01 2403.74 1 -1 -1
698 2 3206.23 1983.23 2320.8 -1 0 0
699 2 2476.3 2843.42 2311.36 0 -1 0
700 2 1726.4 2274.75 1781.03 0 0 0
701 2 1980.66 2117.78 1824.66 0 0 0
702 2 2139.84 2175.89 2494.68 0 0 0
703 2 2060.54 1739.76 2460.73 0 0 0
704 2 1844.92 3260.39 2120.36 0 -1 0
705 2 2155.56 2292.86 2489.51 0 0 0
706 2 3241.01 3050.24 3251.69 0 0 -1
707 2 1912.66 1783.72 2334.17 0 0 0
708 2 2181.45 2105.39 2584.5 0 0 0
709 2 1895.32 2958.15 1900.88 1 0 0
710 2 1744.89 1987.01 1880.36 0 0 0
711 2 2995.49 2218.98 2275.58 0 0 0
712 2 2423.08 2043.99 1970.69 0 1 0
713 2 1951.47 2611.35 1859.03 0 0 1
714 2 1777.68 2442.4 2560.36 0 0 0
715 2 1809.63 3022.18 1863.1 1 0 1
716 2 2140.1 3245.35 2262.62 0 -1 0
717 2 2112.58 1792.73 3191.67 0 0 -1
718 2 2092.6 1757.27 2184.67 0 0 0
719 2 2022.98 2379.05 2288.46 0 0 0
720 2 2024.71 3083.4 2408.65 0 0 0
721 2 2272.86 2096.44 2090.42 0 0 0
722 2 3238.49 2344.76 1873.7 -1 0 0
723 2 2148.28 2422.32 2270.1 0 0 0
724 2 3180.51 2979.99 1749.7 -1 0 0
725 2 3017.3 1813.54 3242.79 0 1 0
726 2 2754.67 2317.55 2772.24 0 0 -1
727 2 3205.76 3205.99 2051.86 0 -1 0
728 2 2162.76 2345.94 1812.42 0 0 0
729 2 3172.68 2281.82 2271.95 -1 0 0
730 2 1860.57 2932.53 2572.6 0 -1 0
731 2 2000.16 2137.47 2224.81 0 0 0
732 2 2441.76 2293.64 2205.27 0 0 0
733 2 2294.45 2452.56 1907.34 0 0 1
734 2 2198.07 1781.18 2225.13 0 0 0
735 2 1847.55 2306.33 2080.02 0 0 0
736 2 1957.12 2236.18 2267.58 0 0 0
737 2 3111.48 1753.44 1966.36 -1 0 0
738 2 1959.46 2092.89 3091.28 0 0 -1
739 2 1990.1 1729.9 2137.31 0 0 0
740 2 3277.93 3079.76 1798.48 -1 0 1
741 2 2125.76 2352.6 1921.19 0 0 0
742 2 2065.76 2008.07 3070.29 0 0 -1
743 2 1904.87 1789.54 2082.74 0 0 0
744 2 3197.47 1964.65 2013.7 -1 0 0
745 2 2010.38 2232.33 2153.72 0 0 0
746 2 2126.71 2095.7 1887.61 0 0 0
747 2 1967.16 3104.49 1774.8 0 -1 0
748 2 3168.53 1921.23 2405.65 -1 0 0
749 2 3193.38 1994.12 1887.56 -1 0 0
750 2 1779.21 2212.52 1867.07 0 0 0
751 2 1858.41 2576.12 2740.69 1 0 0
752 2 3053.17 1970.68 1830.46 0 0 0
753 2 2657.7 2675.16 2344.77 0 0 1
754 2 1977.73 1974.96 2360.86 0 0 0
755 2 2117.9 1961.35 2175.54 0 0 0
756 2 2073.59 3065.66 1810.41 0 -1 0
757 2 3272.19 2160.41 1785.04 -1 0 0
758 2 1743.64 3242.48 2318.89 0 -1 0
759 2 2054.01 1949.05 1882.54 0 0 0
760 2 1999.42 3139.24 2729.36 0 -1 0
761 2 1827.01 2150.92 1957.31 0 0 0
762 2 2046.92 2127.3 2119.13 0 0 0
763 2 3058.32 2027.31 2274.05 -1 0 0
764 2 1915.49 2393.99 2099.83 0 0 0
765 2 2087.5 2189.74 2600.05 -1 1 0
766 2 2148.51 2543.61 1909.04 -1 0 0
767 2 2252.64 2042.36 3129.56 0 0 -1
768 2 3214.48 3240.02 3268.9 -1 -1 0
769 2 1841.57 2252.2 2274.56 0 0 0
770 2 2237.76 2069.23 1878.22 0 0 0
771 2 3226.06 2231.12 2046.98 -1 0 0
772 2 2036.85 2210.87 3268.27 0 0 -1
773 2 1987 2068.42 2428.46 0 0 0
774 2 2448.94 2181.16 3280.66 0 0 -1
775 2 3242.11 2944.47 1926.26 -1 0 0
776 2 1740.49 1795.18 1958.48 0 0 0
777 2 1904.36 2640.48 2821.51 1 0 0
778 2 2246.09 2268.56 1785.99 0 0 0
779 2 3144.78 2061.32 1974.82 0 0 0
780 2 3145.13 3147.44 2249.18 -1 -1 0
781 2 1834.9 1887.81 3238.6 0 0 -1
782 2 2063.56 2121.61 3063.95 0 0 -1
783 2 1788.22 2258 2378.4 0 0 0
784 2 3257.9 1820.22 2170.9 -1 0 0
785 2 2867.62 2767.9 2977.25 0 0 0
786 2 1905.59 2242 2371.33 0 0 0
787 2 3115.35 2243.8 2059.18 -1 0 0
788 2 1956.58 2994.61 1810.81 1 0 1
789 2 1904.68 2301.67 2557.99 0 -1 0
790 2 2683.92 3275.61 2699.16 1 0 0
791 2 3009.16 3269.63 2049.2 0 0 0
792 2 2673.79 2904.38 2364.95 0 -1 0
793 2 1893.25 2362.23 3221.25 0 0 -1
794 2 2848.92 2338.26 1978.65 0 0 0
795 2 3103.51 3096.02 2019.84 -1 -1 0
796 2 1809.96 2035.84 1965.65 0 0 0
797 2 2094.95 1852.2 2757.38 0 0 0
798 2 3067.63 2112.05 3039.41 0 1 -1
799 2 1886.2 1943.92 3020.02 0 0 -1
800 2 1787.19 2324.38 3251.4 0 0 -1
801 2 1775.81 1870.79 2578.2 0 0 0
802 2 1796.41 1911.5 1781.24 0 0 0
803 2 1858.36 2348.92 2398.72 0 0 0
804 2 2029.59 1906.91 3041.05 0 1 -1
805 2 2240.15 1862.68 2439.07 0 0 0
806 2 2407.47 1941.67 2055.02 0 0 0
807 2 3003.3 1893.57 2121.87 -1 0 0
808 2 2432.82 3170.13 2575.2 1 -1 -1
809 2 3227.91 3006.14 2138.34 -1 0 1
810 2 2295.17 3083.92 2213.32 0 0 0
811 2 2089.86 2068.15 2211.28 0 0 0
812 2 3116.37 2061.14 3129.64 -1 0 -1
813 2 3238.62 2230.45 3137.41 -1 0 -1
814 2 2609.14 2748.1 2418.98 0 -1 0
815 2 1931.28 1854.11 3065.89 0 0 -1
816 2 3165.69 2114.88 1768.96 -1 0 0
817 2 1986.57 2075.21 2028.67 0 0 0
818 2 3265.61 1976.79 2422.41 -1 0 0
819 2 3079.68 2186.07 1751.76 0 0 0
820 2 2020.42 3181.38 2101.79 0 -1 0
821 2 3096.56 1960.9 1946.97 -1 0 0
822 2 2067.53 2036.28 1799.61 0 0 1
823 2 3144.95 1990.88 2214.91 -1 0 0
824 2 1809.39 2347.57 2499.53 1 0 0
825 2 1918.23 1880.73 2400.01 0 0 0