ITEM: TIMESTEP
510000
ITEM: NUMBER OF ATOMS
1000
ITEM: BOX BOUNDS pp pp pp
1.3914446622012579e+03 3.6085553377982069e+03
1.3914446622012579e+03 3.6085553377982069e+03
1.3914446622012579e+03 3.6085553377982069e+03
ITEM: ATOMS id type x y z ix iy iz
1 1 2763.75 2433.77 1533.02 -1 0 1
2 1 2100.58 1420.59 2620.93 0 0 0
3 1 3245.64 2576.74 2169.04 0 0 0
4 1 2259.78 1724.66 3222.68 0 -1 0
5 1 3373.16 2969.57 2697.6 -1 -1 1
6 1 1959.76 1788.89 3370.57 0 0 0
7 1 1707.99 3012.79 2850.26 0 -1 0
8 1 2190.89 1775.38 2474.86 0 0 1
9 1 2981.52 3025.1 2471.26 0 0 0
10 1 2847.57 2509.45 2638.03 0 0 0
11 1 2695.9 2149.42 2602.76 0 0 0
12 1 1487.46 3172.97 3544.52 0 0 0
13 1 3118.86 3469.01 3424.59 -1 0 -1
14 1 2229.15 2712.43 2867.57 0 0 -1
15 1 3201.2 2231.34 2073.96 0 0 0
16 1 2200.18 3600.55 2456 0 0 -1
17 1 2437.02 2892.06 2906.96 1 0 -1
18 1 3103.16 2356.98 2485.36 -1 1 0
19 1 2871.92 1907.28 1796.16 -1 0 0
20 1 1523.34 3027.4 2964.17 0 -1 0
21 1 2048.96 2524.86 2579.35 0 1 0
22 1 2668.95 2981.8 2741.07 2 -1 0
23 1 2871.19 2166.41 2692.65 0 0 1
24 1 2963.4 3331.6 2179.68 0 0 0
25 1 1774.5 1942.06 2797.61 -1 0 0
26 1 2952.05 3025.74 2936.9 0 0 0
27 1 3083.31 2398.77 2827.13 -1 0 1
28 1 2048.57 2453.25 2396.46 0 0 0
29 1 2568.69 2272.94 2653.04 0 0 -1
30 1 2796.13 3393.31 2881.97 0 0 0
31 1 1506.15 1687.93 2902.74 0 0 0
32 1 1667.24 3109.7 3231.1 0 0 -1
33 1 2201.84 2392.59 3118.89 0 0 0
34 1 2451.03 1416.13 2883.7 0 0 0
35 1 2021.16 2191.33 2393.04 0 0 -1
36 1 1568.94 2829.63 1472.02 0 -1 0
37 1 1836.06 1854.6 1898.62 0 0 0
38 1 2217.89 2981.84 2189.54 0 0 0
39 1 3197.17 2362.44 2875.97 -2 0 -1
40 1 3106.03 2475.36 1999.8 -1 -1 2
41 1 1969.48 2917.46 1879.1 0 0 -1
42 1 2918.46 2701.17 2068.19 0 -1 0
43 1 2448.7 2589.95 2058.22 0 -2 0
44 1 2986.94 3362.93 1759.78 0 -1 0
45 1 2461.47 2320.52 2803.29 0 0 0
46 1 2910.66 3494.09 3027.96 -1 -1 0
47 1 3354.58 3218.84 2205.59 -1 -1 -1
48 1 3195.71 2076.29 2799.18 0 0 -1
49 1 2899.46 2555.98 2253.95 -1 0 1
50 1 3044.09 1721.02 3286.55 -1 0 0
51 1 3257 1490.97 2236.48 -1 -1 1
52 1 3588.06 2538.97 3460.8 -1 0 -1
53 1 3090.16 1946.6 3364.68 -2 0 -1
54 1 3277.43 2261.48 2989.08 0 0 -1
55 1 3001.81 3026.58 2957.18 -2 0 -1
56 1 3103.38 2156.05 1681.94 0 0 0
57 1 1949.87 2511.92 3489.55 0 0 -1
58 1 2465.65 2627.95 3455.76 0 0 -1
59 1 2645.48 3353.95 2786.07 -1 -1 0
60 1 2023.21 3153.73 1592.04 -1 -1 1
61 1 1873.88 2819.52 2457.45 -1 0 0
62 1 2591.42 1455.92 3119.84 0 0 -1
63 1 3181.89 2196.79 3133.52 -1 0 0
64 1 2883.37 2634.38 3207.97 0 -1 -1
65 1 3209.3 3059.06 2750.53 -1 -1 -1
66 1 3256.91 2925.66 2531.57 -1 0 1
67 1 2493.39 2427.36 1700.69 0 0 0
68 1 2223.99 2940.29 3301.77 0 -1 -1
69 1 1500.05 2584.67 2824.5 0 0 0
70 1 1705.98 1518.42 3361.27 0 1 -1
71 1 1944.35 2699.88 2540.46 -1 0 -1
72 1 2751.48 2035.73 3575.56 0 0 -1
73 1 2658.92 1570 1408.6 0 1 1
74 1 3148.11 2733.7 2119.02 -1 0 -1
75 1 1962.35 2473.77 1671.22 0 0 1
76 1 1611.92 1681.99 3047.03 -1 0 0
77 1 2652.38 2511.81 3361.88 -1 -1 -1
78 1 1650.21 3563.88 1793.17 0 -1 0
79 1 2029.16 2332.42 2527.62 0 -1 0
80 1 3146.88 2376.57 2462.19 -1 0 0
81 1 3579.02 1804.47 1813.64 -1 0 0
82 1 1849.39 2205.92 3389.22 1 0 0
83 1 2476.89 1994.24 2724.96 -1 -1 -1
84 1 1945.75 3571.01 3450.63 1 0 -1
85 1 2503.25 2399.08 2427.99 0 -1 0
86 1 3409.72 2368.2 2889.53 -1 0 0
87 1 1711.23 1940.51 2968.52 0 -1 -1
88 1 1519.24 2801.47 1984.16 0 -1 0
89 1 2904.55 2873.1 1738.61 0 0 0
90 1 3467.65 3275.72 2298.71 -2 -1 0
91 1 1635.09 3464.39 3014.99 0 -1 -1
92 1 1927 2826.54 2456.35 0 -1 -1
93 1 2188.43 3390.44 2760.68 1 0 0
94 1 2235.92 2087.49 3412.34 0 0 -1
95 1 1735.76 2423.13 2919.6 -1 -1 -1
96 1 2810.62 2454.67 1901.28 -1 0 0
97 1 2269.25 2397.73 1965.86 0 -1 1
98 1 2728.83 2043.18 3048.65 -1 -1 0
99 1 2457.1 2922.82 3081.22 0 -1 -1
100 1 2780.07 1930.39 1511.41 -1 0 0
101 1 1499.89 2975 2343 0 -1 0
102 1 2231.38 1444.17 2706.59 -1 0 0
103 1 2940.03 2511.49 2021.22 -1 0 0
104 1 3490.59 2736.05 2426.06 0 -1 -1
105 1 3421.44 3163.69 2815.25 -1 0 0
106 1 3482.33 1918.9 2894.83 0 1 -1
107 1 2810.63 2129.58 2436.25 -1 -2 0
108 1 3357.28 3236.41 1587.4 -1 0 -1
109 1 2212.21 2538.68 2394.6 -1 -1 0
110 1 2805.04 2791.11 1578.31 0 -1 0
111 1 3474.36 1391.98 3481.03 -1 0 -1
112 1 2680.97 1609.56 3072.75 0 0 0
113 1 2364.03 2772.92 3036.67 0 0 -1
114 1 2756.67 2399.86 3011.44 -1 0 0
115 1 2219.22 2702.75 3131.29 0 0 -1
116 1 2926.96 2410.78 2968.46 0 0 0
117 1 2333.87 3523.92 2791.62 0 -1 -1
118 1 2052.9 2846.65 2237.83 -1 0 -1
119 1 3411.46 3049.47 2194.87 0 -1 0
120 1 2821.16 2283.33 1723 1 0 0
121 1 3199.28 3320.12 3149.01 -1 0 0
122 1 2849.18 3188.74 2456.67 0 0 -1
123 1 1659.17 1621.4 3504.02 -1 1 -1
124 1 2612.82 2522.59 1518.45 0 0 1
125 1 1662.8 3170.77 1892.47 0 -2 0
126 1 2148.61 3603.04 3097.41 0 0 -1
127 1 2823.73 2226.07 2044.17 -1 -1 0
128 1 2004.3 2241.17 3605.15 -1 0 0
129 1 2479.16 2422.09 2385.63 -1 0 0
130 1 3465.68 2660.33 1930.05 0 -1 0
131 1 2995.46 3262.65 1432.22 -1 -1 0
132 1 2638.65 2861.52 3106.76 0 -1 -1
133 1 2527.89 2409.28 2931.8 0 0 -1
134 1 1857.13 3325.54 2481.92 -1 -1 -1
135 1 2123.53 3523.42 3452.99 0 -1 -1
136 1 3058.57 2051.67 3224.75 -1 0 0
137 1 3261.12 1812.13 1864.67 -1 0 0
138 1 2808.02 2595.44 1796.27 0 -1 0
139 1 3061.38 2606.6 1981.85 -1 -1 -1
140 1 3024.33 3095.06 2816.01 -1 -1 -1
141 1 2943.52 2862.79 1992.46 -1 1 0
142 1 2428.18 2209.2 2941.99 0 1 -1
143 1 3247.6 3069.54 2221.83 -1 0 0
144 1 1489.48 3089.36 2577.01 -1 -1 0
145 1 2277.25 2185.72 2030.98 0 0 0
146 1 3412.66 2591.16 2090.45 -1 -1 0
147 1 1638.65 2477.5 2763.12 0 0 -1
148 1 2772.89 2747.54 2328.37 -1 -1 1
149 1 3112.17 2909.44 2813.24 0 0 0
150 1 2413.31 2613.26 2571.91 0 0 0
151 1 2562.39 3139.49 2812.95 0 -2 -1
152 1 3438.15 2659.16 3021.47 -1 -1 0
153 1 2986.47 2850.67 2945.29 -1 -1 -1
154 1 3330.43 2729.07 2232.78 -1 0 -1
155 1 3068.19 2339.83 2521.62 0 0 0
156 1 1951.3 2514.57 3270.94 0 0 -2
157 1 3563.64 3074.22 2298.73 0 0 -1
158 1 2780.81 2795.49 1940.21 -1 -1 0
159 1 3151.93 2684.5 2698.42 0 -1 0
160 1 3000.54 1823.64 2913.89 -1 0 0
161 1 2738.56 2779.41 1756.05 0 0 -1
162 1 2870.56 1975.46 2543.01 0 -1 0
163 1 2364.57 2601.79 2952.42 0 0 -1
164 1 3301.25 2427.32 1813.11 0 -1 -1
165 1 2241.42 2083.39 3465.63 0 0 -1
166 1 1442.11 2763.72 1839.68 0 0 -1
167 1 2719.96 2754.33 2321.96 0 -1 0
168 1 1754.16 2093.42 3094.96 0 0 0
169 1 2115.27 3364.23 1689.2 0 -1 -1
170 1 3066.76 3035.09 2324.86 0 -1 0
171 1 2889.02 2040.81 3157.62 -1 -1 -1
172 1 2640.43 3044.81 2045.47 0 -1 -1
173 1 2874.76 2360.43 2529.21 -1 0 -1
174 1 2951.4 1692.73 3499.33 -2 0 -1
175 1 3255.15 3122.24 1460.2 -1 -1 -1
176 1 2038.82 2004.98 3083.28 0 0 0
177 1 2891.43 3426.26 1574.49 -1 0 0
178 1 3411.37 2123.14 2872.49 -1 0 0
179 1 1787.19 2095.47 3137.44 -1 0 0
180 1 3344.08 2991.03 3076.92 0 0 -1
181 1 1587.09 2691.38 3190.15 0 -1 1
182 1 2945.76 3475.45 2110.44 0 -1 0
183 1 1470.23 3123.84 1908.07 0 -1 0
184 1 3035.42 2170 2732.56 0 -1 1
185 1 1574.97 2246.18 2667.15 0 0 -1
186 1 3189.66 2297.47 1737.13 -1 0 -1
187 1 3573.76 2699.5 2897.18 0 0 -1
188 1 2600.99 1426.21 3541.39 0 1 -1
189 1 3531.79 1999.4 3435.62 -1 0 -1
190 1 2613.27 2707.1 2482.35 -1 0 0
191 1 2961.37 1559.55 3294.41 0 0 0
192 1 3366.43 3414.4 1644.84 -1 -1 0
193 1 3459.85 2867.27 3020.07 -2 -1 0
194 1 2998.75 2057.47 1833.05 0 -1 -1
195 1 2075.46 2628.89 2838.82 -1 0 0
196 1 2369.99 2520.03 3564.45 0 0 -1
197 1 2109.08 2249.04 1520.83 -1 1 1
198 1 2895.95 3347.12 3435.87 -1 -1 0
199 1 2295.53 3307.15 1455.16 0 0 1
200 1 1983.89 1808.04 3098.55 0 0 -1
201 1 3348.13 2113.57 3093.62 -1 0 0
202 1 2606.62 2344.55 3449.96 -1 -1 -1
203 1 3227.91 3214.57 3476.15 -1 -1 0
204 1 2434.34 2310.66 3108.79 0 -1 -2
205 1 3106.53 2657.37 3185.88 -1 -1 0
206 1 3392.86 1521.8 3369.72 -1 0 0
207 1 2399.29 2810.91 3427.68 -1 -1 -1
208 1 2411.48 2146.48 2768.67 0 0 -1
209 1 2769.7 2723.04 3094.47 -1 -1 0
210 1 3204.6 2553.73 1656.19 0 -1 0
211 1 2919.54 3035.74 1664.42 -1 -1 0
212 1 2333.44 1404.46 2332.04 0 0 -1
213 1 3167.2 2738.52 2502.04 0 1 -1
214 1 2386.36 2984.58 2462.43 0 -1 0
215 1 1392.6 3069.32 1754.38 0 0 -1
216 1 2708.46 2299.93 3332.66 -1 0 -1
217 1 3033.97 2080.94 2004.9 -1 0 1
218 1 2080.72 2640.37 1850.16 0 0 0
219 1 3220.41 3053.95 2419.5 0 -1 0
220 1 2101.84 2419.53 3319.54 -1 0 -1
221 1 3110.08 1586.36 3183.84 -1 0 -1
222 1 2950.92 2111.13 1396.85 0 -1 1
223 1 2454.49 2444.98 3400.91 0 -1 -2
224 1 1538.85 3410.95 2494.2 0 -1 0
225 1 2882.34 3526.55 2432.3 0 -1 0
226 1 2850.33 2563.97 3010.25 0 -1 0
227 1 3431.04 2375.36 2711 -1 -1 -1
228 1 1448.14 3304.76 1463.14 0 0 1
229 1 2983.21 1981.54 2163.67 -1 -1 0
230 1 1515.76 2409.7 2629.21 0 0 -1
231 1 1969.13 2810.17 2427.58 -1 -1 0
232 1 2011.61 3499.89 3600.16 0 -1 -1
233 1 3432.94 2827.01 2830.26 -1 0 1
234 1 1868.59 1685.54 2594.01 0 -1 -1
235 1 2769.46 2337.85 1556.42 -1 -1 0
236 1 2501.13 2588.97 2045.59 -1 0 0
237 1 3188.22 2537.08 3068.44 0 -1 0
238 1 3111.61 2909.28 2447.48 0 -1 0
239 1 2780.19 2606.29 1975.57 -1 -1 0
240 1 2084.52 2559.24 2557.67 1 0 -1
241 1 2753.2 3485 1731.12 0 -1 0
242 1 2672.21 1950.91 1660.66 0 -2 0
243 1 1760.98 3564.93 1619.98 0 -1 0
244 1 3052.51 2624.77 2854.46 0 -1 -1
245 1 3322.96 1482.47 2522.39 -1 0 0
246 1 3001.29 1759.69 2735.02 0 -1 0
247 1 2413.06 3538.05 2635.47 0 -1 0
248 1 3313.27 2886.91 1912.21 -1 -1 0
249 1 3317.24 2675.14 3178.87 0 0 0
250 1 3547.93 1628.13 3366.85 -1 0 -1
251 1 3187.57 2749.89 1870.97 0 -1 0
252 1 3038 1570.85 2727.05 -1 0 0
253 1 1615.96 2693.53 1902.41 1 0 0
254 1 3476.05 2202.56 2624.91 -1 0 -1
255 1 2926.16 1827.07 3394.6 -1 0 -1
256 1 2432.61 2409.05 2928.67 -1 0 0
257 1 2974.95 3192.62 1815.7 -1 -1 0
258 1 2592.89 1934.09 2993.23 0 0 -1
259 1 2663.74 1984.8 3436.53 -1 0 -1
260 1 2672.38 2551.22 3105.98 0 0 0
261 1 1480.17 1934.23 2251.34 0 0 0
262 1 3276.97 2534.1 1971.56 -1 0 -1
263 1 2609.54 2931.03 2913.12 -1 0 -1
264 1 2164.31 2364.15 1677.3 0 0 -1
265 1 3475.35 1843.37 3103.96 -1 0 -1
266 1 3158.47 1606 3371.64 -1 0 -1
267 1 1469.53 2248.22 3061.01 0 0 -1
268 1 2101.57 2512.98 2579.38 0 -1 0
269 1 2915.96 1481.13 2985.67 -1 0 0
270 1 2285.15 2084.01 3434.09 0 0 -1
271 1 1900.12 2936.89 2347.89 0 -1 -1
272 1 2594.55 2380.63 3125.63 -1 0 -1
273 1 2039.35 2343.13 3084.38 0 0 -1
274 1 2286.32 2575.7 3140.52 1 -1 0
275 1 2995.22 2431.17 1687.55 -1 0 1
276 1 2884.64 2709.59 1429.99 -1 -1 0
277 1 2643.83 2662.19 1870.23 0 0 1
278 1 1425.93 1523.39 2864.61 0 0 -1
279 1 2296.74 2794.57 2434.41 0 -1 0
280 1 2435.41 2456.24 3221.54 -1 0 -1
281 1 1783.4 2986.04 2723.22 0 -1 0
282 1 1857.24 2266.46 3041 0 -1 0
283 1 2268.74 3432.37 3524.31 0 -1 -1
284 1 2040.22 2220.63 3377.92 0 0 -1
285 1 3597.85 2801.71 3053.99 -1 0 -1
286 1 3019.31 1949.64 3032.95 -1 1 0
287 1 2880.27 1855.36 1620.95 0 0 0
288 1 2284.34 2292.43 2796.81 1 0 0
289 1 2015.52 2767.39 2744.94 0 -1 0
290 1 3151.28 2478.27 2298.2 -1 -1 0
291 1 2172.88 2750.6 2440.5 -1 -1 0
292 1 3417.25 2167.2 2842.04 -1 0 -1
293 1 2670.49 2574.8 2571.5 0 0 1
294 1 2566.88 2693.01 2700.63 0 -1 -1
295 1 1771.59 3459.78 2559.01 0 -1 0
296 1 3391.24 2478.54 3043.67 0 0 0
297 1 2993.76 2280.04 2599.86 -1 0 0
298 1 2360.72 2428.17 2648.24 0 0 0
299 1 1570.52 2053.9 2562.52 1 0 0
300 1 1910.63 2440.26 3439.81 0 0 0
301 1 2316.24 2471 2595.24 -1 0 -1
302 1 3446.17 1796.19 1479.04 -1 0 0
303 1 3135.94 3493.35 1704.2 0 -1 0
304 1 2231.75 2897.3 3332.83 1 -1 -1
305 1 2377.49 1646.42 3359.78 0 0 -1
306 1 1530.77 3457.64 1453.21 0 -1 0
307 1 3276.66 2403.39 1854.48 -1 0 -1
308 1 1519.61 1587.47 1425.23 0 0 0
309 1 2702.38 3098.32 2268.25 0 0 -1
310 1 1635.27 1818.52 2826.16 0 0 -1
311 1 2046.29 2920.92 1464.94 0 -1 -1
312 1 2961.04 2282.19 2642.45 0 -1 1
313 1 2010.76 1910.17 3236.58 0 -1 -1
314 1 1643.36 2285.52 2985.05 1 0 0
315 1 1747.96 1651.79 2728.12 0 0 0
316 1 3014.98 3044.35 1502.12 -1 0 0
317 1 2097.56 2960.99 2641.68 1 0 -1
318 1 3552.87 3281.7 2908.01 0 -1 -1
319 1 3072.39 2066.08 1498.3 -1 0 0
320 1 2415.59 2732.93 2771.48 0 -1 0
321 1 2685.54 2174.89 3453.87 -1 0 0
322 1 2244.41 2461.5 1577.42 0 -1 0
323 1 1854.17 1943.23 3092.91 0 0 -1
324 1 3532.85 2286.06 1472.08 0 0 0
325 1 1966.9 3393.3 3018.42 0 0 0
326 1 2773.37 2883.78 3002.04 0 0 -1
327 1 2627.34 3213.57 2650.49 0 -1 0
328 1 2006.97 2136.08 2570.13 0 0 0
329 1 1985.99 2866.21 1877.59 0 0 0
330 1 2739.03 2527.66 2882.11 0 0 0
331 1 2464.19 2603.31 1874.4 -1 0 0
332 1 2188.31 2951.12 3263.25 0 -1 -1
333 1 3011.32 2513.4 3117.9 0 0 0
334 1 3045.63 3606.75 3402.75 -2 -1 0
335 1 2546.63 3037.9 2376.04 0 0 0
336 1 2446.06 2336.78 3568.11 0 -1 -1
337 1 1520.74 2397.93 2093.14 0 0 0
338 1 2765.22 2794.1 3507.52 0 -1 -1
339 1 2992.48 2752.72 3296.03 0 -1 0
340 1 2414.23 2428.99 2640.91 0 -1 0
341 1 2776.37 3444.74 3316.18 0 -1 -2
342 1 2901.92 2978.31 3104.8 0 -1 0
343 1 2849.98 1904.87 3014.89 1 -1 0
344 1 3104.37 3176.38 3160.11 0 -1 -1
345 1 2562.19 2198.59 1394.68 0 0 0
346 1 2753.44 2388.85 1560.4 0 -1 0
347 1 2479.85 2431.48 2939.47 -1 0 -1
348 1 2067.34 2483.92 2609.03 -1 -1 -1
349 1 2914.5 2684.26 2643.44 -1 0 0
350 1 2155.79 2206.67 1877.61 0 1 0
351 1 1866.26 1427.1 3306.24 0 0 -1
352 1 2306.61 2191.88 3223.03 0 1 0
353 1 3194.19 2659.79 2322.64 0 -1 0
354 1 2068.22 2654.5 2272.68 0 0 0
355 1 2315.45 2864.3 3187.85 0 -1 -1
356 1 2152.2 3293.67 1528.22 0 -1 0
357 1 2014.65 3035.95 2950.63 0 -1 -1
358 1 3182.94 3592.75 2118.41 -1 -1 0
359 1 2677.91 2229.05 3047.46 0 0 0
360 1 2096.82 1448.89 3546.53 0 1 -1
361 1 3484.4 2619.31 2277.83 -1 0 0
362 1 2921.88 2665.39 2907.89 0 -1 0
363 1 2520.43 2334.7 3283.29 0 0 -1
364 1 2937.42 2784.68 3124.4 -1 0 0
365 1 2025.54 3362.65 2850.54 0 -1 0
366 1 1827.16 2629.14 1579.11 0 0 0
367 1 2164.83 2603.72 2993.03 0 -1 -1
368 1 2689.07 1694.64 2619 -1 0 0
369 1 3259.91 2814.78 2746.03 0 0 -1
370 1 3353.01 2891.78 2079.05 -2 0 0
371 1 3452.71 2107.19 1797.71 -1 0 0
372 1 3119.75 3136.06 3545.04 -1 -1 -1
373 1 2975.69 2664.23 2911.72 0 1 0
374 1 2536.45 1717.89 2578.77 0 0 0
375 1 3245.26 1475.97 2286.85 0 0 -1
376 1 2779.13 2703.97 2505.6 0 1 0
377 1 3338.89 2486.99 2286.17 0 0 0
378 1 2262.74 1775.28 3051.43 0 1 -1
379 1 3056.96 2570.98 2145 -1 -1 0
380 1 2658.53 2044.17 1832.03 -1 0 0
381 1 2174.69 2559.83 3249.94 0 0 -1
382 1 3381.78 3001.83 2881.5 -1 -1 0
383 1 2808.96 2253.75 2294.82 -1 0 0
384 1 2954.41 2888.66 2337.07 0 -1 0
385 1 3178.26 2818.62 2273.12 0 0 0
386 1 2959.19 3146.98 2633.25 -1 0 0
387 1 3189.59 2311.58 2860.37 -1 0 -1
388 1 1394.23 2836.88 3015.65 0 0 -1
389 1 2421.88 2521.29 1557.21 0 0 0
390 1 1454.99 2708.35 1404.86 0 -1 0
391 1 2383.16 1762.87 1570.81 0 0 0
392 1 1714.97 2575.39 3163.4 -1 -1 -1
393 1 2622.87 2398.52 2766.99 0 0 1
394 1 1755.95 2030.77 3355.52 1 0 -1
395 1 2443.9 2437.12 1903.83 0 -1 -1
396 1 1486.56 2913.18 2612.92 1 0 0
397 1 2879.02 2923.72 1463.58 -1 0 0
398 1 2117.24 2410.93 2954.39 0 -1 0
399 1 1968.87 1564.84 2938.44 0 0 0
400 1 2087.86 2292.05 2804.62 -1 0 -1
401 1 2510.95 2451.43 2417.76 0 0 -1
402 1 2123.92 2579.29 3582.48 0 0 -2
403 1 1532.05 1948.42 3237.7 0 0 -1
404 1 2633.49 2727.4 2055.55 0 0 0
405 1 2732.65 3237.08 2911.42 -1 0 0
406 1 1981.88 3000.75 2218.14 0 -1 0
407 1 1687.6 3067.38 3051.93 -1 -1 0
408 1 3530.59 2376.51 3044.92 0 0 -1
409 1 3326.17 2725.82 2587.21 0 -1 -1
410 1 2621.37 2165.94 2414.25 0 0 -1
411 1 2003.03 1906.63 1838.1 0 0 0
412 1 2369.68 3201.27 2942.23 0 0 0
413 1 1517.21 2723.12 2992.2 0 0 -1
414 1 1866.22 2954.88 2924.5 0 -1 -1
415 1 1904.38 2346.26 2874.29 0 0 -1
416 1 2683.7 2726.99 1471.84 0 0 0
417 1 1604.21 1972.1 2393.09 -1 0 -1
418 1 3514.67 3164.54 1883.15 -1 0 1
419 1 2120.37 2604.94 2527.58 0 0 0
420 1 3347.33 2954.82 2303.09 -2 -1 -1
421 1 2982.15 2542.64 1574.28 -1 0 0
422 1 1542.54 3166.53 1738.34 0 -1 0
423 1 3237.33 2799.98 1494.25 0 -1 0
424 1 1852.05 2953.82 3394.74 0 -1 -1
425 1 2337.23 2967.45 3484.06 0 0 -1
426 1 2950.91 2635.26 2873.79 -1 0 -1
427 1 3329.01 2241.54 2168.51 -1 -1 0
428 1 2304.46 3093.77 2601.29 0 -1 -1
429 1 3036.26 2864.65 2154.38 -1 0 0
430 1 1914.84 1691.57 2170.24 0 -1 0
431 1 2654.49 2358.38 1432.66 0 0 0
432 1 1799.59 2957.39 2197.21 0 -1 0
433 1 2135.21 2739.91 2477.31 -1 -1 -1
434 1 3299.62 2777.2 2406.61 -1 0 0
435 1 2966.11 1905.84 3213.53 -1 0 0
436 1 3047.6 2782.2 1451.4 -1 0 0
437 1 2820.37 2133.87 1843.19 0 1 0
438 1 3561.25 2504.72 2716.03 -1 -1 -1
439 1 2945.31 2354.48 1662.01 0 0 0
440 1 3205.06 1816.41 3276.37 -1 0 -1
441 1 2834.2 1684.18 3333.54 -1 0 -1
442 1 1659.27 2594.55 2885.89 0 0 0
443 1 3241.94 2531.48 3243.72 0 -1 0
444 1 2928.73 2710.11 1870.89 -2 0 0
445 1 2394.85 3110.1 2584.31 0 -1 0
446 1 3105.96 1767.77 3458.24 -1 0 -1
447 1 2690.76 2781.53 2650.27 0 0 0
448 1 1872.16 2783.19 2208.02 -1 -1 0
449 1 2198.51 2449.25 1602.76 -1 0 0
450 1 1800.5 2406.79 3301.8 0 0 -1
451 1 1843.86 2820.65 2807.84 0 -1 -1
452 1 2032.8 2098.41 3254.17 0 0 0
453 1 3298.99 3280.89 2357.63 -1 0 0
454 1 1797.35 2119.87 2156.16 0 0 -1
455 1 2784.9 2632.37 3362.23 -1 0 -1
456 1 3089.35 1542.91 1449.89 0 1 0
457 1 2494.75 2849.06 2403.02 0 -1 -1
458 1 1746.45 2060.28 3136.7 0 1 -1
459 1 1916.57 2430.62 2097.11 0 -1 -1
460 1 3346 2478.38 2583.16 -1 -1 0
461 1 2946.96 2806.29 2502.88 0 -1 0
462 1 3131.74 2858.53 2620.27 -1 0 -1
463 1 3478.15 1895.38 3116.36 -1 0 -1
464 1 2743.6 2665.85 2715.04 0 0 0
465 1 1442.93 2805.38 2433.09 1 0 -2
466 1 2870.88 3143.68 2777.04 -1 -1 0
467 1 2758.3 2621.41 1599.91 0 1 0
468 1 3373.08 2921.54 1515.23 0 -1 1
469 1 3025.01 2533.46 2700.81 0 -1 -1
470 1 3017.17 3185.1 1625.52 -1 -1 -1
471 1 3024.38 2714.92 2266.5 0 0 0
472 1 2836.82 3101.66 1508.73 0 -1 0
473 1 1421.89 2359.61 3210.7 1 -1 0
474 1 3113.88 2301.2 2974.68 -2 -1 -1
475 1 2964.71 2526.33 1843.7 0 -1 0
476 1 3018.39 3558.44 1925.04 -1 -1 0
477 1 3359.72 2284.83 1797.9 0 -1 -1
478 1 2656.41 2485.33 1795.65 -1 -1 0
479 1 2655.65 1495.9 2224.35 0 0 -1
480 1 3434.85 2157.46 2446.19 -1 0 0
481 1 3081.64 1557 1398.46 0 1 1
482 1 2711.54 1778.89 3002.77 0 -1 -1
483 1 3143.93 2127.59 2942.74 -1 1 0
484 1 2871.16 3070.75 2292.74 -1 -1 0
485 1 2292.52 3295.72 2639.61 -1 -1 -1
486 1 3543.84 3080.34 1564.7 -1 -1 0
487 1 2803.12 2369.65 2833.08 -1 0 -1
488 1 2007.99 1543.77 2503.3 0 0 0
489 1 3308.72 2722.65 1992.86 -1 0 0
490 1 3136.47 2378.1 3175.19 -1 0 -1
491 1 2699.17 2822.45 2802.02 0 0 -1
492 1 2932.3 2550.86 3580.84 0 -1 0
493 1 2809.23 2443.08 2365.4 -1 0 0
494 1 2268.23 2364.08 3292.26 1 -1 0
495 1 3172.39 2914.02 2035.56 0 -1 0
496 1 3004.49 2641.52 2872.14 1 0 0
497 1 2669.08 3530.47 2689.3 -1 -1 0
498 1 2772.87 3119.18 2614.49 0 -1 0
499 1 2253.02 2514.59 1579.81 -1 0 -1
500 1 2782.84 3236.29 2257.56 0 -1 -1
501 1 2467.95 2807.55 2584.04 -1 0 -1
502 1 1555.73 3132.5 3088.5 -1 0 0
503 1 2483.91 2468.22 2977.97 0 0 0
504 1 2167.41 2628.05 2515.03 0 0 0
505 1 1911.8 2474.76 3481.17 -1 0 -1
506 1 1456.32 2004.46 2092.46 -1 0 0
507 1 3436.21 1867.31 3134.25 -1 0 -1
508 1 1701.92 1572.83 1736.83 0 0 -1
509 1 1715.02 1625.71 2522.78 0 0 0
510 1 2750.1 2295.06 2660.61 -1 -1 -1
511 1 3538.37 3207.95 2454.18 0 0 -1
512 1 1613.6 3236.21 3379.91 0 -1 -1
513 1 3177.46 2507.35 1835.13 0 -1 0
514 1 2881 2126.7 2189.53 -2 0 1
515 1 2487.6 2049.79 2416.34 -1 0 -1
516 1 2532.69 3517.05 2764.62 -1 -1 0
517 1 3134.5 3109.84 3384.86 0 -1 -1
518 1 1990.12 2975.34 2789.61 0 0 -1
519 1 2705.93 2623.28 2362.5 0 0 0
520 1 3185.67 2927.77 1497.42 -1 0 0
521 1 2511.96 2355.06 1522.64 -1 0 1
522 1 2476.06 2636.14 2053.02 -1 0 0
523 1 3159.72 3074.51 1619.75 0 0 0
524 1 2675.7 2390.9 2497.44 -1 -1 0
525 1 3208.63 2015.48 3103.3 0 0 -1
526 1 1928.98 2309.78 2690.1 0 0 0
527 1 1392.04 2094.41 2992.89 0 -1 -1
528 1 3328.7 2404.4 2124.41 0 1 0
529 1 2497.94 2638.85 1429.04 -1 -1 0
530 1 1785.6 2784.33 2628.29 0 0 0
531 1 2025.61 3540.68 1698.07 0 -1 0
532 1 3315.55 2629.46 1823.57 -1 0 0
533 1 3206.09 1492.77 2253.94 -1 0 -1
534 1 2294.09 1395.23 2961.78 0 0 -1
535 1 2727.1 3482.26 2482.12 -1 -2 0
536 1 2191.36 2571.32 1980.35 -1 0 0
537 1 2778.79 3125.85 2105.54 -1 -1 0
538 1 1826.7 1882.34 3255.36 0 0 -1
539 1 3225.39 2410.34 2724.55 -2 0 -1
540 1 2855.53 3325.11 2416.83 0 0 0
541 1 2485.47 3067.14 2970.47 0 0 -1
542 1 2321.33 2812.59 2390.03 0 -1 0
543 1 2228.92 2747.47 2671.05 0 0 -1
544 1 3134.32 1761.78 3112.37 -1 1 -1
545 1 2152.1 2923.7 2801.12 -1 0 -1
546 1 3380.44 1661.2 1597.9 -1 0 0
547 1 2480.17 2271.54 2352.36 0 -1 0
548 1 1702.17 1820.18 3120.59 0 0 0
549 1 2749.58 2500.92 3371.54 0 0 0
550 1 1977.38 2143.26 1532.01 0 0 0
551 1 2305.78 2752.78 1616.99 0 -1 0
552 1 2715.55 3502.34 3502.92 0 -1 -1
553 1 2998.43 2693.09 3507.04 -1 0 -1
554 1 2234.16 2408.99 2657.77 0 0 0
555 1 1935.42 2283.66 3254.85 0 0 0
556 1 2561.7 3072.14 2543.18 0 0 -1
557 1 2741.48 2671.58 2193.26 -1 0 0
558 1 2554.03 3444.19 2573.62 -1 0 -1
559 1 2550.19 3242.09 2972.87 -1 0 0
560 1 1745.44 2873.23 1395.67 0 0 0
561 1 3396.32 2336.7 2467.81 -1 -1 -1
562 1 1878.82 3413.29 3521.91 0 0 -1
563 1 3525.61 2508.36 2941.71 -1 0 0
564 1 2599.77 2778.47 3421.17 0 1 -1
565 1 3452.33 2686.24 3416.84 0 0 -1
566 1 3459.34 2134.72 2850.85 -1 0 1
567 1 2553.85 1582.7 2926.04 0 0 0
568 1 3140.69 3039.81 2555.62 -1 -1 -1
569 1 2755.78 2135.81 3193.83 0 0 0
570 1 1606.78 3034.05 2691.88 0 -1 0
571 1 3035.36 2904.11 1599.81 -1 -1 0
572 1 2563.08 2823.12 2762.75 -1 -1 0
573 1 2136.5 2257.78 3232.37 1 0 -1
574 1 3072.23 3292.28 3497.56 -1 0 0
575 1 1729.82 2384.28 3097.31 0 0 0
576 1 3439.83 2165.02 2890.92 0 -1 -1
577 1 3346.82 2616.16 2432.19 -1 -1 -1
578 1 1438.3 2654.43 2329.36 1 0 1
579 1 3017.91 3466.88 2561.76 0 0 -1
580 1 2335.38 2765.11 2411.19 0 1 1
581 1 1678.65 2195.38 2439.39 -1 0 0
582 1 3170.26 3244.03 2232.22 0 -1 0
583 1 2532.46 2414.18 2385.3 0 0 0
584 1 3392.03 3117.85 2329.79 0 0 1
585 1 3163.16 3285.58 3322.41 -1 -1 -1
586 1 3086.28 2054.4 3536.11 -1 -1 -2
587 1 1417.73 2093.65 2668.35 1 0 -1
588 1 1824.2 2365.96 1797.77 0 0 0
589 1 2938.29 3175.87 3532.84 1 -1 0
590 1 3431.98 2788.56 1805.38 -1 -1 1
591 1 2076.84 1718.26 3237.5 -1 -1 -1
592 1 1755.93 2263.07 2830.77 0 0 0
593 1 1560.59 2100.41 3088.95 0 0 0
594 1 2002.11 3216.93 3036.16 -1 1 0
595 1 3020.91 1425.6 3097.27 -1 0 -1
596 1 2949.19 2406.11 1676.08 1 0 0
597 1 2736.99 2590.33 3371.71 0 0 0
598 1 3057.62 3359.95 1599.7 0 -1 0
599 1 2221.92 3500.97 2622.38 -1 -1 0
600 1 3051.6 1994.37 2859.72 -1 0 -1
601 2 3580.97 2302.66 1681.38 -1 0 0
602 2 1699.54 1809.23 2191.88 1 0 0
603 2 3146.26 3363.12 2017.6 -1 0 1
604 2 3243.59 3186.24 2948.1 0 -1 0
605 2 1487.97 1447.58 3425.43 0 0 0
606 2 1437.64 2588.28 2084.54 1 0 0
607 2 1999.49 2639.96 2013.89 0 0 0
608 2 2840.01 3315.8 2603.84 0 -1 0
609 2 3048.21 2078.51 2339.76 0 0 0
610 2 2675.92 3077.88 3102 0 0 0
611 2 1561.43 3055.13 1518.13 0 0 1
612 2 2469.03 3528.55 2141.89 0 -1 0
613 2 1852.55 2581.22 2729.41 0 0 -1
614 2 2630.44 1899.55 2538.17 0 0 0
615 2 1464.8 2756.91 3361.03 0 0 0
616 2 3499.17 3472.61 1455.94 0 0 0
617 2 1561.49 3008.23 2094.87 0 -1 0
618 2 2455.74 3460.83 3054.25 0 0 0
619 2 2828.64 1919.41 2750.72 0 1 0
620 2 3539.45 3452.93 2442.57 -1 0 0
621 2 1398.26 3482.04 2921.84 0 0 -1
622 2 2207.02 3524.27 1512.2 0 0 0
623 2 2213.72 2570.63 3304.65 0 0 -1
624 2 1409.08 2304.26 2815.4 0 0 -1
625 2 2727.4 1756.86 3506.54 0 0 0
626 2 1583.1 3267.01 2880.33 1 0 -1
627 2 1847 1436.75 2650.89 0 1 0
628 2 3347.93 2590.43 2779.65 -1 0 0
629 2 2180.3 1833.21 2200.59 0 0 0
630 2 2539.55 1547.95 1979.94 0 1 0
631 2 3335.23 1636.81 3150.85 0 1 0
632 2 2043.67 3192.09 1821.26 0 -1 0
633 2 1551.53 3200.86 2340.58 0 -1 0
634 2 3208.94 2764.59 2963.5 -1 0 0
635 2 1518.11 1533 2162.14 0 0 0
636 2 2892.66 1670.41 3074.59 -1 0 0
637 2 1580.43 2069.49 2814.89 1 0 -1
638 2 1489.42 1771.08 2000.09 0 0 0
639 2 3296.68 2986.9 3460.98 0 0 0
640 2 2697.23 3583.58 2894.08 0 0 0
641 2 2283.5 1822.88 2674.02 0 0 0
642 2 2551.88 3163.29 1814.45 0 -1 0
643 2 1524.82 1421.79 2415.02 0 0 0
644 2 3535.21 2567 1688.36 -1 0 1
645 2 2577.3 3266.21 2121.12 0 -1 0
646 2 2121.47 3178.92 2103.54 0 -1 0
647 2 2024.15 1968.18 3453.46 0 0 0
648 2 2556.14 2694.67 2924.85 0 0 0
649 2 3264.3 1936.84 1420.28 -1 0 0
650 2 3291.7 2235.35 2225.1 0 0 0
651 2 3436.17 1916.1 1950.6 -1 0 0
652 2 1518.62 1507.99 1874.65 0 0 0
653 2 3026.51 2497.54 3338.41 0 0 -1
654 2 2500.06 3420.52 3560.57 0 -1 -1
655 2 2557.72 1772.17 2778.94 0 0 0
656 2 2810.31 1627.64 2801.87 0 0 0
657 2 3233.59 1837.97 2879.16 -1 0 -1
658 2 2630.25 2118.03 2807.83 -1 0 -1
659 2 1426.47 1850.39 2712.86 1 0 0
660 2 2371.28 2223.41 1762.04 0 0 0
661 2 2657.06 1464.53 1735.43 0 0 0
662 2 1726.56 1651.1 1490.6 0 0 0
663 2 1692.3 2998.67 2463.54 0 -1 0
664 2 2620.18 3246.46 3349.43 0 0 -1
665 2 2434.93 2337.12 2094.83 0 0 0
666 2 2593.45 3441.18 1902.25 0 -1 0
667 2 2931.73 1416.04 1691.56 0 0 0
668 2 1711.05 2274.9 1993.57 0 0 0
669 2 3361.08 2296.53 3209.94 -1 0 0
670 2 2022.59 1575.14 2978.95 0 0 -1
671 2 2882.77 1606.11 1479.75 0 0 1
672 2 1712.46 2568.28 2076.22 0 0 0
673 2 2220.52 2258.35 2376.36 0 0 0
674 2 3500.56 1420.5 2018.62 -1 0 0
675 2 3112.27 2928.79 3209.65 -1 0 0
676 2 2611.05 1712.72 1570.72 0 0 0
677 2 1858.07 3117.37 2003.22 0 -1 0
678 2 3365.93 3036.49 1715.57 -1 -1 0
679 2 1837.21 3182.67 3366.29 0 0 0
680 2 3266.16 1728.8 2060.26 -1 0 0
681 2 2201.53 3338.98 3004.99 0 0 0
682 2 2994.87 2309.21 2162.3 0 0 0
683 2 2362.14 3070.36 2628.85 0 -1 0
684 2 1648.64 3292.42 2095.3 0 -1 0
685 2 1696.41 3423.4 3339.84 0 0 -1
686 2 1689.29 2424.34 1578.74 0 0 0
687 2 2526.41 2986.8 3307.88 -1 -1 0
688 2 3083.82 3237.34 2447.4 -1 -1 0
689 2 1984.66 3413.71 3252.28 0 -1 0
690 2 3459.34 3218.77 3559.43 0 1 -1
691 2 2622.02 2251.18 1906.79 -1 0 0
692 2 1882.62 1401.36 3051.23 0 0 -1
693 2 3365.26 3463.98 2198.3 -1 -1 0
694 2 1591.1 2804.64 2760.24 0 0 0
695 2 2773.69 1959.95 2008.36 0 0 0
696 2 2344.91 1464.54 3167.72 0 1 0
697 2 1687.49 1843.65 2578.06 0 0 0
698 2 1730.86 2396.54 2523.44 1 0 0
699 2 2459.18 1437.8 1514.85 0 0 0
700 2 1426.8 2459.02 1471.47 0 0 0
701 2 3601.67 2991.07 2735.85 0 -1 -1
702 2 1586.92 2454.02 2310.07 0 0 0
703 2 1804.34 3351.71 1868.29 0 0 0
704 2 2089.34 3273.73 2365.79 0 -1 0
705 2 1851.65 1705.45 2921.73 0 0 -1
706 2 1685.37 2607.71 3591.43 0 0 0
707 2 1675.18 3248.58 2607.27 0 -1 0
708 2 1597.57 2643.01 2514.94 1 0 0
709 2 1589.27 1418.15 3159.02 0 0 0
710 2 2800.97 1490.92 3460.18 0 0 -1
711 2 1790.27 3136.38 1678.96 0 -1 0
712 2 2016.93 2740.72 3260.7 0 0 -1
713 2 2293.65 2441.82 2652.44 0 0 -1
714 2 3020.29 1749.75 2212.17 -1 0 0
715 2 2590.71 2165.58 1620.07 0 0 0
716 2 2224.86 3068.68 1445.19 0 0 0
717 2 3244.89 1412.61 3506 -1 0 -1
718 2 2719.67 2406.79 2110.76 -1 0 0
719 2 1749.87 1627.1 1974.2 0 0 0
720 2 1417.28 1773.69 3516.91 0 0 -1
721 2 3492.64 2416.05 1922.97 0 0 0
722 2 3582.16 3208.61 2076.46 -1 -1 0
723 2 2751.01 3304.54 3607.95 0 0 -1
724 2 3242.88 3448.65 2513.75 0 -1 0
725 2 2064.05 3569.79 2835.04 0 -1 -1
726 2 2150 2069.93 1665.02 0 0 0
727 2 3387.04 2412.72 1505.18 -1 0 0
728 2 2181.56 2001.32 2433.39 0 0 0
729 2 3081.12 1479.22 2485 -1 0 0
730 2 3100.46 2983.71 1807.53 -1 -1 0
731 2 2217.44 2791.51 3578.86 0 0 0
732 2 3481.96 1531.66 3599.79 -1 0 -1
733 2 2127.64 1506.1 1751.92 0 1 0
734 2 1578.19 2148.71 2198.77 0 0 0
735 2 2327.12 1574.13 2499.75 0 0 0
736 2 2096.1 3480.89 1905.01 0 -1 0
737 2 2021.13 2904.53 1921.58 -1 0 0
738 2 3438.38 2887.04 3238.57 0 0 0
739 2 2134.08 3182.45 3230.87 0 0 0
740 2 3033.01 1572.16 2001.6 0 0 0
741 2 2707.59 1870.41 3193.67 -1 1 0
742 2 2521.76 1956.85 1403.46 0 0 0
743 2 3575.07 1937.64 2447.34 -1 0 0
744 2 2625.87 2139.22 2148.89 0 0 0
745 2 2074.71 3262.34 3487.7 0 0 -1
746 2 2056.07 2665.33 1569.3 0 0 0
747 2 2883.04 3121.25 3276.45 0 0 -1
748 2 2409.52 1611.17 1744.77 0 0 0
749 2 2110.09 1883.72 2855.36 0 0 0
750 2 1503.97 1703.35 2398.92 0 0 0
751 2 3570.26 2743.6 2634.06 0 0 -1
752 2 3229.14 1419.79 2735.71 0 1 0
753 2 1478.76 2203.15 1936.01 0 0 0
754 2 2853.96 2322.73 3475.59 -1 0 0
755 2 2259.01 1947.96 3165.52 0 0 0
756 2 2631 3257.83 2397.05 0 -1 0
757 2 2345.01 2072.51 2237.8 0 0 0
758 2 3369.01 3404.36 2805.06 -1 -1 0
759 2 2798.68 1419.41 1978.4 0 0 0
760 2 2472.11 2694.61 3200.89 0 0 -1
761 2 1889.44 3358.93 1543.32 0 -1 0
762 2 1936.75 1917.24 2079.91 0 0 0
763 2 1591.2 1915.36 1491.04 0 0 0
764 2 2334.6 3032.26 1958.9 0 -1 0
765 2 1815.98 2296.98 2270.49 0 0 0
766 2 3403.97 1868.74 1642.95 -1 0 0
767 2 2356.95 1750.79 1986.36 0 1 0
768 2 1775.46 1539.09 2272.85 0 0 0
769 2 1699.16 3559.78 2038.68 0 -1 0
770 2 1441.28 2240.17 2443.73 1 -1 0
771 2 1519.93 2907.79 3161.36 1 0 -1
772 2 1830.02 2014.09 2350.73 0 0 0
773 2 3122.1 1600.01 1432.4 -1 0 1
774 2 1674.47 3279.31 3572.76 0 -1 -1
775 2 3508.55 3572.05 1747.96 -1 -1 0
776 2 2999.44 2928.5 3435.75 -1 0 -1
777 2 3430.31 2670.13 1434.94 -1 0 0
778 2 1947.39 2089.56 2855.11 0 0 -1
779 2 2976.74 1876.09 1398.03 -1 0 0
780 2 3153.56 2570.56 1409.1 -1 0 0
781 2 3283.58 1423.39 1572.15 -1 0 0
782 2 2506.64 2046.24 3133.18 0 0 0
783 2 1768.39 3286.49 3102.37 0 -1 -1
784 2 1518.93 1591.31 2643.16 0 0 -1
785 2 3208.47 3251.42 1761.27 -1 -1 0
786 2 1637.98 1786.91 1755.06 1 0 0
787 2 2560.35 2890.66 1860.49 0 0 0
788 2 2363.12 1962.94 2911.59 0 0 0
789 2 1540.58 2037.31 3460.91 0 0 -1
790 2 3503.86 1782.72 2243.72 -1 0 0
791 2 3379.85 1415.43 2978.35 0 0 -1
792 2 1922.07 2490.02 3546.86 0 0 -1
793 2 1884.6 1580.97 3483.75 0 0 0
794 2 3228.29 1700.98 2649.4 -1 0 0
795 2 1847.52 3165.51 2824.38 0 0 0
796 2 1564.7 2499.57 3305.42 0 0 -1
797 2 3240.32 3587.26 3207.35 -1 -1 -1
798 2 1809.18 3458.39 2824.7 0 0 0
799 2 3315.6 2030.91 3278.38 -1 1 -1
800 2 3328.29 3122.64 3224.12 -1 0 -1
801 2 2192.27 2160.04 2977.18 0 0 0
802 2 1674.48 1482.32 2875.95 0 1 0
803 2 2551.58 3395.44 1619.9 0 -1 0
804 2 2498.36 2879.09 2142.76 0 -1 0
805 2 2143.58 1553.12 2278.51 0 0 0
806 2 3543.68 2941.08 1926.6 -1 -1 0
807 2 3369.91 3391.26 3376.5 -1 0 -1
808 2 2993.57 2271.15 1852.41 -1 0 0
809 2 3450.62 1655.22 2817.29 0 0 0
810 2 2446.75 1681.62 3559.3 0 0 -1
811 2 1568.07 1687.97 3272.32 1 0 0
812 2 2605.39 1612.23 3285.62 0 0 -1
813 2 2326.14 1620.07 2856.95 0 0 0
814 2 1779.15 2823.27 1971.98 0 0 0