ITEM: TIMESTEP
116000
ITEM: NUMBER OF ATOMS
1000
ITEM: BOX BOUNDS pp pp pp
1.6343328947849427e+03 3.3656671052146930e+03
1.6343328947849427e+03 3.3656671052146930e+03
1.6343328947849427e+03 3.3656671052146930e+03
ITEM: ATOMS id type x y z ix iy iz
1 2 3241.46 3105.24 1806.94 0 0 0
2 2 1937.87 1702.17 2616.77 0 1 -1
3 2 2184.86 3329.81 1812.53 0 -1 1
4 2 1920.88 2102.49 2893.85 0 0 -1
5 2 3248.79 1635.84 2896.4 0 0 -1
6 2 2116.14 2456.15 2128.4 -1 0 -1
7 2 2194.44 2369.64 2156.25 0 0 0
8 2 1696.45 3274.73 2547.82 0 0 0
9 2 3228.55 2455.86 2246.13 -1 0 0
10 2 2000.07 3160.89 2857.8 0 0 0
11 2 2798.11 2385.35 2895.56 0 0 0
12 2 1658.27 3116.92 2875.3 0 0 -1
13 2 1720.14 2305.84 1789.07 1 0 1
14 2 1751.45 3130.23 2008.59 0 0 0
15 2 3220.93 1760.85 3096.89 0 0 -1
16 2 1964.81 3330.22 1776.36 0 -1 0
17 2 2452.43 2120.29 3194.71 2 1 0
18 2 2373.45 2320.31 3105.14 0 1 -1
19 2 2307.77 1983.15 3302.11 0 0 0
20 2 3289.59 1747.2 2868.13 0 1 0
21 2 1988.39 2527.73 1807.83 0 1 1
22 2 1758.4 3024.73 1939.94 0 0 1
23 2 2817.34 2979.29 2048.82 -1 1 0
24 2 1661.38 1994.72 3230.22 1 0 -1
25 2 2297.47 1702.5 1647.36 0 1 1
26 2 2801.17 2271.05 2676.72 0 0 1
27 2 1913.85 2844.75 3177.14 0 0 0
28 2 1734.16 2429.5 3336.5 0 0 0
29 2 3273.74 2215.88 2545.99 -1 1 0
30 2 3174.25 1940.11 3311.68 -1 1 0
31 2 1805.82 3017.06 3168.08 0 -1 0
32 2 1736.78 3349.46 2634.74 0 0 0
33 2 2194.34 2121.37 2165.93 0 0 0
34 2 2217.59 1887.7 3276.43 0 1 0
35 2 3063.4 3163.87 3343.02 0 -1 0
36 2 2259.67 1642.57 2836.3 0 1 0
37 2 1818.8 1802.79 2632.84 0 0 0
38 2 1671.17 2621.27 1687.26 0 1 0
39 2 3306.4 2475.93 1862.59 -1 1 0
40 2 2223.4 2094.4 3133.86 0 -1 0
41 2 1837.73 3027.38 2043.56 1 -1 0
42 2 3273.82 2328.11 1685.17 -1 0 0
43 2 1851.01 2425.02 2207.41 1 0 1
44 2 2976.18 2858.05 3104.29 1 -1 0
45 2 1780.45 2340.63 2161.85 0 0 0
46 2 2997.51 1753.1 2182.94 0 1 0
47 2 3306.58 2675.43 2311.86 -1 0 0
48 2 1654.02 2536.9 1779.43 1 0 0
49 2 3096.15 2382.87 1636.51 0 0 1
50 2 2358.71 3076.58 2012.53 0 0 1
51 2 2889.2 1754.91 2925.59 -1 1 1
52 2 2687.06 2375.31 2061.41 0 0 0
53 2 2149.18 2431.31 1806.59 0 0 1
54 2 1944.67 1805.33 2685.81 0 1 0
55 2 2639.37 2121.04 2699.91 0 0 -1
56 2 2063.26 2147.25 2168.28 0 0 0
57 2 1984.58 2326.62 2956.4 0 0 -1
58 2 1640.05 2131.79 2556.56 0 0 0
59 2 2829.82 2386.32 2127.15 -1 2 0
60 2 2128.77 3184.71 1782.22 0 0 0
61 2 3317.21 2356.57 2505.59 -1 0 0
62 2 3170.46 3104.18 3027.47 0 -1 0
63 2 1690.1 3197.03 3354.59 0 0 0
64 2 3297.82 2441.15 1750.37 0 0 1
65 2 2722.9 2189.59 2762.09 0 -1 0
66 2 3020.43 1792.34 2963.51 0 0 -1
67 2 2692.13 1690.77 2849.63 0 1 1
68 2 1899.37 2278.56 2456.44 0 0 1
69 2 2652.65 2001.38 1928.44 0 0 0
70 2 2306.49 3177.08 2921.92 0 0 0
71 2 1654.5 1754.64 1774.53 0 0 1
72 2 2758.01 2290.09 2562.95 -1 -1 0
73 2 2998.91 1721.1 2035.59 -2 -1 0
74 2 2179.35 1677.61 3328.06 0 1 -1
75 2 3083.58 2094.16 1762.85 0 0 0
76 2 2723.41 2608.32 2247.79 0 -1 0
77 2 3064.13 1966.68 1864.3 -1 1 1
78 2 1704.17 1910.42 2652.71 0 0 0
79 2 3299.19 2699.04 1671.57 -1 0 0
80 2 2201.6 3102.4 1889.92 0 0 -1
81 2 2330.96 1686.34 3252.66 0 2 0
82 2 2863.69 3022.7 2231.36 -1 0 -1
83 2 2407.34 3116.85 2575.99 0 0 0
84 2 2566.79 2022.46 1789.01 1 1 1
85 2 3029.07 1841.93 1825.27 0 1 0
86 2 3325.51 2366.11 1927.71 -1 0 1
87 2 1888.79 2171.98 2536.32 1 0 0
88 2 3364.89 3006.46 1729.64 -1 0 1
89 2 1669.12 2585.43 1907.77 1 0 1
90 2 3223.86 2284.16 3204.52 0 1 -1
91 2 2605.17 2945.44 2945.65 0 0 -1
92 2 2280.4 2331 1655.93 -1 0 0
93 2 2378.9 1693 1766.91 0 0 1
94 2 2370.33 2165.06 3269.29 1 1 -1
95 2 1850.92 2173.69 2961.71 0 0 -1
96 2 2134.35 3127.58 1668.81 1 0 1
97 2 3049.24 3238.57 2857.9 0 -1 0
98 2 3127.79 1782.48 1859.31 0 0 0
99 2 1752.27 2102.73 1694.4 0 0 0
100 2 2197.93 1870.89 3153.29 1 0 0
101 2 2422.1 2358.2 2784.75 0 0 0
102 2 2069.03 3279.49 1834.79 0 -1 0
103 2 3345.3 1963.44 2052.5 -1 0 0
104 2 2367.73 1777.2 1856.41 0 0 0
105 2 2259.3 1970.74 2870.16 0 0 0
106 2 2478.55 2079.51 1843.07 0 0 0
107 2 1888.63 2099.38 2320.48 0 0 0
108 2 3267.56 3201.56 1906.19 -1 0 0
109 2 2122.03 2065.57 2059.16 0 0 0
110 2 1909.93 2387.78 1729.57 0 0 0
111 2 1757.33 3069.6 2993.94 1 -1 -1
112 2 3238.51 1750.77 2317.92 -1 -1 0
113 2 2066.35 3204.72 2211.1 0 -1 0
114 2 2930.97 2462.97 1962.23 0 0 1
115 2 3295.26 2075.39 3206.24 -1 0 -1
116 2 1988.69 2084.13 2518.69 0 0 0
117 2 2274.06 3201.85 2047.27 0 -1 1
118 2 1734.76 3228.66 2659.57 0 -1 0
119 2 2240.39 1804.8 1866.2 0 0 0
120 2 3277.99 3330.83 2237.03 -1 -1 0
121 2 3288.3 2033.46 2375.78 -1 0 0
122 2 1831.36 1640.96 3334.78 0 0 -1
123 2 2040.54 2114.73 1716.94 0 0 0
124 2 1938.91 1828.71 1720.19 0 0 0
125 2 1738.3 3203.87 1760.34 0 -1 0
126 2 3360.33 2131.06 1899.96 -1 0 0
127 2 3306.38 2252.96 2363.39 -1 0 0
128 2 1936.65 1689.76 1952.85 0 0 0
129 2 1709.29 2242.87 3217.56 0 0 -1
130 2 1676.14 1799.39 2458.93 0 0 0
131 2 1814.41 1695.89 2572.05 0 0 -1
132 2 1830.5 2452.9 3247.57 0 0 -1
133 2 2203.52 1926.71 1900.48 0 0 0
134 2 1796.44 3121.04 1687.97 1 -1 1
135 2 1949.97 2153.68 1974.56 0 0 0
136 2 3308 2443.07 2603.15 0 -1 -1
137 2 2822.92 2154.81 2668.54 0 1 0
138 2 1810.02 2043.76 2643.15 0 0 0
139 2 3165.29 2048.52 2154.15 -1 0 0
140 2 2840.44 2418.96 1884.3 -1 -1 0
141 2 2704.19 2059.94 3086.86 -1 0 0
142 2 1664.75 2377.63 1699.37 0 0 0
143 2 2112.26 1834.49 1866.75 0 0 0
144 2 1684.02 2023.95 2144.63 0 0 0
145 2 2200.19 2072.12 2826.22 0 0 0
146 2 2240.52 2347.84 1781.61 0 0 0
147 2 1743.63 1944.31 2045.82 0 0 0
148 2 2106.77 1834.01 3299.94 0 0 -1
149 2 2182.4 1822.61 1997.23 0 0 0
150 2 3285.62 2372.89 2698.26 -1 0 0
151 2 2390.69 2186.56 2080.85 0 0 -1
152 2 3298.7 2140.17 2452.35 -1 0 -1
153 2 2065.46 1717.27 2275.77 0 0 0
154 2 2060.73 2232.27 1791.39 0 0 0
155 2 2326.75 1754.95 2405.7 0 0 0
156 2 3229.69 1785.03 1939.52 -1 0 0
157 2 3116.78 1748.85 1996.49 0 0 0
158 2 2559.23 1676.19 1955.1 0 0 0
159 2 1860.72 3190.74 2034.16 0 -1 0
160 2 1913.65 2363.25 3211.97 1 0 0
161 2 3187.27 2075.92 3303.6 -1 0 -1
162 2 2254.32 1796.21 2206.06 0 0 0
163 2 3104.72 3230.02 2171.25 0 0 0
164 2 2799.98 1893.27 2346.39 0 0 0
165 2 2121.04 1931.94 1781.84 0 0 0
166 2 3205.94 2274.84 1783.33 0 0 0
167 2 2035.51 1751.66 2543.34 0 0 0
168 2 1902.75 1948.26 1760.41 0 0 0
169 2 1752.45 1726.44 1671.3 0 0 0
170 2 2905.22 3034.22 2565.38 -1 0 0
171 2 1920.09 3025.62 2160.93 0 -1 0
172 2 1684.89 2055.84 1800.67 0 0 0
173 2 2029.1 2416.81 1772.92 0 0 0
174 2 3249.89 1964.49 2469.11 -1 0 -1
175 2 1735.7 1974.45 1695.01 0 0 0
176 2 1971.67 2432.43 2468.92 0 0 0
177 2 3261.17 2923.88 2308.84 0 -1 0
178 2 1789.62 2359.16 1691.02 0 0 0
179 2 2140.09 2243.82 2087.75 0 0 0
180 2 1851.94 3260.91 1773.78 0 -1 0
181 2 3158.58 3194.38 2857.52 -1 -1 -1
182 2 2278.28 1683.53 1833.58 0 0 0
183 2 3233.72 1747.41 2061.62 -1 0 0
184 2 1751.41 2123.57 2103.81 0 0 0
185 2 2118.75 1644.14 2355.89 0 0 0
186 2 1926.85 2431.38 1851.61 0 0 0
187 2 3233.23 2147.03 2337.51 -1 0 0
188 2 3326.11 1867.49 1724.83 -1 0 0
189 2 2482.26 2078.62 2274.14 0 0 -1
190 2 2530.19 1776.13 1889.83 0 0 0
191 2 1889.03 1992.18 3273.16 0 0 -1
192 2 1700.81 2189.46 1989.27 0 0 0
193 2 2004.57 2228.86 2514.22 0 1 0
194 2 1966.36 2490.94 1689.19 0 0 0
195 2 1672.72 2423.12 1820.44 0 0 0
196 2 2433.58 1765.86 1963.74 0 0 0
197 2 1829.31 2160.44 1782.22 0 0 0
198 2 2490.21 1968.55 2019.86 0 0 0
199 2 1936 1986.69 2130.93 0 0 0
200 2 1674.98 2463.51 1954.01 0 0 0
201 2 2786.91 2882.71 2894.24 0 -1 -1
202 2 1644.92 2241.92 2473.02 0 0 0
203 2 1860.1 3225.05 1902.61 0 -1 0
204 2 2502.32 1972.06 2724.48 0 0 0
205 2 3297.44 1748.71 2432.87 -1 0 0
206 2 1773.31 2116.76 2556.28 0 0 0
207 2 2946.63 2803.85 2677 0 0 0
208 2 1746.3 1901.23 2409.61 0 0 0
209 2 3206.47 3128.93 2133.93 1 -2 2
210 2 2265.8 2204.53 2090.48 0 0 0
211 2 2345.53 1675.39 1946.7 0 0 0
212 2 2361.83 2873.7 2866.31 -1 -2 -1
213 2 2236.14 1748.87 2087.7 0 0 0
214 2 2158.88 3150.51 2008.04 0 -1 0
215 2 2535.35 1975.58 1901.31 0 0 0
216 2 2058.94 3316.51 3238.17 0 -1 -1
217 2 3186.23 3364.06 2033.14 -1 -1 0
218 2 2495.71 2039.99 1670.57 1 1 0
219 2 1968.92 3299.89 1915.19 0 -1 0
220 2 3231.9 2139.82 1908.65 -1 0 0
221 2 2947.3 1842.55 2134.8 1 0 -1
222 2 1677.35 1845.64 2095.7 0 0 0
223 2 2630.19 3003.93 2725.27 0 -2 -1
224 2 1932.08 3184.69 2632.13 0 -1 -1
225 2 2091.72 1731.79 1959.82 0 0 1
226 2 2245.08 1902.95 1775.82 0 0 0
227 2 2023.89 2155.51 3232.98 0 0 0
228 2 2414.93 2183.26 1785.57 0 0 0
229 2 1822.13 1790.69 1758.73 0 0 0
230 2 2129.54 2063.78 3209.76 0 0 -1
231 2 1957.61 1734.12 2373.51 0 0 0
232 2 2172.64 2253.93 2374.83 0 0 0
233 2 1976.99 1699.62 1689.62 0 0 0
234 2 2328.35 1897.22 1897.24 0 0 0
235 2 1992.79 2137.11 1846.23 0 0 0
236 2 1833.3 1892.07 1664.38 0 0 0
237 2 3129.57 2012.18 1668.57 -1 0 0
238 2 1685.61 1911.06 2527.49 0 0 0
239 2 1689.37 2177.03 3337.28 0 0 -1
240 2 2467.25 2079.65 2085.38 0 0 0
241 2 3035.94 2600.63 3349.35 -1 0 -1
242 2 2309.92 1802.82 3277.5 0 0 0
243 2 2735.54 2952.55 2679.68 0 0 0
244 2 2033.54 1943.64 2400.92 0 0 0
245 2 1801.95 2153.53 3186.65 0 0 -1
246 2 2235.7 1681.44 2394 0 0 -1
247 2 1966.72 2312.5 1819.27 0 0 0
248 2 3167.64 2087.78 2009.48 -1 0 0
249 2 3326.95 3134.54 2200.69 -1 -1 0
250 2 2980.89 2217.35 3291.07 -1 1 -1
251 2 2117.72 3235.61 3314.69 0 -1 0
252 2 1807.31 1893.26 2292.2 0 0 0
253 2 3208.24 2346.95 3310.21 0 0 -2
254 2 2449.16 1653.36 2013.57 0 0 0
255 2 1726.23 3138.97 2205.12 1 0 0
256 2 3207.26 2222.76 2445.85 0 1 -1
257 2 2144.03 1662.99 2059.87 0 0 0
258 2 1877.18 2580.45 1671.42 0 0 0
259 2 2083.4 2094.21 3327.57 0 0 -1
260 2 1924.53 2250.16 3262.8 0 0 -1
261 2 2266.58 1997.97 1693.49 0 0 0
262 2 1802.9 2448.92 1953.04 0 0 0
263 2 2150.07 1872.28 2359.09 0 0 0
264 2 1820.36 1663.96 2950.98 0 0 -1
265 2 1860.05 1969.84 1887.75 0 0 0
266 2 2307.33 1795.04 1980.8 0 0 0
267 2 1915.14 1810.36 2273.95 0 0 0
268 2 2163.48 2314.02 3353.41 0 0 -1
269 2 2496.68 2592.28 2226.17 0 0 0
270 2 2701.62 1742.36 2952.3 0 -1 -1
271 2 2169.29 3191.07 2128.61 0 -1 0
272 2 3306.31 1852.29 2506.03 -1 0 0
273 2 1784.55 2219.32 2475.06 0 0 0
274 2 1947.16 1690.34 2231.82 0 0 0
275 2 2100.14 2380.48 2028.26 0 0 0
276 2 2649.48 1792.53 2869.02 -1 1 0
277 2 1789.4 1909.57 1794.64 0 0 0
278 2 2974.78 2555.66 2045.71 0 0 0
279 2 2043.06 2452.98 1886.74 0 0 0
280 2 1649.94 3198.81 1970 0 -1 0
281 2 1678.18 3310.55 2424.99 0 -1 -1
282 2 3139.63 2220.84 2327.5 0 0 0
283 2 3222.92 1943.15 1697.5 -1 0 0
284 2 3340.4 2002.98 1908.95 -1 0 0
285 2 1871.96 2539.91 1880.62 0 -1 0
286 2 2379.13 2278.83 3316.85 -1 0 -1
287 2 2092.1 2007.67 2496.11 0 0 0
288 2 2149.33 1713.63 1838.75 0 0 0
289 2 2701.41 2205.67 1825.3 0 0 1
290 2 3184.22 2256.73 2132.62 -1 0 0
291 2 1789.23 1707.23 2431.03 0 0 0
292 2 1928.19 1945.7 3052.51 1 0 0
293 2 3287.07 2035.57 2149.36 -1 0 0
294 2 3160.78 1654.14 2276.94 0 0 0
295 2 1924.24 2184.13 3152.76 0 0 -1
296 2 1745.25 3330.33 1724.54 0 -1 0
297 2 1723.05 2351.75 1940.68 0 0 0
298 2 1671.26 2048.08 3340.5 0 0 -1
299 2 1659.93 3234.74 2201.7 0 -1 0
300 2 1818.87 2112.18 2211.8 0 0 0
301 2 1964.25 1867.07 2090.97 0 0 0
302 2 1760.47 2118.38 2329.47 0 0 0
303 2 2276.74 2118.75 1748.52 0 0 0
304 2 2226.92 2050.39 2447.33 0 -1 0
305 2 3093.57 3006.5 2660.63 0 -1 0
306 2 3168.48 2160.05 2222.71 -1 0 0
307 2 2133.56 1994.16 3108.84 -1 0 -1
308 2 3232.31 1708.45 2189.74 -1 0 0
309 2 2314.82 2142.34 1978.25 0 0 0
310 2 2539.6 3240.9 2263.47 -1 -1 0
311 2 2144.95 2833.59 2102.8 0 0 -1
312 2 2003.44 3189.88 3341.94 0 -1 -1
313 2 2075.43 2349.5 2140.66 0 0 0
314 2 2043.67 1768.63 1778.37 0 0 0
315 2 2068.71 2405.86 1658.41 0 0 0
316 2 2294.9 1881 1659.81 0 0 0
317 2 2462.29 1795.55 1788.87 0 0 0
318 2 1831.21 2176.37 2639.03 0 0 0
319 2 1671.12 2447.81 2317.93 0 0 0
320 2 1876.88 1993.91 2245.88 0 0 0
321 2 2822.4 1652.46 2679.1 -1 0 -1
322 2 1903.5 1812.26 1992.3 0 0 0
323 2 1787.16 2433.48 2317.07 0 0 0
324 2 1829.69 1686.1 2688.3 0 0 -1
325 2 1759.1 3219.01 2123.35 0 -1 0
326 2 3339.1 1785.6 2006.6 -1 0 0
327 2 1738.66 1794.36 2336.82 0 0 0
328 2 2050.09 1744.95 2659.11 0 0 0
329 2 3146.07 3315.59 2845.71 0 -1 0
330 2 1688.04 2656.92 1812.8 0 0 0
331 2 3223.37 2381.82 1855.37 -1 0 0
332 2 2633.8 2168.49 3262.45 0 -1 0
333 2 1718.42 2348.44 2277.01 0 0 0
334 2 2159.63 1811.07 1747.86 0 0 0
335 2 2012.56 3107.04 2577.72 0 0 -1
336 2 2033.35 1838.06 2313.97 0 0 0
337 2 2318.2 2097.02 3358.23 0 0 -1
338 2 2467.2 2366.16 2454.93 0 -1 -1
339 2 1929.71 3329.51 2533.85 0 -1 -1
340 2 2382.78 1981.52 2300.44 0 0 0
341 2 1758.52 2551.24 3361.83 0 0 -1
342 2 2512.48 2205.44 2111.66 0 0 0
343 2 3303.87 2250.07 2138.73 -1 0 0
344 2 2018.11 2242.81 1916.31 0 0 0
345 2 3253.36 2201.93 1685.28 -1 0 0
346 2 2128.42 2365.88 2411.63 0 -1 0
347 2 2195.08 2134.8 1642.9 -1 0 0
348 2 1852.37 2339.16 1915.43 0 0 0
349 2 1961.66 3203.64 1808.12 0 -1 0
350 2 2214.17 2247.63 2194.47 0 0 0
351 2 1900.38 1911.43 3162.55 0 0 0
352 2 1797.71 1813.3 2512.74 0 0 0
353 2 3322.4 1736.76 2557.85 -1 0 0
354 2 1899.01 1765.72 2137.4 0 0 0
355 2 1849.73 2326.07 2271.38 0 0 0
356 2 1742.22 1912.53 2183.51 0 0 0
357 2 3084.67 2301.46 2512.93 0 0 0
358 2 2072.44 1965.28 3336.62 0 0 -1
359 2 1834.55 1750.11 1905 0 0 0
360 2 2799.28 2369.73 1987.58 0 0 0
361 2 1644.07 1789.77 3359.84 0 0 -1
362 2 2113.29 3132.68 2319.22 0 0 0
363 2 1994.94 3349.49 2332.82 0 -1 0
364 2 2248.43 3090.9 2078.96 0 -1 0
365 2 2530.18 2212.45 2232.22 0 0 0
366 2 3187.1 2134.67 3192.7 0 0 -1
367 2 2924.68 1990.64 3023.72 0 0 0
368 2 1657.01 2521.64 2680.65 0 -1 0
369 2 2043.96 2081.45 2401.86 0 0 0
370 2 3184.45 2147.82 1785.34 -1 0 0
371 2 2081.75 1867.55 2499.79 0 0 0
372 2 2734.79 2072.11 2503.41 0 0 0
373 2 2782 2312.47 1865.21 0 0 1
374 2 2378.21 2219.55 1904.77 0 0 0
375 2 2532.72 2439.3 2908.53 -1 0 0
376 2 3277.83 3161.19 2033.14 0 0 0
377 2 3250 2268.31 1901.67 -1 0 0
378 2 2027.98 2147.68 2856.05 1 0 -1
379 2 1937.38 2414.55 3057.66 0 0 -1
380 2 2742.39 1848.53 3254.94 -1 0 -1
381 2 2390.85 1970.34 1667.03 0 0 0
382 2 2764.76 1779.95 2867.95 0 0 0
383 2 2875.41 2487.68 1770.68 -1 -1 -1
384 2 2118.49 2124.04 2710.22 0 0 0
385 2 2020.57 1926.48 2717.84 0 -1 0
386 2 2187.58 2015.54 3313.93 0 0 -1
387 2 2031.17 3357.22 2011.61 0 -1 0
388 2 1806.86 1832.44 2074.38 0 0 0
389 2 1838.3 3102.02 2578.94 0 -1 -1
390 2 2043.97 3071.85 1998.16 0 -1 1
391 2 1763.02 1691 1817.27 0 0 0
392 2 3142.24 2216.93 1881.93 -1 0 0
393 2 1652.63 2296.56 2039.52 0 0 0
394 2 1743.27 2433.31 2438.99 0 1 0
395 2 1771.87 1649.79 1951.43 0 0 0
396 2 2034.38 3082.35 2172.93 0 -1 0
397 2 2055.64 1851.03 1998.44 0 0 0
398 2 3166.4 3197.4 1849.42 -1 -1 1
399 2 1704.91 2939.5 1859.26 0 -1 0
400 2 2909.1 3247.59 1782.45 -1 -1 0
401 2 1670.36 3364.8 2167.77 0 -1 0
402 2 1641.07 1663.26 1683.8 0 0 0
403 2 1989.88 2018.58 2299.88 0 0 0
404 2 1799.54 1873.67 1949.3 0 0 0
405 2 1740.37 2364.88 3217.4 0 0 -1
406 2 3318.87 1957.57 2577.3 0 0 0
407 2 2916.81 1826.88 3007.85 -1 0 0
408 2 2436.74 3187.84 2691.36 0 -1 0
409 2 1672.37 1885.85 1957.3 0 0 0
410 2 1652.47 1919.67 3349.71 1 1 0
411 2 2005.79 2176.96 2732.77 0 0 0
412 2 3022.93 1743.8 1914.13 -1 1 1
413 2 1945.33 2163.03 2416.53 0 0 0
414 2 3209.81 3172.03 3188 -1 -1 -1
415 2 1889.48 1852.33 1849.94 0 0 0
416 2 1733.72 1686.67 2265.6 0 0 0
417 2 3216.01 1978.78 2056.84 -1 0 0
418 2 2296.15 1779.38 3159.32 0 0 0
419 2 1860.28 3160.43 3309.87 1 0 -1
420 2 2525.55 2103.26 3287.16 0 0 0
421 2 2173.89 3274.48 2028.78 0 -1 0
422 2 1651.78 2351.8 2165.1 0 0 0
423 2 1908.56 2323.19 2157.16 0 0 0
424 2 3141.13 1688.08 3231.89 -1 1 -1
425 2 2332.69 2910.56 2980.08 0 -1 -1
426 2 3202.29 2500.54 1795.51 0 0 0
427 2 1772.35 2032.79 3189.84 0 0 0
428 2 2198.22 1690.73 1718.42 0 0 0
429 2 3269.4 3205.36 1662.52 -2 0 1
430 2 1706.73 2173.93 3113.9 0 0 -1
431 2 1825.27 2172.96 1984.43 0 0 0
432 2 2053.83 3158.44 2080.82 0 -1 0
433 2 2176.18 1911.77 1665.39 0 0 0
434 2 3098.58 1693.84 2103.27 -1 0 0
435 2 3159.72 2325.65 1959.98 -1 0 0
436 2 3305.47 2199 1804.4 -1 0 0
437 2 1964.99 1843.86 2444.55 0 0 0
438 2 1719.52 2126.49 2655.9 0 1 0
439 2 2007.96 2275.18 3181.59 0 0 -1
440 2 1936.82 2219.08 2883.81 0 0 -1
441 2 1909.09 2119.65 3262.93 0 0 -1
442 2 2012.31 2255.35 2222.86 0 0 0
443 2 2082.71 1753.31 2402.02 0 0 0
444 2 1869.08 1885.59 2176.85 0 0 0
445 2 1967.07 2053.36 3358.79 0 0 -1
446 2 2920.3 1675.66 1940.75 1 1 0
447 2 2012.08 1795.57 2188.11 0 0 0
448 2 3278.4 1860.98 2095.74 -1 0 0
449 2 3256.62 2571.23 2977.47 -1 0 0
450 2 1786.92 2090.84 3300.99 0 0 -1
451 2 2366.07 1876.72 1774.92 0 0 0
452 2 1831.61 2105.01 2437.36 0 0 0
453 2 1924.91 1733.32 1809.63 0 0 0
454 2 2285.39 1678.42 2170.37 0 0 0
455 2 1854.4 3104.51 1940.4 0 -1 0
456 2 2128.57 2071.91 2263.23 0 0 0
457 2 1949.08 3179.17 2158.36 0 -1 -1
458 2 2134.23 1798.87 2584.18 0 0 1
459 2 1793.73 1847.44 3192.24 1 0 -1
460 2 2339.45 2754.61 2558.24 0 -1 0
461 2 2295.06 1718.91 2292.88 -1 0 0
462 2 1807.56 1921.47 2581.29 0 0 0
463 2 1850.18 3132.19 1810.5 0 -1 0
464 2 2364.17 2102.67 2263.77 0 0 0
465 2 2483.52 1836 2213.02 0 0 0
466 2 2205.61 2346.45 2277.97 0 0 -1
467 2 2557.68 1712.08 3174.39 0 1 0
468 2 3357.57 2133.76 2105.45 -1 0 0
469 2 2431.07 1904.34 2131.05 0 0 0
470 2 1732.64 3223.07 2317.82 0 -1 0
471 2 3286.08 2074.58 2008.16 -1 0 0
472 2 3166.67 1865.65 2025.43 -1 0 0
473 2 2137.83 2031.9 1702.32 0 0 0
474 2 3358.06 3114.63 1854.93 -1 0 1
475 2 1746.2 3168.43 1886.09 0 -1 0
476 2 1682.85 2063.66 2010.34 0 0 0
477 2 2290.82 1965.49 2133 0 0 0
478 2 3278.96 1822.23 2224.07 -1 0 0
479 2 1757.47 3293.66 1856.45 0 -1 0
480 2 1917.11 2100.6 3037.43 0 0 0
481 2 2249.11 2040.36 2242.89 0 0 0
482 2 2161.86 3100.7 2207.09 0 0 0
483 2 2842.37 3198.26 1684.53 0 -1 0
484 2 3182.66 1694.97 1634.74 -1 1 0
485 2 3156.39 2369.33 2081.16 0 1 0
486 2 2029.19 2290.09 2038.79 0 0 0
487 2 1804.77 3316.56 2503.41 0 -1 0
488 2 2056.43 2286.37 2599.28 0 0 -2
489 2 3331.79 2476.66 2186.04 -1 1 0
490 2 2871.13 2309.07 2510.95 0 1 0
491 2 1833.23 1665.69 2182.35 0 0 0
492 2 3142.77 3039.2 3175.04 0 0 -1
493 2 3124.63 2087.72 1881.23 -1 0 0
494 2 2179.2 2255.88 1831.81 0 0 0
495 2 1838.4 3117.95 2132.56 0 -1 0
496 2 1943.25 2203.89 1745.48 0 0 0
497 2 1862.23 3237.26 2375.16 0 -1 0
498 2 1901.88 3018.01 2923.9 -1 -1 -1
499 2 2341.29 2060.3 3202.94 0 0 0
500 2 2068.83 2172.12 2009.67 0 0 0
501 2 2057.08 1639.33 2583.18 0 0 -1
502 2 2701.18 1767.14 1892.2 0 0 0
503 2 3113.25 1969.11 1980.54 -1 0 0
504 2 2127.45 1824.65 2227.62 0 0 0
505 2 1692.2 2127.97 2218.38 0 0 0
506 2 1871.57 2028.78 2536.8 0 0 0
507 2 2201.01 1776.07 3239.42 0 0 -1
508 2 1971.88 2008.86 1853.6 0 0 0
509 2 1675.14 1811.55 2225.5 0 0 0
510 2 2226.86 3145.6 3012.58 0 0 0
511 2 1724.57 2443.11 2212.19 0 -1 0
512 2 1861.98 2305.09 2996.26 0 0 -1
513 2 2219.9 1704.01 1949.53 0 0 0
514 2 3291.66 1641.06 2357.67 0 1 -1
515 2 2153.28 2146.83 1766.6 0 0 0
516 2 2026.94 2801.92 1677.38 0 0 1
517 2 2190.42 2156.93 1991.1 0 0 0
518 2 2899.48 1732.11 2119.97 0 1 0
519 2 1692.95 1678.39 2507.31 -1 0 -1
520 2 2541.43 3298.94 2550.72 0 -1 -1
521 2 2393.92 2074.9 1728.94 -1 0 0
522 2 3127.63 2095.39 2318 -1 0 0
523 2 1793.12 2096.73 3082.51 0 0 0
524 2 1723.95 2223.2 2576.72 0 -1 0
525 2 1765.92 3298.06 2229.22 0 -1 0
526 2 3288.26 1676.44 1970.61 -1 0 0
527 2 2166.6 2043.66 1937.74 0 0 0
528 2 3357.79 2026.61 2485.62 -1 0 0
529 2 2119.91 3063.39 2093.64 0 -1 0
530 2 3339.04 3210.91 2306.97 -1 0 0
531 2 1770.51 2238.73 1890.68 0 0 0
532 2 3059.09 1864.31 1946.12 0 0 0
533 2 2455.87 1970.88 1801.32 0 0 0
534 2 2520.1 1851.55 1996.25 0 0 0
535 2 2080.55 3142.11 1891.81 0 -1 0
536 2 3276.28 1854.12 3294.63 -1 0 -1
537 2 1661.23 3281.45 2067.59 0 -1 0
538 2 2743.17 2981.04 2243.47 0 -1 0
539 2 3208.52 1833.6 1770.23 -1 0 0
540 2 3001.84 1931.07 2041.81 0 0 0
541 2 2784.15 3199.92 3302.76 -1 0 -1
542 2 1927.49 2519.82 3302.81 0 0 -1
543 2 3290.18 1634.85 2102.33 -1 0 0
544 2 1916.51 2305.72 3100.66 0 0 -1
545 2 2336.82 2309.93 2262.71 -1 -1 -1
546 2 2325.66 2095.58 2143.99 0 0 0
547 2 2450.55 1870.86 1890.68 0 0 0
548 2 2217.26 1913.43 2247.02 0 0 0
549 2 2157.1 2132.65 2378.89 0 0 0
550 2 2985.1 3283.28 1928.93 0 -1 0
551 2 1639.12 2242.39 2255.26 0 0 0
552 2 2338.02 1885.22 2220.75 0 0 0
553 2 1809.67 2011.05 2136.32 0 0 0
554 2 3362.86 2133.73 2334.83 -1 0 0
555 2 1976.94 3100.05 2715.98 -1 0 0
556 2 2095.09 1740.29 1658.67 0 0 0
557 2 1710.78 3318.85 3338.86 1 0 -1
558 2 2051.34 2994.48 2748.66 -1 -1 -1
559 2 3067.47 1861.16 2203.33 0 1 0
560 2 2042.63 3246.38 1713.32 0 -1 0
561 2 2293.71 3044.15 1804.23 0 -1 1
562 2 2354.24 1720.03 2067.47 0 0 0
563 2 2092.57 3196.88 3057.67 -1 0 0
564 2 1979.12 1948.66 2518.62 0 0 0
565 2 2187.97 2724.55 2140.2 0 0 0
566 2 2280.6 2213.28 3191.57 0 0 -1
567 2 1897.09 2220.29 1879.99 0 0 0
568 2 3168.86 3121.46 1669.56 0 0 0
569 2 1979.82 1915.36 2226.5 0 0 0
570 2 3324.58 2357.77 2274.99 -1 0 -1
571 2 3060.95 3361.55 1869.02 -2 -1 0
572 2 3275.01 1748.9 1707.08 -1 0 0
573 2 2581.08 1684.76 2893 0 0 -1
574 2 2563.24 2948.5 2061.93 0 0 0
575 2 2213.81 3353.72 2275.1 0 -1 0
576 2 2700.03 2219.6 2652.62 0 0 0
577 2 2241.82 2162.07 2281.55 0 0 0
578 2 2874.73 2723.61 2249.7 0 0 1
579 2 3030.54 2190.81 2524.39 0 0 0
580 2 2147.63 1944.24 2016.63 0 0 0
581 2 2001.05 1884.19 3241.87 0 0 -1
582 2 2049.13 1692.76 3147.11 0 0 0
583 2 2435.36 2110.47 1959.05 0 0 0
584 2 1725.93 2394.41 2058.35 0 0 0
585 2 1806.74 2045.47 1996.74 0 0 0
586 2 1910.84 2374.49 2378.37 0 0 0
587 2 3333.45 1830.76 1866.44 -1 0 0
588 2 1769.15 2231.93 1693.13 0 0 0
589 2 1748.65 2015 2255.25 0 0 0
590 2 2259.54 1959.19 2359.67 0 0 0
591 2 3182.57 3240.02 2066.07 -1 -1 0
592 2 1994.33 1793.34 1899.04 0 0 0
593 2 2959.66 1708.88 3017.41 -1 0 -1
594 2 2132.59 1693.79 2496.32 0 0 0
595 2 1962.71 3222.48 2295.07 0 -1 0
596 2 1903.9 2272.61 2013.78 0 0 0
597 2 3300.88 2129.09 3320.07 -1 0 -1
598 2 3109.18 1936.54 2107.57 -1 0 0
599 2 2076.44 3251.37 2334.83 0 0 0
600 2 2266.2 3363.23 2041.16 0 -1 0
601 2 1777.56 3332.41 2352.65 0 -1 0
602 2 2602.68 2104.69 1870.26 0 0 0
603 2 3195.65 2373.99 2474.05 -1 1 0
604 2 2445.69 2758.03 2609.19 0 -1 -1
605 2 2311.07 2305.08 2132.19 -1 -1 0
606 2 1960.74 1913.16 1937.53 0 0 0
607 2 2240.08 2116.31 3253.9 0 0 -1
608 2 2222.12 2456.9 2233.63 -1 0 -1
609 2 2664.11 2593.88 1940.41 0 -1 -1
610 2 1652.51 3359.61 1806.94 1 -1 0
611 2 2640.49 3275.46 2485.56 0 -1 0
612 2 2073.57 2315.97 2321.53 0 0 0
613 2 2447.12 1685.41 1868.75 0 0 0
614 2 1812.19 2034.06 1785.76 0 0 0
615 2 1803.88 2220.26 3300.76 0 0 -1
616 2 2133.07 2268.47 1963.15 0 0 0
617 2 1740.93 1732.53 2122.53 0 0 0
618 2 2109.26 2162.81 1890.57 0 0 0
619 2 1702.34 2236.96 2141.86 0 0 0
620 2 2604.17 1940.18 2033.25 0 1 1
621 2 2018.48 3243.99 2551.64 0 -1 0
622 2 2058.05 1863.66 1686.76 0 0 0
623 2 3344.47 2322.6 3212.95 -1 0 -1
624 2 2365.16 2004.63 2034.01 0 0 0
625 2 2042.69 2069.62 1941.38 0 0 0
626 2 2751.09 3287.37 2020.35 0 0 1
627 2 3177.76 1868.93 2280.76 -1 0 0
628 2 3339.98 2386.51 3323.07 -1 0 0
629 2 2359.74 3332.25 1837.68 0 0 0
630 2 2973.08 2964.07 2647.14 0 0 0
631 2 1686.92 2021.5 2371.53 0 0 0
632 2 2201.64 1874.91 2115.54 0 0 0
633 2 1960.45 2336.09 2543.48 0 0 0
634 2 1744.57 2477.25 1721.09 0 0 0
635 2 1816.76 2000.53 2364.11 0 0 0
636 2 2018.2 2331.64 2433.84 0 0 0
637 2 2007.84 2030.78 3239.24 0 0 -1
638 2 2192.78 3320.59 2147.79 0 -1 0
639 2 2415.54 2052.14 3298.96 0 0 0
640 2 2063.94 2212.78 2395.74 0 0 0
641 2 2082.35 1645.74 1749.78 0 0 0
642 2 2029.62 1670.15 1863.87 0 0 0
643 2 1639.13 3079.07 1979.98 0 0 0
644 2 2323.4 1838.64 2105.59 0 0 0
645 2 3222.02 3024.28 2671.65 -1 -1 0
646 2 2086.72 1813.37 3179.3 0 0 0
647 2 2145.47 2000.59 2377.64 0 0 0
648 2 2207.35 2356.25 1894.84 0 0 0
649 2 1868.01 2507.15 1763.16 0 0 0
650 2 1803.02 1785.23 2223.03 0 0 0
651 2 2333.13 1991.57 1809.82 0 0 0
652 2 2034.81 2007.63 3027.18 0 0 0
653 2 2210.53 1788.54 3362.49 0 0 -1
654 2 1880.43 1852.2 3280.49 0 0 -1
655 2 2700.7 2928.45 2062.47 0 0 0
656 2 2002.64 2153.68 2298.01 0 0 0
657 2 1835.26 3286.56 2623.8 0 -1 0
658 2 1775.04 2746.6 1831.76 0 0 0
659 2 1848.54 2021.33 1663.95 0 0 0
660 2 1754 2011.4 2480.29 0 0 0
661 2 3234.51 2098.52 2546.37 0 0 -1
662 2 1958.6 2266.97 2337.7 0 0 0
663 2 1737 1703.52 3285.31 -1 1 -1
664 2 2454.49 1796.35 2090.63 0 0 0
665 2 3176.21 1709.74 1759.83 -1 1 0
666 2 2022.8 1967.44 2038.29 0 0 0
667 2 2169.34 1994.42 2160.04 0 0 0
668 2 2245.19 3083.98 2407.41 -1 -1 1
669 2 2634.68 2951.05 2162.61 0 0 1
670 2 1894.55 3362.02 2413.84 0 -1 0
671 2 1758.64 3218.77 2449.29 0 -1 -2
672 2 3174.4 2021.86 1789.81 -1 0 0
673 2 1971.46 3266.63 2432.02 0 0 0
674 2 3203.46 2211.02 3301.46 -1 0 -1
675 2 1845.45 3202.12 2236.17 0 -1 0
676 2 2837.1 1741.54 3025.33 0 0 -1
677 2 1882.02 3317.15 2277.18 0 -1 0
678 2 1972.33 1768.81 3206.57 0 0 -1
679 2 1987.74 1791.97 3330.67 0 0 -1
680 2 1665.11 1675.42 2039.75 0 0 0
681 2 2334.38 2208.64 2200.08 0 0 0
682 2 2291.55 2018.17 1930.09 0 0 0
683 2 1830.58 2222.74 2135.03 0 0 0
684 2 3180.66 2966.08 3262.92 -1 0 -1
685 2 2365.55 2622.51 2394.62 0 0 0
686 2 2077.83 1952.48 1904.7 0 0 0
687 2 2532.46 1975.49 2142.8 0 0 0
688 2 3181 3327.8 2159.1 -1 -1 0
689 2 1925.86 2468.29 1977.3 0 0 0
690 2 3127.83 3303.04 3275.24 0 -1 -1
691 2 3253.04 2357.46 2166.71 -1 0 0
692 2 3080.15 1899.53 1638.05 0 0 0
693 2 1914.98 1727.84 2494.48 0 0 0
694 2 3364.79 3271.86 1710.49 -1 0 0
695 2 2300.36 2229.57 1810.42 0 0 0
696 2 2214.82 2181.85 2471.49 -1 -1 0
697 2 1665.17 2345.91 2393.13 1 -1 -1
698 2 3281.31 1926.59 2302.27 -1 0 0
699 2 2473.38 2881.04 2290.46 0 -1 0
700 2 1642.2 2250.3 1702.74 0 0 0
701 2 1923.83 2076.08 1751.13 0 0 0
702 2 2100.67 2140.56 2493.32 0 0 0
703 2 2012.06 1657.4 2456.44 0 0 0
704 2 1773.73 3343.19 2078.93 0 -1 0
705 2 2117.07 2270.57 2487.39 0 0 0
706 2 3320.86 3109.86 3334.23 0 0 -1
707 2 1848.8 1705.84 2316.26 0 0 0
708 2 2146.06 2062.01 2593.39 0 0 0
709 2 1829.27 3008.46 1835.55 1 0 0
710 2 1662.36 1931.28 1812.89 0 0 0
711 2 3050.31 2188.54 2251.57 0 0 0
712 2 2415.66 1994.51 1912.21 0 1 0
713 2 1890.72 2622.17 1788.82 0 0 1
714 2 1698.89 2436.1 2566.97 0 0 0
715 2 1734.96 3079.08 1794.03 1 0 1
716 2 2101.64 3326.16 2237.18 0 -1 0
717 2 2069.76 1715.92 3266.64 0 0 -1
718 2 2048.32 1676.5 2150.45 0 0 0
719 2 1971.26 2364.93 2266.22 0 0 0
720 2 1972.99 3147.43 2398.73 0 0 0
721 2 2248.27 2052.43 2045.72 0 0 0
722 2 3317.72 2328.45 1806.05 -1 0 0
723 2 2111.78 2413.76 2244.71 0 0 0
724 2 3254.78 3033.21 1667.62 -1 0 0
725 2 3074.22 1738.52 3323.38 0 1 0
726 2 2782.36 2297.64 2801.73 0 0 -1
727 2 3281.81 3282.27 2003.06 0 -1 0
728 2 2127.18 2330.64 1736.67 0 0 0
729 2 3246.48 2257.81 2246.38 -1 0 0
730 2 1791.02 2979.57 2580.49 0 -1 0
731 2 1945.85 2097.93 2194.57 0 0 0
732 2 2435.97 2268.59 2173.11 0 0 0
733 2 2271.44 2445.91 1842.61 0 0 1
734 2 2165.78 1702.29 2195.45 0 0 0
735 2 1776.03 2286.51 2034.38 0 0 0
736 2 1898.19 2207.48 2242.28 0 0 0
737 2 3178.27 1672.13 1908.36 -1 0 0
738 2 1901.36 2048.89 3155.46 0 0 -1
739 2 1934.64 1646.09 2097.87 0 0 0
740 2 3362.58 3143.23 1721.87 -1 0 1
741 2 2085.18 2336.6 1857.64 0 0 0
742 2 2018.77 1954.36 3129.74 0 0 -1
743 2 1840.05 1712.3 2037.24 0 0 0
744 2 3273.39 1906.62 1960.76 -1 0 0
745 2 1956.88 2202.89 2115.97 0 0 0
746 2 2085.98 2051.74 1821.1 0 0 0
747 2 1908.76 3170.11 1695.69 0 -1 0
748 2 3242.7 1858.66 2394.72 -1 0 0
749 2 3269.09 1939.2 1820.9 -1 0 0
750 2 1700.69 2181.32 1798.29 0 0 0
751 2 1788.8 2584.65 2767.19 1 0 0
752 2 3113.49 1912.13 1757.07 0 0 0
753 2 2674.84 2694.2 2327.89 0 0 1
754 2 1920.95 1917.92 2345.76 0 0 0
755 2 2076.19 1902.67 2140.36 0 0 0
756 2 2027.64 3128.53 1735.53 0 -1 0
757 2 3356.18 2123.44 1707.26 -1 0 0
758 2 1661.84 3322.92 2299.45 0 -1 0
759 2 2005.35 1889 1815.55 0 0 0
760 2 1944.84 3207.13 2753.45 0 -1 0
761 2 1753.81 2113.27 1898.49 0 0 0
762 2 1997.48 2086.84 2078.06 0 0 0
763 2 3120.76 1975.77 2249.24 -1 0 0
764 2 1851.44 2381.94 2056.23 0 0 0
765 2 2041.68 2156.5 2610.98 -1 1 0
766 2 2109.75 2547.49 1844 -1 0 0
767 2 2223.7 1994.05 3198.08 0 0 -1
768 2 3291.5 3319.89 3353.81 -1 -1 0
769 2 1770.01 2225.08 2249.93 0 0 0
770 2 2209.14 2022.22 1810.5 0 0 0
771 2 3304.51 2202.08 1997.7 -1 0 0
772 2 1986.73 2179.48 3351.56 0 0 -1
773 2 1931.27 2021.38 2420.64 0 0 0
774 2 2443.64 2145.02 3363.24 0 0 -1
775 2 3323.26 2992.9 1863.82 -1 0 0
776 2 1658.02 1718.84 1899.37 0 0 0
777 2 1839.39 2655.5 2856.17 1 0 0
778 2 2218.78 2244.61 1707.39 0 0 0
779 2 3214.37 2014.01 1917.7 0 0 0
780 2 3215.06 3217.83 2220.7 -1 -1 0
781 2 1762.58 1820.96 3319.57 0 0 -1
782 2 2015.47 2079.39 3125.51 0 0 -1
783 2 1710.63 2231.87 2365.37 0 0 0
784 2 3340.09 1746.17 2135.09 -1 0 0
785 2 2909.7 2797.47 3030.11 0 0 0
786 2 1840.91 2213.74 2357.17 0 0 0
787 2 3183.47 2217.12 2011.48 -1 0 0
788 2 1897 3049.08 1736.54 1 0 1
789 2 1840.08 2278.73 2562.75 0 -1 0
790 2 2704.12 3360.01 2720.76 1 0 0
791 2 3064.43 3353.68 2000.29 0 0 0
792 2 2693.88 2948.84 2349.62 0 -1 0
793 2 1826.81 2348.43 3298.2 0 0 -1
794 2 2884.18 2322.29 1921.59 0 0 0
795 2 3170.12 3162.46 1966.89 -1 -1 0
796 2 1734.84 1985.33 1907.62 0 0 0
797 2 2050.89 1781.73 2785.33 0 0 0
798 2 3129.56 2069.79 3098.42 0 1 -1
799 2 1820.67 1882.67 3078.31 0 0 -1
800 2 1709.7 2305.57 3333.16 0 0 -1
801 2 1697.19 1803 2586.24 0 0 0
802 2 1719.53 1847.06 1702 0 0 0
803 2 1787.43 2333.84 2388.52 0 0 0
804 2 1977.75 1843.88 3100.5 0 1 -1
805 2 2212.28 1792.44 2431.08 0 0 0
806 2 2397.66 1880.65 2006.36 0 0 0
807 2 3057.87 1828.75 2081.02 -1 0 0
808 2 2425.56 3242.4 2584.14 1 -1 -1
809 2 3307.11 3062.64 2098.94 -1 0 1
810 2 2271.61 3146.76 2181 0 0 0
811 2 2045.02 2021.21 2179.88 0 0 0
812 2 3183.5 2015.03 3198.51 -1 0 -1
813 2 3318.92 2202.01 3207.23 -1 0 -1
814 2 2621.11 2774.93 2410.02 0 -1 0
815 2 1868.36 1785.66 3127.69 0 0 -1
816 2 3237.54 2073 1688.96 -1 0 0
817 2 1930.86 2028.95 1977.12 0 0 0
818 2 3347.4 1919.59 2415.06 -1 0 0
819 2 3143.55 2152.14 1672.32 0 0 0
820 2 1968.25 3255.38 2058.61 0 -1 0
821 2 3159.74 1903.08 1887.2 -1 0 0
822 2 2020.64 1985.88 1723.4 0 0 1
823 2 3214.04 1935.58 2184.67 -1 0 0
824 2 1734.8 2331.91 2497.91 1 0 0
825 2 1855.12 1813.37 2389.12 0 0 0