ITEM: TIMESTEP
1000
ITEM: NUMBER OF ATOMS
1000
ITEM: BOX BOUNDS pp pp pp
1.9493699742144067e+03 3.0506300257852290e+03
1.9493699742144067e+03 3.0506300257852290e+03
1.9493699742144067e+03 3.0506300257852290e+03
ITEM: ATOMS id type x y z ix iy iz
1 2 2969.54 2881.59 2058.47 0 0 0
2 2 2142.55 1990.27 2576.65 0 1 -1
3 2 2301.03 3024.84 2062.34 0 -1 1
4 2 2130.62 2241.65 2748.86 0 0 -1
5 2 2978.9 3048.32 2755.41 0 -1 -1
6 2 2255.42 2479.22 2261.89 -1 0 -1
7 2 2308.26 2417.45 2279.09 0 0 0
8 2 1984.39 2990.33 2531.06 0 0 0
9 2 2959.92 2473.93 2340.85 -1 0 0
10 2 2183.05 2919.79 2729.83 0 0 0
11 2 2689.86 2428.43 2753.06 0 0 0
12 2 1964.31 2892.55 2738.37 0 0 -1
13 2 2003.75 2376.67 2049.26 1 0 1
14 2 2023.62 2899.38 2190.05 0 0 0
15 2 2958.71 2029.97 2879.44 0 0 -1
16 2 2158.79 3028.08 2038.79 0 -1 0
17 2 2471.52 2258.33 2934.71 2 1 0
18 2 2419.78 2386 2884.68 0 1 -1
19 2 2379.05 2168.66 3008.35 0 0 0
20 2 3007.27 2022.64 2736.02 0 1 0
21 2 2174.96 2523.06 2060.74 0 1 1
22 2 2026.69 2830.67 2144.38 0 0 1
23 2 2703.77 2805.72 2212.82 -1 1 0
24 2 1964.35 2172.94 2962.57 1 0 -1
25 2 2375.51 1991.33 1955.73 0 1 1
26 2 2695.48 2358.43 2612.95 0 0 1
27 2 2127.17 2719.29 2930.71 0 0 0
28 2 2011.13 2457.18 3028.38 0 0 0
29 2 2992.89 2322.78 2534.23 -1 1 0
30 2 2930.42 2141.46 3012.31 -1 1 0
31 2 2058.45 2828.89 2924.95 0 -1 0
32 2 2009.85 3043.21 2588.96 0 0 0
33 2 2305.13 2259.71 2285.73 0 0 0
34 2 2322.21 2111.91 2993.55 0 1 0
35 2 2856.09 2922.9 3035.59 0 -1 0
36 2 2347.13 1954.61 2713.91 0 1 0
37 2 2065.72 2057.49 2589.51 0 0 0
38 2 1972.67 2581.3 1982.57 0 1 0
39 2 3010.79 2488.71 2098.74 -1 1 0
40 2 2324.89 2245.08 2897.17 0 -1 0
41 2 2078.17 2830.34 2210.38 1 -1 0
42 2 2992.32 2391.81 1981.2 -1 0 0
43 2 2090.31 2458.73 2312.39 1 0 1
44 2 2803.37 2731.43 2887.95 1 -1 0
45 2 2042.06 2398.32 2284.18 0 0 0
46 2 2817.81 2021.34 2303.31 0 1 0
47 2 3013.05 2611.58 2380.33 -1 0 0
48 2 1958.1 2525.73 2041.81 1 0 0
49 2 2875.18 2429.81 1951.15 0 0 1
50 2 2412.18 2866.06 2188.76 0 0 1
51 2 2747.81 2024.53 2764.74 -1 1 1
52 2 2617.32 2420.83 2221.71 0 0 0
53 2 2278.26 2459.05 2060.61 0 0 1
54 2 2144.4 2058.58 2622.89 0 1 0
55 2 2586.1 2255.94 2626.87 0 0 -1
56 2 2223.84 2277.06 2288.32 0 0 0
57 2 2174.54 2392.46 2786.76 0 0 -1
58 2 1950.84 2265.74 2539.52 0 0 0
59 2 2710.56 2427.86 2264.22 -1 2 0
60 2 2268.06 2933.98 2042.59 0 0 0
61 2 3020.76 2409.61 2502.69 -1 0 0
62 2 2926.53 2884.46 2834.95 0 -1 0
63 2 1984.03 2941.07 3040.23 0 0 0
64 2 3006.5 2464.36 2019.35 0 0 1
65 2 2641.68 2301 2671.44 0 -1 0
66 2 2836.05 2051.36 2792.57 0 0 -1
67 2 2623.86 1979.55 2719.11 0 1 1
68 2 2117.49 2358.27 2471.36 0 0 1
69 2 2602.48 2181.62 2135.48 0 0 0
70 2 2378.37 2931.26 2766.71 0 0 0
71 2 1962.9 2026.75 2037.59 0 0 1
72 2 2662.2 2367.6 2537.3 -1 -1 0
73 2 2813.66 2004.57 2205.32 -2 -1 0
74 2 2297.91 1971.98 3022.89 0 1 -1
75 2 2863.68 2240.46 2030.62 0 0 0
76 2 2642.91 2567.47 2338.24 0 -1 0
77 2 2853.28 2163.55 2094.71 -1 1 1
78 2 1992.6 2124.71 2603.17 0 0 0
79 2 3006.4 2628.26 1973.41 -1 0 0
80 2 2312.57 2880.16 2111.72 0 0 -1
81 2 2394.35 1978.46 2977.2 0 2 0
82 2 2733.82 2833.51 2327.84 -1 0 -1
83 2 2441.62 2892.95 2548.37 0 0 0
84 2 2547.21 2194.66 2043.68 1 1 1
85 2 2830.82 2081.77 2068.81 0 1 0
86 2 3024.18 2416.54 2139.35 -1 0 1
87 2 2111.87 2290.1 2521.62 1 0 0
88 2 1949.98 2819.36 2008.7 0 0 1
89 2 1967.8 2556.25 2127.93 1 0 1
90 2 2957.89 2364.57 2943.01 0 1 -1
91 2 2566.89 2783.33 2783.46 0 0 -1
92 2 2364.57 2397.19 1962.22 -1 0 0
93 2 2425.37 1987.93 2028.35 0 0 1
94 2 2416.5 2288.71 2987.32 1 1 -1
95 2 2080.74 2291.56 2791.09 0 0 -1
96 2 2270.3 2896.41 1969.18 1 0 1
97 2 2844.85 2969.52 2727.9 0 -1 0
98 2 2899.42 2042.59 2091.77 0 0 0
99 2 2023.92 2247.6 1987.9 0 0 0
100 2 2311.61 2099.11 2910.96 1 0 0
101 2 2450.52 2407.92 2679.68 0 0 0
102 2 2225.52 2994.8 2077.46 0 -1 0
103 2 3038.1 2158.35 2215.11 -1 0 0
104 2 2414.49 2040.56 2091.38 0 0 0
105 2 2347.96 2161.52 2736.24 0 0 0
106 2 2487.35 2236.71 2081.57 0 0 0
107 2 2111.61 2244.95 2385.57 0 0 0
108 2 2989.79 2943.58 2122.68 -1 0 0
109 2 2259.5 2223.78 2220.93 0 0 0
110 2 2124.37 2428.42 2010.06 0 0 0
111 2 2027.64 2862.26 2814.66 1 -1 -1
112 2 2964.72 2022.64 2385.73 -1 -1 0
113 2 2223.19 2946.46 2316.75 0 -1 0
114 2 2775.52 2476.59 2158.19 0 0 1
115 2 3005.62 2228.4 2945.73 -1 0 -1
116 2 2174.5 2235.64 2511.62 0 0 0
117 2 2359.94 2947.64 2211.19 0 -1 1
118 2 2010.18 2960.17 2603.85 0 -1 0
119 2 2334.37 2058.25 2097.27 0 0 0
120 2 2994.76 3026.78 2333.8 -1 -1 0
121 2 3002.27 2203.5 2420.71 -1 0 0
122 2 2075.56 1950.65 3028.94 0 0 -1
123 2 2207.37 2255.36 2002.4 0 0 0
124 2 2142.96 2072.9 2003.81 0 0 0
125 2 2015.26 2947.57 2029.38 0 -1 0
126 2 3047.51 2264.5 2118.69 -1 0 0
127 2 3010.85 2345.23 2414.3 -1 0 0
128 2 2141.98 1984.71 2151.87 0 0 0
129 2 1996.04 2336.07 2956.81 0 0 -1
130 2 1977.15 2054.13 2473.52 0 0 0
131 2 2063.18 1988.14 2544.63 0 0 -1
132 2 2073.66 2475.27 2972.43 0 0 -1
133 2 2311.21 2134.6 2118.45 0 0 0
134 2 2050.4 2890.35 1980.65 1 -1 1
135 2 2149.77 2280.1 2166.84 0 0 0
136 2 3013.94 2467.81 2565.09 0 -1 -1
137 2 2707.59 2276.82 2606.38 0 1 0
138 2 2062.22 2207.12 2596.99 0 0 0
139 2 2919.03 2213.47 2279.43 -1 0 0
140 2 2715.21 2452.63 2105.71 -1 -1 0
141 2 2629.88 2220.09 2873.29 -1 0 0
142 2 1968.32 2422.28 1991.17 0 0 0
143 2 2253.93 2076.45 2098.73 0 0 0
144 2 1981.06 2196.68 2273.01 0 0 0
145 2 2308.82 2229.3 2707.44 0 0 0
146 2 2338.75 2403.83 2040.7 0 0 0
147 2 2018.53 2146.98 2211.43 0 0 0
148 2 2249.67 2077.17 3009.35 0 0 -1
149 2 2297.41 2069.01 2179.16 0 0 0
150 2 3000.27 2417.8 2630 -1 0 0
151 2 2431.4 2301.53 2230.5 0 0 -1
152 2 3008.44 2271.11 2468.88 -1 0 -1
153 2 2222.54 2002.07 2357.45 0 0 0
154 2 2220.26 2328.96 2048.78 0 0 0
155 2 2395.88 2026.55 2443.36 0 0 0
156 2 2964.18 2046.78 2142.32 -1 0 0
157 2 2892.73 2022.4 2178.96 0 0 0
158 2 2541.33 1974.06 2154.38 0 0 0
159 2 2093.18 2940.01 2204.24 0 -1 0
160 2 2132.26 2417.02 2953.05 1 0 0
161 2 2934.38 2231.39 3010.39 -1 0 -1
162 2 2342.3 2052.39 2312.95 0 0 0
163 2 2879.29 2963.37 2291.82 0 0 0
164 2 2690.81 2114.07 2402.29 0 0 0
165 2 2258.77 2138.41 2043.49 0 0 0
166 2 2947.1 2357.7 2044.84 0 0 0
167 2 2202.51 2024.69 2525.55 0 0 0
168 2 2120.35 2148.72 2028.91 0 0 0
169 2 2023.75 2007.04 1974.17 0 0 0
170 2 2756.67 2841.3 2540.06 -1 0 0
171 2 2128.28 2830.32 2289.55 0 -1 0
172 2 1982.31 2217.09 2055.56 0 0 0
173 2 2199.98 2445.92 2037.25 0 0 0
174 2 2972.33 2158.91 2483.87 -1 0 -1
175 2 2013.83 2165.79 1988.33 0 0 0
176 2 2162.95 2464.57 2481.83 0 0 0
177 2 2984.16 2769.62 2378.41 0 -1 0
178 2 2048.34 2410.31 1985.47 0 0 0
179 2 2269.8 2335.78 2240.44 0 0 0
180 2 2088.16 2984.57 2037.54 0 -1 0
181 2 2921.95 2938.17 2727.65 -1 -1 -1
182 2 2357.87 1981.74 2076.64 0 0 0
183 2 2965.36 2021.16 2221.83 -1 0 0
184 2 2024.29 2261.23 2246.6 0 0 0
185 2 2258.35 1952.56 2411.5 0 0 0
186 2 2134.29 2455.74 2088.41 0 0 0
187 2 2967.35 2276.42 2396.83 -1 0 0
188 2 3025.33 2096.98 2006.23 -1 0 0
189 2 2493.02 2232.17 2363.2 0 0 -1
190 2 2524.84 2040.22 2109.77 0 0 0
191 2 2110.42 2175.86 2991.09 0 0 -1
192 2 1991.88 2302.21 2176.78 0 0 0
193 2 2184.67 2325.81 2507.82 0 1 0
194 2 2163.31 2496.86 1982.22 0 0 0
195 2 1974.96 2449.71 2069.35 0 0 0
196 2 2458.39 2032.74 2160.08 0 0 0
197 2 2072.76 2284.18 2044.47 0 0 0
198 2 2492.68 2162.06 2195.35 0 0 0
199 2 2140.6 2173.97 2264.42 0 0 0
200 2 1973.41 2479.52 2156.05 0 0 0
201 2 2682.5 2743.43 2750.77 0 -1 -1
202 2 1955.16 2336.64 2483.86 0 0 0
203 2 2093.99 2961.85 2119.76 0 -1 0
204 2 2501.48 2164.19 2642.79 0 0 0
205 2 3003.41 2019.02 2459.83 -1 0 0
206 2 2038.01 2255.5 2533.72 0 0 0
207 2 2785.54 2691.26 2613.3 0 0 0
208 2 2021.12 2118.71 2443.11 0 0 0
209 2 2945.16 2895.92 2268.03 1 -2 2
210 2 2350.19 2310.05 2237.98 0 0 0
211 2 2402.25 1975.64 2147.33 0 0 0
212 2 2412.68 2736.98 2730.78 -1 -2 -1
213 2 2331.17 2022.35 2236.83 0 0 0
214 2 2284.45 2911.63 2185.24 0 -1 0
215 2 2524.86 2162.84 2118.1 0 0 0
216 2 2218.35 3017.94 2966.31 0 -1 -1
217 2 2935.38 3049.92 2203.56 -1 -1 0
218 2 2502.22 2205.49 1972.86 1 1 0
219 2 2162.15 3007.38 2127.48 0 -1 0
220 2 2966.61 2270.81 2123.72 -1 0 0
221 2 2780.36 2086.11 2268.19 1 0 -1
222 2 1977.07 2083.97 2242.5 0 0 0
223 2 2580.95 2821.45 2644.1 0 -2 -1
224 2 2139.62 2937.04 2582.92 0 -1 -1
225 2 2240.44 2011.98 2156.56 0 0 1
226 2 2337.59 2119.95 2040.07 0 0 0
227 2 2199.25 2282.24 2964.22 0 0 0
228 2 2450.84 2302.41 2044.06 0 0 0
229 2 2068.28 2048.68 2028.6 0 0 0
230 2 2262.53 2225.68 2950.51 0 0 -1
231 2 2155.7 2013.63 2418.82 0 0 0
232 2 2297.58 2345.39 2420.37 0 0 0
233 2 2166.68 1990.15 1984.61 0 0 0
234 2 2390.59 2116.43 2116.37 0 0 0
235 2 2176.98 2269.44 2083.6 0 0 0
236 2 2076.33 2113.18 1968.46 0 0 0
237 2 2896.47 2191.34 1971.65 -1 0 0
238 2 1983.08 2124.91 2517.17 0 0 0
239 2 1984.17 2294.47 3031.62 0 0 -1
240 2 2479.55 2232.62 2234.63 0 0 0
241 2 2845.27 2562.92 3038.86 -1 0 -1
242 2 2384.94 2058.84 2995.27 0 0 0
243 2 2650.77 2787.37 2613.75 0 0 0
244 2 2204.07 2145.43 2436.22 0 0 0
245 2 2057.32 2279.83 2937.77 0 0 -1
246 2 2333.33 1973.52 2436.46 0 0 -1
247 2 2159.86 2380.79 2067.79 0 0 0
248 2 2920.21 2238.34 2188.48 -1 0 0
249 2 3024.22 2898.99 2313.48 -1 -1 0
250 2 2806.74 2320.26 3003.45 -1 1 -1
251 2 2260.1 2966.61 3017.43 0 -1 0
252 2 2059.63 2114.06 2368.13 0 0 0
253 2 2951.69 2408.38 3012.99 0 0 -2
254 2 2470.92 1958.28 2193.86 0 0 0
255 2 2008.62 2900.43 2315.42 1 0 0
256 2 2947.03 2326.3 2464.89 0 1 -1
257 2 2273.14 1968.4 2219.57 0 0 0
258 2 2105.38 2557.01 1969.89 0 0 0
259 2 2235.19 2241.95 3026.53 0 0 -1
260 2 2133.47 2340.84 2986.42 0 0 -1
261 2 2351.69 2181.7 1986.84 0 0 0
262 2 2056.46 2470.18 2153.71 0 0 0
263 2 2276.58 2100.43 2410.91 0 0 0
264 2 2067.7 1968.22 2786.86 0 0 -1
265 2 2091.69 2162.97 2111.04 0 0 0
266 2 2376.97 2051.61 2169.36 0 0 0
267 2 2127.99 2061.17 2356.22 0 0 0
268 2 2286.12 2384.31 3037.17 0 0 -1
269 2 2497.89 2558.7 2325.83 0 0 0
270 2 2628.01 2017.28 2794.92 0 -1 -1
271 2 2290.42 2940.38 2264.21 0 -1 0
272 2 3009.16 2087.06 2507.72 -1 0 0
273 2 2044.76 2321.42 2482.39 0 0 0
274 2 2148.55 1984.85 2329.68 0 0 0
275 2 2248.4 2428.09 2196.26 0 0 0
276 2 2590.34 2055.97 2732.62 -1 1 0
277 2 2046.97 2124.56 2052 0 0 0
278 2 2802.61 2536.74 2212.23 0 0 0
279 2 2211.55 2471.72 2115.29 0 0 0
280 2 1959.57 2944.65 2162.6 0 -1 0
281 2 1973.52 3013.85 2453.62 0 -1 -1
282 2 2904.21 2327.31 2392.94 0 0 0
283 2 2961.21 2144.81 1988.76 -1 0 0
284 2 3035.48 2183.78 2124.81 -1 0 0
285 2 2101.99 2527.87 2109.94 0 -1 0
286 2 2425.87 2364.24 3018.26 -1 0 -1
287 2 2241.52 2187.37 2497.17 0 0 0
288 2 2276.85 2000.38 2079.77 0 0 0
289 2 2627.94 2312.29 2070.05 0 0 1
290 2 2930.39 2347.11 2267.79 -1 0 0
291 2 2047.66 1995.63 2456.87 0 0 0
292 2 2134.06 2148.53 2845.46 1 0 0
293 2 3001.16 2204.35 2276.3 -1 0 0
294 2 2915.79 1960.91 2360.83 0 0 0
295 2 2134.93 2298.24 2913.18 0 0 -1
296 2 2021.25 3028.62 2006.82 0 -1 0
297 2 2005.97 2405.45 2142.43 0 0 0
298 2 1973.25 2212.58 3034 0 0 -1
299 2 1964.82 2969.41 2310.07 0 -1 0
300 2 2067.21 2253.19 2316.65 0 0 0
301 2 2159.38 2097.19 2239.73 0 0 0
302 2 2029.68 2257.11 2391.79 0 0 0
303 2 2357.74 2257.21 2022.28 0 0 0
304 2 2331.03 2215.4 2469.36 0 -1 0
305 2 2879.34 2821.84 2600.49 0 -1 0
306 2 2924.02 2284.03 2322.96 -1 0 0
307 2 2269.79 2180.09 2882.35 -1 0 -1
308 2 2963.05 1997.65 2302.65 -1 0 0
309 2 2382.79 2271.68 2169.63 0 0 0
310 2 2525.19 2971.27 2349.55 -1 -1 0
311 2 2273.32 2714.32 2246.62 0 0 -1
312 2 2184.28 2936.04 3031.05 0 -1 -1
313 2 2228.14 2401.81 2274.34 0 0 0
314 2 2209.61 2034.88 2040.77 0 0 0
315 2 2226.17 2442.6 1959.22 0 0 0
316 2 2373 2104.54 1964.18 0 0 0
317 2 2480.12 2052.43 2042.1 0 0 0
318 2 2074.63 2296.4 2595.27 0 0 0
319 2 1968.38 2473.04 2386.87 0 0 0
320 2 2103.55 2178.43 2338.57 0 0 0
321 2 2707.04 1961.3 2613.22 -1 0 -1
322 2 2121.03 2062.59 2176.91 0 0 0
323 2 2050.7 2463.32 2385.35 0 0 0
324 2 2073.88 1981.65 2625.99 0 0 -1
325 2 2029.79 2957.72 2259.15 0 -1 0
326 2 3034.23 2046.64 2185.52 -1 0 0
327 2 2015.96 2050.95 2397.14 0 0 0
328 2 2216.86 2017.07 2605.71 0 0 0
329 2 2910.02 3019.93 2718.74 0 -1 0
330 2 1978.68 2604.53 2062.21 0 0 0
331 2 2955.61 2427.18 2092.14 -1 0 0
332 2 2587.35 2289.99 2984.58 0 -1 0
333 2 2002.87 2400.77 2357.91 0 0 0
334 2 2283.55 2061.75 2022.04 0 0 0
335 2 2191.85 2883.34 2547.68 0 0 -1
336 2 2202.59 2078.8 2383.03 0 0 0
337 2 2383.51 2243.42 3045.78 0 0 -1
338 2 2479.14 2414.87 2471.33 0 -1 -1
339 2 2137.06 3027.38 2524.44 0 -1 -1
340 2 2424.99 2168.56 2377.33 0 0 0
341 2 2029.42 2536.58 3043.05 0 0 -1
342 2 2512.89 2313.5 2246.98 0 0 0
343 2 3012.6 2340.23 2269.39 -1 0 0
344 2 2192.68 2337.15 2128.87 0 0 0
345 2 2979.99 2310.41 1982.09 -1 0 0
346 2 2270.11 2419.41 2444.64 0 -1 0
347 2 2306.6 2266.8 1955.48 -1 0 0
348 2 2087.97 2397.61 2128.19 0 0 0
349 2 2158.24 2947.62 2061.44 0 -1 0
350 2 2316.02 2340.52 2306.86 0 0 0
351 2 2117.06 2127.15 2923.66 0 0 0
352 2 2052.96 2062.76 2506.48 0 0 0
353 2 3019.88 2011.91 2540.66 -1 0 0
354 2 2117.85 2032.91 2269.24 0 0 0
355 2 2086.52 2388.47 2355.35 0 0 0
356 2 2018.73 2125.51 2297.51 0 0 0
357 2 2870.29 2376.53 2508.02 0 0 0
358 2 2227.87 2159.5 3031.33 0 0 -1
359 2 2076.87 2023.17 2121.19 0 0 0
360 2 2688.56 2417.46 2176.82 0 0 0
361 2 1953.17 2046.28 3043.01 0 0 -1
362 2 2253.51 2898.83 2388.41 0 0 0
363 2 2178.8 3040.06 2393.02 0 -1 0
364 2 2341.27 2870.37 2231.47 0 -1 0
365 2 2525.09 2320.68 2333.86 0 0 0
366 2 2934.58 2271.44 2938.05 0 0 -1
367 2 2770.16 2176.59 2833.17 0 0 0
368 2 1964.21 2515.09 2616.39 0 -1 0
369 2 2209.77 2233.17 2436.12 0 0 0
370 2 2937.43 2275.88 2046.24 -1 0 0
371 2 2234.39 2096.26 2497.09 0 0 0
372 2 2649.34 2227.83 2502.17 0 0 0
373 2 2676.39 2379.17 2093.77 0 0 1
374 2 2428.23 2324.08 2122.09 0 0 0
375 2 2522.98 2461.05 2760.76 -1 0 0
376 2 2993.47 2917.76 2201.38 0 0 0
377 2 2977.54 2352.28 2120.06 -1 0 0
378 2 2204.4 2273.69 2727.79 1 0 -1
379 2 2141.94 2451.83 2853.14 0 0 -1
380 2 2654.18 2085.61 2980.2 -1 0 -1
381 2 2433.1 2159.22 1969.45 0 0 0
382 2 2673.32 2045.39 2731.4 0 0 0
383 2 2738.32 2491.82 2035.65 -1 -1 -1
384 2 2259.85 2260.7 2635.56 0 0 0
385 2 2196.75 2136.3 2643.32 0 -1 0
386 2 2301.49 2191.67 3018.22 0 0 -1
387 2 2201.99 3045.42 2189.52 0 -1 0
388 2 2058.74 2075.98 2230.5 0 0 0
389 2 2078.1 2882.06 2549.57 0 -1 -1
390 2 2210.47 2859.42 2176.47 0 -1 1
391 2 2031.14 1985.55 2065.55 0 0 0
392 2 2902.85 2321.56 2108.33 -1 0 0
393 2 1959.46 2372.05 2206.83 0 0 0
394 2 2017.93 2464.56 2462.14 0 1 0
395 2 2036.22 1959.67 2150.61 0 0 0
396 2 2203.23 2868.7 2298.12 0 -1 0
397 2 2218.1 2087.34 2181.02 0 0 0
398 2 2917.55 2941.41 2083.17 -1 -1 1
399 2 1994.63 2776 2091.9 0 -1 0
400 2 2761.13 2976.27 2044.83 -1 -1 0
401 2 1972.04 3049.87 2289.02 0 -1 0
402 2 1953.45 1969.57 1978.39 0 0 0
403 2 2176.51 2194.59 2372.85 0 0 0
404 2 2054.67 2102.31 2148.94 0 0 0
405 2 2013.06 2418.55 2955.21 0 0 -1
406 2 3016.74 2155.12 2554.76 0 0 0
407 2 2764.58 2077.93 2825.83 -1 0 0
408 2 2460.3 2937 2625.16 0 -1 0
409 2 1973.11 2109.54 2154.82 0 0 0
410 2 1960.01 2129.29 3037.68 1 1 0
411 2 2183.55 2294.03 2648.97 0 0 0
412 2 2829.77 2018.92 2125.31 -1 1 1
413 2 2147.29 2284.99 2447.25 0 0 0
414 2 2952.33 2929.52 2936.18 -1 -1 -1
415 2 2111.15 2087.7 2086.73 0 0 0
416 2 2012.57 1983.51 2350.47 0 0 0
417 2 2955.97 2168.49 2217.99 -1 0 0
418 2 2372.75 2040.91 2914.59 0 0 0
419 2 2094.78 2916.62 3010.55 1 0 -1
420 2 2521.54 2243.91 3000.31 0 0 0
421 2 2293.61 2992.66 2199.28 0 -1 0
422 2 1959.24 2407.24 2285.14 0 0 0
423 2 2125.8 2387.93 2281 0 0 0
424 2 2908.86 1984.58 2962.02 -1 1 -1
425 2 2393.01 2761.87 2807.59 0 -1 -1
426 2 2943.16 2505.18 2051.92 0 0 0
427 2 2039.59 2198.23 2937.38 0 0 0
428 2 2307.66 1984.94 2003.35 0 0 0
429 2 2987.12 2947.6 1965.12 -2 0 1
430 2 1990.62 2294.14 2885.7 0 0 -1
431 2 2071.32 2292.09 2173.08 0 0 0
432 2 2215.81 2920.52 2233.14 0 -1 0
433 2 2293.4 2125.87 1968.52 0 0 0
434 2 2879.97 1985.98 2252.29 -1 0 0
435 2 2914.56 2392.54 2155.49 -1 0 0
436 2 3012.4 2308.18 2057.49 -1 0 0
437 2 2160.98 2081.18 2464.53 0 0 0
438 2 1999.89 2263.32 2606.63 0 1 0
439 2 2192.09 2358.11 2932.09 0 0 -1
440 2 2139.5 2324.55 2741.07 0 0 -1
441 2 2123.33 2257.94 2985.42 0 0 -1
442 2 2191.41 2345.36 2321.23 0 0 0
443 2 2234.2 2026.93 2438.87 0 0 0
444 2 2098.07 2109.42 2293.85 0 0 0
445 2 2160.62 2215.6 3046.36 0 0 -1
446 2 2763.49 1975.18 2143.42 1 1 0
447 2 2189.48 2052.03 2301.3 0 0 0
448 2 2995.53 2094.02 2242.26 -1 0 0
449 2 2981.26 2545.31 2803.71 -1 0 0
450 2 2046.79 2238.85 3009.55 0 0 -1
451 2 2416.67 2103.04 2036.28 0 0 0
452 2 2074.91 2248.85 2460.21 0 0 0
453 2 2134.34 2011.73 2060.86 0 0 0
454 2 2367.01 1972.89 2291.15 0 0 0
455 2 2090.62 2881.96 2143.8 0 -1 0
456 2 2262.89 2227.49 2350.36 0 0 0
457 2 2149.12 2930.92 2284.55 0 -1 -1
458 2 2274.5 2052.93 2555.88 0 0 1
459 2 2044.84 2085.52 2939.99 1 0 -1
460 2 2394.05 2659.42 2535.12 0 -1 0
461 2 2374.88 2000.09 2368.08 -1 0 0
462 2 2059.4 2132.83 2553.46 0 0 0
463 2 2086.32 2902.52 2061.56 0 -1 0
464 2 2410.99 2246.7 2354.92 0 0 0
465 2 2490.77 2074.15 2322.52 0 0 0
466 2 2314.96 2401.41 2361.93 0 0 -1
467 2 2536.69 1998.82 2928.97 0 1 0
468 2 3045.5 2267.85 2248.3 -1 0 0
469 2 2455.15 2123.46 2265.2 0 0 0
470 2 2012.39 2954.64 2385.83 0 -1 0
471 2 3001.32 2229.38 2187.49 -1 0 0
472 2 2924.61 2095.88 2197.02 -1 0 0
473 2 2270.14 2202.33 1992.13 0 0 0
474 2 3045.66 2889.54 2089.65 -1 0 1
475 2 2020.5 2923.44 2109.65 0 -1 0
476 2 1980.42 2222.01 2188.09 0 0 0
477 2 2368.01 2160.77 2267.8 0 0 0
478 2 2995.33 2069.03 2323.94 -1 0 0
479 2 2027.85 3005.28 2090.37 0 -1 0
480 2 2130.43 2244.02 2840.07 0 0 0
481 2 2342.21 2206.62 2338.84 0 0 0
482 2 2286.05 2877.12 2316.35 0 0 0
483 2 2717.67 2943.3 1981.62 0 -1 0
484 2 2934.83 1987.12 3048.41 -1 1 -1
485 2 2913.3 2421.06 2234.38 0 1 0
486 2 2199.56 2364.19 2207.87 0 0 0
487 2 2058.07 3019.63 2501.8 0 -1 0
488 2 2222.34 2365.98 2569.11 0 0 -2
489 2 3029.2 2489.13 2297.84 -1 1 0
490 2 2738.06 2378.87 2506.06 0 1 0
491 2 2075.8 1969.06 2297.83 0 0 0
492 2 2906.69 2842.79 2925.88 0 0 -1
493 2 2892.05 2238.6 2108.61 -1 0 0
494 2 2295.6 2343.79 2075.38 0 0 0
495 2 2076.68 2890.89 2268.26 0 -1 0
496 2 2146.26 2311.79 2020.16 0 0 0
497 2 2093.42 2966.01 2420.31 0 -1 0
498 2 2119.63 2830.03 2769.63 -1 -1 -1
499 2 2398.33 2219.87 2942.11 0 0 0
500 2 2225.16 2290.98 2190.14 0 0 0
501 2 2220.73 3050.05 2556.05 0 -1 -1
502 2 2628.45 2033.89 2113.36 0 0 0
503 2 2887.34 2165.6 2170.38 -1 0 0
504 2 2263.37 2070.76 2326.76 0 0 0
505 2 1985.93 2263.61 2321.1 0 0 0
506 2 2100.51 2199.81 2523.8 0 0 0
507 2 2308.8 2034.65 2967.28 0 0 -1
508 2 2164.22 2187.48 2087.91 0 0 0
509 2 1976.07 2061.42 2324.79 0 0 0
510 2 2325.58 2909.77 2827.46 0 0 0
511 2 2007.29 2469.79 2313.35 0 -1 0
512 2 2089.38 2380.24 2811.61 0 0 -1
513 2 2321.08 1994.55 2150.53 0 0 0
514 2 2999.51 1949.9 2413.25 0 1 -1
515 2 2279.69 2274.9 2033.44 0 0 0
516 2 2199.1 2692.05 1976.75 0 0 1
517 2 2303.07 2281.89 2177.85 0 0 0
518 2 2749.2 2008.89 2257.64 0 1 0
519 2 1985.27 1976.4 2506.58 -1 0 -1
520 2 2523.76 3009.02 2532.32 0 -1 -1
521 2 2433.15 2229.69 2010.43 -1 0 0
522 2 2893.06 2241.06 2386.24 -1 0 0
523 2 2050.39 2239.88 2865.41 0 0 0
524 2 2003.32 2328.02 2553.07 0 -1 0
525 2 2033.44 3007.78 2326.47 0 -1 0
526 2 3002 1975.98 2162.89 -1 0 0
527 2 2288.08 2210.03 2142.25 0 0 0
528 2 3044.71 2199.4 2491.3 -1 0 0
529 2 2262.01 2852.99 2241.15 0 -1 0
530 2 3030.39 2949.53 2381.86 -1 0 0
531 2 2036.71 2334.48 2112.17 0 0 0
532 2 2851.99 2095.21 2148.41 0 0 0
533 2 2473.2 2160.42 2051.8 0 0 0
534 2 2516.97 2085.84 2179.01 0 0 0
535 2 2231.75 2904.99 2111.59 0 -1 0
536 2 2994.05 2087.65 3001.66 -1 0 -1
537 2 1966.9 2997.51 2225.07 0 -1 0
538 2 2654.13 2806.29 2334.17 0 -1 0
539 2 2951.29 2075.93 2038.2 -1 0 0
540 2 2814.33 2141.47 2208.01 0 0 0
541 2 2679.77 2945.24 3008.71 -1 0 -1
542 2 2139.34 2515.33 3006.01 0 0 -1
543 2 3003.05 1949.37 2247.53 -1 0 0
544 2 2129.85 2375.75 2882.31 0 0 -1
545 2 2396.63 2383.22 2352.58 -1 -1 -1
546 2 2388.54 2241.69 2272.52 0 0 0
547 2 2470.02 2100.69 2111.13 0 0 0
548 2 2319.88 2128.07 2339.21 0 0 0
549 2 2283.65 2264.45 2422.04 0 0 0
550 2 2806.65 2994.62 2136.98 0 -1 0
551 2 1952.75 2336.13 2344.26 0 0 0
552 2 2399.08 2110.54 2325.19 0 0 0
553 2 2061.38 2188.19 2267.6 0 0 0
554 2 3048.52 2267.72 2395.14 -1 0 0
555 2 2167.95 2878.5 2637.9 -1 0 0
556 2 2241.81 2016.88 1965.04 0 0 0
557 2 1995.67 3021.65 3029.98 1 0 -1
558 2 2215.69 2813.02 2658.64 -1 -1 -1
559 2 2858.29 2093.74 2315.22 0 1 0
560 2 2209.16 2975.31 1998.5 0 -1 0
561 2 2369.62 2846.65 2058.18 0 -1 1
562 2 2409.45 2001.66 2226.55 0 0 0
563 2 2239.63 2943.55 2853.48 -1 0 0
564 2 2168.88 2149.49 2512.24 0 0 0
565 2 2302.37 2640.7 2271.87 0 0 0
566 2 2360.3 2321.03 2935.69 0 0 -1
567 2 2116.13 2322.71 2105.78 0 0 0
568 2 2923.17 2895.63 1974.46 0 0 0
569 2 2169.11 2127.82 2325.96 0 0 0
570 2 3021.5 2411.57 2359.38 -1 0 -1
571 2 2855.06 3047.47 2094.93 -2 -1 0
572 2 2994.03 2022.56 1993.09 -1 0 0
573 2 2547.52 1979.65 2751.01 0 0 -1
574 2 2537.61 2785.42 2219.39 0 0 0
575 2 2321.55 3039.64 2358.71 0 -1 0
576 2 2623.13 2322.22 2594.02 0 0 0
577 2 2338.24 2285.83 2364.52 0 0 0
578 2 2738.35 2642.23 2340.79 0 0 1
579 2 2834.08 2301.49 2515.09 0 0 0
580 2 2275.73 2146.92 2193.84 0 0 0
581 2 2182.43 2109.59 2971.99 0 0 -1
582 2 2213.73 1983.64 2906.9 0 0 0
583 2 2460.95 2254.61 2157.32 0 0 0
584 2 2005.76 2437.86 2220.83 0 0 0
585 2 2059.49 2210.69 2180.3 0 0 0
586 2 2124 2424.17 2421.21 0 0 0
587 2 3028.92 2074.77 2096.66 -1 0 0
588 2 2034.77 2329.22 1986.75 0 0 0
589 2 2022.46 2191.21 2344.47 0 0 0
590 2 2350.67 2156.8 2411.79 0 0 0
591 2 2929.6 2969.92 2224.07 -1 -1 0
592 2 2178.47 2050.09 2118.18 0 0 0
593 2 2794.31 1991.79 2832 -1 0 -1
594 2 2270.84 1984.66 2499.09 0 0 0
595 2 2158.51 2956.23 2369.56 0 -1 0
596 2 2120.94 2355.06 2191.31 0 0 0
597 2 3009.99 2264.4 3020.71 -1 0 -1
598 2 2884.77 2144.81 2251.79 -1 0 0
599 2 2232.24 2977 2399.36 0 0 0
600 2 2352.73 3047.28 2210.25 0 -1 0
601 2 2040.87 3029.73 2407.92 0 -1 0
602 2 2567.58 2252.8 2099.05 0 0 0
603 2 2941.56 2420.02 2477.96 -1 1 0
604 2 2469.49 2661.83 2571.3 0 -1 -1
605 2 2382.14 2381.76 2266.15 -1 -1 0
606 2 2157.09 2126.29 2142.79 0 0 0
607 2 2334.38 2255.98 2979.29 0 0 -1
608 2 2327.35 2477.92 2331.5 -1 0 -1
609 2 2604.39 2559.72 2144.06 0 -1 -1
610 2 1961.02 3046.9 2059.82 1 -1 0
611 2 2591.26 2991.79 2487.24 0 -1 0
612 2 2230.22 2382 2383.61 0 0 0
613 2 2469.86 1978.25 2098.49 0 0 0
614 2 2061.36 2203.82 2046.83 0 0 0
615 2 2057.68 2321.49 3009.33 0 0 -1
616 2 2266.75 2354.35 2157.85 0 0 0
617 2 2017.03 2012.34 2260.33 0 0 0
618 2 2252.14 2285.16 2112.01 0 0 0
619 2 1992.65 2332.52 2271.4 0 0 0
620 2 2571.95 2143.7 2203.97 0 1 1
621 2 2197.64 2971.88 2533.48 0 -1 0
622 2 2218.59 2095.26 1982.81 0 0 0
623 2 3036.24 2391.38 2949.38 -1 0 -1
624 2 2415.3 2186.2 2204.92 0 0 0
625 2 2209.27 2225.39 2146.17 0 0 0
626 2 2659.71 3000.83 2194.91 0 0 1
627 2 2927.09 2095.18 2362.36 -1 0 0
628 2 3032.38 2431.81 3020.93 -1 0 0
629 2 2413.16 3022.37 2079.41 0 0 0
630 2 2801.36 2793.28 2592.99 0 0 0
631 2 1983.05 2195.25 2418.4 0 0 0
632 2 2309.64 2102.8 2255.88 0 0 0
633 2 2154.92 2399.43 2532.51 0 0 0
634 2 2019.97 2485.05 2005.71 0 0 0
635 2 2065.52 2181.91 2413.9 0 0 0
636 2 2192.59 2390.93 2457.56 0 0 0
637 2 2186.63 2199.98 2970.22 0 0 -1
638 2 2308.08 3020.03 2276.89 0 -1 0
639 2 2448.06 2211.9 3007.9 0 0 0
640 2 2221.37 2316.86 2433.39 0 0 0
641 2 2233.83 1956.78 2022.86 0 0 0
642 2 2200.54 1972.13 2095.63 0 0 0
643 2 1951.04 2863.75 2169.09 0 0 0
644 2 2387.62 2080.12 2248.11 0 0 0
645 2 2961.23 2833.77 2609.38 -1 -1 0
646 2 2238.24 2061.71 2929.45 0 0 0
647 2 2273.93 2183.33 2419.72 0 0 0
648 2 2312.43 2412.24 2120.01 0 0 0
649 2 2097.29 2503.37 2031.73 0 0 0
650 2 2056.23 2045.82 2323.16 0 0 0
651 2 2393.6 2177.46 2060.34 0 0 0
652 2 2205.53 2188.17 2828.74 0 0 0
653 2 2316.62 2048.25 3048.94 0 0 -1
654 2 2106.08 2088.97 2996.06 0 0 -1
655 2 2628.34 2771 2219.84 0 0 0
656 2 2184.75 2278.32 2370.91 0 0 0
657 2 2080.28 2999.41 2580.71 0 -1 0
658 2 2038.88 2661.03 2076.45 0 0 0
659 2 2085.96 2194.85 1967.21 0 0 0
660 2 2026.28 2188.45 2487.54 0 0 0
661 2 2967.58 2241.86 2534.44 0 0 -1
662 2 2154.78 2351.37 2396.9 0 0 0
663 2 2011.21 1992.55 2994.22 -1 1 -1
664 2 2473.17 2048.15 2240.14 0 0 0
665 2 2925.57 1995.77 2029.42 -1 1 0
666 2 2197.6 2161.99 2206.31 0 0 0
667 2 2289.08 2178.56 2282.58 0 0 0
668 2 2337.28 2871.71 2440.66 -1 -1 1
669 2 2584.36 2787.06 2288.5 0 0 1
670 2 2113.56 3047.55 2445.26 0 -1 0
671 2 2027.01 2951.77 2468.48 0 -1 -2
672 2 2928.96 2194.36 2048.96 -1 0 0
673 2 2166.85 2986.45 2456.95 0 0 0
674 2 2945.78 2315.26 3008.19 -1 0 -1
675 2 2083.57 2942.48 2334.67 0 -1 0
676 2 2710.11 2015.53 2837.84 0 0 -1
677 2 2106.86 3020.04 2358.55 0 -1 0
678 2 2162.52 2033.5 2947.76 0 0 -1
679 2 2173.85 2050.19 3028.82 0 0 -1
680 2 1969.58 1975.58 2206.82 0 0 0
681 2 2392.63 2313.78 2309.63 0 0 0
682 2 2366.95 2194.41 2137.4 0 0 0
683 2 2074.57 2323.98 2266.74 0 0 0
684 2 2933.51 2792.32 2986.63 -1 0 -1
685 2 2414.48 2577.93 2432.97 0 0 0
686 2 2231.52 2151.15 2122.23 0 0 0
687 2 2523.51 2168.72 2272.06 0 0 0
688 2 2930.18 3027.05 2283.92 -1 -1 0
689 2 2135.99 2484.31 2170.09 0 0 0
690 2 2898.53 3008.74 2992.65 0 -1 -1
691 2 2977.52 2412.77 2287.37 -1 0 0
692 2 2863.22 2116.41 1950.28 0 0 0
693 2 2126.74 2009.59 2496.91 0 0 0
694 2 1949.39 2990.26 1997.91 0 0 0
695 2 2374.24 2329.24 2059.65 0 0 0
696 2 2323.98 2298.88 2485.25 -1 -1 0
697 2 1965.5 2403.85 2432.53 1 -1 -1
698 2 2998.19 2135.52 2373.4 -1 0 0
699 2 2484.52 2741.26 2368.28 0 -1 0
700 2 1954.4 2341.32 1993.12 0 0 0
701 2 2134.11 2230.42 2023.92 0 0 0
702 2 2247.83 2271.21 2498.03 0 0 0
703 2 2192.27 1962.21 2472.95 0 0 0
704 2 2038.02 3036.22 2232.68 0 -1 0
705 2 2260.73 2354.48 2495.48 0 0 0
706 2 3023.79 2886.58 3026.27 0 0 -1
707 2 2085.48 1994.74 2382.91 0 0 0
708 2 2280.11 2222.7 2560.92 0 0 0
709 2 2075.07 2818.65 2077.35 1 0 0
710 2 1968.32 2137.56 2062.95 0 0 0
711 2 2845.19 2302.71 2340.77 0 0 0
712 2 2445.67 2178.78 2127.52 0 1 0
713 2 2116.39 2582.4 2049.34 0 0 1
714 2 1992.13 2460.58 2544.27 0 0 0
715 2 2012.15 2865.05 2050.22 1 0 1
716 2 2245.67 3025.63 2333.02 0 -1 0
717 2 2228.28 1999.72 2986.68 0 0 -1
718 2 2212.62 1975.98 2277.1 0 0 0
719 2 2163.72 2418.65 2348.59 0 0 0
720 2 2165.57 2907.14 2436.56 0 0 0
721 2 2339.08 2215.46 2212.07 0 0 0
722 2 3021.58 2390.74 2057.89 -1 0 0
723 2 2250.14 2448.19 2339.26 0 0 0
724 2 2978.85 2835.2 1971.37 -1 0 0
725 2 2861.28 2016.04 3023.12 0 1 0
726 2 2679.95 2372.02 2693.01 0 0 -1
727 2 2998.1 2998.21 2183.66 0 -1 0
728 2 2261.79 2391.29 2014.87 0 0 0
729 2 2971.76 2348.13 2340.92 -1 0 0
730 2 2048.34 2803.22 2551.23 0 -1 0
731 2 2147.5 2244.31 2306.71 0 0 0
732 2 2459.68 2359.77 2291.98 0 0 0
733 2 2357.71 2471.61 2082.18 0 0 1
734 2 2287.09 1993.15 2305.78 0 0 0
735 2 2040.35 2363.01 2203.62 0 0 0
736 2 2117.42 2314.28 2335.41 0 0 0
737 2 2929.87 1973.64 2123.38 -1 0 0
738 2 2117.98 2211.97 2915.7 0 0 -1
739 2 2140.42 1956.8 2244.3 0 0 0
740 2 3048.28 2906.58 2005.62 -1 0 1
741 2 2235.92 2396.74 2093.57 0 0 0
742 2 2193.47 2153.22 2902.51 0 0 -1
743 2 2080.44 1998.76 2205.98 0 0 0
744 2 2992.06 2122.05 2156.91 -1 0 0
745 2 2155.45 2312.48 2255.09 0 0 0
746 2 2236.92 2214.73 2068.31 0 0 0
747 2 2125.13 2925.08 1987.79 0 -1 0
748 2 2967.22 2090.32 2435.6 -1 0 0
749 2 2989 2142.66 2068.27 -1 0 0
750 2 1991.95 2297.05 2053.53 0 0 0
751 2 2046.97 2552.66 2668.48 1 0 0
752 2 2888.03 2127.8 2027.95 0 0 0
753 2 2611.3 2623.62 2390.49 0 0 1
754 2 2131.75 2129.48 2401.83 0 0 0
755 2 2230.81 2120.5 2270.22 0 0 0
756 2 2199.62 2894.17 2013.56 0 -1 0
757 2 3044.84 2260.55 1995.72 -1 0 0
758 2 1965.52 3023.22 2372.69 0 -1 0
759 2 2185.58 2111.41 2063.98 0 0 0
760 2 2147.55 2954.72 2663.56 0 -1 0
761 2 2025.65 2253.14 2116.66 0 0 0
762 2 2180.62 2237.19 2230.76 0 0 0
763 2 2888.41 2167.53 2341.6 -1 0 0
764 2 2087.97 2427.9 2218.44 0 0 0
765 2 2211.55 2281.32 2571.59 -1 1 0
766 2 2254.82 2535.02 2085.66 -1 0 0
767 2 2328.76 2175.81 2941.43 0 0 -1
768 2 3003.66 3022.73 3036.61 -1 -1 0
769 2 2035.5 2325.71 2340.95 0 0 0
770 2 2315.22 2196.77 2062.11 0 0 0
771 2 3012.49 2310.36 2181.2 -1 0 0
772 2 2173.07 2296.88 3042.11 0 0 -1
773 2 2138.26 2195.91 2449.4 0 0 0
774 2 2466.81 2278.07 1952 0 0 0
775 2 3020.8 2811.22 2096.45 -1 0 0
776 2 1964.98 2002.72 2118.7 0 0 0
777 2 2080.74 2600.23 2728.2 1 0 0
778 2 2321.3 2336.34 1996.33 0 0 0
779 2 2954.87 2190.34 2129.27 0 0 0
780 2 2953.7 2955.18 2327.52 -1 -1 0
781 2 2029.29 2068.73 3018.9 0 0 -1
782 2 2194.33 2236.2 2895.57 0 0 -1
783 2 1997.6 2329.56 2414.17 0 0 0
784 2 3034.85 2020.85 2267.85 -1 0 0
785 2 2756 2688.27 2835.1 0 0 0
786 2 2080.73 2318.4 2409.25 0 0 0
787 2 2930.8 2319.35 2188.74 -1 0 0
788 2 2118.63 2844.49 2011.34 1 0 1
789 2 2079.18 2363.19 2544.79 0 -1 0
790 2 2628.57 3046.42 2641.22 1 0 0
791 2 2857.8 3039.66 2183.66 0 0 0
792 2 2619.74 2784.04 2406.47 0 -1 0
793 2 2072.59 2402.8 3008.94 0 0 -1
794 2 2750.23 2382.71 2132.72 0 0 0
795 2 2922.13 2915.84 2162.17 -1 -1 0
796 2 2013.55 2172.49 2123 0 0 0
797 2 2215.11 2043.13 2684.15 0 0 0
798 2 2898.6 2226.27 2877.43 0 1 -1
799 2 2063.47 2108.71 2862.96 0 0 -1
800 2 1996.78 2376.36 3029.28 0 0 -1
801 2 1987.61 2054.39 2558.87 0 0 0
802 2 2003.38 2085.09 1994.07 0 0 0
803 2 2047.97 2392.99 2428.48 0 0 0
804 2 2168.59 2078.63 2877.48 0 1 -1
805 2 2317.64 2051.75 2461.58 0 0 0
806 2 2434.77 2106.59 2186.44 0 0 0
807 2 2853.59 2071.77 2232.79 -1 0 0
808 2 2451.02 2974.65 2551.76 1 -1 -1
809 2 3013.21 2851.39 2245.26 -1 0 1
810 2 2360.27 2912.04 2300.35 0 0 0
811 2 2211.17 2195.74 2295.9 0 0 0
812 2 2934.53 2186.58 2941.41 -1 0 -1
813 2 3020.09 2309.46 2945.83 -1 0 -1
814 2 2576.14 2676.22 2444.14 0 -1 0
815 2 2097.83 2040.31 2895.69 0 0 -1
816 2 2969.59 2228.46 1984.47 -1 0 0
817 2 2137.63 2200.92 2168.61 0 0 0
818 2 3040.4 2130.65 2445.6 -1 0 0
819 2 2904.74 2278.54 1969.67 0 0 0
820 2 2161.71 2980.44 2219.04 0 -1 0
821 2 2921.4 2118.95 2109.23 -1 0 0
822 2 2194.55 2172.78 2006.24 0 0 1
823 2 2954.94 2140.62 2298.81 -1 0 0
824 2 2011.92 2393.19 2502.25 1 0 0