ITEM: TIMESTEP
313000
ITEM: NUMBER OF ATOMS
1000
ITEM: BOX BOUNDS pp pp pp
1.6990297348016795e+03 3.3009702651977850e+03
1.6990297348016795e+03 3.3009702651977850e+03
1.6990297348016795e+03 3.3009702651977850e+03
ITEM: ATOMS id type x y z ix iy iz
1 1 2697.19 2466.74 1788.29 -1 0 1
2 1 2211.4 1720.09 2587.38 0 0 0
3 1 3038.75 2555.45 2260.87 0 0 0
4 1 2326.43 1939.79 3022.16 0 -1 0
5 1 3130.89 2839.28 2642.77 -1 -1 1
6 1 2109.65 1986.2 3129.02 0 0 0
7 1 1927.75 2870.51 2753.07 0 -1 0
8 1 2276.66 1976.44 2481.84 0 0 1
9 1 2847.91 2879.4 2479.23 0 0 0
10 1 2751.13 2506.82 2599.73 0 0 0
11 1 2641.54 2246.7 2574.25 0 0 0
12 1 1768.41 2986.25 3254.7 0 0 0
13 1 2947.14 3200.15 3168.05 -1 0 -1
14 1 2304.3 2653.49 2765.58 0 0 -1
15 1 3006.64 2305.88 2192.17 0 0 0
16 1 2283.37 3295.19 2468.21 0 0 -1
17 1 2454.5 2783.28 2794.04 1 0 -1
18 1 2925 2393.21 2468.86 -1 1 0
19 1 2768.72 2071.74 1991.45 -1 0 0
20 1 1794.33 2881.06 2835.38 0 -1 0
21 1 2161.35 2507.15 2555.52 0 1 0
22 1 2622.07 2848.11 2674.18 2 -1 0
23 1 2768.2 2258.97 2639.19 0 0 1
24 1 2834.82 3100.86 2268.56 0 0 0
25 1 1975.8 2096.87 2715.03 -1 0 0
26 1 2811.34 2879.61 2809.44 0 0 0
27 1 2921.46 2426.86 2736.36 -1 0 1
28 1 2173.82 2466.22 2425.19 0 0 0
29 1 2549.63 2335.94 2610.58 0 0 -1
30 1 2713.97 3145.45 2775.99 0 0 0
31 1 1781.91 1913.25 2791 0 0 0
32 1 1898.3 2940.53 3028.24 0 0 -1
33 1 2284.57 2422.39 2947.17 0 0 0
34 1 2464.62 1716.86 2777.24 0 0 0
35 1 2154.02 2276.97 2422.72 0 0 -1
36 1 1827.27 2738.17 1757.25 0 -1 0
37 1 2020.28 2033.68 2065.48 0 0 0
38 1 2296.17 2848.15 2275.68 0 0 0
39 1 3006.27 2417.67 2776.89 -2 0 -1
40 1 2937.88 2482.2 2138.59 -1 -1 2
41 1 2108.16 2807.22 2045.48 0 0 -1
42 1 2802.35 2645.35 2188 0 -1 0
43 1 2455.03 2561.74 2174.78 0 -2 0
44 1 2851.83 3123.5 1965.17 0 -1 0
45 1 2472.16 2370.32 2719.14 0 0 0
46 1 2796.72 3218.27 2881.47 -1 -1 0
47 1 3117.46 3019.38 2287.28 -1 -1 -1
48 1 3002.67 2193.86 2716.17 0 0 -1
49 1 2788.62 2540.45 2322.22 -1 0 1
50 1 2893.13 1937.16 3068.31 -1 0 0
51 1 3053.7 1772.99 2300.41 -1 -1 1
52 1 3286.16 2528.16 3194.22 -1 0 -1
53 1 2926.41 2100.15 3124.76 -2 0 -1
54 1 3061.72 2327.66 2853.38 0 0 -1
55 1 2877.86 2880.73 2836.56 -2 0 -1
56 1 2935.96 2251.49 1908.93 0 0 0
57 1 2111.75 2515.45 3205.3 0 0 -1
58 1 2475.18 2592.45 3190.57 0 0 -1
59 1 2605.11 3117.01 2706.7 -1 -1 0
60 1 2155.5 2972.34 1843.96 -1 -1 1
61 1 2027.67 2725.2 2465.82 -1 0 0
62 1 2566.05 1745.61 2947.86 0 0 -1
63 1 2992.69 2280.92 2957.74 -1 0 0
64 1 2777 2597.1 3011.53 0 -1 -1
65 1 3012.49 2903.94 2681.01 -1 -1 -1
66 1 3046.89 2807.56 2522.81 -1 0 1
67 1 2495.22 2447.52 1922.47 0 0 0
68 1 2316.01 2835.93 3083.43 0 -1 -1
69 1 1777.5 2561.17 2734.46 0 0 0
70 1 1926.29 1790.77 3122.3 0 1 -1
71 1 2098.52 2644.42 2529.23 -1 0 -1
72 1 2681.7 2164.55 3277.13 0 0 -1
73 1 2614.83 1828.04 1711.42 0 1 1
74 1 2968.28 2668.86 2224.73 -1 0 -1
75 1 2111.53 2481.05 1901.18 0 0 1
76 1 1858.33 1908.96 2895.25 -1 0 0
77 1 2587.77 2492.35 3103.71 -1 -1 -1
78 1 1886 3268.69 1989.29 0 -1 0
79 1 2159.8 2378.92 2519.96 0 -1 0
80 1 2993.22 2421.83 2466.27 -1 0 0
81 1 3279.63 1997.45 2004.08 -1 0 0
82 1 2029.91 2287.52 3142.49 1 0 0
83 1 2483.3 2134.57 2662.54 -1 -1 -1
84 1 2099.53 3273.84 3186.86 1 0 -1
85 1 2501.45 2420.78 2454.6 0 -1 0
86 1 3157.3 2404.77 2781.45 -1 0 0
87 1 1930.08 2095.75 2838.52 0 -1 -1
88 1 1791.37 2717.83 2127.29 0 -1 0
89 1 2792.3 2769.58 1949.87 0 0 0
90 1 3199.16 3060.48 2354.56 -2 -1 0
91 1 1875.07 3196.8 2872.1 0 -1 -1
92 1 2091.73 2750.65 2486.09 0 -1 -1
93 1 2274.88 3143.38 2688.35 1 0 0
94 1 2291.29 2211.88 3146.45 0 0 -1
95 1 1947.81 2444.46 2803.18 -1 -1 -1
96 1 2724.43 2467.25 2067.4 -1 0 0
97 1 2333.28 2426.11 2114.07 0 -1 1
98 1 2665.34 2169.93 2896.42 -1 -1 0
99 1 2469 2805.5 2919.95 0 -1 -1
100 1 2702.36 2088.44 1785.71 -1 0 0
101 1 1777.38 2843.2 2386.56 0 -1 0
102 1 2305.91 1737.13 2649.27 -1 0 0
103 1 2817.94 2508.3 2154.07 -1 0 0
104 1 3215.73 2670.55 2446.58 0 -1 -1
105 1 3165.78 2979.54 2727.78 -1 0 0
106 1 3209.77 2080.14 2785.28 0 1 -1
107 1 2724.44 2232.35 2453.94 -1 -2 0
108 1 3119.41 3032.08 1840.61 -1 0 -1
109 1 2292.06 2527.95 2423.85 -1 -1 0
110 1 2720.4 2710.34 1834.04 0 -1 0
111 1 3204.01 1699.41 3208.83 -1 0 -1
112 1 2630.76 1856.63 2913.83 0 0 0
113 1 2401.75 2697.19 2887.76 0 0 -1
114 1 2685.45 2427.64 2869.53 -1 0 0
115 1 2297.13 2646.5 2956.13 0 0 -1
116 1 2808.49 2435.54 2838.48 0 0 0
117 1 2379.96 3239.82 2710.71 0 -1 -1
118 1 2176.96 2750.46 2310.57 -1 0 -1
119 1 3158.56 2897.01 2279.53 0 -1 0
120 1 2732.05 2343.45 1938.59 1 0 0
121 1 3005.25 3092.57 2968.93 -1 0 0
122 1 2752.3 2997.64 2468.69 0 0 -1
123 1 1892.47 1865.18 3225.44 -1 1 -1
124 1 2581.52 2516.32 1790.79 0 0 1
125 1 1895.09 2984.66 2061.04 0 -2 0
126 1 2246.11 3296.98 2931.65 0 0 -1
127 1 2733.91 2302.08 2170.64 -1 -1 0
128 1 2141.84 2312.99 3298.51 -1 0 0
129 1 2477.34 2443.82 2412.19 -1 0 0
130 1 3197.74 2615.84 2088.19 0 -1 0
131 1 2857.99 3051.04 1728.49 -1 -1 0
132 1 2600.18 2761.21 2938.41 0 -1 -1
133 1 2540.4 2419.66 2813.81 0 0 -1
134 1 2035.5 3096.48 2486.94 -1 -1 -1
135 1 2227.99 3239.46 3188.57 0 -1 -1
136 1 2903.59 2176.06 3023.66 -1 0 0
137 1 3049.94 2002.99 2040.95 -1 0 0
138 1 2722.56 2568.96 1991.53 0 -1 0
139 1 2905.62 2577.02 2125.62 -1 -1 -1
140 1 2878.85 2929.95 2728.33 -1 -1 -1
141 1 2820.46 2762.13 2133.29 -1 1 0
142 1 2448.1 2289.89 2819.36 0 1 -1
143 1 3040.16 2911.51 2299.01 -1 0 0
144 1 1769.86 2925.83 2555.64 -1 -1 0
145 1 2339.06 2272.92 2161.12 0 0 0
146 1 3159.43 2565.87 2204.09 -1 -1 0
147 1 1877.65 2483.75 2690.12 0 0 -1
148 1 2714.71 2676.6 2378.12 -1 -1 1
149 1 2942.31 2795.83 2726.32 0 0 0
150 1 2437.36 2581.83 2551.96 0 0 0
151 1 2545.08 2962.05 2726.12 0 -2 -1
152 1 3177.85 2615 2876.78 -1 -1 0
153 1 2851.49 2753.37 2821.74 -1 -1 -1
154 1 3100.01 2665.51 2306.92 -1 0 -1
155 1 2903.78 2386.53 2536.49 0 0 0
156 1 2103.55 2510.53 3057.03 0 0 -2
157 1 3268.52 2914.9 2354.57 0 0 -1
158 1 2702.9 2713.5 2095.53 -1 -1 0
159 1 2971.04 2633.31 2643.37 0 -1 0
160 1 2861.65 2011.3 2799.05 -1 0 0
161 1 2672.37 2701.89 1962.47 0 0 -1
162 1 2767.74 2121 2531.08 0 -1 0
163 1 2402.15 2573.54 2826.89 0 0 -1
164 1 3083.2 2451.64 1996.51 0 -1 -1
165 1 2303.62 2201.67 3210.09 0 0 -1
166 1 1735.64 2690.55 2022.9 0 0 -1
167 1 2641.4 2686.02 2369.24 0 -1 0
168 1 1956.53 2210.62 2916.61 0 0 0
169 1 2222.02 3124.44 1914.17 0 -1 -1
170 1 2909.5 2886.62 2373.45 0 -1 0
171 1 2781.08 2168.22 2975.15 -1 -1 -1
172 1 2601.47 2893.65 2171.58 0 -1 -1
173 1 2770.78 2399.15 2521.1 -1 0 -1
174 1 2826.16 1916.72 3222.05 -2 0 -1
175 1 3045.62 2949.59 1748.71 -1 -1 -1
176 1 2166.78 2142.33 2921.44 0 0 0
177 1 2782.82 3169.25 1831.29 -1 0 0
178 1 3152.76 2220.91 2771.48 -1 0 0
179 1 1998.23 2214.69 2967.9 -1 0 0
180 1 3109.87 2854.79 2916.85 0 0 -1
181 1 1840.39 2638.28 2998.66 0 -1 1
182 1 2822.07 3204.8 2218.53 0 -1 0
183 1 1755.95 2950.75 2072.31 0 -1 0
184 1 2886.86 2261.56 2668.03 0 -1 1
185 1 1831.64 2316.61 2620.77 0 0 -1
186 1 2998.31 2353.67 1948.8 -1 0 -1
187 1 3275.83 2644.14 2786.98 0 0 -1
188 1 2572.97 1724.15 3252.44 0 1 -1
189 1 3245.5 2138.3 3176.02 -1 0 -1
190 1 2581.84 2649.64 2487.24 -1 0 0
191 1 2833.35 1820.49 3073.99 0 0 0
192 1 3126.03 3160.69 1882.12 -1 -1 0
193 1 3193.53 2765.37 2875.77 -2 -1 0
194 1 2860.36 2180.25 2018.11 0 -1 -1
195 1 2193.25 2593.13 2744.81 -1 0 0
196 1 2406.06 2514.47 3269.1 0 0 -1
197 1 2217.54 2318.67 1792.51 -1 1 1
198 1 2786.09 3112.07 3176.2 -1 -1 0
199 1 2352.26 3083.19 1745.07 0 0 1
200 1 2127.1 2000.03 2932.47 0 0 -1
201 1 3112.8 2220.79 2928.91 -1 0 0
202 1 2577.03 2387.68 3186.38 -1 -1 -1
203 1 3025.94 3016.3 3205.3 -1 -1 0
204 1 2452.56 2363.19 2939.87 0 -1 -2
205 1 2938.24 2613.71 2995.58 -1 -1 0
206 1 3145.12 1793.22 3128.4 -1 0 0
207 1 2427.23 2724.64 3170.28 -1 -1 -1
208 1 2436.04 2244.57 2694.13 0 0 -1
209 1 2694.87 2661.15 2929.53 -1 -1 0
210 1 3009.1 2538.82 1890.32 0 -1 0
211 1 2803.13 2887.09 1896.26 -1 -1 0
212 1 2379.65 1708.43 2378.65 0 0 -1
213 1 2982.08 2672.34 2501.48 0 1 -1
214 1 2417.89 2850.13 2472.85 0 -1 0
215 1 1699.86 2911.35 1961.27 0 0 -1
216 1 2650.62 2355.44 3101.63 -1 0 -1
217 1 2885.82 2197.21 2142.28 -1 0 1
218 1 2197.05 2601.42 2030.47 0 0 0
219 1 3020.52 2900.25 2441.84 0 -1 0
220 1 2212.32 2441.86 3092.14 -1 0 -1
221 1 2940.81 1839.86 2994.1 -1 0 -1
222 1 2825.81 2219.02 1702.94 0 -1 1
223 1 2467.12 2460.25 3150.94 0 -1 -2
224 1 1805.53 3158.19 2495.81 0 -1 0
225 1 2776.26 3241.72 2451.08 0 -1 0
226 1 2753.13 2546.22 2868.68 0 -1 0
227 1 3172.71 2409.94 2652.45 -1 -1 -1
228 1 1740 3081.47 1750.83 0 0 1
229 1 2849.14 2125.39 2256.99 -1 -1 0
230 1 1788.85 2434.76 2593.36 0 0 -1
231 1 2130.63 2715.07 2433.49 -1 -1 0
232 1 2147.12 3222.46 3294.9 0 -1 -1
233 1 3174.08 2736.27 2738.62 -1 0 1
234 1 2043.78 1911.52 2567.92 0 -1 -1
235 1 2703.27 2364.74 1813.18 -1 -1 0
236 1 2507.45 2555.92 2164.07 -1 0 0
237 1 2997.26 2526.79 2910.72 0 -1 0
238 1 2941.91 2795.72 2462.06 0 -1 0
239 1 2702.45 2576.8 2121.08 -1 -1 0
240 1 2193.18 2550.79 2552.15 1 0 -1
241 1 2682.95 3211.7 1944.46 0 -1 0
242 1 2624.43 2103.27 1893.55 0 -2 0
243 1 1966.04 3269.45 1864.16 0 -1 0
244 1 2924.81 2577.85 2749.42 0 -1 -1
245 1 3094.62 1764.8 2516.18 -1 0 0
246 1 2862.2 1965.1 2669.81 0 -1 0
247 1 2437.18 3250.03 2597.89 0 -1 0
248 1 3087.61 2779.56 2075.3 -1 -1 0
249 1 3090.49 2626.54 2990.51 0 0 0
250 1 3257.17 1870.05 3126.33 -1 0 -1
251 1 2996.79 2680.55 2045.5 0 -1 0
252 1 2888.72 1828.66 2664.05 -1 0 0
253 1 1861.25 2639.83 2068.22 1 0 0
254 1 3205.23 2285.09 2590.25 -1 0 -1
255 1 2807.92 2013.78 3146.38 -1 0 -1
256 1 2429.92 2421.33 2809.06 -1 0 0
257 1 2843.16 3000.44 2005.57 -1 -1 0
258 1 2567.11 2091.11 2856.37 0 0 -1
259 1 2618.31 2127.75 3176.68 -1 0 -1
260 1 2624.55 2537.01 2937.84 0 0 0
261 1 1763.14 2091.21 2320.33 0 0 0
262 1 3061.39 2524.64 2118.19 -1 0 -1
263 1 2579.14 2811.43 2798.49 -1 0 -1
264 1 2257.45 2401.84 1905.57 0 0 -1
265 1 3207.43 2019.25 2925.32 -1 0 -1
266 1 2975.77 1854.05 3129.79 -1 0 -1
267 1 1755.45 2318.08 2905.35 0 0 -1
268 1 2214.78 2501.46 2555.66 0 -1 0
269 1 2800.55 1763.83 2850.92 -1 0 0
270 1 2332.29 2169.15 3177.97 0 0 -1
271 1 2066.56 2815.67 2390.1 0 -1 -1
272 1 2568.31 2413.75 2952.04 -1 0 -1
273 1 2167.17 2386.66 2922.24 0 0 -1
274 1 2345.61 2554.7 2962.8 1 -1 0
275 1 2871.5 2454.18 1915.45 -1 0 1
276 1 2777.92 2651.44 1726.88 -1 -1 0
277 1 2603.92 2617.19 2044.97 0 0 1
278 1 1723.95 1794.37 2763.44 0 0 -1
279 1 2347.28 2713.92 2458.92 0 -1 0
280 1 2453.33 2468.38 3021.34 -1 0 -1
281 1 1982.23 2851.18 2661.28 0 -1 0
282 1 2035.58 2331.26 2890.89 0 -1 0
283 1 2332.9 3173.67 3240.1 0 -1 -1
284 1 2167.79 2298.15 3134.33 0 0 -1
285 1 3288.76 2706.34 2912.97 -1 0 -1
286 1 2875.22 2102.34 2885.07 -1 1 0
287 1 2774.76 2034.23 1864.85 0 0 0
288 1 2344.18 2350.02 2714.46 1 0 0
289 1 2149.95 2693.2 2676.98 0 -1 0
290 1 2970.57 2484.3 2354.19 -1 -1 0
291 1 2275.54 2684.42 2445.34 -1 -1 0
292 1 3158.65 2265.03 2740.99 -1 0 -1
293 1 2623.19 2554.05 2551.66 0 0 1
294 1 2548.32 2639.46 2644.96 0 -1 -1
295 1 1973.7 3193.47 2542.64 0 -1 0
296 1 3143.95 2484.49 2892.82 0 0 0
297 1 2861.11 2329.39 2561.41 -1 0 0
298 1 2401.99 2427.1 2608.86 0 0 0
299 1 1828.42 2177.68 2545.17 1 0 0
300 1 2077.38 2437.89 3161.18 0 0 0
301 1 2372.75 2483.15 2556.69 -1 0 -1
302 1 3183.64 1991.47 1762.32 -1 0 0
303 1 2959.49 3217.73 1925.01 0 -1 0
304 1 2305.72 2769.16 3111.32 1 -1 -1
305 1 2411.48 1883.26 3121.22 0 0 -1
306 1 1799.7 3191.93 1743.66 0 -1 0
307 1 3056.89 2426.04 2040.77 -1 0 -1
308 1 1791.63 1840.66 1723.44 0 0 0
309 1 2646.23 2932.31 2332.55 0 0 -1
310 1 1875.2 2007.61 2735.66 0 0 -1
311 1 2172.18 2804.13 1752.13 0 -1 -1
312 1 2820.51 2344.49 2619.77 0 -1 1
313 1 2146.5 2073.83 3032.2 0 -1 -1
314 1 1881.05 2345.03 2850.47 1 0 0
315 1 1956.63 1887.14 2664.82 0 0 0
316 1 2872.09 2893.31 1779 -1 0 0
317 1 2209.22 2833.08 2602.37 1 0 -1
318 1 3260.74 3064.81 2794.8 0 -1 -1
319 1 2913.57 2186.48 1776.23 -1 0 0
320 1 2439.01 2668.3 2696.15 0 -1 0
321 1 2634.06 2265.09 3189.21 -1 0 0
322 1 2319.65 2465.89 1825.82 0 -1 0
323 1 2033.37 2097.71 2928.4 0 0 -1
324 1 3246.27 2345.42 1757.29 0 0 0
325 1 2114.82 3145.44 2874.58 0 0 0
326 1 2697.52 2777.3 2862.74 0 0 -1
327 1 2592.01 3015.58 2608.74 0 -1 0
328 1 2143.77 2237.05 2550.67 0 0 0
329 1 2125.14 2755.73 2044.32 0 0 0
330 1 2672.7 2519.98 2776.09 0 0 0
331 1 2474.12 2574.64 2047.99 -1 0 0
332 1 2259.81 2826.05 3037.77 0 -1 -1
333 1 2869.45 2509.68 2946.46 0 0 0
334 1 2894.24 3299.67 3152.27 -2 -1 0
335 1 2533.69 2888.65 2410.44 0 0 0
336 1 2461.03 2382.07 3271.75 0 -1 -1
337 1 1792.45 2426.25 2206.03 0 0 0
338 1 2691.63 2712.5 3227.97 0 -1 -1
339 1 2855.83 2682.6 3075.16 0 -1 0
340 1 2467.4 2454.44 2596.88 0 -1 0
341 1 2699.69 3182.61 3089.72 0 -1 -2
342 1 2790.4 2845.59 2936.99 0 -1 0
343 1 2752.88 2070 2872.03 1 -1 0
344 1 2936.68 2988.71 2976.96 0 -1 -1
345 1 2544.94 2282.22 1701.37 0 0 0
346 1 2667.93 2423.2 1839.19 0 -1 0
347 1 2486.58 2466.6 2794.4 -1 0 -1
348 1 2188.15 2473.76 2593.53 -1 -1 -1
349 1 2799.49 2633.13 2603.64 -1 0 0
350 1 2251.3 2288.06 2050.3 0 1 0
351 1 2042.1 1724.79 3082.54 0 0 -1
352 1 2360.27 2277.37 3022.41 0 1 0
353 1 3001.57 2615.45 2371.85 0 -1 0
354 1 2188.02 2611.63 2335.76 0 0 0
355 1 2366.65 2763.22 2997 0 -1 -1
356 1 2248.7 3073.45 1797.86 0 -1 0
357 1 2149.32 2887.24 2825.6 0 -1 -1
358 1 2993.45 3289.55 2224.29 -1 -1 0
359 1 2628.54 2304.23 2895.56 0 0 0
360 1 2208.69 1740.54 3256.15 0 1 -1
361 1 3211.26 2586.2 2339.48 -1 0 0
362 1 2789.92 2626.49 2799.23 0 -1 0
363 1 2514.76 2380.56 3065.95 0 0 -1
364 1 2816.05 2705.69 2951.15 -1 0 0
365 1 2157.19 3123.29 2753.28 0 -1 0
366 1 2013.85 2593.31 1834.62 0 0 0
367 1 2257.83 2574.94 2856.23 0 -1 -1
368 1 2636.61 1918.1 2585.98 -1 0 0
369 1 3049.06 2727.44 2677.76 0 0 -1
370 1 3116.33 2783.08 2195.85 -2 0 0
371 1 3188.36 2216.18 1992.57 -1 0 0
372 1 2947.79 2959.58 3255.08 -1 -1 -1
373 1 2842.51 2618.78 2808.69 0 1 0
374 1 2526.34 1934.9 2556.91 0 0 0
375 1 3040.59 1756.23 2356.7 0 0 -1
376 1 2701.68 2647.38 2504.05 0 1 0
377 1 3106.13 2490.6 2345.5 0 0 0
378 1 2328.57 1976.36 2898.43 0 1 -1
379 1 2902.42 2551.28 2243.5 -1 -1 0
380 1 2614.54 2170.64 2017.37 -1 0 0
381 1 2249.17 2538.87 3019.74 0 0 -1
382 1 3137.12 2862.59 2775.65 -1 -1 0
383 1 2723.24 2322.07 2351.75 -1 0 0
384 1 2828.33 2780.82 2382.28 0 -1 0
385 1 2990.07 2730.21 2336.07 0 0 0
386 1 2831.78 2967.47 2596.28 -1 0 0
387 1 2995.71 2346.8 2755.14 -1 0 -1
388 1 1705.51 2755.06 2859.88 0 0 -1
389 1 2443.55 2515.38 1818.8 0 0 0
390 1 1744.94 2650.54 1708.72 0 -1 0
391 1 2415.58 1967.4 1828.63 0 0 0
392 1 1932.79 2554.47 2979.33 -1 -1 -1
393 1 2588.78 2426.68 2692.91 0 0 1
394 1 1962.4 2160.97 3118.14 1 0 -1
395 1 2459.46 2454.57 2069.25 0 -1 -1
396 1 1767.75 2798.54 2581.59 1 0 0
397 1 2773.86 2806.15 1751.15 -1 0 0
398 1 2223.44 2435.65 2828.31 0 -1 0
399 1 2096.43 1820.52 2801.86 0 0 0
400 1 2202.21 2349.75 2720.1 -1 0 -1
401 1 2509.17 2473.19 2444.36 0 0 -1
402 1 2228.27 2557.29 3282.13 0 0 -2
403 1 1800.62 2101.47 3033.01 0 0 -1
404 1 2596.45 2664.31 2178.87 0 0 0
405 1 2668.1 3032.56 2797.26 -1 0 0
406 1 2125.64 2861.81 2296.35 0 -1 0
407 1 1913.01 2909.95 2898.79 -1 -1 0
408 1 3244.64 2410.78 2893.72 0 0 -1
409 1 3096.94 2663.16 2563.01 0 -1 -1
410 1 2587.69 2258.63 2438.04 0 0 -1
411 1 2140.92 2071.27 2021.75 0 0 0
412 1 2405.84 3006.69 2819.52 0 0 0
413 1 1789.9 2661.21 2855.63 0 0 -1
414 1 2042.07 2828.67 2806.72 0 -1 -1
415 1 2069.64 2388.92 2770.44 0 0 -1
416 1 2632.73 2664.01 1757.12 0 0 0
417 1 1852.76 2118.58 2422.75 -1 0 -1
418 1 3233.14 2980.15 2054.3 -1 0 1
419 1 2214.83 2594.38 2499.22 0 0 0
420 1 3112.23 2828.63 2357.72 -2 -1 -1
421 1 2845.46 2506.08 1819.74 -1 0 0
422 1 1808.2 2981.59 1949.67 0 -1 0
423 1 3030.53 2716.18 1750.43 0 -1 0
424 1 2031.83 2827.9 3146.48 0 -1 -1
425 1 2382.39 2837.75 3211.02 0 0 -1
426 1 2817.43 2589.71 2770.89 -1 0 -1
427 1 3113.12 2315.59 2239.06 -1 -1 0
428 1 2341.95 2937.51 2563.27 0 -1 -1
429 1 2887.46 2763.47 2250.28 -1 0 0
430 1 2077.2 1915.88 2261.74 0 -1 0
431 1 2611.62 2397.68 1728.81 0 0 0
432 1 1993.93 2830.48 2281.22 0 -1 0
433 1 2224.6 2670.76 2495.23 -1 -1 -1
434 1 3077.75 2700.29 2432.52 -1 0 0
435 1 2836.78 2070.7 3015.55 -1 0 0
436 1 2895.66 2703.9 1742.35 -1 0 0
437 1 2731.48 2235.46 2025.43 0 1 0
438 1 3266.79 2503.41 2656.09 -1 -1 -1
439 1 2822.96 2377.18 1889.97 0 0 0
440 1 3009.43 2006.08 3060.95 -1 0 -1
441 1 2741.47 1910.54 3102.26 -1 0 -1
442 1 1892.54 2568.31 2778.82 0 0 0
443 1 3036.08 2522.75 3037.37 0 -1 0
444 1 2809.77 2651.81 2045.45 -2 0 0
445 1 2432.02 2953.66 2546.48 0 -1 0
446 1 2937.83 1970.94 3192.36 -1 0 -1
447 1 2637.83 2703.42 2608.57 0 0 0
448 1 2046.36 2704.61 2289.03 -1 -1 0
449 1 2271.71 2457.44 1848.66 -1 0 0
450 1 1994.58 2432.65 3079.33 0 0 -1
451 1 2025.91 2731.68 2722.43 0 -1 -1
452 1 2162.43 2209.84 3044.92 0 0 0
453 1 3077.3 3064.22 2397.13 -1 0 0
454 1 1992.31 2225.34 2251.56 0 0 -1
455 1 2732.78 2614.53 3123.22 -1 0 -1
456 1 2919.08 1795.58 1747.12 0 1 0
457 1 2496.2 2752.21 2429.93 0 -1 -1
458 1 1946.85 2170.93 2965.99 0 1 -1
459 1 2078.45 2449.87 2208.9 0 -1 -1
460 1 3111.26 2484.38 2560.09 -1 -1 0
461 1 2822.95 2721.3 2502.08 0 -1 0
462 1 2956.45 2759.05 2586.9 -1 0 -1
463 1 3207.5 2071.36 2939.84 -1 0 -1
464 1 2676.01 2619.83 2655.37 0 0 0
465 1 1736.23 2720.65 2451.65 1 0 -2
466 1 2767.98 2965.08 2700.17 -1 -1 0
467 1 2686.63 2587.72 1849.65 0 1 0
468 1 3130.83 2804.57 1788.47 0 -1 1
469 1 2879.34 2524.17 2645.09 0 -1 -1
470 1 2873.67 2995.01 1868.16 -1 -1 -1
471 1 2878.89 2655.29 2331.29 0 0 0
472 1 2743.37 2934.72 1783.77 0 -1 0
473 1 1721.03 2398.56 3013.51 1 -1 0
474 1 2943.55 2356.36 2842.97 -2 -1 -1
475 1 2835.77 2519.02 2025.8 0 -1 0
476 1 2874.56 3264.76 2084.57 -1 -1 0
477 1 3121.18 2344.53 1992.71 0 -1 -1
478 1 2613.01 2489.4 1991.08 -1 -1 0
479 1 2612.46 1774.5 2300.83 0 0 -1
480 1 3175.46 2252.51 2461.12 -1 0 0
481 1 2912.75 1811.51 3298.06 0 1 0
482 1 2652.85 1978.97 2863.27 0 -1 -1
483 1 2965.26 2230.92 2819.89 -1 1 0
484 1 2768.18 2912.39 2350.25 -1 -1 0
485 1 2324.63 3076.24 2590.51 -1 -1 -1
486 1 3254.21 2919.32 1824.21 -1 -1 0
487 1 2719.01 2405.82 2740.66 -1 0 -1
488 1 2144.5 1809.09 2502.38 0 0 0
489 1 3084.33 2660.87 2133.58 -1 0 0
490 1 2959.87 2411.92 2987.85 -1 0 -1
491 1 2643.91 2732.98 2718.22 0 0 -1
492 1 2812.35 2536.75 3280.94 0 -1 0
493 1 2723.43 2458.87 2402.75 -1 0 0
494 1 2332.54 2401.79 3072.44 1 -1 0
495 1 2985.82 2799.14 2164.43 0 -1 0
496 1 2863.37 2615.46 2759.03 1 0 0
497 1 2622.16 3244.55 2636.78 -1 -1 0
498 1 2697.16 2947.38 2582.72 0 -1 0
499 1 2323.51 2519.54 1826.91 -1 0 -1
500 1 2704.36 3032 2324.83 0 -1 -1
501 1 2476.85 2722.22 2560.72 -1 0 -1
502 1 1817.73 2957 2925.21 -1 0 0
503 1 2488.38 2488.67 2867.34 0 0 0
504 1 2286.41 2598.54 2509.88 0 0 0
505 1 2061.66 2496.03 3205.41 -1 0 -1
506 1 1745.91 2141.95 2205.54 -1 0 0
507 1 3163.79 2045.94 2959.03 -1 0 -1
508 1 1923.36 1830.09 1948.58 0 0 -1
509 1 1932.83 1868.29 2516.46 0 0 0
510 1 2680.71 2351.92 2616.04 -1 -1 -1
511 1 3250.26 3011.52 2466.9 0 0 -1
512 1 1859.55 3031.94 3135.77 0 -1 -1
513 1 2989.49 2505.31 2019.61 0 -1 0
514 1 2775.29 2230.28 2275.68 -2 0 1
515 1 2508.4 2165.07 2425.09 -1 0 -1
516 1 2523.62 3234.85 2691.2 -1 -1 0
517 1 2958.45 2940.63 3139.35 0 -1 -1
518 1 2131.6 2843.45 2709.25 0 0 -1
519 1 2648.79 2589.07 2400.65 0 0 0
520 1 2995.42 2809.08 1775.6 -1 0 0
521 1 2508.64 2395.27 1793.83 -1 0 1
522 1 2478.7 2610.03 2172.59 -1 0 0
523 1 2976.67 2915.1 1863.99 0 0 0
524 1 2626.95 2421.17 2498.15 -1 -1 0
525 1 3012.01 2149.92 2935.91 0 0 -1
526 1 2087.41 2362.56 2637.35 0 0 0
527 1 1699.46 2206.94 2856.13 0 -1 -1
528 1 3098.76 2430.93 2228.62 0 1 0
529 1 2498.51 2600.32 1726.2 -1 -1 0
530 1 1983.82 2705.44 2592.7 0 0 0
531 1 2157.24 3251.93 1920.57 0 -1 0
532 1 3089.27 2593.54 2011.26 -1 0 0
533 1 3001.32 1774.07 2320.7 -1 0 -1
534 1 2351.22 1701.76 2833.65 0 0 -1
535 1 2664.09 3209.72 2487.08 -1 -2 0
536 1 2277 2551.53 2124.53 -1 0 0
537 1 2701.43 2952.2 2214.99 -1 -1 0
538 1 2013.52 2053.72 3045.77 0 0 -1
539 1 3024.12 2435.21 2662.24 -2 0 -1
540 1 2756.89 3096.17 2439.9 0 0 0
541 1 2489.5 2909.78 2839.93 0 0 -1
542 1 2371.89 2731.96 2414.43 0 -1 0
543 1 2304.13 2678.81 2623.59 0 0 -1
544 1 2958.32 1966.61 2942.46 -1 1 -1
545 1 2248.63 2806.13 2717.57 -1 0 -1
546 1 3136.15 1893.94 1848.2 -1 0 0
547 1 2485.68 2334.93 2393.33 0 -1 0
548 1 1923.54 2008.81 2948.4 0 0 0
549 1 2687.03 2495.35 3126.14 0 0 0
550 1 2134.72 2223.64 1785.88 0 0 0
551 1 2359.67 2682.64 1861.99 0 -1 0
552 1 2655.74 3224.23 3224.64 0 -1 -1
553 1 2860.13 2639.52 3227.62 -1 0 -1
554 1 2283.24 2414.95 2614.07 0 0 0
555 1 2092.07 2343.69 3045.4 0 0 0
556 1 2544.58 2913.39 2531.2 0 0 -1
557 1 2674.48 2623.98 2278.37 -1 0 0
558 1 2539.04 3182.21 2553.2 -1 0 -1
559 1 2536.27 3036.18 2841.66 -1 0 0
560 1 1954.8 2769.67 1702.09 0 0 0
561 1 3147.62 2382.01 2476.74 -1 -1 -1
562 1 2051.17 3159.89 3238.37 0 0 -1
563 1 3241.04 2506.04 2819.15 -1 0 0
564 1 2572.09 2701.21 3165.58 0 1 -1
565 1 3188.09 2634.57 3162.45 0 0 -1
566 1 3200.79 2232.51 2749.82 -1 0 1
567 1 2538.91 1837.22 2807.83 0 0 0
568 1 2962.92 2890.03 2540.19 -1 -1 -1
569 1 2684.81 2236.86 3001.32 0 0 0
570 1 1854.62 2885.87 2638.64 0 -1 0
571 1 2886.81 2791.98 1849.58 -1 -1 0
572 1 2545.58 2733.47 2689.85 -1 -1 0
573 1 2237.36 2324.99 3029.16 1 0 -1
574 1 2913.45 3072.45 3220.77 -1 0 0
575 1 1943.52 2416.39 2931.58 0 0 0
576 1 3181.26 2262.84 2789.93 0 -1 -1
577 1 3111.86 2583.93 2451.01 -1 -1 -1
578 1 1732.89 2611.58 2376.71 1 0 1
579 1 2874.21 3198.6 2544.62 0 0 -1
580 1 2385.96 2684.39 2435.64 0 1 1
581 1 1906.55 2279.9 2456.21 -1 0 0
582 1 2984.29 3037.59 2306.52 0 -1 0
583 1 2530.7 2435.9 2411.87 0 0 0
584 1 3144.53 2946.42 2377.01 0 0 1
585 1 2979.16 3067.61 3094.22 -1 -1 -1
586 1 2923.61 2178.04 3248.63 -1 -1 -2
587 1 1718.02 2206.4 2621.64 1 0 -1
588 1 2011.71 2403.15 1992.61 0 0 0
589 1 2816.68 2988.34 3246.26 1 -1 0
590 1 3173.39 2708.49 1998.11 -1 -1 1
591 1 2194.25 1935.17 3032.87 -1 -1 -1
592 1 1962.38 2328.81 2739 0 0 0
593 1 1821.24 2211.28 2925.53 0 0 0
594 1 2140.25 3018.01 2887.39 -1 1 0
595 1 2876.37 1723.71 2931.55 -1 0 -1
596 1 2809.66 2445.93 1906.77 1 0 0
597 1 2669.3 2582.63 3104.09 0 0 0
598 1 2902.9 3121.34 1849.5 0 -1 0
599 1 2299.08 3223.24 2588.42 -1 -1 0
600 1 2898.55 2134.66 2759.91 -1 0 -1
601 2 3281.04 2357.42 1908.52 -1 0 0
602 2 1921.64 2000.89 2277.37 1 0 0
603 2 2966.95 3123.64 2151.45 -1 0 1
604 2 3037.27 2995.83 2823.77 0 -1 0
605 2 1768.77 1739.59 3168.65 0 0 0
606 2 1732.41 2563.79 2199.81 1 0 0
607 2 2138.37 2601.12 2148.77 0 0 0
608 2 2745.67 3089.44 2575.03 0 -1 0
609 2 2896.1 2195.46 2384.22 0 0 0
610 2 2627.11 2917.54 2934.97 0 0 0
611 2 1821.85 2901.1 1790.57 0 0 1
612 2 2477.62 3243.16 2241.25 0 -1 0
613 2 2032.2 2558.68 2665.76 0 0 -1
614 2 2594.25 2066.15 2527.58 0 0 0
615 2 1752.03 2685.62 3122.12 0 0 0
616 2 3221.94 3202.74 1745.63 0 0 0
617 2 1821.89 2867.21 2207.28 0 -1 0
618 2 2468.02 3194.24 2900.46 0 0 0
619 2 2737.45 2080.51 2681.15 0 1 0
620 2 3251.04 3188.52 2458.51 -1 0 0
621 2 1703.96 3209.56 2804.79 0 0 -1
622 2 2288.31 3240.07 1786.28 0 0 0
623 2 2301.45 2553.32 3093.02 0 0 -1
624 2 1711.77 2358.57 2727.88 0 0 -1
625 2 2664.3 1963.05 3227.26 0 0 0
626 2 1837.51 3054.19 2774.8 1 0 -1
627 2 2028.19 1731.76 2609.03 0 1 0
628 2 3112.66 2565.34 2702.05 -1 0 0
629 2 2269 2018.22 2283.67 0 0 0
630 2 2528.57 1812.11 2124.24 0 1 0
631 2 3103.49 1876.31 2970.26 0 1 0
632 2 2170.28 3000.06 2009.59 0 -1 0
633 2 1814.7 3006.39 2384.82 0 -1 0
634 2 3012.23 2691.18 2834.9 -1 0 0
635 2 1790.55 1801.31 2255.89 0 0 0
636 2 2783.71 1900.59 2915.16 -1 0 0
637 2 1835.58 2188.94 2727.52 1 0 -1
638 2 1769.82 1973.33 2138.8 0 0 0
639 2 3075.63 2851.8 3194.34 0 0 0
640 2 2642.51 3282.93 2784.74 0 0 0
641 2 2343.57 2010.76 2625.74 0 0 0
642 2 2537.48 2979.25 2004.66 0 -1 0
643 2 1795.4 1720.96 2438.6 0 0 0
644 2 3247.98 2548.41 1913.57 -1 0 1
645 2 2555.85 3053.61 2226.25 0 -1 0
646 2 2226.5 2990.55 2213.54 0 -1 0
647 2 2156.18 2115.74 3188.91 0 0 0
648 2 2540.56 2640.65 2806.97 0 0 0
649 2 3052.23 2093.1 1719.86 -1 0 0
650 2 3064.61 2307.55 2312.65 0 0 0
651 2 3176.42 2078.11 2103.04 -1 0 0
652 2 1790.92 1783.24 2048.16 0 0 0
653 2 2880.42 2498.22 3105.78 0 0 -1
654 2 2500.05 3165.11 3266.3 0 -1 -1
655 2 2541.7 1974.12 2701.54 0 0 0
656 2 2724.21 1869.69 2718.11 0 0 0
657 2 3030.05 2021.66 2773.96 -1 0 -1
658 2 2594.11 2224.01 2722.42 -1 0 -1
659 2 1724.34 2030.63 2653.8 1 0 0
660 2 2406.99 2300.15 1966.8 0 0 0
661 2 2613.48 1751.83 1947.57 0 0 0
662 2 1941.16 1886.64 1770.68 0 0 0
663 2 1916.41 2860.3 2473.66 0 -1 0
664 2 2586.83 3039.34 3113.74 0 0 -1
665 2 2452.98 2382.31 2207.25 0 0 0
666 2 2567.52 3180.04 2068.11 0 -1 0
667 2 2811.94 1716.8 1915.87 0 0 0
668 2 1929.95 2337.36 2134.08 0 0 0
669 2 3122.16 2352.98 3012.96 -1 0 0
670 2 2165.47 1833.76 2853.91 0 0 -1
671 2 2776.56 1854.13 1762.84 0 0 1
672 2 1930.98 2549.33 2193.8 0 0 0
673 2 2298.06 2325.4 2410.67 0 0 0
674 2 3222.94 1720.02 2152.19 -1 0 0
675 2 2942.39 2809.82 3012.75 -1 0 0
676 2 2580.23 1931.16 1828.56 0 0 0
677 2 2036.18 2946.07 2141.06 0 -1 0
678 2 3125.67 2887.64 1933.22 -1 -1 0
679 2 2021.11 2993.25 3125.93 0 0 0
680 2 3053.58 1942.78 2182.28 -1 0 0
681 2 2284.34 3106.19 2864.87 0 0 0
682 2 2857.56 2362.15 2256 0 0 0
683 2 2405 2900.9 2605.9 0 -1 0
684 2 1884.86 3072.55 2207.59 0 -1 0
685 2 1919.38 3167.19 3106.81 0 0 -1
686 2 1914.23 2445.34 1834.36 0 0 0
687 2 2519.08 2851.73 3083.72 -1 -1 0
688 2 2921.83 3032.75 2462 -1 -1 0
689 2 2127.65 3160.19 3043.55 0 -1 0
690 2 3193.16 3019.34 3265.48 0 1 -1
691 2 2588.17 2320.22 2071.39 -1 0 0
692 2 2053.92 1706.19 2898.28 0 0 -1
693 2 3125.18 3196.51 2282.01 -1 -1 0
694 2 1843.29 2720.11 2688.03 0 0 0
695 2 2697.75 2109.79 2144.77 0 0 0
696 2 2387.94 1751.84 2982.45 0 1 0
697 2 1912.93 2025.76 2556.4 0 0 0
698 2 1944.27 2425.25 2516.93 1 0 0
699 2 2470.51 1732.52 1788.2 0 0 0
700 2 1724.57 2470.39 1756.85 0 0 0
701 2 3296 2854.82 2670.41 0 -1 -1
702 2 1840.27 2466.77 2362.77 0 0 0
703 2 1997.36 3115.39 2043.57 0 0 0
704 2 2203.29 3059.04 2403.03 0 -1 0
705 2 2031.54 1925.91 2804.72 0 0 -1
706 2 1911.4 2577.83 3288.59 0 0 0
707 2 1904.04 3040.88 2577.51 0 -1 0
708 2 1847.96 2603.33 2510.8 1 0 0
709 2 1841.96 1718.33 2976.16 0 0 0
710 2 2717.46 1770.9 3193.76 0 0 -1
711 2 1987.2 2959.81 1906.77 0 -1 0
712 2 2150.97 2673.93 3049.63 0 0 -1
713 2 2344.15 2473.96 2618.15 0 0 -1
714 2 2875.93 1957.92 2292.04 -1 0 0
715 2 2565.54 2258.37 1864.22 0 0 0
716 2 2301.2 2910.89 1737.86 0 0 0
717 2 3038.21 1714.32 3226.87 -1 0 -1
718 2 2658.72 2432.65 2218.76 -1 0 0
719 2 1958 1869.3 2120.09 0 0 0
720 2 1717.7 1975.21 3234.75 0 0 -1
721 2 3217.22 2439.34 2083.08 0 0 0
722 2 3281.9 3012 2193.98 -1 -1 0
723 2 2681.36 3081.31 3300.53 0 0 -1
724 2 3036.76 3185.43 2509.93 0 -1 0
725 2 2185.01 3272.96 2742.08 0 -1 -1
726 2 2247.11 2189.26 1896.7 0 0 0
727 2 3140.91 2436.94 1781.21 -1 0 0
728 2 2269.91 2139.69 2451.87 0 0 0
729 2 2919.88 1762.45 2489.16 -1 0 0
730 2 2933.85 2849.5 1999.67 -1 -1 0
731 2 2295.84 2710.63 3279.51 0 0 0
732 2 3209.5 1800.34 3294.64 -1 0 -1
733 2 2230.96 1781.87 1959.48 0 1 0
734 2 1833.96 2246.18 2282.35 0 0 0
735 2 2375.09 1831.02 2499.82 0 0 0
736 2 2208.17 3208.72 2070.1 0 -1 0
737 2 2160.3 2794.01 2088.32 -1 0 0
738 2 3178.01 2779.65 3033.64 0 0 0
739 2 2235.61 2993.09 3028.08 0 0 0
740 2 2885.12 1829.6 2139.89 0 0 0
741 2 2649.99 2045.1 3001.2 -1 1 0
742 2 2515.73 2107.55 1707.71 0 0 0
743 2 3276.77 2093.67 2461.95 -1 0 0
744 2 2590.95 2239.32 2246.31 0 0 0
745 2 2192.71 3050.82 3213.65 0 0 -1
746 2 2179.25 2619.45 1827.54 0 0 0
747 2 2776.76 2948.88 3061.01 0 0 -1
748 2 2434.62 1857.79 1954.32 0 0 0
749 2 2218.28 2054.72 2756.76 0 0 0
750 2 1780.33 1924.39 2426.97 0 0 0
751 2 3273.3 2676.01 2596.86 0 0 -1
752 2 3026.83 1719.51 2670.31 0 1 0
753 2 1762.12 2285.52 2092.5 0 0 0
754 2 2755.75 2371.92 3204.9 -1 0 0
755 2 2325.88 2101.13 2980.86 0 0 0
756 2 2594.65 3047.56 2425.61 0 -1 0
757 2 2388.01 2191.12 2310.55 0 0 0
758 2 3127.89 3153.43 2720.42 -1 -1 0
759 2 2715.81 1719.24 2123.13 0 0 0
760 2 2479.85 2640.61 3006.42 0 0 -1
761 2 2058.85 3120.61 1808.77 0 -1 0
762 2 2093.03 2078.94 2196.47 0 0 0
763 2 1843.36 2077.58 1770.99 0 0 0
764 2 2380.5 2884.58 2109.03 0 -1 0
765 2 2005.77 2353.31 2334.17 0 0 0
766 2 3153.15 2043.89 1880.75 -1 0 0
767 2 2396.64 1958.67 2128.87 0 1 0
768 2 1976.5 1805.71 2335.87 0 0 0
769 2 1921.37 3265.73 2166.68 0 -1 0
770 2 1735.04 2312.26 2459.34 1 -1 0
771 2 1791.87 2794.64 2977.86 1 0 -1
772 2 2015.92 2148.91 2392.15 0 0 0
773 2 2956.98 1860.26 1729.73 -1 0 1
774 2 1903.53 3063.08 3275.11 0 -1 -1
775 2 3228.71 3274.59 1956.63 -1 -1 0
776 2 2860.86 2809.6 3176.12 -1 0 -1
777 2 3172.18 2622.93 1730.45 -1 0 0
778 2 2100.72 2203.44 2756.58 0 0 -1
779 2 2844.46 2049.21 1703.79 -1 0 0
780 2 2972.22 2550.98 1711.79 -1 0 0
781 2 3066.16 1722.11 1829.6 -1 0 0
782 2 2504.8 2172.14 2957.49 0 0 0
783 2 1971.38 3068.27 2935.23 0 -1 -1
784 2 1791.14 1843.44 2603.44 0 0 -1
785 2 3011.89 3042.92 1966.24 -1 -1 0
786 2 1877.16 1984.77 1961.75 1 0 0
787 2 2543.6 2782.26 2037.93 0 0 0
788 2 2401.1 2111.95 2797.39 0 0 0
789 2 1806.78 2165.69 3194.29 0 0 -1
790 2 3225.32 1981.74 2314.83 -1 0 0
791 2 3135.72 1716.36 2845.62 0 0 -1
792 2 2082.89 2491.66 3272.72 0 0 -1
793 2 2055.35 1835.97 3210.79 0 0 0
794 2 3026.22 1922.68 2607.95 -1 0 0
795 2 2028.56 2980.85 2734.38 0 0 0
796 2 1824.21 2499.69 3081.95 0 0 -1
797 2 3034.91 3285.58 3011.08 -1 -1 -1
798 2 2000.86 3192.47 2734.61 0 0 0
799 2 3089.3 2161.06 3062.4 -1 1 -1
800 2 3098.47 2949.88 3023.2 -1 0 -1
801 2 2277.66 2254.37 2844.78 0 0 0
802 2 1903.53 1764.69 2771.64 0 1 0
803 2 2537.27 3146.98 1864.1 0 -1 0
804 2 2498.81 2773.91 2241.88 0 -1 0
805 2 2242.48 1815.85 2339.96 0 0 0
806 2 3254.1 2818.69 2085.7 -1 -1 0
807 2 3128.54 3143.97 3133.31 -1 0 -1
808 2 2856.62 2334.64 2032.09 -1 0 0
809 2 3186.85 1889.62 2729.26 0 0 0
810 2 2461.52 1908.69 3265.38 0 0 -1
811 2 1826.65 1913.28 3058.03 1 0 0
812 2 2576.15 1858.56 3067.64 0 0 -1
813 2 2374.38 1864.22 2757.91 0 0 0
814 2 1979.16 2733.57 2118.49 0 0 0