ITEM: TIMESTEP
91000
ITEM: NUMBER OF ATOMS
1000
ITEM: BOX BOUNDS pp pp pp
1.7028192164000436e+03 3.2971807835995924e+03
1.7028192164000436e+03 3.2971807835995924e+03
1.7028192164000436e+03 3.2971807835995924e+03
ITEM: ATOMS id type x y z ix iy iz
1 2 3182.77 3057.26 1861.69 0 0 0
2 2 1982.33 1765.05 2607.45 0 1 -1
3 2 2209.92 3263.82 1866.8 0 -1 1
4 2 1966.57 2132.36 2862.56 0 0 -1
5 2 3190.11 1703.18 2865.84 0 0 -1
6 2 2146.44 2461.31 2157.32 -1 0 -1
7 2 2219.36 2378.99 2182.96 0 0 0
8 2 1759.61 3213.04 2543.68 0 0 0
9 2 3170.41 2459.25 2266.51 -1 0 0
10 2 2039.67 3108.57 2829.57 0 0 0
11 2 2774.52 2394.42 2864.27 0 0 0
12 2 1724.86 3068.12 2845.61 0 0 -1
13 2 1781.87 2321.27 1845.35 1 0 1
14 2 1810.59 3080.52 2047.62 0 0 0
15 2 3163.9 1819.32 3049.67 0 0 -1
16 2 2007.15 3264.54 1833.61 0 -1 0
17 2 2456.04 2149.42 3137.92 2 1 0
18 2 2383.46 2334.52 3057.27 0 1 -1
19 2 2323.09 2023.92 3238.57 0 0 0
20 2 3228.64 1807.05 2839.65 0 1 0
21 2 2028.77 2526.52 1862.31 0 1 1
22 2 1816.87 2982.97 1984.23 0 0 1
23 2 2792.26 2941.38 2084.51 -1 1 0
24 2 1727.33 2033.61 3172.33 1 0 -1
25 2 2314.06 1765.42 1714.58 0 1 1
26 2 2778.24 2290.58 2663.36 0 0 1
27 2 1960.23 2817.48 3123.56 0 0 0
28 2 1794.56 2435.2 3269.96 0 0 0
29 2 3213.13 2238.86 2543.2 -1 1 0
30 2 3122.78 1984.01 3246.82 -1 1 0
31 2 1860.74 2976.15 3115.23 0 -1 0
32 2 1796.34 3283.38 2624.54 0 0 0
33 2 2218.43 2151.5 2192.17 0 0 0
34 2 2240.16 1937.2 3215.39 0 1 0
35 2 3018.78 3111.37 3276.3 0 -1 0
36 2 2278.68 1710.41 2809.7 0 1 0
37 2 1872.6 1858.13 2623.09 0 0 0
38 2 1736.88 2612.32 1751.99 0 1 0
39 2 3242.07 2478.67 1914.45 -1 1 0
40 2 2245.35 2127.21 3082.8 0 -1 0
41 2 1890.03 2985.54 2079.6 1 -1 0
42 2 3213.08 2341.63 1749.59 -1 0 0
43 2 1902.96 2432.5 2230.26 1 0 1
44 2 2938.69 2831.07 3057.79 1 -1 0
45 2 1836.86 2352.56 2188.24 0 0 0
46 2 2959.49 1811.5 2209.04 0 1 0
47 2 3242.77 2661.55 2326.75 -1 0 0
48 2 1720.25 2534.52 1836.35 1 0 0
49 2 3048.69 2393.03 1705.13 0 0 1
50 2 2369.89 3030.97 2051.09 0 0 1
51 2 2858.57 1813.33 2890.02 -1 1 1
52 2 2672.26 2385.17 2096.11 0 0 0
53 2 2177.19 2436.96 1862.02 0 0 1
54 2 1988.2 1860.52 2671.48 0 1 0
55 2 2628.1 2150.73 2684.08 0 0 -1
56 2 2097.86 2175.22 2194.58 0 0 0
57 2 2025.4 2340.75 2919.7 0 0 -1
58 2 1707.87 2160.86 2552.31 0 0 0
59 2 2803.73 2395.31 2156.65 -1 2 0
60 2 2158.54 3130.4 1839.03 0 0 0
61 2 3252.84 2367.9 2504.96 -1 0 0
62 2 3117.42 3056.38 2985.74 0 -1 0
63 2 1754.07 3141.64 3286.9 0 0 0
64 2 3234.98 2445.3 1808.46 0 0 1
65 2 2705.63 2213.97 2742.49 0 -1 0
66 2 2980.78 1848.78 2925.92 0 0 -1
67 2 2677.4 1752.5 2820.31 0 1 1
68 2 1947.13 2294.85 2458.99 0 0 1
69 2 2641.08 2040.8 1973.65 0 0 0
70 2 2321.95 3123.57 2888.37 0 0 0
71 2 1721.39 1813.61 1831.93 0 0 1
72 2 2737.36 2306.74 2557.68 -1 -1 0
73 2 2958.97 1783.02 2072.4 -2 -1 0
74 2 2204.82 1741.71 3261.82 0 1 -1
75 2 3035.56 2125.9 1820.86 0 0 0
76 2 2705.76 2599.71 2267.7 0 -1 0
77 2 3018.59 2009.46 1914.31 -1 1 1
78 2 1767.04 1957.05 2640.87 0 0 0
79 2 3235.96 2683.29 1737.11 -1 0 0
80 2 2225.23 3054.73 1938.18 0 0 -1
81 2 2344.44 1750.11 3192.98 0 2 0
82 2 2834.95 2981.36 2252.61 -1 0 -1
83 2 2414.72 3068.23 2570 0 0 0
84 2 2562.48 2059.52 1844.22 1 1 1
85 2 2986.58 1894.34 1878.35 0 1 0
86 2 3260.31 2376.94 1973.11 -1 0 1
87 2 1937.56 2197.11 2531.73 1 0 0
88 2 3296.46 2966.39 1790.59 -1 0 1
89 2 1734 2578.51 1955.54 1 0 1
90 2 3166.51 2301.38 3148.22 0 1 -1
91 2 2596.85 2910.2 2910.39 0 0 -1
92 2 2298.71 2345.3 1722.4 -1 0 0
93 2 2388.98 1757.73 1823.51 0 0 1
94 2 2379.33 2191.75 3208.12 1 1 -1
95 2 1900.77 2199.44 2925.06 0 0 -1
96 2 2163.41 3077.9 1734.42 1 0 1
97 2 3004.61 3180.41 2829.61 0 -1 0
98 2 3078.92 1838.91 1910.1 0 0 0
99 2 1811.37 2134.14 1758.15 0 0 0
100 2 2222.44 1920.15 3101.04 1 0 0
101 2 2428.27 2369.15 2762.01 0 0 0
102 2 2102.96 3218.06 1887.55 0 -1 0
103 2 3278.42 2005.89 2087.9 -1 0 0
104 2 2376.93 1834.78 1908.03 0 0 0
105 2 2278.43 2012.45 2840.95 0 0 0
106 2 2479.85 2114.18 1895.73 0 0 0
107 2 1936.99 2131.07 2334.68 0 0 0
108 2 3208.41 3145.8 1953.5 -1 0 0
109 2 2151.94 2099.94 2094.03 0 0 0
110 2 1956.41 2396.46 1790.87 0 0 0
111 2 1816.09 3024.53 2954.87 1 -1 -1
112 2 3178.91 1809.87 2332.7 -1 -1 0
113 2 2099.67 3148.75 2233.57 0 -1 0
114 2 2896.91 2465.92 2004.81 0 0 1
115 2 3232.59 2108.8 3150.27 -1 0 -1
116 2 2029.26 2117 2516.88 0 0 0
117 2 2292.36 3147.18 2082.84 0 -1 1
118 2 1794.87 3170.45 2647.21 0 -1 0
119 2 2260.93 1859.8 1916.34 0 0 0
120 2 3216.6 3264.96 2257.98 -1 -1 0
121 2 3226.86 2070.67 2385.08 -1 0 0
122 2 1884.46 1708.65 3268.82 0 0 -1
123 2 2076.89 2145.21 1778.86 0 0 0
124 2 1983.3 1881.82 1781.89 0 0 0
125 2 1798.42 3148.35 1819.01 0 -1 0
126 2 3292.13 2160.14 1947.44 -1 0 0
127 2 3242.52 2272.51 2374.31 -1 0 0
128 2 1981.23 1753.86 1996.15 0 0 0
129 2 1771.8 2262.95 3161.3 0 0 -1
130 2 1741.84 1854.8 2462.11 0 0 0
131 2 1868.55 1759.35 2565.06 0 0 -1
132 2 1883.49 2457.61 3187.95 0 0 -1
133 2 2226.97 1972.05 1947.91 0 0 0
134 2 1851.82 3071.2 1752.15 1 -1 1
135 2 1993.39 2181.04 2016.16 0 0 0
136 2 3244.82 2448.68 2594.6 0 -1 -1
137 2 2797.55 2181.14 2655.14 0 1 0
138 2 1865.04 2079.21 2632.72 0 0 0
139 2 3111.99 2084.22 2181.38 -1 0 0
140 2 2813.33 2426.75 1932.27 -1 -1 0
141 2 2688.04 2094.76 3040.44 -1 0 0
142 2 1731.01 2387.28 1763.1 0 0 0
143 2 2142.94 1887.14 1916.85 0 0 0
144 2 1748.44 2061.55 2172.76 0 0 0
145 2 2223.82 2106.12 2800.35 0 0 0
146 2 2261.81 2359.48 1836.98 0 0 0
147 2 1803.49 1988.29 2081.77 0 0 0
148 2 2137.7 1886.76 3237.03 0 0 -1
149 2 2207.51 1876.21 2036.97 0 0 0
150 2 3223.33 2382.54 2683.13 -1 0 0
151 2 2399.33 2211.41 2113.8 0 0 -1
152 2 3236.16 2168.44 2455.38 -1 0 -1
153 2 2099.52 1779.58 2293.07 0 0 0
154 2 2095.44 2253.26 1847.32 0 0 0
155 2 2341.79 1814.44 2413.7 0 0 0
156 2 3171.94 1841.66 1983.84 -1 0 0
157 2 3068.25 1808.54 2035.98 0 0 0
158 2 2554.72 1741.05 1998.37 0 0 0
159 2 1911.33 3136.28 2070.86 0 -1 0
160 2 1961.49 2374.62 3156.35 1 0 0
161 2 3132.55 2109.81 3240.47 -1 0 -1
162 2 2272.71 1852 2229.08 0 0 0
163 2 3056.23 3172.13 2197.05 0 0 0
164 2 2776.24 1941.27 2358.54 0 0 0
165 2 2151 1976.9 1838.65 0 0 0
166 2 3150.02 2292.63 1840.02 0 0 0
167 2 2070.74 1811.23 2538.41 0 0 0
168 2 1950.26 1991.96 1818.85 0 0 0
169 2 1811.49 1787.66 1737.64 0 0 0
170 2 2873.13 2991.99 2560.17 -1 0 0
171 2 1965 2983.57 2189.23 0 -1 0
172 2 1749.49 2090.93 1855.98 0 0 0
173 2 2065.53 2422.07 1830.52 0 0 0
174 2 3189.72 2006.82 2472.21 -1 0 -1
175 2 1796.15 2016.06 1758.83 0 0 0
176 2 2013 2439.33 2471.55 0 0 0
177 2 3200.95 2890.35 2323.97 0 -1 0
178 2 1846.02 2370.17 1755.16 0 0 0
179 2 2168.08 2263.7 2120.73 0 0 0
180 2 1903.23 3200.72 1831.24 0 -1 0
181 2 3107.52 3138.64 2829.27 -1 -1 -1
182 2 2294.57 1749.3 1887.13 0 0 0
183 2 3175.47 1806.87 2096.42 -1 0 0
184 2 1810.66 2153.41 2135.13 0 0 0
185 2 2149.17 1711.21 2367.66 0 0 0
186 2 1971.75 2436.24 1902.93 0 0 0
187 2 3176.7 2174.9 2350.5 -1 0 0
188 2 3260.75 1917.53 1786.15 -1 0 0
189 2 2484.88 2111.7 2293.94 0 0 -1
190 2 2528.64 1833.63 1937.93 0 0 0
191 2 1937.37 2032.35 3212 0 0 -1
192 2 1763.91 2214.01 2029.68 0 0 0
193 2 2043.43 2248.93 2511.67 0 1 0
194 2 2008.91 2491.8 1753.01 0 0 0
195 2 1738.99 2428.33 1873.98 0 0 0
196 2 2438.44 1824.19 2006.53 0 0 0
197 2 1882.33 2187.29 1839.02 0 0 0
198 2 2489.61 2010.82 2057.98 0 0 0
199 2 1980.37 2027.27 2159.97 0 0 0
200 2 1740.08 2466.81 1997.26 0 0 0
201 2 2764.21 2852.43 2863.05 0 -1 -1
202 2 1712.52 2262.35 2475.24 0 0 0
203 2 1910.73 3167.8 1949.84 0 -1 0
204 2 2502.14 2013.82 2706.72 0 0 0
205 2 3233.76 1807.69 2438.62 -1 0 0
206 2 1830.93 2146.24 2549.28 0 0 0
207 2 2911.46 2779.63 2663.07 0 0 0
208 2 1805.93 1948.6 2416.77 0 0 0
209 2 3150.42 3079.1 2162.78 1 -2 2
210 2 2283.97 2226.79 2122.33 0 0 0
211 2 2357.78 1741.38 1990.25 0 0 0
212 2 2372.85 2844.02 2836.98 -1 -2 -1
213 2 2256.27 1808.8 2119.78 0 0 0
214 2 2185.86 3098.95 2046.88 0 -1 0
215 2 2532.51 2016.06 1947.97 0 0 0
216 2 2093.77 3251.96 3179.52 0 -1 -1
217 2 3131.83 3295.68 2070.04 -1 -1 0
218 2 2496.65 2076.05 1736.08 1 1 0
219 2 2010.93 3236.6 1961.46 0 -1 0
220 2 3174.81 2168.17 1955.66 -1 0 0
221 2 2911.35 1895.93 2163.42 1 0 -1
222 2 1742.48 1897.47 2127.66 0 0 0
223 2 2619.76 2964.13 2707.51 0 -2 -1
224 2 1977.36 3130.79 2621.12 0 -1 -1
225 2 2124.02 1792.56 2002.55 0 0 1
226 2 2264.99 1950.21 1833.14 0 0 0
227 2 2061.86 2182.98 3174.79 0 0 0
228 2 2422.27 2209.11 1841.62 0 0 0
229 2 1875.76 1846.81 1817.37 0 0 0
230 2 2157.84 2099.1 3154.12 0 0 -1
231 2 2000.57 1794.88 2383.44 0 0 0
232 2 2199.83 2274.19 2384.74 0 0 0
233 2 2018.38 1762.95 1753.81 0 0 0
234 2 2341.73 1944.95 1944.94 0 0 0
235 2 2032.99 2165.91 1897.82 0 0 0
236 2 1886.16 1940.26 1730.57 0 0 0
237 2 3079.01 2051.44 1734.69 -1 0 0
238 2 1750.72 1957.59 2524.7 0 0 0
239 2 1753.47 2202.57 3271.05 0 0 -1
240 2 2469.77 2112.83 2118 0 0 0
241 2 2994.82 2592.18 3281.91 -1 0 -1
242 2 2325.97 1858.82 3216.99 0 0 0
243 2 2717.04 2916.68 2665.41 0 0 0
244 2 2070.39 1987.62 2408.78 0 0 0
245 2 1857.72 2181.51 3133.46 0 0 -1
246 2 2256.35 1744.02 2402.98 0 0 -1
247 2 2008.75 2327.38 1873.16 0 0 0
248 2 3113.9 2120.53 2048.33 -1 0 0
249 2 3260.68 3083.48 2225.18 -1 -1 0
250 2 2942.86 2239.72 3228.49 -1 1 -1
251 2 2148.15 3177.37 3250.3 0 -1 0
252 2 1862.1 1941.27 2308.64 0 0 0
253 2 3153.46 2360.31 3245.67 0 0 -2
254 2 2453.32 1720 2052.3 0 0 0
255 2 1787.81 3086.91 2229.1 1 0 0
256 2 3150.7 2244.96 2449.48 0 1 -1
257 2 2172.04 1729.42 2094.56 0 0 0
258 2 1926.59 2575.1 1736.13 0 0 0
259 2 2116.37 2126.21 3262.14 0 0 -1
260 2 1969.44 2269.51 3203.18 0 0 -1
261 2 2285 2037.91 1757.33 0 0 0
262 2 1857.97 2453.14 1996.35 0 0 0
263 2 2177.55 1922.01 2369.91 0 0 0
264 2 1874.13 1730.1 2915.3 0 0 -1
265 2 1910.26 2011.71 1936.25 0 0 0
266 2 2322.41 1850.95 2021.65 0 0 0
267 2 1961.52 1864.95 2291.89 0 0 0
268 2 2190.02 2329.12 3284.82 0 0 -1
269 2 2496.95 2584.98 2247.84 0 0 0
270 2 2685.66 1801.9 2919.18 0 -1 -1
271 2 2195.25 3137.12 2157.41 0 -1 0
272 2 3241.99 1903.36 2506.2 -1 0 0
273 2 1841.38 2240.92 2475.52 0 0 0
274 2 1990.98 1754.42 2253.08 0 0 0
275 2 2132.65 2390.98 2064.61 0 0 0
276 2 2635.62 1850.13 2839.18 -1 1 0
277 2 1845.37 1956.13 1850.51 0 0 0
278 2 2937.22 2551.26 2081.65 0 0 0
279 2 2079.62 2456.47 1936.52 0 0 0
280 2 1717.23 3144.15 2011.83 0 -1 0
281 2 1742.88 3246.48 2431.09 0 -1 -1
282 2 3088.75 2243.71 2341.6 0 0 0
283 2 3166.39 1986.73 1761.26 -1 0 0
284 2 3273.95 2042.3 1955.7 -1 0 0
285 2 1921.73 2536.97 1930.36 0 -1 0
286 2 2388.82 2296.74 3252.25 -1 0 -1
287 2 2124.1 2046.76 2495.88 0 0 0
288 2 2176.97 1776.17 1891.14 0 0 0
289 2 2685.47 2228.95 1878.68 0 0 1
290 2 3129.24 2276.43 2161.8 -1 0 0
291 2 1845.56 1769.98 2436.41 0 0 0
292 2 1972.86 1989.98 3007.23 1 0 0
293 2 3225.23 2072.26 2177.08 -1 0 0
294 2 3108.39 1720.97 2294.73 0 0 0
295 2 1969.79 2209.08 3101.13 0 0 -1
296 2 1805.2 3264.7 1786.28 0 -1 0
297 2 1784.57 2363 1984.61 0 0 0
298 2 1737 2084.05 3274.37 0 0 -1
299 2 1726.44 3178.36 2224.58 0 -1 0
300 2 1872.79 2142.94 2234.66 0 0 0
301 2 2006.62 1917.08 2123.36 0 0 0
302 2 1818.97 2148.58 2342.97 0 0 0
303 2 2294.29 2148.91 1808.01 0 0 0
304 2 2249.26 2086.4 2452.13 0 -1 0
305 2 3047.06 2966.25 2647.52 0 -1 0
306 2 3115.88 2187 2244.12 -1 0 0
307 2 2163.08 2034.78 3059.81 -1 0 -1
308 2 3174.35 1771.21 2214.16 -1 0 0
309 2 2329.39 2170.45 2019.7 0 0 0
310 2 2536.47 3182.28 2282.19 -1 -1 0
311 2 2172.91 2807.54 2134.11 0 0 -1
312 2 2042.57 3135.02 3275.06 0 -1 -1
313 2 2108.04 2360.04 2170 0 0 0
314 2 2079.74 1826.48 1835.47 0 0 0
315 2 2102.87 2413.73 1724.11 0 0 0
316 2 2311.59 1929.7 1726.22 0 0 0
317 2 2466.02 1851.43 1844.21 0 0 0
318 2 1884.37 2202.7 2629.71 0 0 0
319 2 1734.83 2453.17 2333.54 0 0 0
320 2 1926.15 2033.94 2265.97 0 0 0
321 2 2796.93 1719.52 2664.92 -1 0 -1
322 2 1950.76 1866.76 2032.46 0 0 0
323 2 1845.38 2439.71 2331.97 0 0 0
324 2 1882.91 1750.43 2674.5 0 0 -1
325 2 1818.02 3162.74 2152.52 0 -1 0
326 2 3272.96 1842.32 2045.56 -1 0 0
327 2 1798.9 1850.2 2349.72 0 0 0
328 2 2085.99 1804.27 2647.71 0 0 0
329 2 3094.95 3251.54 2818.24 0 -1 0
330 2 1751.03 2645.38 1866.24 0 0 0
331 2 3165.24 2391.62 1906.72 -1 0 0
332 2 2623.24 2194.73 3202.12 0 -1 0
333 2 1780.17 2357.8 2294.52 0 0 0
334 2 2186.52 1865.62 1807.35 0 0 0
335 2 2051.31 3058.83 2571.44 0 0 -1
336 2 2070.31 1890.44 2328.7 0 0 0
337 2 2332.08 2128.73 3290.74 0 0 -1
338 2 2469.79 2376.75 2458.5 0 -1 -1
339 2 1974.59 3264.08 2531.23 0 -1 -1
340 2 2391.86 2022.38 2316.63 0 0 0
341 2 1817.56 2547.93 3292.72 0 0 -1
342 2 2512.76 2228.8 2140.64 0 0 0
343 2 3241.45 2269.35 2166.85 -1 0 0
344 2 2056.01 2263.42 1962.46 0 0 0
345 2 3194.48 2225.58 1749.96 -1 0 0
346 2 2160.01 2377.41 2419.19 0 -1 0
347 2 2219.41 2163.46 1711.05 -1 0 0
348 2 1903.65 2351.77 1961.63 0 0 0
349 2 2004.1 3148.35 1862.96 0 -1 0
350 2 2236.49 2267.87 2218.73 0 0 0
351 2 1947.66 1958.32 3112.04 0 0 0
352 2 1853.33 1867.67 2511.15 0 0 0
353 2 3257.32 1797.09 2553.34 -1 0 0
354 2 1946.53 1823.82 2166.08 0 0 0
355 2 1901.15 2338.92 2290.05 0 0 0
356 2 1802.24 1958.86 2208.44 0 0 0
357 2 3038.55 2317.45 2511.88 0 0 0
358 2 2106.25 2007.58 3270.43 0 0 -1
359 2 1887.21 1809.49 1952.03 0 0 0
360 2 2774.66 2380.29 2029.11 0 0 0
361 2 1711.29 1845.59 3291.33 0 0 -1
362 2 2143.79 3082.35 2333.73 0 0 0
363 2 2034.87 3282.31 2346.04 0 -1 0
364 2 2267.9 3042.69 2111.7 0 -1 0
365 2 2528.89 2236.12 2254.34 0 0 0
366 2 3132.53 2164.56 3137.71 0 0 -1
367 2 2891.08 2030.94 2982.28 0 0 0
368 2 1723.71 2519.93 2666.36 0 -1 0
369 2 2079.73 2114.31 2409.34 0 0 0
370 2 3132.37 2175.51 1842.83 -1 0 0
371 2 2114.21 1917.33 2498.43 0 0 0
372 2 2716.21 2105.96 2503.14 0 0 0
373 2 2758.6 2326.96 1914.87 0 0 1
374 2 2388.68 2242.47 1952.21 0 0 0
375 2 2530.44 2444.06 2876.34 -1 0 0
376 2 3215.81 3108.55 2069.16 0 0 0
377 2 3191.48 2286.42 1948.98 -1 0 0
378 2 2066.36 2175.17 2827.55 1 0 -1
379 2 1981.2 2422.82 3013.09 0 0 -1
380 2 2723.22 1900.07 3195.21 -1 0 -1
381 2 2399.41 2011.7 1732.68 0 0 0
382 2 2746.2 1838 2838.16 0 0 0
383 2 2845.71 2488.65 1828.38 -1 -1 -1
384 2 2148.77 2153.74 2693.57 0 0 0
385 2 2058.66 1971.92 2700.93 0 -1 0
386 2 2212.04 2053.99 3249.87 0 0 -1
387 2 2068.26 3289.4 2050.25 0 -1 0
388 2 1861.65 1885.16 2108.16 0 0 0
389 2 1890.65 3054.39 2572.7 0 -1 -1
390 2 2079.94 3026.24 2036.75 0 -1 1
391 2 1821.35 1755.01 1871.26 0 0 0
392 2 3090.4 2239.51 1930.69 -1 0 0
393 2 1719.19 2312.46 2075.93 0 0 0
394 2 1802.99 2440.19 2443.61 0 1 0
395 2 1829.35 1716.97 1994.75 0 0 0
396 2 2070.55 3036.91 2200.66 0 -1 0
397 2 2090.81 1902.32 2038.1 0 0 0
398 2 3112.28 3141.81 1899.85 -1 -1 1
399 2 1768 2904.64 1909.95 0 -1 0
400 2 2876.74 3188.45 1839.22 -1 -1 0
401 2 1736 3296.38 2194.05 0 -1 0
402 2 1709.27 1729.76 1748.34 0 0 0
403 2 2030.28 2056.73 2315.77 0 0 0
404 2 1854.95 1923.28 1992.69 0 0 0
405 2 1799.29 2376.61 3160.75 0 0 -1
406 2 3253.19 2000.5 2572 0 0 0
407 2 2883.87 1881.94 2968.74 -1 0 0
408 2 2441.81 3133.13 2676.79 0 -1 0
409 2 1737.82 1934.41 2000.27 0 0 0
410 2 1719.43 1965.48 3282.34 1 1 0
411 2 2044.79 2202.5 2714.33 0 0 0
412 2 2981.34 1803.67 1960.26 -1 1 1
413 2 1989.21 2189.69 2423.14 0 0 0
414 2 3153.67 3118.91 3133.53 -1 -1 -1
415 2 1937.71 1903.46 1901.38 0 0 0
416 2 1794.43 1751.2 2284.05 0 0 0
417 2 3159.53 2020.1 2091.84 -1 0 0
418 2 2312.37 1836.29 3106.49 0 0 0
419 2 1911.32 3107.58 3245.31 1 0 -1
420 2 2525.39 2133.39 3225.19 0 0 0
421 2 2199.82 3213.46 2066.11 0 -1 0
422 2 1718.91 2363.46 2191.34 0 0 0
423 2 1955.35 2337.18 2184.28 0 0 0
424 2 3090.59 1752.41 3173.69 -1 1 -1
425 2 2345.84 2878.19 2942.45 0 -1 -1
426 2 3146.21 2500.84 1851.43 0 0 0
427 2 1831.36 2068.87 3135.54 0 0 0
428 2 2221.31 1755.1 1780.65 0 0 0
429 2 3208.16 3149.45 1728.87 -2 0 1
430 2 1768.62 2200.37 3064.83 0 0 -1
431 2 1878.79 2198.84 2025.34 0 0 0
432 2 2088.65 3108.09 2113.95 0 -1 0
433 2 2201.4 1958.41 1731.43 0 0 0
434 2 3051.39 1757.3 2135.34 -1 0 0
435 2 3106.58 2340.11 2002.36 -1 0 0
436 2 3241.79 2222.76 1859.45 -1 0 0
437 2 2007.51 1895.71 2448.93 0 0 0
438 2 1780.3 2156.17 2644.8 0 1 0
439 2 2047.73 2293.14 3127.2 0 0 -1
440 2 1980.93 2242.95 2853.06 0 0 -1
441 2 1955.56 2149.66 3202.65 0 0 -1
442 2 2051.16 2274.66 2244.6 0 0 0
443 2 2115.44 1812.87 2409.51 0 0 0
444 2 1918.8 1934.15 2202.33 0 0 0
445 2 2009.18 2088.65 3290.87 0 0 -1
446 2 2886.93 1740.8 1985.02 1 1 0
447 2 2050.56 1851.27 2212.74 0 0 0
448 2 3217.06 1911.69 2127.65 -1 0 0
449 2 3196.76 2565.6 2939.7 -1 0 0
450 2 1843.35 2123.28 3237.74 0 0 -1
451 2 2376.96 1925.79 1832.2 0 0 0
452 2 1884.5 2136.25 2442.31 0 0 0
453 2 1970.4 1793.98 1864.28 0 0 0
454 2 2302.91 1742.76 2196.99 0 0 0
455 2 1905.65 3056.62 1984.59 0 -1 0
456 2 2157.83 2105.79 2282.01 0 0 0
457 2 1992.67 3125.55 2185.63 0 -1 -1
458 2 2164.65 1854.39 2578.17 0 0 1
459 2 1848.61 1899.53 3138.2 1 0 -1
460 2 2350.77 2733.56 2552.94 0 -1 0
461 2 2312.3 1779.69 2308.6 -1 0 0
462 2 1862.45 1967.25 2574.78 0 0 0
463 2 1901.2 3082.7 1865.39 0 -1 0
464 2 2373.52 2133.99 2283.38 0 0 0
465 2 2484.93 1887.8 2236.69 0 0 0
466 2 2229.38 2357.51 2296.2 0 0 -1
467 2 2553.11 1774.41 3121.04 0 1 0
468 2 3289.56 2162.75 2136.67 -1 0 0
469 2 2435.68 1952.85 2159.95 0 0 0
470 2 1793.34 3164.91 2332.67 0 -1 0
471 2 3224.75 2108.15 2047.06 -1 0 0
472 2 3114.22 1915.42 2062.71 -1 0 0
473 2 2166.51 2068.95 1765.42 0 0 0
474 2 3290.28 3065.91 1906.02 -1 0 1
475 2 1805.84 3115.54 1934.66 0 -1 0
476 2 1747.4 2098.2 2049.1 0 0 0
477 2 2307.38 2007.79 2162.02 0 0 0
478 2 3217.51 1875.9 2245.68 -1 0 0
479 2 1816.32 3230.92 1907.37 0 -1 0
480 2 1963.35 2132.06 2995.04 0 0 0
481 2 2269.38 2076.61 2263.57 0 0 0
482 2 2188.21 3052.4 2230.83 0 0 0
483 2 2815.31 3143.01 1749.1 0 -1 0
484 2 3128.88 1758.55 1703.17 -1 1 0
485 2 3103.71 2380.19 2114.59 0 1 0
486 2 2066.17 2304.95 2075.16 0 0 0
487 2 1860.22 3252.56 2503.31 0 -1 0
488 2 2092.7 2303.61 2592.53 0 0 -2
489 2 3266.48 2478.61 2210.59 -1 1 0
490 2 2841.9 2324.2 2510.02 0 1 0
491 2 1885.9 1731.68 2207.44 0 0 0
492 2 3091.61 2996.89 3120.94 0 0 -1
493 2 3074.35 2120.65 1930.31 -1 0 0
494 2 2204.17 2274.37 1884.67 0 0 0
495 2 1890.44 3069.08 2161.98 0 -1 0
496 2 1987.36 2227.33 1805.17 0 0 0
497 2 1912.61 3178.9 2385 0 -1 0
498 2 1949.2 2977.03 2890.36 -1 -1 -1
499 2 2353.27 2095.17 3146.8 0 0 0
500 2 2102.73 2197.93 2048.78 0 0 0
501 2 2092.21 1706.87 2576.82 0 0 -1
502 2 2685.26 1825.12 1940.29 0 0 0
503 2 3064.68 2011.77 2022 -1 0 0
504 2 2157.08 1878.08 2249.23 0 0 0
505 2 1756.09 2157.43 2240.68 0 0 0
506 2 1921.42 2066.01 2533.63 0 0 0
507 2 2223.5 1832.12 3180.16 0 0 -1
508 2 2013.85 2047.78 1904.65 0 0 0
509 2 1740.42 1865.94 2247.17 0 0 0
510 2 2248.32 3094.46 2972.2 0 0 0
511 2 1786.3 2448.63 2233.34 0 -1 0
512 2 1911.2 2321.35 2955.89 0 0 -1
513 2 2241.82 1767.58 1993.09 0 0 0
514 2 3228.36 1708.67 2369 0 1 -1
515 2 2180.74 2174.79 1824.64 0 0 0
516 2 2064.36 2778.04 1742.46 0 0 1
517 2 2215.06 2184.09 2031.36 0 0 0
518 2 2866.83 1792.23 2149.43 0 1 0
519 2 1756.73 1743.34 2506.79 -1 0 -1
520 2 2537.35 3235.79 2546.93 0 -1 -1
521 2 2402.02 2108.82 1790.28 -1 0 0
522 2 3076.67 2126.94 2332.8 -1 0 0
523 2 1849.48 2127.6 3035.37 0 0 0
524 2 1784.57 2246.15 2571.61 0 -1 0
525 2 1824.09 3235.53 2250.16 0 -1 0
526 2 3226 1741.42 2012.47 -1 0 0
527 2 2193.03 2079.72 1982.2 0 0 0
528 2 3290.18 2064.41 2486.27 -1 0 0
529 2 2151.81 3017.82 2125.44 0 -1 0
530 2 3272.09 3154.29 2322.92 -1 0 0
531 2 1828.33 2259.51 1938.82 0 0 0
532 2 3014.41 1914.17 1990.09 0 0 0
533 2 2459.31 2011.51 1855.61 0 0 0
534 2 2518.83 1902.59 2036.04 0 0 0
535 2 2113.02 3090.56 1939.84 0 -1 0
536 2 3214.87 1905.21 3231.76 -1 0 -1
537 2 1727.7 3219.8 2101.75 0 -1 0
538 2 2724.13 2943.12 2263.28 0 -1 0
539 2 3152.69 1886.3 1828.65 -1 0 0
540 2 2961.86 1976.39 2077.88 0 0 0
541 2 2761.64 3144.55 3239.19 -1 0 -1
542 2 1973.47 2518.73 3238.6 0 0 -1
543 2 3227.8 1703.19 2133.88 -1 0 0
544 2 1962.83 2319.95 3054.16 0 0 -1
545 2 2349.75 2325.72 2281.96 -1 -1 -1
546 2 2339.4 2127.37 2171.95 0 0 0
547 2 2454.47 1920.84 1938.84 0 0 0
548 2 2239.49 1960.01 2266.94 0 0 0
549 2 2184.13 2160.81 2387.9 0 0 0
550 2 2946.54 3221.13 1974.22 0 -1 0
551 2 1707.54 2262.6 2274.5 0 0 0
552 2 2351.12 1934.42 2243.1 0 0 0
553 2 1864.37 2049.64 2165.02 0 0 0
554 2 3294.6 2162.71 2347.89 -1 0 0
555 2 2018.62 3051.6 2698.55 -1 0 0
556 2 2126.79 1800.65 1725.48 0 0 0
557 2 1773.01 3254.42 3272.19 1 0 -1
558 2 2086.83 2955.36 2728.98 -1 -1 -1
559 2 3022.32 1911.82 2227 0 1 0
560 2 2078.93 3188.15 1775.66 0 -1 0
561 2 2310.02 3001.13 1859.32 0 -1 1
562 2 2366.18 1781.49 2101.87 0 0 0
563 2 2124.8 3141.74 3013.55 -1 0 0
564 2 2020.35 1992.21 2516.81 0 0 0
565 2 2212.79 2706.44 2168.78 0 0 0
566 2 2298.07 2236.37 3136.57 0 0 -1
567 2 1944.77 2242.55 1928.99 0 0 0
568 2 3115.72 3072.57 1735.38 0 0 0
569 2 2020.99 1961.52 2248.16 0 0 0
570 2 3258.94 2369.12 2292.99 -1 0 -1
571 2 3016.74 3293.54 1918.8 -2 -1 0
572 2 3214.63 1808.52 1769.28 -1 0 0
573 2 2573.86 1749.23 2862.23 0 0 -1
574 2 2558.05 2913.01 2096.32 0 0 0
575 2 2237.13 3285.95 2293.26 0 -1 0
576 2 2683.13 2241.73 2639.21 0 0 0
577 2 2262.38 2188.66 2298.99 0 0 0
578 2 2845.08 2705.92 2269.5 0 0 1
579 2 2988.21 2214.98 2522.43 0 0 0
580 2 2175.5 1988.22 2054.88 0 0 0
581 2 2040.58 1933.2 3183.27 0 0 -1
582 2 2084.96 1756.34 3095.42 0 0 0
583 2 2440.62 2141.39 2002.04 0 0 0
584 2 1787 2403.59 2093.61 0 0 0
585 2 1861.62 2081.42 2036.56 0 0 0
586 2 1957.28 2384.69 2387.59 0 0 0
587 2 3267.48 1883.68 1916.52 -1 0 0
588 2 1826.96 2253.14 1756.96 0 0 0
589 2 1808.09 2053.46 2274.72 0 0 0
590 2 2278.89 2001.86 2370.73 0 0 0
591 2 3127.68 3181.48 2100.15 -1 -1 0
592 2 2034.34 1849.21 1946.62 0 0 0
593 2 2922.83 1770.63 2977.1 -1 0 -1
594 2 2162.22 1757.15 2496.8 0 0 0
595 2 2005.05 3165.1 2311.23 0 -1 0
596 2 1951.06 2290.6 2052.25 0 0 0
597 2 3237.64 2158.65 3255.33 -1 0 -1
598 2 3060.94 1981.71 2139.12 -1 0 0
599 2 2110.14 3192.05 2348.18 0 0 0
600 2 2284.65 3294.94 2077.77 0 -1 0
601 2 1835.03 3266.91 2364.28 0 -1 0
602 2 2594.8 2136.42 1920.31 0 0 0
603 2 3140.5 2383.47 2474.52 -1 1 0
604 2 2451.44 2736.8 2601.22 0 -1 -1
605 2 2326.35 2322.01 2161.32 -1 -1 0
606 2 2003.53 1959.38 1982.05 0 0 0
607 2 2260.44 2146.41 3194.88 0 0 -1
608 2 2245.24 2461.86 2254.85 -1 0 -1
609 2 2651.13 2586.45 1984.68 0 -1 -1
610 2 1719.57 3291.63 1861.84 1 -1 0
611 2 2629.87 3213.85 2486.06 0 -1 0
612 2 2107.41 2329.15 2334.41 0 0 0
613 2 2451.79 1749.31 1918.91 0 0 0
614 2 1866.34 2070.9 1842.37 0 0 0
615 2 1859 2242.39 3237.42 0 0 -1
616 2 2162.23 2286.96 2005.49 0 0 0
617 2 1801.07 1793.32 2152.48 0 0 0
618 2 2140.47 2189.47 1938.58 0 0 0
619 2 1765.46 2257.73 2170.18 0 0 0
620 2 2596.98 1984.28 2070.24 0 1 1
621 2 2056.76 3184.96 2547.59 0 -1 0
622 2 2093.02 1914.01 1751.1 0 0 0
623 2 3277.73 2337.29 3156.15 -1 0 -1
624 2 2375.92 2043.8 2070.88 0 0 0
625 2 2078.91 2103.51 1985.59 0 0 0
626 2 2731.23 3225.08 2058.3 0 0 1
627 2 3123.36 1918.22 2298.44 -1 0 0
628 2 3273.28 2395.59 3257.54 -1 0 0
629 2 2371.47 3264.66 1890.94 0 0 0
630 2 2935.6 2927.11 2635.27 0 0 0
631 2 1751.24 2059.35 2381.68 0 0 0
632 2 2225.16 1924.38 2145.97 0 0 0
633 2 2002.22 2349.77 2541.03 0 0 0
634 2 1804.83 2478.08 1783.69 0 0 0
635 2 1870.82 2040.05 2374.86 0 0 0
636 2 2055.15 2342.35 2438.62 0 0 0
637 2 2046.75 2067.65 3181.03 0 0 -1
638 2 2217.66 3255.53 2175.89 0 -1 0
639 2 2422.32 2086.37 3235.57 0 0 0
640 2 2096.96 2234.97 2403.72 0 0 0
641 2 2115.01 1713.71 1809.45 0 0 0
642 2 2066.81 1735.82 1914.24 0 0 0
643 2 1707.11 3032.56 2021.16 0 0 0
644 2 2337.07 1891.58 2135.89 0 0 0
645 2 3164.89 2982.81 2658.07 -1 -1 0
646 2 2119.5 1867.63 3125.31 0 0 0
647 2 2172.15 2040.46 2385.95 0 0 0
648 2 2229.02 2368.07 1944.28 0 0 0
649 2 1917.59 2505.06 1821.8 0 0 0
650 2 1858.04 1841.78 2244.86 0 0 0
651 2 2346.09 2032.06 1864.51 0 0 0
652 2 2071.92 2046.94 2984.22 0 0 0
653 2 2233.38 1845.73 3294.63 0 0 -1
654 2 1929.77 1903.91 3219.08 0 0 -1
655 2 2685.06 2894.45 2096.68 0 0 0
656 2 2041.99 2180.96 2314.03 0 0 0
657 2 1889.21 3223.99 2613.77 0 -1 0
658 2 1832.25 2727.5 1884.79 0 0 0
659 2 1900.16 2059.21 1730.02 0 0 0
660 2 1813.15 2050.04 2481.62 0 0 0
661 2 3176.41 2129.84 2543.53 0 0 -1
662 2 2001.31 2284.78 2350.85 0 0 0
663 2 1796.91 1766.35 3222.35 -1 1 -1
664 2 2458.19 1850.96 2122.64 0 0 0
665 2 3121.71 1771.95 1818.84 -1 1 0
666 2 2060.64 2009.59 2074.87 0 0 0
667 2 2195.28 2034.32 2186.72 0 0 0
668 2 2265.35 3037.78 2414.74 -1 -1 1
669 2 2623.95 2915.47 2189.98 0 0 1
670 2 1942.23 3294.01 2420.6 0 -1 0
671 2 1817.21 3161.21 2453.07 0 -1 -2
672 2 3121.76 2058.88 1845.93 -1 0 0
673 2 2013.6 3206.04 2437.47 0 0 0
674 2 3147.69 2233.6 3238.14 -1 0 -1
675 2 1897.26 3146.09 2257.42 0 -1 0
676 2 2809.19 1800.65 2984.9 0 0 -1
677 2 1930.88 3252.67 2294.81 0 -1 0
678 2 2013.56 1826.58 3150.67 0 0 -1
679 2 2028.33 1848.19 3265.07 0 0 -1
680 2 1731.08 1740.6 2076.07 0 0 0
681 2 2346.29 2230.37 2223.19 0 0 0
682 2 2307.99 2056.3 1975.17 0 0 0
683 2 1883.52 2244.68 2163.88 0 0 0
684 2 3127 2928.36 3203.01 -1 0 -1
685 2 2376.19 2612.82 2402.95 0 0 0
686 2 2111.27 1995.77 1951.78 0 0 0
687 2 2530.04 2017.91 2170.46 0 0 0
688 2 3127.03 3262.43 2185.87 -1 -1 0
689 2 1971.15 2471.32 2018.81 0 0 0
690 2 3078.13 3239.3 3213.99 0 -1 -1
691 2 3193.31 2369.21 2193.2 -1 0 0
692 2 3033.27 1946.62 1706.51 0 0 0
693 2 1961.13 1789.05 2494.9 0 0 0
694 2 3296.58 3210.58 1773.24 -1 0 0
695 2 2315.92 2250.89 1864.58 0 0 0
696 2 2238.09 2207.47 2474.32 -1 -1 0
697 2 1730.72 2358.14 2401.63 1 -1 -1
698 2 3220.95 1972.31 2317.19 -1 0 0
699 2 2475.71 2850.72 2307.29 0 -1 0
700 2 1710.11 2270.03 1765.82 0 0 0
701 2 1969.63 2109.72 1810.34 0 0 0
702 2 2132.19 2169.07 2494.25 0 0 0
703 2 2050.89 1723.88 2459.94 0 0 0
704 2 1831.16 3276.44 2112.26 0 -1 0
705 2 2147.97 2288.67 2489.08 0 0 0
706 2 3256.46 3061.85 3267.68 0 0 -1
707 2 1900.27 1768.65 2330.77 0 0 0
708 2 2174.54 2096.95 2586.18 0 0 0
709 2 1882.49 2968.07 1888.2 1 0 0
710 2 1728.83 1976.2 1867.25 0 0 0
711 2 3006.18 2213.07 2270.92 0 0 0
712 2 2421.62 2034.56 1959.38 0 1 0
713 2 1939.65 2613.49 1845.37 0 0 1
714 2 1762.35 2441.15 2561.64 0 0 0
715 2 1795.31 3033.39 1849.81 1 0 1
716 2 2132.66 3260.82 2257.66 0 -1 0
717 2 2104.18 1778.04 3206.29 0 0 -1
718 2 2084.04 1741.65 2178.1 0 0 0
719 2 2012.96 2376.22 2284.35 0 0 0
720 2 2014.69 3095.9 2406.66 0 0 0
721 2 2268.15 2087.87 2081.67 0 0 0
722 2 3253.86 2341.62 1860.61 -1 0 0
723 2 2141.08 2420.58 2265.07 0 0 0
724 2 3194.91 2990.28 1733.87 -1 0 0
725 2 3028.41 1798.97 3258.36 0 1 0
726 2 2760.02 2313.65 2777.86 0 0 -1
727 2 3220.46 3220.73 2042.51 0 -1 0
728 2 2155.72 2342.87 1797.9 0 0 0
729 2 3187.06 2277.11 2266.86 -1 0 0
730 2 1847.11 2941.63 2574.13 0 -1 0
731 2 1989.61 2129.8 2218.78 0 0 0
732 2 2440.61 2288.84 2199.23 0 0 0
733 2 2289.94 2451.18 1894.85 0 0 1
734 2 2191.82 1765.86 2219.38 0 0 0
735 2 1833.69 2302.54 2071.14 0 0 0
736 2 1945.65 2230.56 2262.71 0 0 0
737 2 3124.51 1737.67 1955.11 -1 0 0
738 2 1948.24 2084.45 3103.73 0 0 -1
739 2 1979.4 1713.71 2129.66 0 0 0
740 2 3294.36 3092.26 1783.54 -1 0 1
741 2 2117.93 2349.5 1908.71 0 0 0
742 2 2056.72 1997.71 3081.98 0 0 -1
743 2 1892.3 1774.63 2073.94 0 0 0
744 2 3212.21 1953.56 2003.43 -1 0 0
745 2 1999.93 2226.5 2146.39 0 0 0
746 2 2118.79 2087.27 1874.78 0 0 0
747 2 1955.91 3117.21 1759.4 0 -1 0
748 2 3183.02 1909.1 2403.68 -1 0 0
749 2 3208.04 1983.57 1874.64 -1 0 0
750 2 1763.94 2206.52 1853.81 0 0 0
751 2 1844.96 2577.81 2745.87 1 0 0
752 2 3064.94 1959.41 1816.28 0 0 0
753 2 2661.01 2678.84 2341.5 0 0 1
754 2 1966.76 1963.96 2357.96 0 0 0
755 2 2109.76 1949.95 2168.82 0 0 0
756 2 2064.8 3077.88 1795.93 0 -1 0
757 2 3288.45 2153.23 1769.97 -1 0 0
758 2 1727.94 3258 2315.25 0 -1 0
759 2 2044.57 1937.4 1869.64 0 0 0
760 2 1988.84 3152.42 2734.06 0 -1 0
761 2 1812.91 2143.71 1946.01 0 0 0
762 2 2037.39 2119.46 2111.36 0 0 0
763 2 3070.51 2017.34 2269.28 -1 0 0
764 2 1903.06 2391.52 2091.39 0 0 0
765 2 2078.5 2183.25 2602.18 -1 1 0
766 2 2140.94 2544.22 1896.43 -1 0 0
767 2 2247.02 2032.88 3142.83 0 0 -1
768 2 3229.54 3255.47 3285.39 -1 -1 0
769 2 1827.77 2246.83 2269.73 0 0 0
770 2 2232.18 2060.01 1865.04 0 0 0
771 2 3241.23 2225.6 2037.4 -1 0 0
772 2 2027.23 2204.73 3284.33 0 0 -1
773 2 1976.26 2059.25 2426.92 0 0 0
774 2 2447.88 2174.2 3296.81 0 0 -1
775 2 3257.91 2953.91 1914.16 -1 0 0
776 2 1724.52 1780.49 1946.95 0 0 0
777 2 1891.76 2643.35 2828.17 1 0 0
778 2 2240.67 2263.86 1770.81 0 0 0
779 2 3158.23 2052.14 1963.88 0 0 0
780 2 3158.68 3161.05 2243.62 -1 -1 0
781 2 1820.96 1874.8 3254.42 0 0 -1
782 2 2054.25 2113.3 3075.88 0 0 -1
783 2 1773.19 2252.95 2375.9 0 0 0
784 2 3273.73 1805.89 2163.97 -1 0 0
785 2 2875.6 2773.59 2987.41 0 0 0
786 2 1893.07 2236.41 2368.48 0 0 0
787 2 3128.56 2238.51 2050.1 -1 0 0
788 2 1945.01 3005.2 1796.47 1 0 1
789 2 1892.16 2297.25 2558.95 0 -1 0
790 2 2687.94 3291.97 2703.31 1 0 0
791 2 3019.85 3285.89 2039.72 0 0 0
792 2 2677.66 2912.98 2361.98 0 -1 0
793 2 1880.4 2359.3 3236.31 0 0 -1
794 2 2855.95 2335.05 1967.64 0 0 0
795 2 3116.49 3108.9 2009.67 -1 -1 0
796 2 1795.41 2026.08 1954.48 0 0 0
797 2 2086.42 1838.55 2762.76 0 0 0
798 2 3079.7 2103.88 3050.98 0 1 -1
799 2 1873.54 1932.16 3031.26 0 0 -1
800 2 1772.2 2320.85 3267.24 0 0 -1
801 2 1760.57 1857.74 2579.65 0 0 0
802 2 1781.66 1899.12 1765.84 0 0 0
803 2 1844.66 2346.02 2396.78 0 0 0
804 2 2019.57 1894.7 3052.56 0 1 -1
805 2 2234.8 1849.17 2437.35 0 0 0
806 2 2405.63 1929.76 2045.49 0 0 0
807 2 3013.95 1881.08 2114.01 -1 0 0
808 2 2431.4 3184.02 2576.91 1 -1 -1
809 2 3243.2 3017.2 2130.8 -1 0 1
810 2 2290.56 3096.14 2207.11 0 0 0
811 2 2081.31 2059.09 2205.26 0 0 0
812 2 3129.42 2052.27 3142.91 -1 0 -1
813 2 3254.17 2225 3150.97 -1 0 -1
814 2 2611.5 2753.22 2417.18 0 -1 0
815 2 1919.31 1840.78 3077.84 0 0 -1
816 2 3179.52 2106.76 1753.38 -1 0 0
817 2 1975.72 2066.18 2018.61 0 0 0
818 2 3281.49 1965.8 2420.97 -1 0 0
819 2 3092.06 2179.46 1736.4 0 0 0
820 2 2010.35 3195.68 2093.48 0 -1 0
821 2 3108.83 1949.66 1935.49 -1 0 0
822 2 2058.53 2026.55 1784.84 0 0 1
823 2 3158.3 1980.24 2208.96 -1 0 0
824 2 1794.94 2344.41 2499.15 1 0 0
825 2 1906.06 1867.67 2397.85 0 0 0