ITEM: TIMESTEP
727000
ITEM: NUMBER OF ATOMS
1000
ITEM: BOX BOUNDS pp pp pp
1.0526326786769353e+03 3.9473673213225293e+03
1.0526326786769353e+03 3.9473673213225293e+03
1.0526326786769353e+03 3.9473673213225293e+03
ITEM: ATOMS id type x y z ix iy iz
1 1 2842.25 2402.24 1243.75 -1 0 1
2 1 1978.5 1090.69 2657.89 0 0 0
3 1 3473.53 2600.2 2067.88 0 0 0
4 1 2186.36 1487.69 3443.55 0 -1 0
5 1 3640.03 3113.09 2757.99 -1 -1 1
6 1 1794.64 1571.55 3636.65 0 0 0
7 1 1465.93 3169.51 2957.31 0 -1 0
8 1 2096.42 1553.91 2467.18 0 0 1
9 1 3128.69 3185.59 2462.47 0 0 0
10 1 2953.79 2512.33 2680.22 0 0 0
11 1 2755.77 2042.28 2634.17 0 0 0
12 1 1178 3378.66 3863.76 0 0 0
13 1 3308 3765.18 3707.18 -1 0 -1
14 1 2146.37 2777.36 2979.91 0 0 -1
15 1 3415.51 2149.23 1943.75 0 0 0
16 1 2108.54 3936.92 2442.55 0 0 -1
17 1 2417.77 3011.89 3031.34 1 0 -1
18 1 3289.69 2313.87 2484.2 -1 1 0
19 1 2985.59 1726.13 1581.04 -1 0 0
20 1 1224.84 3188.59 3106.04 0 -1 0
21 1 1929.33 2546.44 2596.57 0 1 0
22 1 2720.59 3129.05 2814.75 2 -1 0
23 1 2984.64 2064.45 2751.53 0 0 1
24 1 3105.03 3585.77 2081.78 0 0 0
25 1 1552.77 1771.54 2888.57 -1 0 0
26 1 3097.7 3186.55 3073.48 0 0 0
27 1 3261.58 2367.83 2927.11 -1 0 1
28 1 1910.59 2438.96 2364.82 0 0 0
29 1 2589.69 2203.55 2699.81 0 0 -1
30 1 2886.64 3666.34 2998.71 0 0 0
31 1 1202.39 1439.73 3025.84 0 0 0
32 1 1412.72 3296.05 3454.55 0 0 -1
33 1 2110.71 2359.76 3308.04 0 0 0
34 1 2436.07 1084.86 3000.98 0 0 0
35 1 1874.81 2096.98 2360.36 0 0 -1
36 1 1284.37 2930.38 1157.84 0 -1 0
37 1 1633.13 1657.35 1714.82 0 0 0
38 1 2131.67 3129.11 2094.65 0 0 0
39 1 3409.11 2312.75 2988.53 -2 0 -1
40 1 3291.25 2467.83 1846.92 -1 -1 2
41 1 1816.21 3039.12 1695.44 0 0 -1
42 1 3046.35 2762.65 1936.21 0 -1 0
43 1 2442.87 2621.87 1928.31 0 -2 0
44 1 3135.77 3626.67 1533.55 0 -1 0
45 1 2449.69 2265.67 2895.98 0 0 0
46 1 3036.17 3797.92 3189.33 -1 -1 0
47 1 3615.76 3438.54 2115.61 -1 -1 -1
48 1 3408.34 1946.8 2890.63 0 0 -1
49 1 3021.55 2573.09 2178.75 -1 0 1
50 1 3210.39 1482.93 3526.94 -1 0 0
51 1 3482 1181.24 2162.82 -1 -1 1
52 1 3920.61 2550.88 3754.46 -1 0 -1
53 1 3270.53 1777.47 3628.95 -2 0 -1
54 1 3515.04 2188.59 3138.56 0 0 -1
55 1 3147.69 3187.39 3093.86 -2 0 -1
56 1 3287.79 2050.93 1431.92 0 0 0
57 1 1773.35 2507.23 3794.44 0 0 -1
58 1 2455.15 2667.06 3747.87 0 0 -1
59 1 2689.94 3614.95 2873.5 -1 -1 0
60 1 1877.49 3353.53 1314.53 -1 -1 1
61 1 1695.93 2918.57 2443.68 -1 0 0
62 1 2619.36 1136.81 3309.29 0 0 -1
63 1 3390.3 2104.12 3327.15 -1 0 0
64 1 3000.55 2675.45 3424.35 0 -1 -1
65 1 3426.08 3229.92 2827.1 -1 -1 -1
66 1 3488.24 3055.76 2541.22 -1 0 1
67 1 2491.37 2405.16 1456.39 0 0 0
68 1 2133.73 3068.07 3545.24 0 -1 -1
69 1 1194.43 2610.54 2923.67 0 0 0
70 1 1463.3 1218.41 3624.51 0 1 -1
71 1 1774.52 2760.97 2552.82 -1 0 -1
72 1 2828.34 1893.83 3904.28 0 0 -1
73 1 2707.49 1285.76 1075.03 0 1 1
74 1 3346.2 2805.13 2002.58 -1 0 -1
75 1 1798.03 2465.76 1417.92 0 0 1
76 1 1340.49 1431.97 3214.22 -1 0 0
77 1 2713.89 2526.27 3631.59 -1 -1 -1
78 1 1390.49 3889.04 1577.14 0 -1 0
79 1 1885.25 2281.2 2536.07 0 -1 0
80 1 3332.34 2333.33 2457.41 -1 0 0
81 1 3908.81 1591.89 1603.87 -1 0 0
82 1 1650.55 2116.04 3660.99 1 0 0
83 1 2469.82 1839.66 2793.71 -1 -1 -1
84 1 1776.35 3898.34 3741.17 1 0 -1
85 1 2505.22 2375.13 2398.72 0 -1 0
86 1 3687.75 2327.91 3008.58 -1 0 0
87 1 1470.15 1769.51 3111.72 0 -1 -1
88 1 1219.49 2893.62 1826.51 0 -1 0
89 1 3028.19 2987.13 1505.9 0 0 0
90 1 3763.4 3512.8 2237.19 -2 -1 0
91 1 1370.74 3759.14 3172.39 0 -1 -1
92 1 1749.44 2921.18 2436.91 0 -1 -1
93 1 2093.2 3662.59 2840.35 1 0 0
94 1 2172.35 1961.25 3697.51 0 0 -1
95 1 1502.19 2399.64 3047.85 -1 -1 -1
96 1 2905.56 2440.82 1718.29 -1 0 0
97 1 2198.73 2366.48 1802.61 0 -1 1
98 1 2798.77 1903.56 3216.34 -1 -1 0
99 1 2443.98 3052.04 3258.86 0 -1 -1
100 1 2865.67 1756.3 1209.27 -1 0 0
101 1 1194.22 3120.17 2295.02 0 -1 0
102 1 2149.28 1121.48 2769.73 -1 0 0
103 1 3074.52 2515.01 1874.89 -1 0 0
104 1 3793.34 2808.19 2403.46 0 -1 -1
105 1 3703.07 3366.53 2911.6 -1 0 0
106 1 3782.56 1741.3 3015.51 0 1 -1
107 1 2905.57 2016.36 2416.76 -1 -2 0
108 1 3619.29 3461.48 1308.48 -1 0 -1
109 1 2124.25 2550.51 2362.39 -1 -1 0
110 1 2898.27 2880.08 1296.61 0 -1 0
111 1 3772.16 1053.33 3780.87 -1 0 -1
112 1 2736.28 1337.41 3247.8 0 0 0
113 1 2322.47 2856.33 3200.69 0 0 -1
114 1 2835.11 2369.25 3167.75 -1 0 0
115 1 2133.4 2764.72 3324.23 0 0 -1
116 1 3057.46 2383.51 3111.64 0 0 0
117 1 2283.09 3836.86 2880.75 0 -1 -1
118 1 1916.26 2952.59 2157.7 -1 0 -1
119 1 3690.03 3217.41 2101.61 0 -1 0
120 1 2919.31 2217.1 1485.52 1 0 0
121 1 3413 3570.78 3347.37 -1 0 0
122 1 2955.91 3399.24 2443.42 0 0 -1
123 1 1402.18 1352.87 3810.89 -1 1 -1
124 1 2647.3 2529.49 1218.45 0 0 1
125 1 1406.92 3375.79 1706.79 0 -2 0
126 1 2041.21 3940.16 3279.99 0 0 -1
127 1 2922.68 2142.35 1904.85 -1 -1 0
128 1 1852.8 2162.07 3942.92 -1 0 0
129 1 2481.1 2398.16 2356.31 -1 0 0
130 1 3760.82 2709.33 1755.85 0 -1 0
131 1 3146.89 3495.74 1105.87 -1 -1 0
132 1 2681.02 2972.01 3292.21 0 -1 -1
133 1 2522.74 2387.7 3066.32 0 0 -1
134 1 1660.64 3577.85 2476.4 -1 -1 -1
135 1 2008.47 3836.21 3744.25 0 -1 -1
136 1 3229.29 1914.64 3446.26 -1 0 0
137 1 3493.75 1601.89 1670.5 -1 0 0
138 1 2902.16 2624.62 1581.18 0 -1 0
139 1 3232.96 2639.18 1823.49 -1 -1 -1
140 1 3184.58 3276.92 2912.59 -1 -1 -1
141 1 3079.07 2973.67 1837.34 -1 1 0
142 1 2406.22 2120.32 3077.08 0 1 -1
143 1 3476.09 3243.61 2136.81 -1 0 0
144 1 1180.63 3269.49 2600.55 -1 -1 0
145 1 2209.17 2089.66 1887.64 0 0 0
146 1 3691.6 2619.02 1965.28 -1 -1 0
147 1 1375.4 2470.63 2843.54 0 0 -1
148 1 2848.34 2824.21 2274.95 -1 -1 1
149 1 3299.27 3034.58 2908.97 0 0 0
150 1 2386.82 2647.88 2593.89 0 0 0
151 1 2581.45 3334.94 2908.6 0 -2 -1
152 1 3724.88 2707.8 3180.84 -1 -1 0
153 1 3135.15 2957.85 3081.39 -1 -1 -1
154 1 3584.23 2799.08 2151.1 -1 0 -1
155 1 3251.92 2295.79 2518.14 0 0 0
156 1 1783.6 2519.02 3506.57 0 0 -2
157 1 3888.73 3249.73 2237.21 0 0 -1
158 1 2866.64 2885.8 1769.12 -1 -1 0
159 1 3351.18 2740.89 2759.07 0 -1 0
160 1 3153.52 1616.92 3040.39 -1 0 0
161 1 2811.48 2864.81 1528.67 0 0 -1
162 1 2983.82 1815.15 2556.16 0 -1 0
163 1 2323.18 2632.89 3090.69 0 0 -1
164 1 3542.44 2401.51 1609.4 0 -1 -1
165 1 2177.81 1957.11 3751.22 0 0 -1
166 1 1118.78 2844.32 1637.87 0 0 -1
167 1 2795.16 2831.04 2268.51 0 -1 0
168 1 1528.76 1965.98 3285.37 0 0 0
169 1 1997.68 3628.37 1441.39 0 -1 -1
170 1 3239.98 3198.63 2271.33 0 -1 0
171 1 3007.92 1900.46 3358.61 -1 -1 -1
172 1 2683.35 3211.33 1906.55 0 -1 -1
173 1 2989.3 2317.77 2538.13 -1 0 -1
174 1 3089.37 1446 3804.76 -2 0 -1
175 1 3485.95 3312.42 1142.41 -1 -1 -1
176 1 1897.87 1853.69 3261.55 0 0 0
177 1 3011.06 3709.35 1291.62 -1 0 0
178 1 3696.18 2015.38 2983.77 -1 0 0
179 1 1561.9 1968.09 3327.89 -1 0 0
180 1 3602.05 3141.11 3253.25 0 0 -1
181 1 1308.07 2749.88 3401.09 0 -1 1
182 1 3081.99 3773.58 1991.38 0 -1 0
183 1 1155.49 3314.51 1727.16 0 -1 0
184 1 3199.06 2069.14 2803.64 0 -1 1
185 1 1292.25 2168.61 2718.23 0 0 -1
186 1 3400.45 2235.57 1503.97 -1 0 -1
187 1 3901.94 2760.47 3018.57 0 0 -1
188 1 2631.85 1098.03 3859.68 0 1 -1
189 1 3847.14 1846.39 3721.58 -1 0 -1
190 1 2647.89 2770.4 2476.95 -1 0 0
191 1 3102.38 1272.11 3537.2 0 0 0
192 1 3631.24 3693.87 1383.47 -1 -1 0
193 1 3753.22 2979.52 3179.03 -2 -1 0
194 1 3151.18 1922.21 1629.21 0 -1 -1
195 1 1945.7 2668.28 2942.37 -1 0 0
196 1 2330.26 2526.15 3889.78 0 0 -1
197 1 1989.6 2172.34 1221.56 -1 1 1
198 1 3016.97 3606.02 3721.9 -1 -1 0
199 1 2233.03 3553.84 1135.82 0 0 1
200 1 1826.16 1596.55 3281.48 0 0 -1
201 1 3607.34 1995.46 3275.05 -1 0 0
202 1 2639.2 2297.04 3740.29 -1 -1 -1
203 1 3450.39 3432.97 3774.49 -1 -1 0
204 1 2414.28 2252.79 3294.85 0 -1 -2
205 1 3291.9 2705.47 3395.51 -1 -1 0
206 1 3665.74 1222.83 3635.53 -1 0 0
207 1 2368.51 2905.94 3711.21 -1 -1 -1
208 1 2384.42 2038.43 2850.79 0 0 -1
209 1 2852.13 2791.21 3276.16 -1 -1 0
210 1 3419.95 2570.15 1398.3 0 -1 0
211 1 3047.76 3199.49 1409.03 -1 -1 0
212 1 2282.53 1069.62 2280.71 0 0 -1
213 1 3371.12 2811.42 2502.67 0 1 -1
214 1 2351.63 3132.68 2450.94 0 -1 0
215 1 1054.14 3243.33 1526.5 0 0 -1
216 1 2772.17 2238.78 3587.15 -1 0 -1
217 1 3197.18 1952.86 1853.59 -1 0 1
218 1 1952.57 2683.28 1651.55 0 0 0
219 1 3440.59 3223.26 2394.9 0 -1 0
220 1 1980.15 2394.94 3570.01 -1 0 -1
221 1 3296.55 1307.12 3392.84 -1 0 -1
222 1 3088.74 1992.27 1059.7 0 -1 1
223 1 2440.58 2428.17 3676.26 0 -1 -2
224 1 1245.08 3689.37 2492.43 0 -1 0
225 1 2999.2 3840.29 2411.6 0 -1 0
226 1 2957.41 2583.53 3166.2 0 -1 0
227 1 3715.6 2337.26 2775.49 -1 -1 -1
228 1 1126.66 3550.72 1146.24 0 0 1
229 1 3130.89 1823.08 2060.87 -1 -1 0
230 1 1214.94 2382.11 2668.7 0 0 -1
231 1 1795.89 2908.75 2412.33 -1 -1 0
232 1 1862.35 3805.49 3936.4 0 -1 -1
233 1 3718.08 2926.95 2931.2 -1 0 1
234 1 1675.61 1436.61 2622.74 0 -1 -1
235 1 2848.29 2300.87 1268.49 -1 -1 0
236 1 2495.19 2620.89 1915.7 -1 0 0
237 1 3398.56 2548.41 3242.18 0 -1 0
238 1 3298.54 3034.37 2431.43 0 -1 0
239 1 2865.82 2638.77 1815.29 -1 -1 0
240 1 1969.79 2574.6 2575.58 1 0 -1
241 1 2830.59 3786.05 1496.12 0 -1 0
242 1 2724.85 1783.1 1404.13 0 -2 0
243 1 1535.12 3890.41 1351.02 0 -1 0
244 1 3199.44 2670 2971.35 0 -1 -1
245 1 3574.49 1171.48 2529.23 -1 0 0
246 1 3154.5 1533.42 2806.85 0 -1 0
247 1 2386.49 3855.31 2676.88 0 -1 0
248 1 3561.83 3005.16 1732.56 -1 -1 0
249 1 3567.02 2728.66 3386.36 0 0 0
250 1 3868.21 1361.66 3631.79 -1 0 -1
251 1 3397.72 2826.26 1678.72 0 -1 0
252 1 3202.43 1286.87 2796.44 -1 0 0
253 1 1345.77 2752.68 1719.76 1 0 0
254 1 3774.37 2111.66 2663.09 -1 0 -1
255 1 3056.41 1621.4 3668.02 -1 0 -1
256 1 2426.3 2387.8 3063.31 -1 0 0
257 1 3120.1 3404.3 1606.55 -1 -1 0
258 1 2621.27 1761.12 3143.97 0 0 -1
259 1 2713.79 1827.34 3722.77 -1 0 -1
260 1 2725.06 2566.88 3291.18 0 0 0
261 1 1168.47 1761.31 2175.34 0 0 0
262 1 3514.44 2544.52 1810.06 -1 0 -1
263 1 2643.02 3062.77 3039.38 -1 0 -1
264 1 2061.71 2322.63 1425.86 0 0 -1
265 1 3772.21 1648.47 3298.66 -1 0 -1
266 1 3359.72 1332.76 3638.04 -1 0 -1
267 1 1154.59 2171.27 3232.47 0 0 -1
268 1 1979.92 2527.73 2599.87 0 -1 0
269 1 3043.09 1169.73 3134.11 -1 0 0
270 1 2221.01 1963.01 3719.99 0 0 -1
271 1 1716.77 3070.42 2301.4 0 -1 -1
272 1 2623.45 2344.15 3316.85 -1 0 -1
273 1 1898.57 2295.19 3262.99 0 0 -1
274 1 2221.02 2598.84 3336.28 1 -1 0
275 1 3136.65 2403.98 1436.56 -1 0 1
276 1 3002.2 2773.65 1102.96 -1 -1 0
277 1 2687.79 2711.76 1677.76 0 0 1
278 1 1097.66 1224.91 2976.04 0 0 -1
279 1 2241.05 2883.43 2407.49 0 -1 0
280 1 2415.67 2442.87 3442.07 -1 0 -1
281 1 1564.38 3134.59 2791.44 0 -1 0
282 1 1660.79 2195.08 3206.34 0 -1 0
283 1 2198.05 3717.33 3837.38 0 -1 -1
284 1 1899.69 2135.25 3646.24 0 0 -1
285 1 3935.42 2899.21 3217.53 -1 0 -1
286 1 3178.03 1781.43 3195.84 -1 1 0
287 1 2996.49 1658.34 1352.28 0 0 0
288 1 2218.43 2228.99 2887.53 1 0 0
289 1 1867.45 2849.12 2819.8 0 -1 0
290 1 3350.34 2471.63 2236.52 -1 -1 0
291 1 2067.24 2825.58 2427.85 -1 -1 0
292 1 3702.07 2059.5 2953.28 -1 0 -1
293 1 2722.6 2597.67 2593.35 0 0 1
294 1 2587.32 2752 2761.94 0 -1 -1
295 1 1548.97 3753.12 2577.05 0 -1 0
296 1 3663.63 2471.98 3209.84 0 0 0
297 1 3139.75 2213.14 2636.79 -1 0 0
298 1 2298.81 2412.82 2692.08 0 0 0
299 1 1286.44 1917.56 2581.62 1 0 0
300 1 1731.93 2435.75 3744.02 0 0 0
301 1 2257.61 2454.94 2636.76 -1 0 -1
302 1 3735.36 1581.08 1167 -1 0 0
303 1 3330.31 3796.96 1460.98 0 -1 0
304 1 2147.4 3028.7 3579.65 1 -1 -1
305 1 2340.05 1385.53 3622.55 0 0 -1
306 1 1234.54 3750.32 1133.28 0 -1 0
307 1 3517.73 2377.47 1650.96 -1 0 -1
308 1 1219.96 1308.57 1096.74 0 0 0
309 1 2764.24 3281.19 2197.42 0 0 -1
310 1 1370.98 1610.24 2925.85 0 0 -1
311 1 1907.62 3049.57 1148.59 0 -1 -1
312 1 3106.88 2215.3 2679.58 0 -1 1
313 1 1861.23 1729.9 3461.7 0 -1 -1
314 1 1381.54 2219.96 3133.3 1 0 0
315 1 1518.12 1392.55 2797.84 0 0 0
316 1 3172.37 3210.72 1197.13 -1 0 0
317 1 1974.56 3101.89 2684.98 1 0 -1
318 1 3874.67 3520.61 3032.71 0 -1 -1
319 1 3247.33 1933.46 1192.14 -1 0 0
320 1 2389.79 2804.12 2854.45 0 -1 0
321 1 2742.24 2075.52 3745.41 -1 0 0
322 1 2161.92 2456.37 1303.97 0 -1 0
323 1 1656.79 1773.06 3274.12 0 0 -1
324 1 3848.52 2220.67 1157.91 0 0 0
325 1 1803.97 3666.33 3176.87 0 0 0
326 1 2856.92 3001.08 3155.48 0 0 -1
327 1 2666.26 3431.66 2696.49 0 -1 0
328 1 1856.29 2024.85 2591.56 0 0 0
329 1 1832.76 2987.78 1693.94 0 0 0
330 1 2812.08 2536.11 2998.89 0 0 0
331 1 2453.24 2634.88 1683.2 -1 0 0
332 1 2101.31 3085.81 3505.82 0 -1 -1
333 1 3167.6 2517.49 3306.76 0 0 0
334 1 3212.4 3945.01 3678.66 -2 -1 0
335 1 2560.88 3202.29 2338.15 0 0 0
336 1 2429.57 2286.9 3894.56 0 -1 -1
337 1 1221.44 2366.74 1968.79 0 0 0
338 1 2846.28 2883.99 3815.45 0 -1 -1
339 1 3142.99 2829.96 3539.33 0 -1 0
340 1 2351.67 2408.78 2688.01 0 -1 0
341 1 2860.84 3733.48 3565.64 0 -1 -2
342 1 3024.76 3124.49 3289.65 0 -1 0
343 1 2956.95 1722.97 3172.26 1 -1 0
344 1 3289.09 3383.1 3361.87 0 -1 -1
345 1 2581.2 2106.46 1056.86 0 0 0
346 1 2836.55 2353.57 1266.5 0 -1 0
347 1 2474.15 2408.13 3077.88 -1 0 -1
348 1 1939.78 2501.81 2624.68 -1 -1 -1
349 1 3041.18 2740.57 2687.27 -1 0 0
350 1 2050.59 2117.02 1687.39 0 1 0
351 1 1672.57 1099.19 3552.65 0 0 -1
352 1 2247.51 2097.71 3444.01 0 1 0
353 1 3406.35 2708.62 2268.43 0 -1 0
354 1 1936.25 2701.72 2203.21 0 0 0
355 1 2259.04 2975.64 3398.09 0 -1 -1
356 1 2045.9 3536.24 1231.21 0 -1 0
357 1 1866.31 3199.76 3088.36 0 -1 -1
358 1 3391.67 3926.74 2001.79 -1 -1 0
359 1 2732.28 2146.24 3214.78 0 0 0
360 1 1973.6 1127.64 3866.39 0 1 -1
361 1 3785.27 2655.77 2209.93 -1 0 0
362 1 3069.09 2709.37 3025.6 0 -1 0
363 1 2526.67 2284.17 3522.69 0 0 -1
364 1 3071.11 2871.69 3315.24 -1 0 0
365 1 1880.54 3626.3 2957.68 0 -1 0
366 1 1621.52 2668.61 1297.65 0 0 0
367 1 2062.39 2635.41 3143.72 0 -1 -1
368 1 2746.86 1448.49 2655.37 -1 0 0
369 1 3492.16 2910.99 2821.22 0 0 -1
370 1 3613.71 3011.52 1950.39 -2 0 0
371 1 3743.89 1987.14 1583.07 -1 0 0
372 1 3309.16 3330.46 3864.44 -1 -1 -1
373 1 3122.75 2709.99 3028.51 0 1 0
374 1 2547.59 1478.86 2602.85 0 0 0
375 1 3470.25 1166.22 2213.25 0 0 -1
376 1 2864.44 2766.31 2507.32 0 1 0
377 1 3595.29 2483.01 2220.81 0 0 0
378 1 2190.22 1553.78 3219.97 0 1 -1
379 1 3227.19 2592.67 2036.5 -1 -1 0
380 1 2706.98 1904.85 1627.88 -1 0 0
381 1 2082.89 2580.23 3489.85 0 0 -1
382 1 3651.28 3155.2 2998.1 -1 -1 0
383 1 2903.39 2178.48 2232.11 -1 0 0
384 1 3093.29 3007.45 2287.27 0 -1 0
385 1 3385.56 2916 2203.78 0 0 0
386 1 3099.53 3344.72 2673.97 -1 0 0
387 1 3401.49 2261.64 2972.85 -1 0 -1
388 1 1054.24 2934.55 3179.02 0 0 -1
389 1 2398 2527.8 1269.06 0 0 0
390 1 1135.6 2772.03 1070.14 0 -1 0
391 1 2347.46 1537.58 1286.82 0 0 0
392 1 1475.04 2598.43 3366.16 -1 -1 -1
393 1 2660.43 2367.51 2848.6 0 0 1
394 1 1528.55 1887.36 3616.99 1 0 -1
395 1 2426.75 2417.9 1721.62 0 -1 -1
396 1 1176.81 3039.46 2647.43 1 0 0
397 1 2994.87 3053.22 1146.81 -1 0 0
398 1 2000.25 2383.71 3093.27 0 -1 0
399 1 1817.04 1281.04 3080.36 0 0 0
400 1 1961.89 2228.49 2897.72 -1 0 -1
401 1 2512.93 2427.53 2388.49 0 0 -1
402 1 2008.97 2603.53 3913.33 0 0 -2
403 1 1236.21 1779.84 3463.16 0 0 -1
404 1 2674.29 2796.9 1919.71 0 0 0
405 1 2803.75 3462.35 3037.16 -1 0 0
406 1 1823.52 3153.8 2132 0 -1 0
407 1 1439.3 3240.79 3220.62 -1 -1 0
408 1 3845.57 2338.77 3211.46 0 0 -1
409 1 3578.68 2794.84 2613.86 0 -1 -1
410 1 2658.46 2063.84 2388.04 0 0 -1
411 1 1851.14 1725.27 1635.79 0 0 0
412 1 2329.86 3415.61 3077.39 0 0 0
413 1 1216.84 2791.31 3142.63 0 0 -1
414 1 1672.51 3093.91 3054.24 0 -1 -1
415 1 1722.34 2299.27 2988.68 0 0 -1
416 1 2739.84 2796.36 1157.6 0 0 0
417 1 1330.43 1810.76 2360.41 -1 0 -1
418 1 3824.79 3367.64 1694.62 -1 0 1
419 1 1999.08 2612.87 2552.07 0 0 0
420 1 3606.31 3093.83 2242.91 -2 -1 -1
421 1 3130.93 2567.68 1296.88 -1 0 0
422 1 1249.9 3370.25 1505.55 0 -1 0
423 1 3463.97 2891.99 1200.09 0 -1 0
424 1 1654.02 3092.52 3668.2 0 -1 -1
425 1 2287.49 3110.32 3784.82 0 0 -1
426 1 3097.91 2680.84 2990.33 -1 0 -1
427 1 3575.09 2161.33 2078.26 -1 -1 0
428 1 2255 3271.28 2636.94 0 -1 -1
429 1 3200.16 2976.09 2048.75 -1 0 0
430 1 1736 1444.48 2069.46 0 -1 0
431 1 2701.71 2315.1 1106.45 0 0 0
432 1 1585.52 3097.18 2104.66 0 -1 0
433 1 2029.39 2814.84 2464.84 -1 -1 -1
434 1 3544.01 2861.93 2378.07 -1 0 0
435 1 3108.57 1724.25 3431.61 -1 0 0
436 1 3214.96 2868.46 1130.92 -1 0 0
437 1 2918.29 2021.97 1642.45 0 1 0
438 1 3885.6 2506.16 2782.05 -1 -1 -1
439 1 3082.94 2321.45 1409.08 0 0 0
440 1 3420.56 1607.48 3513.65 -1 0 -1
441 1 2936.35 1434.83 3588.3 -1 0 -1
442 1 1402.32 2623.44 3003.84 0 0 0
443 1 3468.7 2541.1 3471.03 0 -1 0
444 1 3059.76 2774.32 1678.61 -2 0 0
445 1 2355.8 3289.02 2618.54 0 -1 0
446 1 3291.16 1543.97 3751.11 -1 0 -1
447 1 2749.07 2867.58 2696.19 0 0 0
448 1 1680.27 2869.74 2118.78 -1 -1 0
449 1 2117.9 2440.98 1331.04 -1 0 0
450 1 1586.71 2378.3 3546.86 0 0 -1
451 1 1643.32 2918.65 2901.93 0 -1 -1
452 1 1890 1975.67 3484.67 0 0 0
453 1 3543.19 3519.56 2314.11 -1 0 0
454 1 1582.6 2003.68 2051.07 0 0 -1
455 1 2854.35 2657.42 3629.33 -1 0 -1
456 1 3278.69 1268.14 1120.62 0 1 0
457 1 2493.14 2955.74 2373.38 0 -1 -1
458 1 1521.02 1932.82 3327.1 0 1 -1
459 1 1738.25 2409.41 1973.97 0 -1 -1
460 1 3604.56 2471.77 2608.58 -1 -1 0
461 1 3083.57 2899.9 2503.76 0 -1 0
462 1 3324.82 2968.11 2657.03 -1 0 -1
463 1 3776.51 1700.22 3312.18 -1 0 -1
464 1 2818.06 2716.54 2780.76 0 0 0
465 1 1119.86 2898.71 2412.64 1 0 -2
466 1 2984.24 3340.41 2861.72 -1 -1 0
467 1 2837.25 2658.52 1324.81 0 1 0
468 1 3639.92 3050.37 1214.24 0 -1 1
469 1 3185.47 2543.68 2762.19 0 -1 -1
470 1 3175.23 3394.49 1358.25 -1 -1 -1
471 1 3184.65 2780.61 2195.13 0 0 0
472 1 2939.77 3285.54 1205.76 0 -1 0
473 1 1092.39 2316.7 3427.91 1 -1 0
474 1 3301.51 2240.44 3119.76 -2 -1 -1
475 1 3106.74 2534.37 1643.12 0 -1 0
476 1 3176.83 3881.94 1749.31 -1 -1 0
477 1 3622.48 2219.07 1583.32 0 -1 -1
478 1 2704.21 2480.85 1580.37 -1 -1 0
479 1 2703.22 1189.01 2140.1 0 0 -1
480 1 3720.57 2052.77 2429.74 -1 0 0
481 1 3264.6 1272.97 1068.84 0 1 1
482 1 2776.2 1558.5 3156.44 0 -1 -1
483 1 3340.73 2013.77 3078.05 -1 1 0
484 1 2984.6 3245.19 2229.4 -1 -1 0
485 1 2241.42 3538.29 2687.29 -1 -1 -1
486 1 3862.88 3257.71 1278.84 -1 -1 0
487 1 2895.76 2329.81 2934.87 -1 0 -1
488 1 1857.61 1251.51 2504.31 0 0 0
489 1 3555.89 2790.7 1837.87 -1 0 0
490 1 3331 2340.84 3381.55 -1 0 -1
491 1 2760.05 2921 2894.33 0 0 -1
492 1 3064.42 2566.4 3911.18 0 -1 0
493 1 2903.75 2425.68 2324.26 -1 0 0
494 1 2197.4 2322.54 3534.4 1 -1 0
495 1 3377.89 3040.56 1893.61 0 -1 0
496 1 3151.48 2684.45 2991.02 1 0 0
497 1 2720.75 3845.42 2747.16 -1 -1 0
498 1 2856.27 3308.42 2649.48 0 -1 0
499 1 2174.41 2508.72 1307.24 -1 0 -1
500 1 2869.28 3461.33 2183.47 0 -1 -1
501 1 2458.16 2901.55 2609.73 -1 0 -1
502 1 1267.13 3325.81 3268.36 -1 0 0
503 1 2477.92 2448.21 3113.81 0 0 0
504 1 2035.74 2646.5 2531.75 0 0 0
505 1 1740.03 2465.56 3787.96 -1 0 -1
506 1 1137.34 1853 1967.9 -1 0 0
507 1 3733.88 1671.91 3328.31 -1 0 -1
508 1 1458 1289.46 1503.57 0 0 -1
509 1 1475.11 1358.5 2529.74 0 0 0
510 1 2826.54 2232.42 2709.69 -1 -1 -1
511 1 3855.73 3424.33 2440.18 0 0 -1
512 1 1342.69 3461.22 3648.84 0 -1 -1
513 1 3384.51 2509.6 1631.92 0 -1 0
514 1 2997.45 2012.61 2094.65 -2 0 1
515 1 2472.42 1918.52 2400.26 -1 0 -1
516 1 2542.69 3827.9 2845.5 -1 -1 0
517 1 3328.43 3296.23 3655.31 0 -1 -1
518 1 1834.29 3120.61 2878.13 0 0 -1
519 1 2768.87 2660.95 2320.48 0 0 0
520 1 3395.23 3058.51 1190.99 -1 0 0
521 1 2515.62 2310.76 1223.93 -1 0 1
522 1 2470.18 2667.97 1923.12 -1 0 0
523 1 3361.35 3250.09 1350.71 0 0 0
524 1 2729.4 2357.55 2496.66 -1 -1 0
525 1 3425.22 1867.4 3287.69 0 0 -1
526 1 1754.45 2251.64 2748.2 0 0 0
527 1 1053.41 1970.44 3143.54 0 -1 -1
528 1 3581.98 2375.18 2009.61 0 1 0
529 1 2497.32 2681.28 1101.72 -1 -1 0
530 1 1567.26 2871.23 2667.5 0 0 0
531 1 1880.62 3858.75 1452.97 0 -1 0
532 1 3564.82 2669.02 1616.83 -1 0 0
533 1 3431.05 1183.03 2180.31 -1 0 -1
534 1 2231.16 1057.57 3102.91 0 0 -1
535 1 2796.51 3782.47 2476.66 -1 -2 0
536 1 2097.03 2593.12 1821.52 -1 0 0
537 1 2863.99 3317.13 1984.98 -1 -1 0
538 1 1620.92 1693.56 3486.22 0 0 -1
539 1 3447.09 2382.93 2793.18 -2 0 -1
540 1 2964.2 3577.29 2391.4 0 0 0
541 1 2481.03 3240.48 3114.26 0 0 -1
542 1 2265.65 2901.47 2363.08 0 -1 0
543 1 2146.06 2823.1 2723.33 0 0 -1
544 1 3328.19 1536.16 3299.53 -1 1 -1
545 1 2045.77 3053.19 2893.16 -1 0 -1
546 1 3649.53 1404.84 1322.19 -1 0 0
547 1 2474.12 2201.71 2307.24 0 -1 0
548 1 1458.33 1612.41 3310.26 0 0 0
549 1 2816.38 2511.67 3640.09 0 0 0
550 1 1810.92 2044.39 1244.2 0 0 0
551 1 2246.42 2830.04 1347.11 0 -1 0
552 1 2781.42 3808.69 3809.44 0 -1 -1
553 1 3150.76 2752.11 3814.83 -1 0 -1
554 1 2182.41 2394.05 2703.33 0 0 0
555 1 1762.86 2217.54 3485.55 0 0 0
556 1 2580.56 3247 2556.37 0 0 -1
557 1 2815.28 2724.03 2099.5 -1 0 0
558 1 2570.54 3732.77 2596.12 -1 0 -1
559 1 2565.53 3468.89 3117.39 -1 0 0
560 1 1514.82 2987.3 1058.15 0 0 0
561 1 3670.27 2286.79 2457.97 -1 -1 -1
562 1 1688.96 3692.42 3834.24 0 0 -1
563 1 3839.07 2510.91 3076.71 -1 0 0
564 1 2630.27 2863.59 3702.71 0 1 -1
565 1 3743.39 2743.17 3697.06 0 0 -1
566 1 3744.2 2026.98 2962.11 -1 0 1
567 1 2570.31 1302.34 3056.25 0 0 0
568 1 3336.51 3204.8 2572.62 -1 -1 -1
569 1 2833.96 2024.5 3405.89 0 0 0
570 1 1333.79 3197.27 2750.52 0 -1 0
571 1 3198.98 3027.62 1324.69 -1 -1 0
572 1 2582.36 2921.88 2843.06 -1 -1 0
573 1 2025.41 2183.75 3456.21 1 0 -1
574 1 3247.12 3534.43 3802.45 -1 0 0
575 1 1494.42 2348.91 3279.87 0 0 0
576 1 3724.67 2057.31 3002.22 0 -1 -1
577 1 3605.64 2651.66 2411.47 -1 -1 -1
578 1 1113.81 2701.63 2277.21 1 0 1
579 1 3176.2 3762.39 2580.63 0 0 -1
580 1 2279.71 2853.96 2384.26 0 1 1
581 1 1427.62 2102.27 2420.87 -1 0 0
582 1 3375.11 3471.44 2150.38 0 -1 0
583 1 2534.47 2390.24 2355.99 0 0 0
584 1 3664.67 3306.69 2277.76 0 0 1
585 1 3365.85 3525.68 3573.77 -1 -1 -1
586 1 3265.47 1918.22 3852.78 -1 -1 -2
587 1 1086.95 1969.46 2719.81 1 0 -1
588 1 1617.65 2324.99 1583.14 0 0 0
589 1 3072.25 3382.44 3848.51 1 -1 0
590 1 3716.83 2876.75 1593.08 -1 -1 1
591 1 1947.51 1479.34 3462.9 -1 -1 -1
592 1 1528.52 2190.66 2931.87 0 0 0
593 1 1273.47 1978.28 3268.95 0 0 0
594 1 1849.93 3436.05 3200.03 -1 1 0
595 1 3180.11 1097.23 3279.81 -1 0 -1
596 1 3094.88 2372.12 1423.74 1 0 0
597 1 2815.12 2619.1 3639.2 0 0 0
598 1 3228.04 3622.78 1324.54 0 -1 0
599 1 2136.93 3806.9 2659.78 -1 -1 0
600 1 3220.19 1839.83 2969.66 -1 0 -1
601 2 3911.34 2242.35 1431.19 -1 0 0
602 2 1454.89 1598.11 2097.71 1 0 0
603 2 3343.78 3626.92 1870.16 -1 0 1
604 2 3470.86 3395.98 3085.05 0 -1 0
605 2 1178.66 1125.93 3708.27 0 0 0
606 2 1112.94 2615.27 1957.56 1 0 0
607 2 1846.52 2682.73 1865.31 0 0 0
608 2 2943.93 3565.13 2635.57 0 -1 0
609 2 3215.76 1949.68 2290.79 0 0 0
610 2 2729.69 3254.5 3286 0 0 0
611 2 1274.57 3224.8 1218.04 0 0 1
612 2 2459.56 3842.9 2032.43 0 -1 0
613 2 1654.67 2606.04 2799.52 0 0 -1
614 2 2670.3 1716.03 2549.84 0 0 0
615 2 1148.41 2835.43 3624.19 0 0 0
616 2 3804.55 3769.87 1136.84 0 0 0
617 2 1274.65 3163.56 1971.05 0 -1 0
618 2 2442.22 3754.5 3223.64 0 0 0
619 2 2929.08 1741.97 2827.35 0 1 0
620 2 3857.14 3744.17 2425.02 -1 0 0
621 2 1061.53 3782.19 3050.76 0 0 -1
622 2 2117.47 3837.32 1210.3 0 0 0
623 2 2122.21 2591.1 3544.96 0 0 -1
624 2 1075.66 2244.43 2911.79 0 0 -1
625 2 2796.9 1529.73 3814.17 0 0 0
626 2 1302.87 3501.43 2996.57 1 0 -1
627 2 1647.43 1111.79 2697.01 0 1 0
628 2 3607.08 2618.07 2865.12 -1 0 0
629 2 2082.59 1629.41 2109.09 0 0 0
630 2 2551.63 1256.97 1820.99 0 1 0
631 2 3590.51 1372.99 3349.77 0 1 0
632 2 1904.2 3403.62 1613.82 0 -1 0
633 2 1261.64 3415.06 2291.86 0 -1 0
634 2 3425.62 2845.46 3105.17 -1 0 0
635 2 1218.01 1237.45 2058.88 0 0 0
636 2 3012.67 1416.86 3250.21 -1 0 0
637 2 1299.38 1937.91 2911.14 1 0 -1
638 2 1180.55 1548.3 1847.31 0 0 0
639 2 3540.17 3135.71 3754.68 0 0 0
640 2 2757.51 3914.76 3014.52 0 0 0
641 2 2217.33 1615.93 2727.21 0 0 0
642 2 2567.73 3366.02 1604.92 0 -1 0
643 2 1226.77 1092.26 2389.05 0 0 0
644 2 3851.61 2587.47 1440.3 -1 0 1
645 2 2600.92 3500.39 2005.33 0 -1 0
646 2 2005.77 3386.42 1982.37 0 -1 0
647 2 1878.72 1805.63 3744.87 0 0 0
648 2 2573.29 2754.16 3054.7 0 0 0
649 2 3497.89 1764.72 1090.28 -1 0 0
650 2 3537.51 2155.1 2135.27 0 0 0
651 2 3722.29 1737.64 1782.68 -1 0 0
652 2 1218.67 1204.8 1683.52 0 0 0
653 2 3187.42 2496.79 3594.66 0 0 -1
654 2 2500.08 3701.87 3884.71 0 -1 -1
655 2 2575.35 1549.72 2864.19 0 0 0
656 2 2905.16 1361.01 2894.14 0 0 0
657 2 3457.81 1635.63 2995.04 -1 0 -1
658 2 2670.06 2001.29 2901.91 -1 0 -1
659 2 1098.36 1651.84 2777.91 1 0 0
660 2 2331.94 2138.87 1536.49 0 0 0
661 2 2705.06 1148.05 1501.75 0 0 0
662 2 1490.17 1391.65 1182.1 0 0 0
663 2 1445.44 3151.08 2452.4 0 -1 0
664 2 2656.9 3474.6 3609.04 0 0 -1
665 2 2415.04 2287.33 1971 0 0 0
666 2 2622.01 3728.84 1719.56 0 -1 0
667 2 3063.69 1084.74 1444.47 0 0 0
668 2 1469.92 2206.1 1838.78 0 0 0
669 2 3624.26 2234.34 3426.92 -1 0 0
670 2 1871.16 1291.42 3121.17 0 0 -1
671 2 2999.76 1332.91 1167.93 0 0 1
672 2 1471.77 2589.15 1946.7 0 0 0
673 2 2135.1 2184.49 2338.58 0 0 0
674 2 3806.36 1090.56 1871.5 -1 0 0
675 2 3299.41 3059.84 3426.55 -1 0 0
676 2 2644.99 1472.1 1286.7 0 0 0
677 2 1661.87 3306.06 1851.39 0 -1 0
678 2 3630.59 3200.46 1475.83 -1 -1 0
679 2 1634.63 3391.32 3631.06 0 0 0
680 2 3500.33 1493.09 1925.87 -1 0 0
681 2 2110.3 3595.4 3159.33 0 0 0
682 2 3146.12 2250.9 2059.09 0 0 0
683 2 2318.23 3250.74 2661.33 0 -1 0
684 2 1388.43 3534.61 1971.6 0 -1 0
685 2 1450.8 3705.62 3596.52 0 0 -1
686 2 1441.5 2401.22 1297.17 0 0 0
687 2 2534.48 3135.58 3554.8 -1 -1 0
688 2 3262.25 3462.69 2431.33 -1 -1 0
689 2 1827.15 3692.97 3482.21 0 -1 0
690 2 3752.55 3438.45 3883.23 0 1 -1
691 2 2659.32 2175.14 1725.49 -1 0 0
692 2 1693.93 1065.58 3219.7 0 0 -1
693 2 3629.72 3758.61 2106.09 -1 -1 0
694 2 1313.31 2897.74 2839.77 0 0 0
695 2 2857.34 1794.89 1858.1 0 0 0
696 2 2297.51 1148.07 3371.79 0 1 0
697 2 1439.16 1643.04 2601.91 0 0 0
698 2 1495.79 2364.92 2530.6 1 0 0
699 2 2446.71 1113.16 1213.76 0 0 0
700 2 1098.79 2446.49 1157.12 0 0 0
701 2 3938.38 3141.16 2807.93 0 -1 -1
702 2 1307.85 2439.96 2252.02 0 0 0
703 2 1591.73 3612.02 1675.22 0 0 0
704 2 1963.83 3510.2 2324.77 0 -1 0
705 2 1653.49 1462.61 3050.63 0 0 -1
706 2 1436.39 2640.63 3925 0 0 0
707 2 1423.09 3477.37 2640.06 0 -1 0
708 2 1321.75 2686.72 2519.51 1 0 0
709 2 1310.91 1087.5 3360.43 0 0 0
710 2 2892.95 1182.51 3753.64 0 0 -1
711 2 1573.35 3330.88 1428.02 0 -1 0
712 2 1869.29 2814.29 3493.19 0 0 -1
713 2 2245.63 2416.8 2692.56 0 0 -1
714 2 3179.31 1520.45 2124.2 -1 0 0
715 2 2618.43 2063.37 1351.13 0 0 0
716 2 2140.77 3242.49 1122.81 0 0 0
717 2 3472.56 1080.27 3813.46 -1 0 -1
718 2 2786.81 2378.3 1991.79 -1 0 0
719 2 1520.6 1360.31 1813.5 0 0 0
720 2 1086.37 1551.7 3827.71 0 0 -1
721 2 3796.03 2390.39 1746.61 0 0 0
722 2 3912.9 3425.19 1947.02 -1 -1 0
723 2 2827.73 3550.44 3946.57 0 0 -1
724 2 3469.93 3738.59 2517.95 0 -1 0
725 2 1930.81 3896.75 2937.44 0 -1 -1
726 2 2043.03 1938.49 1409.82 0 0 0
727 2 3658.14 2386.05 1201.13 -1 0 0
728 2 2084.23 1848.91 2413.04 0 0 0
729 2 3258.73 1167.23 2480.41 -1 0 0
730 2 3283.98 3131.55 1595.89 -1 -1 0
731 2 2131.08 2880.61 3908.59 0 0 0
732 2 3782.08 1235.71 3935.92 -1 0 -1
733 2 2013.84 1202.33 1523.28 0 1 0
734 2 1296.45 2041.34 2106.7 0 0 0
735 2 2274.28 1291.15 2499.67 0 0 0
736 2 1972.66 3780.68 1723.16 0 -1 0
737 2 1868.08 3026.23 1738.13 -1 0 0
738 2 3725.18 3005.33 3464.3 0 0 0
739 2 2022.24 3391.03 3454.25 0 0 0
740 2 3195.91 1288.58 1849.27 0 0 0
741 2 2771.04 1677.99 3405.68 -1 1 0
742 2 2528.42 1790.84 1068.33 0 0 0
743 2 3903.64 1765.76 2431.24 -1 0 0
744 2 2664.34 2028.95 2041.58 0 0 0
745 2 1944.73 3495.34 3789.58 0 0 -1
746 2 1920.39 2715.86 1284.85 0 0 0
747 2 3000.11 3311.13 3513.75 0 0 -1
748 2 2381.86 1339.52 1513.95 0 0 0
749 2 1990.92 1695.37 2963.97 0 0 0
750 2 1199.54 1459.87 2368.03 0 0 0
751 2 3897.36 2818.06 2675.03 0 0 -1
752 2 3451.99 1089.65 2807.75 0 1 0
753 2 1166.64 2112.43 1763.64 0 0 0
754 2 2962.14 2268.56 3773.77 -1 0 0
755 2 2185.36 1779.24 3368.92 0 0 0
756 2 2671.04 3489.45 2365.58 0 -1 0
757 2 2297.64 1941.85 2157.66 0 0 0
758 2 3634.61 3680.76 2898.3 -1 -1 0
759 2 2889.97 1089.14 1818.98 0 0 0
760 2 2463.59 2754.08 3415.11 0 0 -1
761 2 1702.83 3621.45 1250.93 0 -1 0
762 2 1764.6 1739.13 1951.51 0 0 0
763 2 1313.44 1736.68 1182.67 0 0 0
764 2 2284.05 3194.94 1793.52 0 -1 0
765 2 1606.92 2234.93 2200.35 0 0 0
766 2 3680.25 1675.8 1381 -1 0 0
767 2 2313.22 1521.81 1829.37 0 1 0
768 2 1554.02 1245.41 2203.42 0 0 0
769 2 1454.4 3883.68 1897.68 0 -1 0
770 2 1117.7 2160.75 2426.53 1 -1 0
771 2 1220.39 3032.42 3363.5 1 0 -1
772 2 1625.26 1865.58 2305.11 0 0 0
773 2 3304.66 1313.41 1106.78 -1 0 1
774 2 1422.16 3517.5 3900.63 0 -1 -1
775 2 3816.79 3899.71 1518.11 -1 -1 0
776 2 3152.09 3059.46 3721.75 -1 0 -1
777 2 3714.65 2722.13 1109.42 -1 0 0
778 2 1778.49 1964.11 2963.64 0 0 -1
779 2 3122.45 1685.41 1061.23 -1 0 0
780 2 3353.31 2592.12 1075.68 -1 0 0
781 2 3523.06 1094.34 1288.57 -1 0 0
782 2 2508.67 1907.55 3326.7 0 0 0
783 2 1544.78 3526.87 3286.47 0 -1 -1
784 2 1219.08 1313.59 2686.91 0 0 -1
785 2 3425 3481.07 1535.49 -1 -1 0
786 2 1374.51 1568.97 1527.38 1 0 0
787 2 2578.79 3010.06 1665.03 0 0 0
788 2 2321.29 1798.79 3037.38 0 0 0
789 2 1247.35 1895.89 3754.59 0 0 -1
790 2 3810.67 1563.5 2165.39 -1 0 0
791 2 3648.76 1083.95 3124.55 0 0 -1
792 2 1744.88 2484.92 3852.98 0 0 -1
793 2 1696.52 1300.08 3784.42 0 0 0
794 2 3450.89 1456.78 2695.06 -1 0 0
795 2 1648.1 3368.91 2923.52 0 0 0
796 2 1278.84 2499.44 3551.59 0 0 -1
797 2 3466.59 3919.56 3423.54 -1 -1 -1
798 2 1598.04 3751.31 2923.94 0 0 0
799 2 3564.87 1887.54 3516.27 -1 1 -1
800 2 3581.44 3312.94 3445.43 -1 0 -1
801 2 2098.22 2056.14 3123.02 0 0 0
802 2 1422.17 1171.28 2990.85 0 1 0
803 2 2567.35 3669.11 1350.91 0 -1 0
804 2 2497.85 2994.96 2033.58 0 -1 0
805 2 2034.65 1263.72 2210.81 0 0 0
806 2 3862.67 3075.89 1751.35 -1 -1 0
807 2 3635.78 3663.66 3644.39 -1 0 -1
808 2 3144.42 2201.2 1654.48 -1 0 0
809 2 3741.16 1397.03 2914.27 0 0 0
810 2 2430.47 1431.49 3883.05 0 0 -1
811 2 1283.24 1439.79 3508.37 1 0 0
812 2 2637.6 1340.9 3525.74 0 0 -1
813 2 2273 1351.14 2966.05 0 0 0