ITEM: TIMESTEP
991000
ITEM: NUMBER OF ATOMS
1000
ITEM: BOX BOUNDS pp pp pp
-4.3644909193128615e+02 3.4364490919312816e+03
-4.3644909193128615e+02 3.4364490919312816e+03
-4.3644909193128615e+02 3.4364490919312816e+03
ITEM: ATOMS id type x y z ix iy iz
1 1 2617.15 984.063 2648.01 0 0 -1
2 1 1592.08 994.548 2040.58 0 0 0
3 1 1758.81 -147.639 3333.93 0 1 0
4 1 804.726 1219.32 437.51 0 0 0
5 1 3101.3 -215.076 -274.06 0 0 0
6 1 -186.733 2890.99 3080.16 1 0 -1
7 1 1042.48 1397.85 561.602 0 0 0
8 1 1118.37 2180.53 482.979 0 0 0
9 1 2972.15 1825.67 2286.17 0 0 0
10 1 1105.88 373.613 -414.002 0 1 0
11 1 714.583 809.427 2551.42 0 0 0
12 1 3333.04 1636.3 1748.32 0 0 0
13 1 2025.92 2855.81 2375.56 0 0 0
14 1 1548.37 -3.41675 2497.19 1 0 0
15 1 2326.7 2998.1 946.371 0 -1 0
16 1 358.095 595.708 1601.8 0 0 0
17 1 2239.64 2727.72 1914.98 0 0 -1
18 1 1882.22 3098.67 1299.89 0 0 0
19 1 1173.52 3142.14 -402.709 0 0 1
20 1 1635.38 1640.89 2709.74 0 0 -1
21 1 2417.05 1214.91 2560.02 0 0 -1
22 1 1331.88 2636.3 2381.73 0 -1 0
23 1 1235.02 1314.21 1832.29 1 0 0
24 1 1801.82 2191.92 1323.11 0 0 0
25 1 3083.14 607.603 637.539 -1 0 0
26 1 2452.08 3205.86 1649.17 0 0 1
27 1 1355.98 3428.91 1265.84 0 0 0
28 1 1649.55 948.669 1350.93 1 0 0
29 1 1610.75 1075.18 686.197 0 0 0
30 1 903.45 1596.4 358.717 0 1 1
31 1 -227.264 1414.93 3161.91 1 0 -1
32 1 1475.42 976.754 2375.63 0 2 1
33 1 3062.22 -239.791 1921.4 -1 0 0
34 1 2251.35 1385.38 2030.7 0 0 0
35 1 2644.89 1402.64 -251.521 0 0 1
36 1 2522.11 1943.5 2370.41 -1 -1 -1
37 1 526.044 646.154 725.719 0 1 0
38 1 2076.93 2226.82 1174.01 0 0 0
39 1 2490.96 2692.91 2099.82 0 0 0
40 1 1659.91 197.333 440.932 0 0 0
41 1 649.402 -127.732 1392.66 0 0 -1
42 1 -417.114 555.217 920.751 0 0 0
43 1 1971.9 -282.057 2240.69 -1 1 0
44 1 2757.85 1578.88 -12.6686 0 -2 0
45 1 3287.53 1708.94 2363.44 0 0 0
46 1 -236.893 1734.14 -111.999 0 -1 0
47 1 2999.72 1713.31 135.212 -1 1 0
48 1 2314.68 2470.74 2639.93 0 0 0
49 1 1373.91 -271.994 2485.37 0 1 0
50 1 2363.74 2376.46 2340.64 -1 -1 -1
51 1 2003.04 2008.01 969.119 0 -1 0
52 1 1779.26 1425.54 2714.43 0 0 -1
53 1 425.899 86.9043 150.218 0 0 0
54 1 1933.59 1567.62 1680.47 0 0 -1
55 1 1073.72 -39.0375 -143.656 0 0 0
56 1 -389.765 848.611 799.615 0 0 0
57 1 3200.83 2645.01 901.486 0 0 0
58 1 659.925 2682.07 2208.62 0 -1 -1
59 1 2301.68 2015.9 1056.84 -1 -1 0
60 1 -213.866 551.681 295.081 0 0 0
61 1 2346.39 1035.17 246.321 -1 -1 0
62 1 2541.21 1250.92 3090.92 -1 0 0
63 1 1726.31 3435.43 1943.12 0 -1 0
64 1 15.7141 2202.47 -55.0039 0 0 0
65 1 945.272 1191.81 1739.4 0 0 0
66 1 -262.585 546.706 -400.632 0 0 0
67 1 1768.28 3435.99 -426.678 0 -1 0
68 1 2438.39 2002.02 769.115 0 -1 0
69 1 153.419 1131.55 -25.1723 0 0 0
70 1 1935.06 2452.8 504.558 0 0 0
71 1 2060.21 -319.307 1940.16 0 0 -1
72 1 3273.35 -45.7516 3380.98 -1 0 -1
73 1 2309.11 820.912 969.799 0 0 0
74 1 1688.84 112.449 469.918 -1 0 0
75 1 2554.89 2926.8 2310.48 -1 -1 -1
76 1 1808.45 36.0906 3079.58 0 0 -1
77 1 2051.48 102.287 2960.24 -1 0 -1
78 1 175.187 2740.24 3114.69 0 0 -1
79 1 3186.91 200.798 2878.46 -1 0 -1
80 1 776.414 1678.33 2545.56 0 0 0
81 1 3168.51 2990.42 643.976 0 0 0
82 1 1273.69 749.442 -139.528 0 0 0
83 1 1241.9 2144.22 55.6423 0 0 0
84 1 3039.27 -411.407 2156.09 -1 0 -1
85 1 1437.79 527.179 1760.52 0 -1 0
86 1 1818.47 -419.199 517.946 0 1 0
87 1 2106.35 917.801 3213.54 -1 0 0
88 1 782.111 2872.46 3038.13 0 0 -1
89 1 1748.48 133.767 449.938 0 0 0
90 1 1378.58 1400.79 1.31858 0 0 0
91 1 711.427 -318.971 3131.97 0 1 0
92 1 2758.57 311.943 2274.49 0 0 -1
93 1 -259.796 403.139 -436.057 0 0 1
94 1 3147.19 2548.39 3198.96 0 0 -1
95 1 1124.31 1186.1 1149.28 0 0 1
96 1 2802.42 779.784 356.807 -1 0 0
97 1 492.683 1287.2 687.831 0 0 0
98 1 2579.18 1460.55 3314.05 -1 0 -1
99 1 3139.08 2170.12 720.337 0 0 0
100 1 1155.79 346.457 3151.57 0 0 -1
101 1 -432.922 2656.22 3244.76 1 -1 -1
102 1 3367.09 399.415 1171.42 -1 0 0
103 1 1650.59 2785.11 1665.75 0 0 -1
104 1 620.803 916.709 360.014 0 0 0
105 1 1852.88 2657.6 2971.28 0 -1 -1
106 1 2300.23 655.783 1254.7 0 1 0
107 1 2784.38 2699.38 -261.485 0 -1 0
108 1 1910.07 1545.85 2993.4 0 0 0
109 1 1428.83 2904.78 -57.8728 0 -1 1
110 1 1023.42 -256.43 3176.06 -1 0 0
111 1 1937.95 2940.5 3100.15 0 0 0
112 1 714.662 2640.52 2524.41 -1 -1 -1
113 1 1710.01 2671.4 1948.54 0 0 0
114 1 1971.96 2807.14 2067.66 -1 0 -1
115 1 913.19 290.157 572.139 0 0 0
116 1 474.642 392.102 52.6527 0 0 0
117 1 1977.4 548.809 3170.72 0 0 0
118 1 1746.32 -71.7812 -229.34 0 0 0
119 1 1040.12 1314.24 253.975 0 0 1
120 1 2446.45 1256.53 2241 0 -1 0
121 1 354.026 324.643 1209.22 0 0 0
122 1 2318.91 932.179 2747.61 0 1 0
123 1 2115.36 1104.96 2574.03 0 0 0
124 1 574.472 605.245 413.345 0 0 0
125 1 1141.8 -54.1759 2566.77 0 0 -1
126 1 1898.84 745.897 70.7768 -1 0 1
127 1 240.458 -205.407 3436.39 0 0 -1
128 1 830.527 1496.12 11.415 0 0 0
129 1 3159.8 303.554 3202.77 0 0 0
130 1 2204.95 397.945 -382.12 -1 0 0
131 1 2859.79 2178.31 2686.04 0 0 0
132 1 3208.43 379.451 901 -1 0 0
133 1 624.657 3233.93 270.35 0 -1 1
134 1 3016.63 2591.97 1690.87 0 -1 0
135 1 88.7986 2403.22 3046.63 0 0 -1
136 1 2600.15 1019.58 397.835 0 -1 0
137 1 -405.172 2503.86 568.688 1 0 0
138 1 -92.1491 1442.58 2396.81 0 0 -1
139 1 -260.683 246.369 2909.59 0 0 0
140 1 -29.6137 3061.33 -269.255 1 -1 0
141 1 2074.25 2923.65 1476.84 -1 -1 0
142 1 880.111 890.749 1790.12 0 0 0
143 1 2531.42 -268.647 318.945 -1 0 0
144 1 2666.96 843.079 -396.881 0 0 1
145 1 638.717 1302.97 3054.97 0 0 -1
146 1 1894.73 3181.17 993.691 -1 -1 0
147 1 1800.99 -402.942 621.489 -1 0 0
148 1 766.909 396.444 262.321 0 -1 0
149 1 2623.41 2405.89 2137.13 -1 -1 0
150 1 -43.2752 2617.43 835.328 0 0 0
151 1 -301.307 1124.61 -435.335 0 0 1
152 1 -381.421 635.611 37.0394 0 0 0
153 1 3086 3354.53 1428.76 -1 -1 0
154 1 49.531 2622.52 1727.25 0 -1 -1
155 1 3382.41 -234.247 3136.92 -1 0 -1
156 1 2839.45 2640.29 1026.64 0 0 1
157 1 1522 255.415 941.928 -1 0 0
158 1 2198.22 1593.53 348.148 -1 0 0
159 1 136.543 281.192 647.242 1 0 0
160 1 1370.22 3013.78 2287.15 0 -1 0
161 1 3323.65 2469.63 1142.47 -1 0 0
162 1 264.537 1364.03 1858.37 0 0 -1
163 1 2566.49 3348.68 2720.31 -1 -1 0
164 1 2045.13 3122.1 3342.98 0 -1 -1
165 1 2828.52 1653.24 -321.58 -1 1 0
166 1 -257.387 1645.2 -133.083 0 0 0
167 1 1967.26 3406.42 2500.05 0 -1 -1
168 1 3206.92 1863.77 583.675 -1 0 0
169 1 232.04 2426.55 14.7579 0 0 0
170 1 1016.3 1029.39 1467.18 0 0 -1
171 1 2587.79 226.673 1480.14 -1 0 0
172 1 2086.3 1425.82 2605.52 0 0 0
173 1 2139.19 1428.94 -250.667 -1 0 0
174 1 182.926 3392.98 605.177 0 0 0
175 1 286.681 3057.09 -286.581 0 -2 0
176 1 2611.01 2626.96 1780.1 0 -1 0
177 1 1974.81 2390.13 2874.36 0 -1 -1
178 1 1740.57 2909.53 1051.49 0 -1 0
179 1 2435.74 1523.54 2954.05 -1 0 0
180 1 2391.15 1518.85 2638.67 0 0 0
181 1 1584.21 1379.82 -283.66 0 0 1
182 1 1686.06 17.6128 2783.32 0 0 0
183 1 2544.18 -145.491 24.4579 -1 0 0
184 1 1026.21 1089.93 606.136 0 0 0
185 1 3192.75 2120.59 -67.5041 -1 -1 1
186 1 2261.94 2898.6 2186.04 0 0 -1
187 1 1101.96 1294.43 850.928 0 0 0
188 1 655.329 2775.44 578.915 1 -1 0
189 1 1009.21 1023.21 294.469 0 -1 -2
190 1 2805.92 1575.91 504.984 0 0 -1
191 1 405.001 -250.522 -169.354 0 0 0
192 1 737.05 899.778 2242.92 0 0 0
193 1 1020.1 2487.83 1545.26 0 0 0
194 1 1500.91 250.412 2308.51 0 0 -1
195 1 -418.449 1053.82 35.6025 0 1 0
196 1 2278.35 138.06 3319.31 -1 0 -1
197 1 2782.46 1706.73 1987.96 -1 0 0
198 1 347.338 1568.98 915.033 0 0 0
199 1 590.714 1771.96 -60.1534 0 1 0
200 1 200.778 3324.65 1603.7 0 0 0
201 1 3043.98 456.704 1170.41 -1 -1 0
202 1 2057.41 136.693 3001.36 -1 0 0
203 1 2160.5 745.294 2938.2 0 0 0
204 1 1548.01 1427.42 2495.04 0 0 0
205 1 911.401 2891.47 2002.41 0 -1 0
206 1 1625.74 2694.4 805.027 0 0 0
207 1 881.863 1493.09 -4.56212 0 0 0
208 1 734.47 2159.92 419.925 0 0 0
209 1 614.694 2800.03 1910.96 1 0 0
210 1 244.294 1356.28 1907.89 0 0 0
211 1 36.2207 2726.89 1425.15 0 -1 0
212 1 -324.544 797.381 1107.96 0 0 0
213 1 -272.185 1696.88 -129.697 0 -1 0
214 1 2495.72 2905.91 1859.82 0 -1 -1
215 1 1616.9 1229.94 2250.21 0 0 0
216 1 1869.64 975.428 1906.28 0 1 0
217 1 2645.23 2698.67 358.146 -1 -1 0
218 1 635.247 3253.16 1657.86 -1 -1 0
219 1 2594.5 -57.4438 1353.04 0 1 0
220 1 473.892 1134.72 2862.19 -1 0 -1
221 1 3345.04 -267.063 1370.05 0 1 0
222 1 3254.17 2794.9 1735.35 0 0 0
223 1 181.258 454.739 3417.66 0 0 0
224 1 2363.07 481.157 213.396 0 0 0
225 1 1916.39 2163.17 2185.39 -1 0 -1
226 1 1665.52 2235.74 2937.71 -1 -1 -1
227 1 1869.71 962.201 2725.28 0 0 0
228 1 2745.57 1944.53 2478.99 0 0 0
229 1 3226.01 1470.94 1280.91 -1 -1 0
230 1 672.921 1026.52 657.724 0 0 -1
231 1 801.348 1295.54 745.244 0 0 0
232 1 2.94983 -39.1019 -307.073 -1 0 -1
233 1 3086.78 84.5021 906.24 -1 0 0
234 1 1639.99 2587.25 513.167 0 -1 0
235 1 2154.98 3338.33 905.764 1 0 0
236 1 725.709 2335.74 2906.36 0 0 0
237 1 783.871 3065.62 2242.34 0 0 0
238 1 1622.19 1696.36 2639.25 0 -1 0
239 1 514.622 -23.2523 1121.71 0 1 0
240 1 546.798 821.162 2826.15 0 0 -1
241 1 1883.25 3105.24 2520.73 0 0 0
242 1 3320.69 2832.85 275.829 0 -1 -1
243 1 2443.63 1638.54 1984.17 0 1 0
244 1 3354.11 1825.28 1145.4 0 0 0
245 1 744.516 3181.52 1372.89 0 -1 0
246 1 -61.2036 622.256 34.5047 0 0 1
247 1 1542.89 766.02 323.758 0 0 1
248 1 850.267 1680.39 -219.222 1 0 0
249 1 2094.59 760.846 2616.55 0 0 0
250 1 2687.56 1231.46 621.073 -1 0 0
251 1 1986.14 2686.35 2648.01 -1 -1 -1
252 1 1629.28 3185.53 2353.28 0 0 -1
253 1 673.501 2477.42 600.356 0 -1 0
254 1 1707.91 1666.82 2650.65 0 0 0
255 1 587.775 2603.69 1658.65 0 -1 0
256 1 2194.72 754.371 175.239 0 -1 0
257 1 680.845 2303.36 2599.44 0 0 -1
258 1 1191.05 -4.22426 999.453 0 0 0
259 1 866.979 3161.88 -322.683 0 0 1
260 1 2295.65 769.622 961.265 -1 0 0
261 1 6.835 3320.41 2890.72 0 -1 -1
262 1 -226.603 1783.38 -91.5701 0 -1 0
263 1 633.365 -56.8252 -34.5471 0 0 0
264 1 2965.76 2090.27 1158.93 -2 -1 0
265 1 2108.48 -296.799 1411.59 -1 0 0
266 1 2019.8 1258.34 1857.4 0 0 0
267 1 1627.32 272.298 2608.14 0 1 0
268 1 -41.7643 2147.73 515.057 1 0 0
269 1 1456.65 2749.69 2119.67 0 -1 0
270 1 1917.03 1077.03 790.629 0 0 0
271 1 1906.37 2160.99 387.01 0 0 0
272 1 241.138 1296.49 883.346 0 0 -1
273 1 365.254 1579.51 865.469 0 0 0
274 1 -231.669 356.981 51.0113 0 0 0
275 1 1262.3 3413.97 3325.97 0 -1 -1
276 1 126.425 2060.26 1895.87 0 0 0
277 1 671.538 2272.26 2185.65 0 -1 0
278 1 874.013 -151.975 1997.18 -1 1 -1
279 1 -285.71 357.434 3427.93 0 -1 -1
280 1 3203.83 1670.77 320.35 0 0 0
281 1 -308.897 845.15 254.993 0 0 0
282 1 1728.3 2900.83 2251.99 0 -1 0
283 1 105.54 193.262 1367.65 1 0 0
284 1 1509.07 3343.62 2611.93 0 -1 0
285 1 2393.08 786.739 424.58 -1 0 0
286 1 -240.331 914.179 2834.31 0 0 -1
287 1 3391.58 -317.678 -363.27 0 0 1
288 1 2063.68 800.694 741.892 0 0 0
289 1 -236.482 2344.59 -147.875 0 -1 0
290 1 3413.04 3067.9 1739.57 -1 -1 -1
291 1 907.743 2889.69 3386.11 0 0 -1
292 1 2382.13 1331.79 -88.1455 -1 0 0
293 1 1957.59 2763.27 3368.82 0 -1 0
294 1 2744.99 -28.6804 311.056 -1 0 1
295 1 530.938 1518.74 2661.17 0 0 -1
296 1 1700.44 160.466 447.498 0 0 0
297 1 1327.08 3116.74 352.24 0 -1 1
298 1 818.916 1123.62 1186.78 0 1 0
299 1 1191.59 3071.75 2864.36 0 -1 0
300 1 1660.95 2765.64 3228.84 0 -1 -1
301 1 240.803 2132.04 2185.46 0 -1 -1
302 1 2751.25 182.549 1216.89 -1 0 0
303 1 3210.46 1553.49 623.235 -1 0 0
304 1 -279.81 845.501 -175.493 0 0 0
305 1 94.8153 2268.04 243.655 0 -1 0
306 1 2439.49 2923.68 415.358 -1 0 0
307 1 -379.169 34.5714 3343.4 1 0 -1
308 1 778.897 1207.87 122.555 0 0 0
309 1 -429.871 2517.01 -347.4 1 0 0
310 1 1262.38 829.503 1414.07 0 0 0
311 1 2221.5 2203.63 395.518 0 0 0
312 1 1675.11 -373.262 2394.14 0 1 0
313 1 1086.04 89.5771 3316.82 -1 0 -1
314 1 3304.43 1874.13 100.83 0 0 0
315 1 3054.62 1386.12 2513 0 0 0
316 1 276.483 832.811 1399.19 0 0 0
317 1 2557.97 3071.16 3165.35 0 0 0
318 1 2513.72 507.457 2307.22 -1 0 0
319 1 1040.28 863.958 2147.85 0 0 0
320 1 2292.06 1968.26 3104.82 0 0 -1
321 1 3372.78 1564.43 71.4018 0 0 0
322 1 2713.47 3033.78 2062 0 1 0
323 1 -266.689 -211.755 711.145 0 0 0
324 1 3434.78 961.782 1674.13 -1 0 0
325 1 856.569 1890.42 1658.39 0 -1 0
326 1 1096.7 -278.883 59.6455 0 1 0
327 1 2293.29 3093.36 640.097 -1 -1 0
328 1 1648.9 745.315 1841.56 0 0 0
329 1 -420.173 2114.26 -256.556 0 0 0
330 1 287.403 544.151 542.238 0 -1 0
331 1 2988.6 1331.52 603.775 0 -1 0
332 1 3172.08 1900.75 891.971 -1 -1 -1
333 1 890.048 1023.33 887.071 0 0 0
334 1 1720.39 141.001 -2.39801 0 0 0
335 1 -399.501 1343.89 2382.64 0 0 -1
336 1 2951.94 2827.32 798.568 -1 0 0
337 1 211.979 -95.1852 2622.84 0 0 -1
338 1 2145.17 1487.21 50.6254 0 0 0
339 1 419.711 1133.99 249.323 0 0 0
340 1 2974.56 2434.7 810.556 0 0 0
341 1 -71.0732 2478.61 85.4235 0 0 0
342 1 2835.43 -145.232 -122.739 0 -1 0
343 1 1809.08 -418.176 570.837 0 0 0
344 1 1773.9 2807.24 1354.77 0 1 -1
345 1 1051.63 1886.98 -325.694 0 0 0
346 1 371.738 2004.41 1564.91 1 0 0
347 1 1041.72 3410.38 -322.274 0 -1 0
348 1 2948.43 1584.73 1760.79 0 0 0
349 1 2922.98 1102.73 808.453 -1 0 0
350 1 1292.43 2434.29 12.7908 0 0 0
351 1 2168.15 1737.27 958.265 0 0 1
352 1 1383.46 2212.66 2008.79 0 1 0
353 1 1656.76 1666.86 2667.9 0 0 0
354 1 2136.37 1206.02 2267.9 0 0 -1
355 1 1269.39 1953.93 319.663 0 0 0
356 1 520.576 650.003 1321.29 1 0 0
357 1 3320.16 1306.98 -108.164 -1 0 0
358 1 625.76 2083.26 3069.36 0 -1 0
359 1 -413.366 2497.96 621.885 1 0 0
360 1 843.682 1466.35 -31.2907 0 0 0
361 1 -223.128 1802.22 1060.63 0 0 0
362 1 -221.056 1682.77 -120.869 1 0 0
363 1 3234.32 2188.98 1019.64 -1 -1 -1
364 1 693.865 773.349 1564.02 0 1 0
365 1 2110.31 2561.29 2276.91 0 -1 0
366 1 494.571 235.944 935.791 0 0 0
367 1 1209.25 812.869 164.098 0 0 0
368 1 2996.53 928.585 552.437 -1 0 0
369 1 707.932 2368.8 1144.52 0 0 -1
370 1 313.867 15.6475 1947.63 0 0 0
371 1 972.128 -46.7168 1231.01 -1 1 0
372 1 2452.05 2927.72 1491.16 0 -1 -1
373 1 2933.61 1464.77 231.324 0 0 0
374 1 2906.47 1114.89 293.93 0 0 0
375 1 702.128 -339.697 690.916 0 0 0
376 1 2379.12 2623.18 1568.95 0 1 0
377 1 2570.83 2195.23 2560.19 -1 0 0
378 1 1170.25 1695.25 498.418 0 0 0
379 1 434.679 -90.7592 769.56 0 1 1
380 1 1860.16 -266.31 2727.26 0 0 0
381 1 788.426 2991.63 1728.39 0 -1 0
382 1 121.72 2534.42 2751.45 1 0 0
383 1 2441.41 2593.29 -66.3537 -1 -1 0
384 1 2475.08 3235.25 335.609 0 0 0
385 1 881.846 1665.51 3337.57 0 0 0
386 1 2263.22 465.211 3056.63 0 -1 -1
387 1 -304.692 2964.38 1478.16 0 -1 0
388 1 3362.44 75.1735 3108.97 -1 0 0
389 1 434.228 -22.5624 3277.02 0 0 0
390 1 857.46 884.811 2874.08 0 1 0
391 1 3071.18 3354.28 1376.96 -1 0 0
392 1 3060.1 1175.58 21.4314 -1 0 0
393 1 1710.21 474.027 2376.38 0 0 0
394 1 1249.63 3164.09 1732.58 0 -1 0
395 1 2025.74 491.68 1287.1 0 0 0
396 1 168.414 486.216 -133.605 -1 0 0
397 1 1857.18 1449.67 2272.79 -1 0 -1
398 1 2796.33 2113.16 1427.41 -1 -1 0
399 1 -86.095 946.768 61.2182 0 0 0
400 1 923.557 1675.45 2269.19 0 0 -1
401 1 1159.94 -177.529 -424.658 0 0 0
402 1 741.83 464.463 1609.05 -2 0 0
403 1 -66.9507 2482.93 1271.49 0 -1 0
404 1 1204.59 435.985 -114.272 0 0 0
405 1 3018.64 2396.43 1117.12 0 0 0
406 1 2022.52 2128.04 1543.91 0 -1 0
407 1 2044.89 722.549 2002.56 -1 0 0
408 1 3027.21 -303.759 2447.06 -1 0 0
409 1 500.422 2293.92 922.379 1 0 0
410 1 2563.44 713.548 159.518 -1 0 0
411 1 1675.76 1162.06 2553.92 1 1 0
412 1 1339.73 1189.9 2096.11 1 0 0
413 1 325.28 2271.61 -241.315 0 0 0
414 1 1640.84 997.145 1664.16 -1 0 -1
415 1 2856.91 3105.26 3111.55 -1 -1 0
416 1 107.936 2761.59 1108.71 -1 0 0
417 1 3395.87 1671.23 855.485 0 0 0
418 1 1885.59 3286.04 2780.89 0 0 -1
419 1 1929.51 2885 1756.55 0 0 0
420 1 1968.09 2490.34 2001.03 0 0 -1
421 1 1084.12 3155.28 2289.59 0 0 0
422 1 1758.16 -276.106 3031.73 0 1 0
423 1 2242.09 649.947 3310.78 -1 -1 -1
424 1 2410.44 1517.24 1253.62 -1 -1 0
425 1 3278.76 2952.33 933.606 -1 0 0
426 1 541.194 1394.98 385.72 0 0 -1
427 1 1997.12 2321.34 123.873 0 0 0
428 1 2886.17 111.233 61.8258 -1 0 0
429 1 1045.45 2321.84 2910.06 0 0 -1
430 1 1379.28 3.57398 2766.68 0 0 -1
431 1 1679.63 2390.89 1802.25 0 -1 -1
432 1 145.601 3378.93 -331.472 0 -1 0
433 1 1483.52 2359.84 1049.8 0 1 0
434 1 -137.357 3249 2624.96 0 -1 -1
435 1 1992.47 3170.86 687.271 0 0 0
436 1 3216.95 549.49 -275.626 -1 0 0
437 1 1344.77 1967.86 1956.77 0 0 0
438 1 506.79 527.15 1024.25 0 0 0
439 1 -294.98 2648.15 253.023 0 0 0
440 1 1265.43 3150.85 2553.73 0 -1 -1
441 1 1137.78 2705.74 2141.37 1 0 1
442 1 2198.33 3028.61 1846.23 0 -1 -1
443 1 240.817 660.519 1131.46 0 0 0
444 1 1768.02 1246.1 2981.45 1 0 -1
445 1 224.342 447.278 901.57 0 0 0
446 1 2431.12 1908.92 2503.28 0 0 -1
447 1 1976.48 1541.21 2000.28 -1 0 0
448 1 3321.33 924.386 543.348 -1 0 0
449 1 2111.37 446.601 1865.28 -1 0 0
450 1 282.69 2583.96 -305.775 1 0 1
451 1 3000.06 1079.39 1953.84 1 0 0
452 1 1203.32 3041.82 2014.76 -1 0 -1
453 1 1747.33 811.491 812.158 0 0 0
454 1 737.199 720.731 3128.98 0 0 -1
455 1 3349.92 426.622 3407.58 -1 0 0
456 1 1784.98 2453.63 2729.17 0 0 -1
457 1 1531.43 723.59 1547.37 0 0 0
458 1 -117.757 1656.71 2972.51 0 0 -1
459 1 449.454 3304.66 1400.96 0 -1 0
460 1 1547.85 -262.773 2790.4 0 0 0
461 1 66.1065 467.1 1530.86 1 0 0
462 1 610.827 3308.89 2399.41 0 -1 -1
463 1 1010.23 730.459 1574.07 0 1 0
464 1 2333.04 609.806 2008.1 0 0 0
465 1 1954.41 -293.68 926.387 0 0 0
466 1 2283.9 3325.35 1894.79 -1 -1 0
467 1 1013.92 3093.1 1527.35 -1 0 0
468 1 1263.92 810.093 474.564 0 0 0
469 1 3280.84 -304.409 574.514 -1 0 0
470 1 -220.536 -128.463 2022.32 0 0 -1
471 1 2206.43 2495.08 3275.09 0 0 -1
472 1 -327.415 755.138 2574 0 0 -1
473 1 146.48 3394.87 645.097 0 -1 0
474 1 -273.287 2415.91 923.854 0 -1 0
475 1 371.091 2157.96 1292.81 -1 -1 0
476 1 2972.07 1731.47 177.585 -1 0 1
477 1 1165.73 -200.572 1910.75 -1 0 0
478 1 -140.548 1960.82 2028.51 1 0 0
479 1 944.826 1929.39 498.711 0 0 0
480 1 2054.02 2926.87 1096.38 0 -2 0
481 1 -20.8208 798.794 332.227 0 1 0
482 1 1973.87 2974.6 2794.86 0 0 0
483 1 66.6731 283.731 92.6237 1 0 0
484 1 2146.57 1280.38 301.18 0 0 1
485 1 2969.25 1379.09 -249.677 0 0 0
486 1 2297.83 2742.55 2452.67 0 0 0
487 1 1532.83 2653.41 2956.07 0 0 -1
488 1 741.063 406.336 844.153 0 0 0
489 1 1308.9 1232.38 2463.82 0 0 0
490 1 -406.018 2547.8 599.789 0 0 0
491 1 2842.02 -382.958 -325.721 -1 0 0
492 1 100.293 1086.84 263.058 0 0 0
493 1 1363.08 1541.5 288.199 0 0 0
494 1 1883.86 3341.16 3181.2 0 -1 0
495 1 960.006 2598.96 531.102 0 0 0
496 1 -226.364 493.507 2718.67 0 1 0
497 1 2435.35 3167.22 2141.4 0 0 0
498 1 1047.51 1093.51 3030.8 0 1 0
499 1 1119.16 2873.17 2417.13 0 0 0
500 1 604.672 1144.43 2403.17 0 0 0
501 2 2611.62 1838.69 1655.92 0 0 0
502 2 509.193 1895.12 1003.86 1 0 0
503 2 -129.123 817.66 1459.11 0 0 0
504 2 1208.37 1519.28 -349.46 0 0 1
505 2 2914.08 1619.37 3133.45 0 0 -1
506 2 769.223 94.3002 2498.74 0 0 0
507 2 563.177 1798.33 435.266 0 0 0
508 2 1260 2843.42 3190.31 0 0 -1
509 2 3110.16 3372.68 3248.37 0 0 0
510 2 518.877 1544.42 -402.483 0 0 0
511 2 1163.71 -396.714 2799.5 0 1 -1
512 2 1363.1 616.749 2215.77 0 0 0
513 2 -19.7627 2163.79 2484.69 0 0 0
514 2 1835.32 1916.14 3132.51 0 0 0
515 2 2816.69 1109 2325.79 0 0 -1
516 2 -370.527 3381.86 1971.36 1 -1 0
517 2 91.7485 1845.69 740.749 1 0 0
518 2 869.64 3127.45 2619.12 0 0 0
519 2 2743.91 1355.57 2752.95 0 0 0
520 2 3127.74 2800.76 1269.45 -1 0 0
521 2 1752.92 1440.92 122.996 0 0 0
522 2 544.209 1434.86 1059.08 0 1 0
523 2 2433.09 125.398 2439.34 0 0 0
524 2 1009.17 2015.47 3165.25 0 0 -1
525 2 2057.91 2774.7 711.247 1 0 0
526 2 2463.53 2986.83 7.02899 0 0 1
527 2 3313.08 3308.53 2408.82 0 -1 0
528 2 -118.492 2367.14 1993.55 1 0 0
529 2 16.7516 3012.57 811.571 0 0 0
530 2 2655.51 2957.35 2788.81 -1 -1 -1
531 2 3260.21 727.437 1375.75 0 0 0
532 2 3325.63 2522.05 2405.94 -1 0 0
533 2 2657.97 1574.73 2333.51 0 1 0
534 2 2396.6 1724.93 -143.206 0 0 1
535 2 -316.846 2566.23 1572.47 0 0 0
536 2 2673.85 2574.03 2489.98 0 0 0
537 2 3022.91 3250.54 908.299 -1 0 0
538 2 2129.88 1793.13 1347.48 0 0 0
539 2 2781.26 3089.5 -360.688 0 -1 1
540 2 1000.9 53.9079 2920.31 0 1 0
541 2 887.639 526.394 2315.18 0 0 0
542 2 819.07 9.77417 845.823 0 0 0
543 2 2795.66 362.44 842.16 0 -1 -1
544 2 859.764 1556.57 1883.83 0 0 -1
545 2 3267.64 2386.86 1932.14 0 0 0
546 2 1571.9 515.342 6.63104 0 0 1
547 2 3391.65 1113.26 2043.45 0 1 0
548 2 1333.79 1074.41 3327.17 0 0 0
549 2 607.456 2954.94 -89.1371 0 0 0
550 2 1494.56 3086.07 1422.76 0 0 0
551 2 73.4308 125.044 3198.97 1 0 0
552 2 -336.506 2913.62 -67.5383 1 0 0
553 2 2584.34 -90.571 3431.96 -1 0 0
554 2 2467.79 612.883 1616.91 0 0 0
555 2 162.514 432.966 1922.13 0 1 0
556 2 509.582 935.442 1018.1 1 0 0
557 2 689.691 -406.698 1082.35 0 1 0
558 2 1988.49 2385.4 2822.13 0 0 0
559 2 1234.94 49.7705 601.121 0 0 0
560 2 1282.76 1661.99 1644.28 0 0 0
561 2 2125.57 -210.367 3179.82 0 0 -1
562 2 1110.81 1486.02 3048.9 0 0 0
563 2 1278.75 888.252 1804.87 0 0 0
564 2 2424.93 114.559 2940.14 0 0 0
565 2 347.715 3011.44 459.329 0 0 0
566 2 902.975 1685.8 810.165 1 0 0
567 2 2967.43 -47.379 3108.78 0 -1 -1
568 2 2308.33 1448.17 1635.04 0 0 0
569 2 -17.7394 31.4085 1707.17 0 0 0
570 2 1509.29 2441.11 1436.39 0 0 0
571 2 1109.39 1106.59 -97.6258 0 1 0
572 2 1746.5 -394.633 1262.28 0 0 0
573 2 -261.227 2522.43 2893.86 1 -1 0
574 2 1444.83 -16.8934 1311.51 0 1 0
575 2 816.32 742.071 48.9556 0 0 0
576 2 1908.73 52.0432 1176.2 0 0 0
577 2 1993.04 737.961 1599.52 0 0 0
578 2 2678.56 1053.81 -54.2618 -1 0 1
579 2 -28.5956 1048.96 3140.99 1 0 -1
580 2 -347.692 -11.8801 -119.047 1 0 1
581 2 139.002 820.292 2724.93 0 0 0
582 2 3039.22 1755.51 2677.25 -1 0 0
583 2 -105.246 451.49 1145.39 0 0 0
584 2 -323.022 166.695 2514.39 0 0 0
585 2 141.795 2820.13 -2.9853 0 0 0
586 2 1851.73 2517.58 1086.76 0 0 0
587 2 374.544 2450.96 2381.88 0 0 0
588 2 2291.87 1129.43 623.284 0 0 -1
589 2 3283.62 1399.25 3353.95 -1 0 -1
590 2 3395.94 3224.32 1214.78 0 -1 0
591 2 2115.96 71.2943 2015.82 0 1 -1
592 2 -163.701 1249.82 1701.35 0 0 0
593 2 1705.38 2495.86 2316.17 0 0 0
594 2 237.078 1269.86 2550.98 0 0 -1
595 2 2369.44 2197.83 7.74219 0 0 0
596 2 3055.23 194.694 2500.07 -1 0 0
597 2 548.849 -248.641 1764.72 0 0 0
598 2 -220.177 725.146 1922.61 0 0 0
599 2 3337.36 515.737 534.212 -1 0 0
600 2 2816.22 -179.861 1025.69 0 1 0
601 2 2864.19 1152.22 3302.29 -1 0 -1
602 2 1401.14 1924.86 2882.96 0 0 0
603 2 3312.28 568.163 2314.15 -1 0 0
604 2 -253.476 8.67485 1283.88 0 0 0
605 2 511.781 2600.83 244.375 0 0 0
606 2 202.696 1750.29 2719.11 1 0 -1
607 2 1206.78 403.627 1415.62 -1 0 0
608 2 863.123 2174.76 794.242 0 0 0
609 2 1869.45 998.462 381.591 -1 -1 -1
610 2 1042.95 3121.87 1117.9 0 0 0
611 2 110.818 2269.02 985.439 0 -1 0
612 2 2378.5 1134.04 -434.053 0 0 0
613 2 2354.29 424.531 620.154 0 0 0
614 2 1987.52 3200.97 2137.54 0 -2 0
615 2 486.865 1624.16 1498.04 -1 -1 -1
616 2 3218.41 959.392 -286.43 -1 0 0
617 2 1448.9 -344.547 -206.154 -1 0 0
618 2 2686.44 1318.69 1912.91 0 0 0
619 2 -119.276 3060.47 346.808 1 -1 1
620 2 3295.07 -115.498 2205.95 -1 0 -1
621 2 1599 3038.51 1885.06 0 0 0
622 2 223.909 1351.09 1973.08 0 0 -1
623 2 -286.892 2781.85 1113.34 0 0 0
624 2 1849 -104.876 1647.37 0 1 0
625 2 3305.59 1208.1 815.111 -1 0 0
626 2 -106.232 2055.57 2953.75 0 0 -1
627 2 66.07 2264.15 1548.76 0 -1 0
628 2 1866.79 897.59 2313.2 -1 0 -1
629 2 -270.131 1763.31 2603.84 0 0 -1
630 2 3032.08 2621.07 447.946 0 0 0
631 2 362.91 146.144 -256.16 0 0 0
632 2 126.302 1757.2 2241.96 0 0 -1
633 2 -344.345 2044.67 1700.89 0 0 -1
634 2 2074.33 3053.78 306.321 0 -1 0
635 2 521.323 617.025 -307.298 0 0 0
636 2 2068.31 1083.48 -55.6938 0 0 0
637 2 2531.34 1383.79 277.831 0 0 0
638 2 2539.59 -25.9816 651.856 0 1 0
639 2 2856.2 639.936 2485.43 -1 -1 0
640 2 -276.814 -352.733 331.09 0 0 0
641 2 594.498 655.327 1932.54 1 0 0
642 2 3029.74 2910.38 2474.17 0 -1 -1
643 2 949.318 -336.623 2346.49 0 0 0
644 2 79.4438 1348.33 -359.985 0 0 1
645 2 1162.56 3198 -4.66645 0 -1 0
646 2 290.967 1897.68 3185.7 0 0 -1
647 2 1250.84 2758.04 1722.04 0 -1 0
648 2 1327.05 2715.35 281.634 0 0 0
649 2 834.937 1255.87 2716.06 0 0 0
650 2 87.6854 2940.83 2768.59 0 0 0
651 2 -351.091 2044.13 760.836 0 -1 0
652 2 2595.47 829.938 732.367 0 0 0
653 2 2526.31 2394.04 -404.101 0 -1 0
654 2 2885.51 2655.39 2067.45 0 -1 0
655 2 1166.25 1590.74 2578.44 0 0 0
656 2 2204.01 -394.321 522.726 0 1 0
657 2 875.432 2489.76 1910.8 0 0 0
658 2 2803.18 2268.07 1801.62 0 0 0
659 2 1557.97 2874.14 2611.1 0 0 -1
660 2 2240.08 2177.42 2043.23 0 0 -1
661 2 933.831 3326.07 1909.77 0 -1 0
662 2 1917.55 727.386 -355.376 0 0 0
663 2 -357.923 3115.63 3371.57 0 -1 0
664 2 3031.36 2526.69 2808.77 -1 0 -1
665 2 2254.09 12.0795 252.766 0 0 0
666 2 946.378 2009.58 2678.95 0 0 0
667 2 2919.14 429.935 1561.47 -1 0 0
668 2 959.292 3412.68 387.652 0 0 0
669 2 2700.93 3414.86 1408.34 -1 -1 0
670 2 770.227 -113.656 -408.234 0 0 0
671 2 -179.352 1082.03 547.911 1 0 0
672 2 457.052 2938.68 2447.04 0 -1 0
673 2 528.203 1975.54 2413.75 0 0 -1
674 2 3146.03 -206.611 126.321 -1 0 0
675 2 488.496 1876.07 1934.84 0 0 0
676 2 1007.95 2391.55 2373.18 0 -1 0
677 2 1129.17 -364.69 838.015 0 0 0
678 2 1390.41 2372.51 2676.43 0 0 0
679 2 -127.431 1036.29 2375.82 0 0 0
680 2 1205.29 720.181 3003.6 0 0 -1
681 2 1431.25 1941.25 3398.9 0 0 -1
682 2 1491.44 3204.3 952.947 0 -1 0
683 2 2109.18 471.864 2311.43 0 0 0
684 2 95.2998 280.701 2736.87 0 0 -1
685 2 2602.71 1240.81 1010.54 0 0 0
686 2 222.089 1877.56 -212.501 0 0 0
687 2 2262.55 3435.27 49.2855 0 -1 1
688 2 388.493 2948.53 1598.48 0 0 0
689 2 667.572 186.811 2034.81 0 0 0
690 2 316.625 888.589 2265.07 0 0 0
691 2 2406.38 2191.68 1400.76 0 0 0
692 2 2829.81 2988.47 1622.08 -1 -1 0
693 2 1373.52 -9.9204 145.771 0 0 0
694 2 1957.73 425.685 2775.3 0 1 0
695 2 2509.4 1862.49 325.241 0 0 0
696 2 1725.47 1809.48 2150.47 0 0 0
697 2 3171.23 721.244 1859.12 0 0 0
698 2 1575.26 3085.08 -392.287 0 0 0
699 2 34.4814 3104.35 1294.58 0 -1 0
700 2 2371.91 -207.576 1700.58 -1 0 0
701 2 2198.35 2321.39 793.645 0 0 0
702 2 2317.14 -198.013 1067.43 0 1 0
703 2 2354.04 2840.5 3419.07 0 -1 0
704 2 1378.75 119.414 1769.05 0 1 0
705 2 -158.377 -296.882 2376.18 0 0 -1
706 2 1063.6 2742.69 -139.919 0 0 -1
707 2 1343.42 2362.58 3165.02 0 0 -1
708 2 1555.4 707.74 2660.34 0 0 0
709 2 1280.63 932.007 866.321 0 0 0
710 2 478.044 -215.399 2243.55 0 -1 -1
711 2 1440.86 -365.418 1656.43 0 0 0
712 2 279.008 3284.52 37.4188 0 -1 1
713 2 1795.49 2664.73 149.669 -1 0 1
714 2 913.048 56.6476 1632.79 0 0 0
715 2 58.6746 2617.53 435.378 0 0 0
716 2 347.045 2228.68 554.15 0 0 0
717 2 2366.6 -309.749 2203.71 0 1 0
718 2 1819.94 3432.68 -382.298 0 -1 1
719 2 475.839 3204.32 2021.95 0 -1 0
720 2 1729.72 2172.73 -158.1 0 0 1
721 2 526.083 3325.75 3394.7 0 -1 -1
722 2 2459.59 1591.99 711.873 -1 0 0
723 2 2583.88 2362.19 2920.1 0 -1 0
724 2 2204.11 1625.39 3268.21 0 0 -1
725 2 1130.01 96.7195 2184.99 0 1 0
726 2 2738 2544.92 1398.3 0 0 0
727 2 2813.59 958.074 1606.5 0 0 0
728 2 3164.04 819.298 180.439 0 1 0
729 2 2751.19 1429.48 1440.75 0 0 0
730 2 1371.03 1223.85 1457.94 0 0 0
731 2 3197.06 3266.99 -157.982 -1 -1 0
732 2 -81.1853 2716.33 3426.25 0 -1 -1
733 2 3081.47 1475.51 2113.6 0 0 0
734 2 741.486 3136.23 729.357 0 -1 0
735 2 426.908 2362.89 3252.85 0 0 -1
736 2 2733.81 3393.32 1890.11 -1 -1 -1
737 2 936.041 745.043 1175.56 0 1 0
738 2 1306.28 2463.12 696.924 0 0 0
739 2 346.146 2200.5 2804.1 0 0 -1
740 2 3211.81 3223.56 319.717 -1 -1 0
741 2 1363.72 3401.1 2134.17 0 -1 -1
742 2 2606.71 1879.53 2858.54 -1 -1 -1
743 2 2048.5 376.049 -35.3592 0 0 0
744 2 99.4281 -374.075 1958.76 -1 0 0
745 2 1541.63 619.015 1131.36 0 0 0
746 2 1982.04 871.5 1126.63 0 0 0
747 2 2115.2 1331.81 1034.3 0 0 1
748 2 2150.02 2065.44 -403.821 0 0 0
749 2 739.887 3426.72 -47.2337 0 -1 0
750 2 1540.45 3199.71 2989.34 0 0 0
751 2 528.844 1083.88 -173.124 0 0 1
752 2 210.485 915.941 1789.13 1 0 0
753 2 3272.18 585.984 2808.92 -1 0 0
754 2 1233.98 345.959 2601.66 0 0 0
755 2 505.745 2839.4 3318.68 0 0 0
756 2 3424.73 2068.1 2262.98 -1 0 0
757 2 949.204 2018.69 2039.41 0 0 0
758 2 1447.02 2006.61 1234.74 -1 0 0
759 2 129.382 61.4694 991.028 1 0 0
760 2 2372.42 705.737 -192.448 0 0 1
761 2 3159.44 1869.67 -403.642 -1 0 0
762 2 476.673 3014.72 1119.67 0 0 0
763 2 2534.26 1994.34 2120.55 0 0 0
764 2 100.313 1857.7 261.001 0 0 0
765 2 967.959 2396.35 165.371 0 0 0
766 2 2641.92 2289.2 985.501 0 0 0
767 2 2713.21 691.246 1204.48 0 0 0
768 2 3014.08 2332.67 -361.972 0 0 0
769 2 -105.121 572.662 3078.97 0 0 -1
770 2 2263.18 -268.781 2686.49 0 0 -1
771 2 324.21 1479 45.1229 0 0 0
772 2 2795.99 3050.49 501.642 0 -1 0
773 2 2152.22 -39.7177 -220.907 0 0 1
774 2 1913.1 1435.82 590.987 0 0 0
775 2 1644.63 1224.99 1054.12 0 0 0
776 2 1709.75 1742.32 910.017 -1 -1 0
777 2 3186.83 1275.81 1630.84 0 0 0
778 2 2848.14 602.471 -121.538 0 0 0
779 2 869.618 1211.92 3367.71 0 0 -1
780 2 938.391 3217.64 3149.04 0 0 -1
781 2 1761.09 2070.14 2584.43 0 -1 -1
782 2 3030.84 1121.5 1200.34 0 0 0
783 2 1623.3 1356.59 1849.47 0 0 0
784 2 1399.61 1133.12 290.86 0 0 0
785 2 -133.05 -322.575 3292.69 0 1 0
786 2 -55.942 3068.79 1772.94 0 -1 0
787 2 3099.06 3336.69 1493.5 0 -1 0
788 2 3357.3 962.796 3122.29 -1 0 -1
789 2 375.899 542.147 3059.09 0 0 -1
790 2 2522.37 834.511 3084.39 -1 -1 -1
791 2 -190.24 1307.88 2764.3 0 0 -1
792 2 1531.9 335.176 2992.78 0 0 -1
793 2 3069.07 269.504 2009.56 -1 0 0
794 2 -49.9518 548.695 2351.38 0 0 -1
795 2 2881.23 -345.429 516.359 -1 0 0
796 2 3112.27 1920.16 1918.09 0 0 0
797 2 2222.2 3220.16 2997.33 0 -1 0
798 2 601.49 1144.77 1951.1 0 0 0
799 2 1996.36 2980.31 -162.896 0 -1 0
800 2 2161.06 1231.25 2960.21 0 0 -1
801 2 2948.04 2906.49 59.2515 -1 -1 1
802 2 3139.66 77.5445 1302.14 0 0 0
803 2 2802.98 -91.9041 2191.37 0 0 0
804 2 3264.28 1024.7 2509.58 -1 0 0
805 2 1585.93 1006.02 -130.408 0 -1 0
806 2 86.8513 -111.586 541.291 0 0 0
807 2 664.535 2018.03 -360.76 0 -1 0
808 2 -324.761 627.797 3377.49 0 0 0
809 2 2264.93 3221.03 1272.02 -1 -1 -1
810 2 281.288 940.122 588.312 0 0 -1
811 2 2836.6 381.542 2904.98 0 0 -1
812 2 -177.261 -397.505 1535.15 0 0 0
813 2 106.228 1853.53 1283.72 0 0 0
814 2 -331.504 388.398 1576.33 0 0 0
815 2 1175.97 2135.52 1618.11 0 0 0