ITEM: TIMESTEP
811000
ITEM: NUMBER OF ATOMS
1000
ITEM: BOX BOUNDS pp pp pp
9.2147965279655227e+02 4.0785203472029125e+03
9.2147965279655227e+02 4.0785203472029125e+03
9.2147965279655227e+02 4.0785203472029125e+03
ITEM: ATOMS id type x y z ix iy iz
1 1 2872.73 2389.07 1131.96 -1 0 1
2 1 1931.25 962.981 2672.2 0 0 0
3 1 3561.74 2609.28 2028.73 0 0 0
4 1 2157.94 1395.96 3529.05 0 -1 0
5 1 3743.33 3168.64 2781.37 -1 -1 1
6 1 1730.72 1487.42 3739.64 0 0 0
7 1 1372.23 3230.18 2998.75 0 -1 0
8 1 2059.85 1468.18 2464.2 0 0 1
9 1 3185.66 3247.71 2459.07 0 0 0
10 1 2994.91 2513.45 2696.55 0 0 0
11 1 2778.95 2000.8 2646.33 0 0 0
12 1 1058.2 3458.27 3987.33 0 0 0
13 1 3381.22 3879.82 3816.57 -1 0 -1
14 1 2114.33 2802.49 3023.4 0 0 -1
15 1 3498.47 2117.45 1893.35 0 0 0
16 1 2073.07 4067.12 2437.35 0 0 -1
17 1 2410.32 3058.27 3079.49 1 0 -1
18 1 3361.73 2297.14 2483.48 -1 1 0
19 1 3029.59 1656 1497.77 -1 0 0
20 1 1109.29 3250.99 3160.96 0 -1 0
21 1 1882.1 2552.69 2603.99 0 1 0
22 1 2740.58 3186.05 2843.27 2 -1 0
23 1 3028.56 2024.98 2774.32 0 0 1
24 1 3159.86 3684.15 2043.88 0 0 0
25 1 1466.93 1705.53 2923.78 -1 0 0
26 1 3154.25 3248.8 3126.42 0 0 0
27 1 3330.59 2355.85 2965.82 -1 0 1
28 1 1857.18 2433.43 2352.57 0 0 0
29 1 2597.81 2176.68 2717.92 0 0 -1
30 1 2921.67 3772.03 3043.9 0 0 0
31 1 1084.81 1343.66 3073.49 0 0 0
32 1 1314.2 3368.18 3541.04 0 0 -1
33 1 2075.44 2347.06 3381.26 0 0 0
34 1 2430.28 956.624 3046.37 0 0 0
35 1 1818.16 2060.47 2347.7 0 0 -1
36 1 1174.22 2969.38 1036.22 0 -1 0
37 1 1554.58 1580.99 1643.67 0 0 0
38 1 2098.29 3186.12 2057.92 0 0 0
39 1 3491.12 2293.33 3032.05 -2 0 -1
40 1 3362.95 2464.92 1787.74 -1 -1 2
41 1 1757.05 3086.16 1624.49 0 0 -1
42 1 3095.86 2786.45 1885.13 0 -1 0
43 1 2440.51 2634.16 1878.09 0 -2 0
44 1 3193.38 3728.76 1445.97 0 -1 0
45 1 2445.13 2244.43 2931.87 0 0 0
46 1 3084.76 3915.53 3251.79 -1 -1 0
47 1 3716.87 3523.58 2080.78 -1 -1 -1
48 1 3490.65 1896.67 2926.02 0 0 -1
49 1 3068.81 2579.71 2149.64 -1 0 1
50 1 3274.76 1390.77 3620 -1 0 0
51 1 3569.05 1061.33 2134.37 -1 -1 1
52 1 4049.34 2555.49 3868.13 -1 0 -1
53 1 3340.35 1711.99 3731.25 -2 0 -1
54 1 3607.02 2160.37 3196.42 0 0 -1
55 1 3203.99 3249.64 3146.7 -2 0 -1
56 1 3359.18 2010.24 1335.14 0 0 0
57 1 1704.91 2505.09 3913.35 0 0 -1
58 1 2451.08 2682.2 3860.94 0 0 -1
59 1 2707.15 3715.98 2907.35 -1 -1 0
60 1 1821.08 3430.87 1207.11 -1 -1 1
61 1 1627.91 2956.75 2437.99 -1 0 0
62 1 2630.18 1013.29 3382.62 0 0 -1
63 1 3470.97 2068.24 3402.1 -1 0 0
64 1 3045.9 2691.35 3508.11 0 -1 -1
65 1 3510 3296.06 2856.74 -1 -1 -1
66 1 3577.79 3106.12 2544.95 -1 0 1
67 1 2490.59 2396.57 1361.83 0 0 0
68 1 2098.85 3117.59 3639.5 0 -1 -1
69 1 1076.12 2620.56 2962.06 0 0 0
70 1 1369.36 1102.28 3726.4 0 1 -1
71 1 1708.78 2784.62 2557.61 -1 0 -1
72 1 2858.09 1838.9 4031.53 0 0 -1
73 1 2726.29 1175.73 945.908 0 1 1
74 1 3422.87 2832.77 1957.51 -1 0 -1
75 1 1734.42 2462.66 1319.87 0 0 1
76 1 1235.43 1335.19 3278.94 -1 0 0
77 1 2745.55 2536.28 3737.35 -1 -1 -1
78 1 1289.95 4014.91 1493.52 0 -1 0
79 1 1829.55 2261.37 2539.34 0 -1 0
80 1 3403.64 2316.35 2456.12 -1 0 0
81 1 4036.47 1509.6 1522.67 -1 0 0
82 1 1573.57 2081.25 3766.19 1 0 0
83 1 2467.09 1779.83 2820.33 -1 -1 -1
84 1 1710.78 4025.05 3853.64 1 0 -1
85 1 2505.99 2365.9 2387.35 0 -1 0
86 1 3795.38 2312.32 3054.67 -1 0 0
87 1 1376.83 1703.32 3167.15 0 -1 -1
88 1 1103.45 2929.28 1765.48 0 -1 0
89 1 3076.05 3031.27 1415.82 0 0 0
90 1 3877.88 3604.58 2213.37 -2 -1 0
91 1 1268.41 3873.23 3233.32 0 -1 -1
92 1 1680.78 2957.95 2429.54 0 -1 -1
93 1 2056.34 3767.94 2871.19 1 0 0
94 1 2147.46 1912.6 3808.18 0 0 -1
95 1 1411.77 2390.54 3097.49 -1 -1 -1
96 1 2942.31 2435.46 1647.45 -1 0 0
97 1 2171.43 2354.38 1739.42 0 -1 1
98 1 2825.85 1849.52 3281.25 -1 -1 0
99 1 2438.91 3102.07 3327.62 0 -1 -1
100 1 2898.81 1688.9 1092.31 -1 0 0
101 1 1075.9 3176.37 2276.44 0 -1 0
102 1 2117.5 996.561 2794.17 -1 0 0
103 1 3126.58 2516.37 1818.25 -1 0 0
104 1 3910.54 2836.12 2394.71 0 -1 -1
105 1 3812.08 3445.05 2948.9 -1 0 0
106 1 3898.78 1672.55 3062.22 0 1 -1
107 1 2942.32 1972.54 2409.22 -1 -2 0
108 1 3720.71 3548.61 1200.51 -1 0 -1
109 1 2090.2 2555.09 2349.92 -1 -1 0
110 1 2934.35 2914.52 1187.56 0 -1 0
111 1 3887.44 922.237 3896.94 -1 0 -1
112 1 2757.69 1232.06 3315.56 0 0 0
113 1 2306.38 2888.62 3264.19 0 0 -1
114 1 2865.48 2357.41 3228.26 -1 0 0
115 1 2100.18 2788.71 3398.92 0 0 -1
116 1 3107.97 2372.96 3167.06 0 0 0
117 1 2263.44 3958 2915.25 0 -1 -1
118 1 1863.36 2993.61 2126.68 -1 0 -1
119 1 3797.87 3282.42 2065.51 0 -1 0
120 1 2957.31 2191.47 1393.59 1 0 0
121 1 3495.73 3667.81 3424.15 -1 0 0
122 1 2997.22 3480.73 2438.3 0 0 -1
123 1 1302.7 1248.92 3929.67 -1 1 -1
124 1 2660.65 2532.17 1102.32 0 0 1
125 1 1307.87 3455.14 1634.92 0 -2 0
126 1 1999.64 4070.66 3350.67 0 0 -1
127 1 2960.98 2109.94 1850.92 -1 -1 0
128 1 1794.15 2131.45 4073.67 -1 0 0
129 1 2481.92 2388.89 2345 -1 0 0
130 1 3875.07 2728.3 1688.42 0 -1 0
131 1 3205.51 3585.97 979.542 -1 -1 0
132 1 2697.43 3014.78 3364 0 -1 -1
133 1 2520.13 2379.51 3118.74 0 0 -1
134 1 1584.58 3675.52 2474.26 -1 -1 -1
135 1 1963.93 3957.29 3857 0 -1 -1
136 1 3295.37 1861.6 3532.01 -1 0 0
137 1 3583.8 1520.51 1595.33 -1 0 0
138 1 2938.6 2635.91 1497.92 0 -1 0
139 1 3299.37 2651.8 1762.19 -1 -1 -1
140 1 3246.61 3347.32 2949.98 -1 -1 -1
141 1 3131.54 3016.59 1777.3 -1 1 0
142 1 2397.73 2085.92 3129.37 0 1 -1
143 1 3564.53 3310.99 2103.9 -1 0 0
144 1 1061.08 3339.22 2609.66 -1 -1 0
145 1 2182.82 2052.48 1832.15 0 0 0
146 1 3799.58 2629.81 1916.83 -1 -1 0
147 1 1273.49 2467.97 2874.67 0 0 -1
148 1 2877.36 2853.92 2254.25 -1 -1 1
149 1 3371.7 3083.02 2946.03 0 0 0
150 1 2376.56 2661.28 2602.4 0 0 0
151 1 2588.83 3410.59 2945.62 0 -2 -1
152 1 3835.88 2726.63 3242.54 -1 -1 0
153 1 3192.71 2999.34 3134.07 -1 -1 -1
154 1 3682.48 2826.18 2119.49 -1 0 -1
155 1 3323.69 2279.02 2516.5 0 0 0
156 1 1718.69 2520.75 3597.78 0 0 -2
157 1 4014.57 3317.66 2213.4 0 0 -1
158 1 2899.86 2920.76 1702.89 -1 -1 0
159 1 3428.3 2762.72 2782.54 0 -1 0
160 1 3212.74 1536.9 3089.36 -1 0 0
161 1 2839.7 2897.87 1440.66 0 0 -1
162 1 3027.66 1753.09 2561.25 0 -1 0
163 1 2307.16 2644.94 3144.21 0 0 -1
164 1 3635.71 2391.43 1530.68 0 -1 -1
165 1 2152.87 1908.49 3861.59 0 0 -1
166 1 993.626 2875.52 1559.75 0 0 -1
167 1 2824.45 2860.71 2247.84 0 -1 0
168 1 1441.55 1916.69 3359.06 0 0 0
169 1 1952.16 3730.62 1345.46 0 -1 -1
170 1 3307.03 3261.94 2250.6 0 -1 0
171 1 3053.94 1846.13 3436.41 -1 -1 -1
172 1 2699.96 3275.78 1852.77 0 -1 -1
173 1 3033.64 2301.25 2541.59 -1 0 -1
174 1 3142.77 1350.49 3922.99 -2 0 -1
175 1 3575.29 3386.04 1019.39 -1 -1 -1
176 1 1843.31 1795.12 3330.56 0 0 0
177 1 3057.37 3818.94 1182.13 -1 0 0
178 1 3806.46 1973.72 3026.84 -1 0 0
179 1 1474.54 1918.68 3401.57 -1 0 0
180 1 3701.92 3199.2 3321.5 0 0 -1
181 1 1200.06 2772.52 3482.74 0 -1 1
182 1 3134.73 3888.98 1945.29 0 -1 0
183 1 1033.66 3388.32 1657.13 0 -1 0
184 1 3262.41 2030.1 2831.16 0 -1 1
185 1 1182.81 2138.58 2738.01 0 0 -1
186 1 3482.04 2211.61 1413.72 -1 0 -1
187 1 4028.98 2784.07 3065.56 0 0 -1
188 1 2643.8 970.988 3982.88 0 1 -1
189 1 3969.21 1787.17 3832.27 -1 0 -1
190 1 2661.29 2794.9 2474.86 -1 0 0
191 1 3156.96 1160.85 3631.19 0 0 0
192 1 3733.75 3802.05 1282.3 -1 -1 0
193 1 3866.78 3022.97 3240.55 -2 -1 0
194 1 3210.19 1869.86 1550.31 0 -1 -1
195 1 1895.47 2683.53 2982.46 -1 0 0
196 1 2314.87 2528.52 4015.71 0 0 -1
197 1 1943.35 2142.65 1105.71 -1 1 1
198 1 3063.81 3706.25 3832.62 -1 -1 0
199 1 2208.84 3649.33 1012.21 0 0 1
200 1 1765.1 1514.68 3352.29 0 0 -1
201 1 3707.69 1949.74 3345.28 -1 0 0
202 1 2651.82 2278.65 3852.68 -1 -1 -1
203 1 3536.51 3517.51 3889.98 -1 -1 0
204 1 2406.51 2230.39 3366.88 0 -1 -2
205 1 3363.66 2724.09 3476.66 -1 -1 0
206 1 3771.38 1107.1 3738.43 -1 0 0
207 1 2356.59 2942.72 3820.97 -1 -1 -1
208 1 2373.95 1996.6 2882.58 0 0 -1
209 1 2884.03 2817.6 3346.5 -1 -1 0
210 1 3503.32 2576.51 1298.46 0 -1 0
211 1 3097.4 3262.87 1310.18 -1 -1 0
212 1 2262.83 940.01 2260.84 0 0 -1
213 1 3450.06 2839.64 2502.91 0 1 -1
214 1 2338.18 3190.01 2446.5 0 -1 0
215 1 923.122 3310.68 1438.28 0 0 -1
216 1 2796.83 2215.11 3685.66 -1 0 -1
217 1 3260.35 1903.28 1795.01 -1 0 1
218 1 1902.96 2699.88 1574.66 0 0 0
219 1 3525.82 3288.79 2385.38 0 -1 0
220 1 1933.05 2385.42 3666.97 -1 0 -1
221 1 3368.72 1199.02 3473.75 -1 0 -1
222 1 3142.08 1946.27 929.183 0 -1 1
223 1 2435.2 2421.66 3782.84 0 -1 -2
224 1 1131.37 3797.14 2491.75 0 -1 0
225 1 3044.43 3961.74 2403.59 0 -1 0
226 1 2998.85 2591.1 3226.57 0 -1 0
227 1 3825.75 2322.52 2800.45 -1 -1 -1
228 1 1002.21 3645.93 1023.57 0 0 1
229 1 3188.06 1761.74 2021.08 -1 -1 0
230 1 1098.5 2371.42 2683.99 0 0 -1
231 1 1727.91 2946.93 2406.62 -1 -1 0
232 1 1804.56 3923.79 4066.56 0 -1 -1
233 1 3828.45 2965.64 2970.27 -1 0 1
234 1 1600.9 1340.25 2633.86 0 -1 -1
235 1 2878.78 2287.51 1156.74 -1 -1 0
236 1 2493.02 2633.18 1865.44 -1 0 0
237 1 3479.98 2552.8 3309.43 0 -1 0
238 1 3370.9 3082.79 2425.22 0 -1 0
239 1 2898.97 2651.35 1753.25 -1 -1 0
240 1 1923.45 2580.47 2583.05 1 0 -1
241 1 2860.55 3902.59 1405.16 0 -1 0
242 1 2745.22 1718.13 1304.83 0 -2 0
243 1 1447.68 4016.4 1246.91 0 -1 0
244 1 3256.78 2687.21 3016.55 0 -1 -1
245 1 3671.85 1051.1 2531.88 -1 0 0
246 1 3213.8 1445.84 2834.65 0 -1 0
247 1 2376.21 3978.12 2692.91 0 -1 0
248 1 3658.05 3050.94 1663.02 -1 -1 0
249 1 3663.71 2749.38 3466.68 0 0 0
250 1 3992.19 1258.51 3734.35 -1 0 -1
251 1 3479.06 2855.82 1604.3 0 -1 0
252 1 3266.08 1176.94 2823.31 -1 0 0
253 1 1241.17 2775.58 1649.06 1 0 0
254 1 3889.84 2076.47 2677.87 -1 0 -1
255 1 3106.83 1541.78 3773.85 -1 0 -1
256 1 2424.52 2379.73 3115.83 -1 0 0
257 1 3176.29 3486.25 1525.59 -1 -1 0
258 1 2632.26 1694.17 3202.33 0 0 -1
259 1 2733.16 1766.39 3833.57 -1 0 -1
260 1 2745.45 2572.94 3362.87 0 0 0
261 1 1047.82 1694.38 2145.92 0 0 0
262 1 3606.37 2548.56 1747.54 -1 0 -1
263 1 2655.98 3113.76 3088.26 -1 0 -1
264 1 2021.99 2306.56 1328.52 0 0 -1
265 1 3887.43 1572.82 3374.02 -1 0 -1
266 1 3437.62 1227 3741.17 -1 0 -1
267 1 1032.67 2141.49 3298.84 0 0 -1
268 1 1931.86 2533.13 2607.81 0 -1 0
269 1 3092.3 1049.19 3191.57 -1 0 0
270 1 2196.52 1915.28 3830.55 0 0 -1
271 1 1645.8 3122.11 2283.41 0 -1 -1
272 1 2634.63 2330.03 3390.86 -1 0 -1
273 1 1844.07 2276.63 3332.13 0 0 -1
274 1 2195.74 2607.8 3412.06 1 -1 0
275 1 3190.82 2392.66 1339.14 -1 0 1
276 1 3047.71 2798.45 976.371 -1 -1 0
277 1 2704.81 2730.95 1603.25 0 0 1
278 1 970.583 1109.36 3019.18 0 0 -1
279 1 2219.53 2917.83 2397.03 0 -1 0
280 1 2408.02 2437.69 3527.43 -1 0 -1
281 1 1479.6 3192.1 2817.85 0 -1 0
282 1 1584.75 2167.45 3270.35 0 -1 0
283 1 2170.69 3827.64 3958.57 0 -1 -1
284 1 1845.29 2102.2 3750.11 0 0 -1
285 1 4066.13 2937.08 3280.71 -1 0 -1
286 1 3239.47 1716.32 3258.89 -1 1 0
287 1 3041.48 1582.07 1248.28 0 0 0
288 1 2192.92 2204.43 2922.65 1 0 0
289 1 1810.13 2880.75 2848.78 0 -1 0
290 1 3427.39 2469.05 2212.65 -1 -1 0
291 1 2026.21 2854.57 2423.08 -1 -1 0
292 1 3812.36 2017.77 2996.39 -1 0 -1
293 1 2742.77 2606.52 2601.81 0 0 1
294 1 2595.23 2774.83 2785.68 0 -1 -1
295 1 1462.79 3866.67 2584.03 0 -1 0
296 1 3769.07 2469.44 3274.16 0 0 0
297 1 3196.15 2187.25 2651.24 -1 0 0
298 1 2286.1 2404.94 2709.02 0 0 0
299 1 1176.47 1864.78 2589.02 1 0 0
300 1 1663.31 2433.5 3861.98 0 0 0
301 1 2235.44 2448.55 2652.7 -1 0 -1
302 1 3847.3 1497.82 1046.22 -1 0 0
303 1 3405.55 3914.48 1366.83 0 -1 0
304 1 2114.28 3080.1 3674.47 1 -1 -1
305 1 2325.56 1284.55 3724.27 0 0 -1
306 1 1119.87 3863.62 1009.44 0 -1 0
307 1 3611.13 2367.51 1572.04 -1 0 -1
308 1 1103.97 1200.61 969.587 0 0 0
309 1 2788.18 3351.98 2170 0 0 -1
310 1 1268.67 1529.61 2964.44 0 0 -1
311 1 1853.95 3099.37 1026.13 0 -1 -1
312 1 3163.44 2189.4 2693.8 0 -1 1
313 1 1803.34 1660.12 3548.85 0 -1 -1
314 1 1280.19 2194.59 3190.69 1 0 0
315 1 1429.14 1292.2 2824.83 0 0 0
316 1 3233.3 3275.13 1079.08 -1 0 0
317 1 1926.94 3156.43 2701.74 1 0 -1
318 1 3999.23 3613.1 3080.98 0 -1 -1
319 1 3315.05 1882.13 1073.63 -1 0 0
320 1 2379.8 2831.67 2886.57 0 -1 0
321 1 2764.19 2037.06 3858.26 -1 0 0
322 1 2130.08 2454.34 1198.21 0 -1 0
323 1 1580.38 1707.19 3344.27 0 0 -1
324 1 3970.72 2195.36 1036.3 0 0 0
325 1 1740.9 3772.01 3238.2 0 0 0
326 1 2889.27 3046.49 3214.87 0 0 -1
327 1 2681.32 3516.09 2714.29 0 -1 0
328 1 1797.96 1981.8 2599.86 0 0 0
329 1 1773.54 3034.98 1622.99 0 0 0
330 1 2840.36 2539.38 3044.1 0 0 0
331 1 2449 2647.11 1609.19 -1 0 0
332 1 2068.05 3137.37 3600.42 0 -1 -1
333 1 3228.09 2519.08 3379.86 0 0 0
334 1 3276.95 4075.95 3785.47 -2 -1 0
335 1 2566.4 3265.93 2323.49 0 0 0
336 1 2423.19 2267.58 4020.93 0 -1 -1
337 1 1105.58 2354.66 1920.66 0 0 0
338 1 2877.66 2918.78 3934.65 0 -1 -1
339 1 3201.26 2859.86 3633.51 0 -1 0
340 1 2338.78 2400.47 2705.15 0 -1 0
341 1 2893.53 3845.25 3662.2 0 -1 -2
342 1 3072.31 3181.08 3361.2 0 -1 0
343 1 2998.36 1652.56 3233.18 1 -1 0
344 1 3360.59 3463.12 3439.97 0 -1 -1
345 1 2588.56 2070.8 926.092 0 0 0
346 1 2868.64 2339.94 1152.83 0 -1 0
347 1 2471.93 2399.44 3131 -1 0 -1
348 1 1890.96 2507.44 2631.97 -1 -1 -1
349 1 3090.22 2762.37 2704.24 -1 0 0
350 1 2009.87 2082.31 1613.75 0 1 0
351 1 1597.59 972.253 3648.04 0 0 -1
352 1 2224.63 2061.25 3529.55 0 1 0
353 1 3488.48 2727.53 2247.44 0 -1 0
354 1 1885.17 2720 2176.31 0 0 0
355 1 2237.21 3018.74 3479.47 0 -1 -1
356 1 2004.76 3630.14 1116.24 0 -1 0
357 1 1808.89 3263.17 3141.68 0 -1 -1
358 1 3472.47 4056.02 1956.64 -1 -1 0
359 1 2753.33 2114.19 3279.55 0 0 0
360 1 1925.9 1003.28 3990.2 0 1 -1
361 1 3901.73 2669.89 2183.65 -1 0 0
362 1 3125.55 2726.68 3071.29 0 -1 0
363 1 2529.09 2264.62 3615.36 0 0 -1
364 1 3122.86 2905.37 3389.11 -1 0 0
365 1 1824.4 3728.36 2999.16 0 -1 0
366 1 1541.91 2683.89 1188.7 0 0 0
367 1 2022.74 2647.68 3202.05 0 -1 -1
368 1 2769.23 1353.21 2669.45 -1 0 0
369 1 3582.07 2948.23 2850.33 0 0 -1
370 1 3714.63 3057.88 1900.59 -2 0 0
371 1 3856.6 1940.66 1499.98 -1 0 0
372 1 3382.49 3405.72 3988.08 -1 -1 -1
373 1 3179.46 2727.37 3073.76 0 1 0
374 1 2551.9 1386.32 2612.17 0 0 0
375 1 3557.32 1046.34 2184.69 0 0 -1
376 1 2897.46 2790.45 2507.98 0 1 0
377 1 3694.54 2481.47 2195.51 0 0 0
378 1 2162.15 1468.04 3285.21 0 1 -1
379 1 3293.08 2601.07 1994.5 -1 -1 0
380 1 2725.73 1850.92 1548.85 -1 0 0
381 1 2047.61 2588.19 3583.06 0 0 -1
382 1 3755.61 3214.57 3043.24 -1 -1 0
383 1 2939.95 2149.35 2207.84 -1 0 0
384 1 3147.05 3053.43 2267.99 0 -1 0
385 1 3465.81 2953.69 2176.94 0 0 0
386 1 3153.86 3421.27 2689.74 -1 0 0
387 1 3483.54 2242.49 3016.45 -1 0 -1
388 1 922.581 2972.24 3242.4 0 0 -1
389 1 2388.76 2530.32 1157.52 0 0 0
390 1 1011.97 2796.68 940.578 0 -1 0
391 1 2333.63 1450.37 1176.89 0 0 0
392 1 1382.17 2607.35 3444.64 -1 -1 -1
393 1 2674.97 2355.5 2880.19 0 0 1
394 1 1440.52 1831.84 3718.21 1 0 -1
395 1 2420.11 2410.46 1651.09 0 -1 -1
396 1 1056.91 3088.35 2660.79 1 0 0
397 1 3039.71 3103.35 1024.19 -1 0 0
398 1 1954.96 2373.18 3147.02 0 -1 0
399 1 1758.61 1171.25 3135.56 0 0 0
400 1 1913.13 2203.89 2933.76 -1 0 -1
401 1 2513.7 2418.22 2377.14 0 0 -1
402 1 1964.48 2612.91 4041.4 0 0 -2
403 1 1121.69 1714.59 3550.44 0 0 -1
404 1 2690.08 2823.81 1867.13 0 0 0
405 1 2831.28 3549.56 3085.84 -1 0 0
406 1 1762.23 3213.05 2098.65 0 -1 0
407 1 1343.18 3307.92 3285.92 -1 -1 0
408 1 3967.5 2324.16 3275.93 0 0 -1
409 1 3676.42 2821.55 2624.18 0 -1 -1
410 1 2672.82 2024.32 2377.89 0 0 -1
411 1 1792.35 1655.07 1557.48 0 0 0
412 1 2314.44 3498.57 3129.7 0 0 0
413 1 1100.56 2817.71 3200.87 0 0 -1
414 1 1597.53 3147.73 3104.46 0 -1 -1
415 1 1651.87 2281.08 3032.97 0 0 -1
416 1 2761.58 2823.21 1035.96 0 0 0
417 1 1224.45 1748.31 2347.76 -1 0 -1
418 1 3944.83 3446.26 1621.64 -1 0 1
419 1 1952.48 2619.21 2559.22 0 0 0
420 1 3706.55 3147.64 2219.61 -2 -1 -1
421 1 3188.56 2577.77 1189.68 -1 0 0
422 1 1136.63 3449.11 1415.44 0 -1 0
423 1 3551.74 2927.62 1086.66 0 -1 0
424 1 1577.36 3146.22 3774.06 0 -1 -1
425 1 2268.23 3165.63 3901.24 0 0 -1
426 1 3154.8 2698.43 3035.84 -1 0 -1
427 1 3670.11 2130.24 2043.69 -1 -1 0
428 1 2237.41 3339.41 2651.42 0 -1 -1
429 1 3263.6 3019.24 2007.86 -1 0 0
430 1 1666.77 1348.84 2030.44 0 -1 0
431 1 2719.98 2298.34 980.175 0 0 0
432 1 1502.65 3151.3 2068.84 0 -1 0
433 1 1988.55 2843.88 2459.88 -1 -1 -1
434 1 3638.61 2894.72 2367.02 -1 0 0
435 1 3163.71 1653.96 3516.02 -1 0 0
436 1 3279.75 2901.84 1006.86 -1 0 0
437 1 2956.19 1978.65 1564.74 0 1 0
438 1 4011.16 2506.72 2807.61 -1 -1 -1
439 1 3136.72 2309.52 1311.45 0 0 0
440 1 3503.97 1526.61 3605.5 -1 0 -1
441 1 2975.89 1338.31 3686.92 -1 0 -1
442 1 1302.85 2634.63 3049.49 0 0 0
443 1 3556.48 2544.83 3559.02 0 -1 0
444 1 3110.48 2799.18 1604.18 -2 0 0
445 1 2344.55 3362.01 2627.61 0 -1 0
446 1 3362.85 1457.34 3864.48 -1 0 -1
447 1 2771.64 2900.89 2713.97 0 0 0
448 1 1605.99 2903.24 2084.23 -1 -1 0
449 1 2086.87 2438.08 1225.83 -1 0 0
450 1 1503.95 2367.27 3641.72 0 0 -1
451 1 1565.69 2956.58 2938.35 0 -1 -1
452 1 1834.73 1928.16 3573.9 0 0 0
453 1 3637.72 3611.94 2297.27 -1 0 0
454 1 1499.47 1958.71 2010.39 0 0 -1
455 1 2872.07 2657.05 3735.2 -1 0 -1
456 1 3350.17 1158.77 993.807 0 1 0
457 1 2492.52 2997.04 2361.91 0 -1 -1
458 1 1433.86 1883.53 3400.86 0 1 -1
459 1 1669.22 2401.2 1926.31 0 -1 -1
460 1 3704.65 2469.21 2618.42 -1 -1 0
461 1 3136.45 2936.14 2504.11 0 -1 0
462 1 3399.56 3010.53 2671.26 -1 0 -1
463 1 3892.06 1624.89 3387.88 -1 0 -1
464 1 2846.88 2736.16 2806.2 0 0 0
465 1 994.796 2934.84 2404.72 1 0 -2
466 1 3028.12 3416.56 2894.49 -1 -1 0
467 1 2867.81 2672.88 1218.32 0 1 0
468 1 3743.22 3100.24 1097.74 0 -1 1
469 1 3247.58 2547.64 2785.95 0 -1 -1
470 1 3236.42 3475.54 1254.79 -1 -1 -1
471 1 3246.69 2806.03 2167.51 0 0 0
472 1 2979.62 3356.73 1088.48 0 -1 0
473 1 964.836 2300.09 3512 1 -1 0
474 1 3374.13 2216.92 3175.91 -2 -1 -1
475 1 3161.72 2537.49 1565.47 0 -1 0
476 1 3238.16 4007.16 1681.29 -1 -1 0
477 1 3724.19 2193.61 1500.26 0 -1 -1
478 1 2722.71 2479.11 1497.04 -1 -1 0
479 1 2721.64 1070.21 2107.49 0 0 -1
480 1 3831.17 2012.25 2423.37 -1 0 0
481 1 3336.06 1163.56 942.076 0 1 1
482 1 2801.22 1473.18 3215.92 0 -1 -1
483 1 3416.92 1969.71 3130.43 -1 1 0
484 1 3028.51 3312.72 2204.88 -1 -1 0
485 1 2222.04 3632.16 2705.91 -1 -1 -1
486 1 3986.37 3326.37 1168.19 -1 -1 0
487 1 2931.62 2314.39 2974.28 -1 0 -1
488 1 1799.4 1138.38 2504.7 0 0 0
489 1 3651.57 2817.04 1777.87 -1 0 0
490 1 3406.3 2326.42 3461.43 -1 0 -1
491 1 2783.61 2959.15 2930.06 0 0 -1
492 1 3115.57 2572.42 4039.05 0 -1 0
493 1 2940.33 2418.95 2308.34 -1 0 0
494 1 2169.98 2306.46 3628.14 1 -1 0
495 1 3457.44 3089.54 1838.66 0 -1 0
496 1 3208.67 2701.45 3036.52 1 0 0
497 1 2740.76 3967.33 2769.55 -1 -1 0
498 1 2888.55 3381.67 2663.02 0 -1 0
499 1 2143.73 2506.25 1201.89 -1 0 -1
500 1 2902.74 3548.44 2154.78 0 -1 -1
501 1 2454.37 2937.93 2619.67 -1 0 -1
502 1 1155.41 3400.64 3337.99 -1 0 0
503 1 2475.57 2439.8 3166.08 0 0 0
504 1 1987.68 2654.16 2538.02 0 0 0
505 1 1672.29 2462.8 3906.07 -1 0 -1
506 1 1013.86 1794.38 1919.68 -1 0 0
507 1 3848.97 1596.33 3403.77 -1 0 -1
508 1 1363.58 1179.76 1413.28 0 0 -1
509 1 1382.24 1255.06 2532.43 0 0 0
510 1 2856.13 2208.18 2728.69 -1 -1 -1
511 1 3978.57 3508.08 2434.76 0 0 -1
512 1 1237.82 3548.32 3752.94 0 -1 -1
513 1 3464.66 2510.47 1553.26 0 -1 0
514 1 3042.53 1968.44 2057.92 -2 0 1
515 1 2468.18 1866.8 2392.68 -1 0 -1
516 1 2546.55 3948.22 2876.8 -1 -1 0
517 1 3403.5 3368.38 3760 0 -1 -1
518 1 1773.97 3176.85 2912.39 0 0 -1
519 1 2793.23 2675.54 2304.21 0 0 0
520 1 3476.36 3109.12 1072.38 -1 0 0
521 1 2517.04 2293.61 1108.3 -1 0 1
522 1 2467.91 2680.42 1872.88 -1 0 0
523 1 3439.4 3318.06 1246.57 0 0 0
524 1 2750.19 2344.64 2496.35 -1 -1 0
525 1 3509.05 1810.07 3359.07 0 0 -1
526 1 1686.89 2229.14 2770.69 0 0 0
527 1 922.322 1922.46 3201.85 0 -1 -1
528 1 3680.02 2363.87 1965.18 0 1 0
529 1 2497.07 2697.71 975.019 -1 -1 0
530 1 1482.74 2904.87 2682.68 0 0 0
531 1 1824.5 3981.87 1358.09 0 -1 0
532 1 3661.3 2684.34 1536.8 -1 0 0
533 1 3518.19 1063.12 2151.82 -1 0 -1
534 1 2206.8 926.868 3157.55 0 0 -1
535 1 2823.37 3898.68 2474.54 -1 -2 0
536 1 2060.51 2601.56 1760.04 -1 0 0
537 1 2896.98 3391.18 1938.31 -1 -1 0
538 1 1541.26 1620.49 3575.59 0 0 -1
539 1 3532.91 2372.32 2819.74 -2 0 -1
540 1 3006.26 3674.91 2381.56 0 0 0
541 1 2479.31 3307.58 3169.92 0 0 -1
542 1 2244.09 2935.84 2352.69 0 -1 0
543 1 2113.99 2852.38 2743.57 0 0 -1
544 1 3403.23 1448.82 3371.98 -1 1 -1
545 1 2004.61 3103.32 2928.78 -1 0 -1
546 1 3753.69 1305.6 1215.46 -1 0 0
547 1 2471.77 2174.68 2289.77 0 -1 0
548 1 1363.94 1531.98 3383.69 0 0 0
549 1 2839.61 2519.68 3743.91 0 0 0
550 1 1746.35 2006.31 1132.94 0 0 0
551 1 2223.44 2859.95 1242.64 0 -1 0
552 1 2806.93 3927.28 3928.1 0 -1 -1
553 1 3209.73 2774.95 3933.97 -1 0 -1
554 1 2144.3 2380.03 2724.25 0 0 0
555 1 1696.07 2191.94 3574.86 0 0 0
556 1 2587.86 3314.69 2561.48 0 0 -1
557 1 2843.85 2744.33 2063.21 -1 0 0
558 1 2576.93 3844.48 2604.84 -1 0 -1
559 1 2571.47 3556.69 3173.34 -1 0 0
560 1 1425.55 3031.46 927.502 0 0 0
561 1 3776.31 2267.47 2454.16 -1 -1 -1
562 1 1615.47 3800.48 3955.15 0 0 -1
563 1 3960.41 2511.9 3128.97 -1 0 0
564 1 2642.07 2896.53 3811.7 0 1 -1
565 1 3856.06 2765.2 3805.53 0 0 -1
566 1 3854.42 1985.3 3005.2 -1 0 1
567 1 2576.68 1193.81 3106.65 0 0 0
568 1 3412.31 3268.66 2579.2 -1 -1 -1
569 1 2864.22 1981.41 3487.98 0 0 0
570 1 1228.11 3260.45 2773.22 0 -1 0
571 1 3262.32 3075.43 1218.18 -1 -1 0
572 1 2589.83 2960.11 2874.14 -1 -1 0
573 1 1982.4 2155.09 3542.86 1 0 -1
574 1 3314.82 3628.16 3920.47 -1 0 0
575 1 1403.3 2335.22 3350.54 0 0 0
576 1 3834.92 2015.58 3045.26 0 -1 -1
577 1 3705.82 2665.4 2403.45 -1 -1 -1
578 1 988.204 2719.9 2257.02 1 0 1
579 1 3237.47 3876.78 2587.94 0 0 -1
580 1 2258.13 2888.4 2373.83 0 1 1
581 1 1330.45 2066.23 2413.7 -1 0 0
582 1 3454.41 3559.46 2118.7 0 -1 0
583 1 2535.18 2380.99 2344.68 0 0 0
584 1 3770.21 3379.79 2257.62 0 0 1
585 1 3444.3 3618.62 3671.07 -1 -1 -1
586 1 3334.83 1865.5 3975.36 -1 -1 -2
587 1 958.902 1921.38 2739.72 1 0 -1
588 1 1537.7 2309.13 1500.06 0 0 0
589 1 3124.1 3462.4 3970.71 1 -1 0
590 1 3827.09 2910.89 1510.9 -1 -1 1
591 1 1897.44 1386.85 3550.16 -1 -1 -1
592 1 1440.49 2162.63 2971 0 0 0
593 1 1162.33 1931.01 3338.62 0 0 0
594 1 1791.03 3520.87 3263.46 -1 1 0
595 1 3241.74 970.121 3350.48 -1 0 -1
596 1 3151.35 2358.91 1326.06 1 0 0
597 1 2836.05 2617.52 3742.95 0 0 0
598 1 3294.02 3724.52 1218.03 0 -1 0
599 1 2104.03 3925.33 2674.26 -1 -1 0
600 1 3285.45 1780.01 3012.22 -1 0 -1
601 2 4039.23 2219 1334.34 -1 0 0
602 2 1360.19 1516.38 2061.26 1 0 0
603 2 3420.24 3729.04 1813.09 -1 0 1
604 2 3558.83 3477.17 3138.07 0 -1 0
605 2 1058.93 1001.42 3817.75 0 0 0
606 2 987.255 2625.71 1908.4 1 0 0
607 2 1787.31 2699.29 1807.8 0 0 0
608 2 2984.16 3661.65 2647.86 0 -1 0
609 2 3280.62 1899.82 2271.83 0 0 0
610 2 2750.5 3322.87 3357.22 0 0 0
611 2 1163.53 3290.48 1101.87 0 0 1
612 2 2455.9 3964.59 1990.06 0 -1 0
613 2 1578.07 2615.65 2826.66 0 0 -1
614 2 2685.74 1644.99 2554.35 0 0 0
615 2 1025.93 2865.82 3726.05 0 0 0
616 2 3922.76 3884.94 1013.31 0 0 0
617 2 1163.62 3223.69 1923.11 0 -1 0
618 2 2436.98 3868.17 3289.21 0 0 0
619 2 2967.96 1673.28 2857.01 0 1 0
620 2 3980.12 3856.91 2418.23 -1 0 0
621 2 931.187 3898.38 3100.67 0 0 -1
622 2 2082.81 3958.5 1093.43 0 0 0
623 2 2086.66 2598.99 3637.8 0 0 -1
624 2 946.589 2221.28 2949.11 0 0 -1
625 2 2823.8 1441.81 3933.26 0 0 0
626 2 1194.39 3592.17 3041.57 1 0 -1
627 2 1570.17 985.992 2714.86 0 1 0
628 2 3707.4 2628.77 2898.2 -1 0 0
629 2 2044.76 1550.53 2073.66 0 0 0
630 2 2556.31 1144.33 1759.46 0 1 0
631 2 3689.33 1270.86 3426.77 0 1 0
632 2 1850.21 3485.5 1533.52 0 -1 0
633 2 1149.43 3497.98 2273 0 -1 0
634 2 3509.49 2876.76 3160 -1 0 0
635 2 1101.84 1123.04 2018.91 0 0 0
636 2 3059.13 1318.71 3318.19 -1 0 0
637 2 1190.59 1886.97 2948.39 1 0 -1
638 2 1060.99 1462.06 1788.16 0 0 0
639 2 3634.43 3193.31 3868.38 0 0 0
640 2 2780.84 4042.96 3061.15 0 0 0
641 2 2191.72 1535.82 2747.8 0 0 0
642 2 2573.87 3444.49 1523.81 0 -1 0
643 2 1111.4 964.695 2379 0 0 0
644 2 3974.09 2595.4 1344.28 -1 0 1
645 2 2610.07 3591.04 1960.5 0 -1 0
646 2 1960.99 3466.75 1935.46 0 -1 0
647 2 1822.42 1742.71 3857.67 0 0 0
648 2 2579.93 2777.2 3104.97 0 0 0
649 2 3588.31 1698.09 962.533 -1 0 0
650 2 3632.78 2124.05 2100.31 0 0 0
651 2 3833.05 1668.55 1717.68 -1 0 0
652 2 1102.57 1087.44 1609.54 0 0 0
653 2 3249.71 2496.5 3693.85 0 0 -1
654 2 2500.09 3810.78 4010.19 0 -1 -1
655 2 2582.18 1463.61 2897.19 0 0 0
656 2 2941.87 1257.8 2929.85 0 0 0
657 2 3544.6 1557.31 3039.9 -1 0 -1
658 2 2685.47 1956.09 2938.33 -1 0 -1
659 2 971.351 1574.99 2803.09 1 0 0
660 2 2316.71 2106.15 1449.18 0 0 0
661 2 2723.64 1025.55 1411.29 0 0 0
662 2 1398.66 1291.22 1062.68 0 0 0
663 2 1349.89 3210.07 2448.08 0 -1 0
664 2 2671.12 3562.92 3709.54 0 0 -1
665 2 2407.34 2268.06 1923.07 0 0 0
666 2 2633.07 3840.19 1648.84 0 -1 0
667 2 3114.76 956.497 1348.83 0 0 0
668 2 1376.58 2179.47 1778.87 0 0 0
669 2 3726.13 2210.27 3510.92 -1 0 0
670 2 1812.36 1181.56 3176.09 0 0 -1
671 2 3045.04 1227.15 1047.23 0 0 1
672 2 1378.59 2597.22 1896.56 0 0 0
673 2 2102.03 2155.9 2323.95 0 0 0
674 2 3924.74 962.847 1814.55 -1 0 0
675 2 3371.84 3110.57 3510.51 -1 0 0
676 2 2658.12 1378.96 1176.76 0 0 0
677 2 1585.92 3379.1 1792.61 0 -1 0
678 2 3733.04 3263.94 1383.02 -1 -1 0
679 2 1556.22 3472.08 3733.55 0 0 0
680 2 3590.97 1401.85 1873.84 -1 0 0
681 2 2074.99 3694.66 3219.08 0 0 0
682 2 3204.67 2228.33 2019.14 0 0 0
683 2 2298.38 3318.91 2675.74 0 -1 0
684 2 1287.71 3628.36 1923.72 0 -1 0
685 2 1355.73 3814.86 3695.88 0 0 -1
686 2 1345.59 2392.27 1188.17 0 0 0
687 2 2537.61 3193.17 3650.38 -1 -1 0
688 2 3331.33 3549.93 2425.1 -1 -1 0
689 2 1766.18 3801.07 3571.21 0 -1 0
690 2 3866.05 3523.49 4008.57 0 1 -1
691 2 2673.75 2145.7 1655.3 -1 0 0
692 2 1620.89 935.598 3284.91 0 0 -1
693 2 3732.09 3872.66 2070.39 -1 -1 0
694 2 1205.78 2933.79 2870.56 0 0 0
695 2 2889.72 1730.99 1799.93 0 0 0
696 2 2279.16 1025.56 3450.79 0 1 0
697 2 1343.03 1565.39 2611.15 0 0 0
698 2 1404.79 2352.68 2533.37 1 0 0
699 2 2441.88 987.489 1097.21 0 0 0
700 2 971.817 2441.64 1035.43 0 0 0
701 2 4068.72 3199.26 2835.83 0 -1 -1
702 2 1199.83 2434.52 2229.55 0 0 0
703 2 1509.42 3712.79 1600.49 0 0 0
704 2 1915.25 3601.74 2308.89 0 -1 0
705 2 1576.79 1368.61 3100.53 0 0 -1
706 2 1340.01 2653.37 4054.13 0 0 0
707 2 1325.5 3565.94 2652.75 0 -1 0
708 2 1214.99 2703.63 2521.28 1 0 0
709 2 1203.17 959.508 3438.4 0 0 0
710 2 2928.56 1063.12 3867.24 0 0 -1
711 2 1489.39 3406.17 1330.88 0 -1 0
712 2 1812.14 2842.77 3583.19 0 0 -1
713 2 2224.41 2412.81 2707.02 0 0 -1
714 2 3240.86 1431.69 2090.15 -1 0 0
715 2 2629.16 2023.81 1247.02 0 0 0
716 2 2108.22 3309.77 998.012 0 0 0
717 2 3560.68 951.623 3932.48 -1 0 -1
718 2 2812.8 2367.27 1945.74 -1 0 0
719 2 1431.85 1257.04 1751.29 0 0 0
720 2 958.271 1465.77 3948.02 0 0 -1
721 2 3913.46 2380.46 1678.35 0 0 0
722 2 4040.93 3509.02 1896.91 -1 -1 0
723 2 2857.42 3645.62 4077.65 0 0 -1
724 2 3557.82 3850.82 2519.57 0 -1 0
725 2 1879.23 4023.32 2977.08 0 -1 -1
726 2 2001.62 1887.61 1311.04 0 0 0
727 2 3763.09 2375.72 1083.43 -1 0 0
728 2 2046.55 1789.91 2405.16 0 0 0
729 2 3327.48 1046.46 2478.64 -1 0 0
730 2 3355.02 3188.77 1513.97 -1 -1 0
731 2 2097.65 2915.1 4036.23 0 0 0
732 2 3898.26 1121.14 4066.04 -1 0 -1
733 2 1969.79 1084.74 1434.77 0 1 0
734 2 1187.39 1999.78 2071.06 0 0 0
735 2 2253.83 1181.61 2499.64 0 0 0
736 2 1924.87 3896.73 1652.77 0 -1 0
737 2 1808.69 3073.29 1666.97 -1 0 0
738 2 3836.2 3051.13 3551.68 0 0 0
739 2 1978.95 3471.77 3540.72 0 0 0
740 2 3258.97 1178.81 1790.31 0 0 0
741 2 2795.6 1603.5 3487.75 -1 1 0
742 2 2530.99 1726.58 938.595 0 0 0
743 2 4030.83 1699.23 2425.01 -1 0 0
744 2 2679.23 1986.27 2000.04 0 0 0
745 2 1894.41 3585.53 3906.43 0 0 -1
746 2 1867.87 2735.42 1174.74 0 0 0
747 2 3045.43 3384.63 3605.61 0 0 -1
748 2 2371.16 1234.36 1424.6 0 0 0
749 2 1944.79 1622.46 3006.02 0 0 0
750 2 1081.7 1365.61 2356.07 0 0 0
751 2 4023.98 2846.88 2690.89 0 0 -1
752 2 3538.26 961.848 2835.64 0 1 0
753 2 1045.82 2077.31 1696.91 0 0 0
754 2 3004.02 2247.58 3889.19 -1 0 0
755 2 2156.85 1713.93 3447.66 0 0 0
756 2 2686.54 3579.11 2353.4 0 -1 0
757 2 2279.3 1891.27 2126.64 0 0 0
758 2 3737.42 3787.76 2934.39 -1 -1 0
759 2 2925.31 961.3 1757.27 0 0 0
760 2 2460.29 2777.11 3498.03 0 0 -1
761 2 1630.59 3723.07 1137.75 0 -1 0
762 2 1697.97 1670.18 1901.81 0 0 0
763 2 1205.92 1667.51 1063.3 0 0 0
764 2 2264.48 3257.91 1729.5 0 -1 0
765 2 1526 2210.91 2173.19 0 0 0
766 2 3787.2 1601.12 1279.61 -1 0 0
767 2 2296.3 1433.17 1768.6 0 1 0
768 2 1468.3 1131.72 2176.55 0 0 0
769 2 1359.65 4009.06 1843.1 0 -1 0
770 2 992.438 2130.01 2419.87 1 -1 0
771 2 1104.44 3080.67 3441.75 1 0 -1
772 2 1545.99 1808.09 2287.45 0 0 0
773 2 3375.95 1203.78 979.946 -1 0 1
774 2 1324.5 3609.7 4027.55 0 -1 -1
775 2 3936.12 4026.54 1429.14 -1 -1 0
776 2 3211.18 3110.15 3832.46 -1 0 -1
777 2 3824.71 2742.26 983.409 -1 0 0
778 2 1713.11 1915.55 3005.65 0 0 -1
779 2 3178.85 1611.59 930.858 -1 0 0
780 2 3430.64 2600.47 946.62 -1 0 0
781 2 3615.77 966.969 1178.8 -1 0 0
782 2 2509.46 1853.86 3401.61 0 0 0
783 2 1458.22 3619.92 3357.74 0 -1 -1
784 2 1103.01 1206.08 2703.85 0 0 -1
785 2 3508.82 3569.97 1448.09 -1 -1 0
786 2 1272.53 1484.6 1439.25 1 0 0
787 2 2585.93 3056.27 1589.37 0 0 0
788 2 2305.09 1735.25 3086.08 0 0 0
789 2 1133.84 1841.15 3868.28 0 0 -1
790 2 3929.44 1478.64 2135.07 -1 0 0
791 2 3752.86 955.64 3181.14 0 0 -1
792 2 1676.71 2482.95 3971.24 0 0 -1
793 2 1623.71 1191.35 3900.81 0 0 0
794 2 3537.05 1362.25 2712.74 -1 0 0
795 2 1570.91 3447.64 2961.9 0 0 0
796 2 1168.19 2499.39 3646.88 0 0 -1
797 2 3554.17 4048.2 3507.22 -1 -1 -1
798 2 1516.31 3864.7 2962.36 0 0 0
799 2 3661.36 1832.04 3608.36 -1 1 -1
800 2 3679.44 3386.61 3531.1 -1 0 -1
801 2 2061.81 2015.92 3179.48 0 0 0
802 2 1324.5 1050.88 3035.33 0 1 0
803 2 2573.45 3775.05 1246.79 0 -1 0
804 2 2497.66 3039.81 1991.31 0 -1 0
805 2 1992.48 1151.7 2184.6 0 0 0
806 2 3986.15 3128.07 1683.51 -1 -1 0
807 2 3738.7 3769.1 3748.09 -1 0 -1
808 2 3202.82 2174.12 1577.86 -1 0 0
809 2 3853.62 1297.08 2951.81 0 0 0
810 2 2424.17 1334.67 4008.38 0 0 -1
811 2 1172.98 1343.72 3599.74 1 0 0
812 2 2650.07 1235.87 3618.68 0 0 -1
813 2 2252.43 1247.03 3008.28 0 0 0