ITEM: TIMESTEP
234000
ITEM: NUMBER OF ATOMS
1000
ITEM: BOX BOUNDS pp pp pp
1.3110774567616666e+03 3.6889225432379694e+03
1.3110774567616666e+03 3.6889225432379694e+03
1.3110774567616666e+03 3.6889225432379694e+03
ITEM: ATOMS id type x y z ix iy iz
1 2 3518.33 3331.24 1548.14 0 0 0
2 2 1727.96 1404.25 2660.38 0 1 -1
3 2 2067.18 3639.68 1555.81 0 -1 1
4 2 1704.65 1954.21 3040.91 0 0 -1
5 2 3519.2 1326.15 3033.34 0 0 -1
6 2 1971.14 2435.43 1990.13 -1 0 -1
7 2 2080.34 2320.96 2027.89 0 0 0
8 2 1396.38 3564.03 2565.68 0 0 0
9 2 3500.6 2439.37 2151.33 -1 0 0
10 2 1813.39 3407.68 2991.4 0 0 0
11 2 2909.42 2342.54 3043.27 0 0 0
12 2 1343.96 3347.29 3015.44 0 0 -1
13 2 1428.92 2233.33 1523.59 1 0 1
14 2 1471.93 3365.58 1825.09 0 0 0
15 2 3490.14 1484.83 3319.78 0 0 -1
16 2 1764.96 3640.24 1506.15 0 -1 0
17 2 2434.7 1978.59 3454.21 2 1 0
18 2 2326.2 2253.2 3331.11 0 1 -1
19 2 2235.99 1790.15 3601.63 0 0 0
20 2 3567.23 1458.44 2999.5 0 1 0
21 2 1797.34 2538.09 1549.36 0 1 1
22 2 1481.47 3220.68 1730.8 0 0 1
23 2 2935.84 3158.26 1880.34 -1 1 0
24 2 1348.23 1806.05 3502.89 1 0 -1
25 2 2221.84 1404.71 1328.96 0 1 1
26 2 2911.1 2184.21 2742.12 0 0 1
27 2 1694.98 2973.49 3429.99 0 0 0
28 2 1448.18 2403.17 3648.86 0 0 0
29 2 3562.66 2109.79 2563.16 -1 1 0
30 2 3424.44 1731.56 3614.77 -1 1 0
31 2 1546.61 3210.14 3417.55 0 -1 0
32 2 1452.31 3666.33 2685 0 0 0
33 2 2080.2 1979.98 2041.18 0 0 0
34 2 2112.13 1659.02 3566.35 0 1 0
35 2 3273.79 3411.77 3657.82 0 -1 0
36 2 2169.92 1322.39 2961.89 0 1 0
37 2 1564.42 1542.44 2682.44 0 0 0
38 2 1361.66 2666.55 1383.76 0 1 0
39 2 3607.53 2466.84 1624.26 -1 1 0
40 2 2120.11 1942.92 3370.57 0 -1 0
41 2 1590.43 3224.31 1873.11 1 -1 0
42 2 3562.77 2263.92 1380.9 -1 0 0
43 2 1608.65 2396.76 2098.31 1 0 1
44 2 3150.69 2966.66 3305.58 1 -1 0
45 2 1511.77 2281.13 2035.58 0 0 0
46 2 3177.4 1484.57 2058.92 0 1 0
47 2 3607.77 2740.93 2241.61 -1 0 0
48 2 1338.12 2550.67 1510.36 1 0 0
49 2 3318.77 2339.13 1314.06 0 0 1
50 2 2305.95 3291.89 1830.5 0 0 1
51 2 3030.4 1486.69 3115.56 -1 1 1
52 2 2756.91 2328.75 1897.63 0 0 0
53 2 2018.17 2405.67 1547.66 0 0 1
54 2 1737.3 1545.92 2755.19 0 1 0
55 2 2691.42 1979.52 2774.56 0 0 -1
56 2 1900.17 2015.53 2044.4 0 0 0
57 2 1792.11 2261.88 3126.83 0 0 -1
58 2 1318.93 1994.29 2577.69 0 0 0
59 2 2952.98 2343.86 1987.92 -1 2 0
60 2 1990.15 3440.39 1514.19 0 0 0
61 2 3622.37 2303.01 2507.68 -1 0 0
62 2 3420.82 3329.8 3224.43 0 -1 0
63 2 1387.67 3457.31 3673.7 0 0 0
64 2 3595.77 2419.27 1470.74 0 0 1
65 2 2805.49 2074.57 2856.72 0 -1 0
66 2 3213.71 1527.01 3137.42 0 0 -1
67 2 2771.37 1427.75 3003.95 0 1 1
68 2 1675.08 2195.88 2440.18 0 0 1
69 2 2709.65 1815.18 1715 0 0 0
70 2 2234.22 3429.92 3079.47 0 0 0
71 2 1338.78 1476.31 1503.63 0 0 1
72 2 2854.36 2211.7 2586.45 -1 -1 0
73 2 3185.21 1430.24 1862.17 -2 -1 0
74 2 2059.61 1370.51 3637.27 0 1 -1
75 2 3303.61 1943.73 1488.05 0 0 0
76 2 2806.83 2648.77 2153.61 0 -1 0
77 2 3275.52 1767.05 1627.09 -1 1 1
78 2 1407 1690.25 2709.73 0 0 0
79 2 3597.62 2773.36 1362.22 -1 0 0
80 2 2090.18 3327.35 1662.1 0 0 -1
81 2 2267.84 1382.5 3533.71 0 2 0
82 2 2999.5 3217.88 2131.05 -1 0 -1
83 2 2372.75 3347.19 2604.36 0 0 0
84 2 2591.65 1844.2 1523.57 1 1 1
85 2 3226.63 1596.2 1573.32 0 1 0
86 2 3633.76 2316.11 1714 -1 0 1
87 2 1660.39 2049.51 2550.16 1 0 0
88 2 3687.85 3195.58 1441.98 -1 0 1
89 2 1358.85 2617.33 1686.62 1 0 1
90 2 3494.17 2203.56 3467.61 0 1 -1
91 2 2644.44 3111.77 3112.06 0 0 -1
92 2 2198.29 2267.73 1340.84 -1 0 0
93 2 2333.61 1391.32 1493.42 0 0 1
94 2 2321.92 2039.99 3556.55 1 1 -1
95 2 1623.83 2062.17 3142.1 0 0 -1
96 2 1997.81 3361.93 1358.43 1 0 1
97 2 3254.55 3514.28 2991.55 0 -1 0
98 2 3362.21 1514.55 1620.07 0 0 0
99 2 1473.05 1954.39 1393.57 0 0 0
100 2 2085.12 1635.99 3397.25 1 0 0
101 2 2393.01 2305.25 2891.08 0 0 0
102 2 1908.09 3570.57 1586.39 0 -1 0
103 2 3660.95 1763.08 1885.4 -1 0 0
104 2 2318.67 1507.36 1615.84 0 0 0
105 2 2169.42 1773.1 3008.39 0 0 0
106 2 2470.62 1922.38 1597.7 0 0 0
107 2 1660.34 1949.78 2253.45 0 0 0
108 2 3552.4 3463.46 1683.45 -1 0 0
109 2 1980.89 1903.35 1894.54 0 0 0
110 2 1689.59 2345.87 1441.88 0 0 0
111 2 1480.01 3282.29 3178.39 1 -1 -1
112 2 3514.28 1470.99 2249.93 -1 -1 0
113 2 1905.15 3468 2103.53 0 -1 0
114 2 3091.9 2449.14 1761.42 0 0 1
115 2 3592.23 1916.83 3469.96 -1 0 -1
116 2 1797.76 1928.83 2525.68 0 0 0
117 2 2189.66 3463.82 1878.24 0 -1 1
118 2 1449.01 3500.75 2719.16 0 -1 0
119 2 2143.45 1545.2 1629.52 0 0 0
120 2 3568.51 3641.07 2138.83 -1 -1 0
121 2 3582.66 1859.24 2329.39 -1 0 0
122 2 1581.67 1320.18 3646.51 0 0 -1
123 2 1868.97 1970.87 1424.53 0 0 0
124 2 1729.39 1578.04 1429 0 0 0
125 2 1453.87 3466.71 1484.14 0 -1 0
126 2 3681.59 1993.29 1675.9 -1 0 0
127 2 3607.49 2160.7 2312.38 -1 0 0
128 2 1726.29 1387.21 1748.54 0 0 0
129 2 1414.02 2146.86 3485.51 0 0 -1
130 2 1368.5 1537.77 2443.59 0 0 0
131 2 1558.46 1395.59 2599.35 0 0 -1
132 2 1580.43 2433.58 3527.57 0 0 -1
133 2 2092.81 1712.63 1676.61 0 0 0
134 2 1533.71 3352.94 1384.74 1 -1 1
135 2 1744.58 2024.36 1778.35 0 0 0
136 2 3609.69 2421.79 2641.66 0 -1 -1
137 2 2943.49 2025.95 2731.49 0 1 0
138 2 1552.37 1873.4 2696.59 0 0 0
139 2 3413.72 1879.93 2025.01 -1 0 0
140 2 2975.15 2371.51 1660.99 -1 -1 0
141 2 2780.44 1895.62 3306.01 -1 0 0
142 2 1352.86 2331.93 1400.41 0 0 0
143 2 1967.47 1585.98 1630.28 0 0 0
144 2 1379.32 1846.19 2011.93 0 0 0
145 2 2088.23 1912.34 2948.04 0 0 0
146 2 2143.6 2291.03 1513.43 0 0 0
147 2 1461.19 1736.8 1876.23 0 0 0
148 2 1959.93 1585.32 3598.65 0 0 -1
149 2 2063.8 1569.66 1809.49 0 0 0
150 2 3578.98 2325.43 2772.3 -1 0 0
151 2 2349.88 2069.51 1924.33 0 0 -1
152 2 3596.95 2005.81 2434.56 -1 0 -1
153 2 1903.19 1424.99 2192.03 0 0 0
154 2 1896.7 2132.3 1526.78 0 0 0
155 2 2261.7 1476.45 2370.44 0 0 0
156 2 3502.17 1518.05 1730.23 -1 0 0
157 2 3347.1 1468.36 1808.47 0 0 0
158 2 2581.34 1368.56 1751.62 0 0 0
159 2 1622 3448.67 1860.21 0 -1 0
160 2 1693.71 2312.47 3476.88 1 0 0
161 2 3443.91 1917.56 3603.68 -1 0 -1
162 2 2162.58 1533.4 2096.29 0 0 0
163 2 3330.53 3502.62 2048.48 0 0 0
164 2 2911.99 1666.7 2289.03 0 0 0
165 2 1979.54 1719.82 1513.66 0 0 0
166 2 3469.56 2190.76 1515.71 0 0 0
167 2 1863.54 1472.76 2561.47 0 0 0
168 2 1679.73 1742.23 1484.24 0 0 0
169 2 1473.3 1437.57 1361.85 0 0 0
170 2 3056.53 3233.7 2589.79 -1 0 0
171 2 1703.8 3222.48 2033.45 0 -1 0
172 2 1380.51 1889.98 1539.53 0 0 0
173 2 1854.01 2386.91 1500.9 0 0 0
174 2 3529.92 1764.52 2457.57 -1 0 -1
175 2 1450.3 1778.2 1394.42 0 0 0
176 2 1775.87 2404.07 2456.22 0 0 0
177 2 3545.41 3082.17 2237.46 0 -1 0
178 2 1524.35 2306.56 1388.94 0 0 0
179 2 2005.7 2148.15 1933.81 0 0 0
180 2 1609.95 3545.04 1502.6 0 -1 0
181 2 3404.29 3453.76 2991.03 -1 -1 -1
182 2 2197.04 1377.06 1584.8 0 0 0
183 2 3507.71 1466.38 1897.92 -1 0 0
184 2 1471.87 1983 1955.87 0 0 0
185 2 1976.38 1324.54 2302.08 0 0 0
186 2 1712.83 2405.76 1609.49 0 0 0
187 2 3507.01 2015.22 2276.83 -1 0 0
188 2 3634.6 1631.3 1435.37 -1 0 0
189 2 2465.38 1911.91 2175.54 0 0 -1
190 2 2541.46 1505.83 1661.98 0 0 0
191 2 1660.89 1802.55 3561.88 0 0 -1
192 2 1402.38 2073.5 1798.56 0 0 0
193 2 1821.42 2129.66 2522.56 0 1 0
194 2 1767.1 2487.56 1386.43 0 0 0
195 2 1363.78 2394.42 1566.69 0 0 0
196 2 2408.78 1491.73 1763.49 0 0 0
197 2 1578.87 2033.65 1514.18 0 0 0
198 2 2486.66 1770.07 1840.59 0 0 0
199 2 1725.39 1795.02 1993.11 0 0 0
200 2 1366.91 2449.88 1750.13 0 0 0
201 2 2894.05 3025.62 3041.46 0 -1 -1
202 2 1325.62 2145.55 2462.95 0 0 0
203 2 1621.15 3495.79 1679.53 0 -1 0
204 2 2503.19 1774.91 2808.31 0 0 0
205 2 3595.22 1468.17 2407.8 -1 0 0
206 2 1496.19 1975.25 2589.46 0 0 0
207 2 3113.42 2917.31 2743.1 0 0 0
208 2 1464.86 1677.63 2375.86 0 0 0
209 2 3470.28 3363.78 1997.23 1 -2 2
210 2 2178.44 2094.42 1937.64 0 0 0
211 2 2287.85 1367.47 1740.09 0 0 0
212 2 2310.24 3013.24 3003.1 -1 -2 -1
213 2 2137.62 1468.38 1933.75 0 0 0
214 2 2031.5 3393.42 1824.33 0 -1 0
215 2 2548.65 1780.14 1678.1 0 0 0
216 2 1894.24 3621.41 3513.81 0 -1 -1
217 2 3442.48 3686.72 1858.81 -1 -1 0
218 2 2494.11 1868.21 1360.85 1 1 0
219 2 1770.6 3598.58 1696.82 0 -1 0
220 2 3505.2 2005.32 1687.82 -1 0 0
221 2 3120.16 1586.66 2004.02 1 0 -1
222 2 1370.16 1601.29 1944.72 0 0 0
223 2 2678.8 3192.1 2809.39 0 -2 -1
224 2 1720 3440.37 2681.47 0 -1 -1
225 2 1939.26 1444.92 1758.1 0 0 1
226 2 2149.88 1680 1505.4 0 0 0
227 2 1846.1 2026.87 3506.69 0 0 0
228 2 2383.15 2064.97 1518.8 0 0 0
229 2 1569 1525.82 1481.92 0 0 0
230 2 1991.49 1900.67 3474.76 0 0 -1
231 2 1755.07 1448.13 2326.28 0 0 0
232 2 2050.26 2162 2328.12 0 0 0
233 2 1781.69 1400.74 1387 0 0 0
234 2 2264.25 1672.13 1672.16 0 0 0
235 2 1803.39 2001.6 1602.1 0 0 0
236 2 1584.34 1665.06 1352.35 0 0 0
237 2 3364.67 1830.02 1358.11 -1 0 0
238 2 1381.5 1691.14 2537.76 0 0 0
239 2 1386.66 2056.43 3649.94 0 0 -1
240 2 2455.01 1922.68 1930.56 0 0 0
241 2 3235.26 2638.74 3666.46 -1 0 -1
242 2 2238.88 1542.47 3567.81 0 0 0
243 2 2823.49 3121.54 2746.78 0 0 0
244 2 1859.36 1735.88 2363.92 0 0 0
245 2 1541.29 2024.14 3443.03 0 0 -1
246 2 2134.94 1379.17 2351.1 0 0 -1
247 2 1767.59 2242.48 1565.08 0 0 0
248 2 3416.97 1933.85 1826.3 -1 0 0
249 2 3635.75 3371.5 2088.92 -1 -1 0
250 2 3160.47 2111.8 3586.47 -1 1 -1
251 2 1974.97 3510.3 3618.91 0 -1 0
252 2 1548.65 1666.7 2214.6 0 0 0
253 2 3472.46 2289.52 3613.07 0 0 -2
254 2 2430.17 1337.2 1831.93 0 0 0
255 2 1436.47 3378.78 2094.95 1 0 0
256 2 3471.36 2119.23 2425.64 0 1 -1
257 2 2011.1 1350.44 1895.52 0 0 0
258 2 1644.58 2610.29 1362.27 0 0 0
259 2 1927.83 1942.68 3636.6 0 0 -1
260 2 1709.65 2156.87 3547.63 0 0 -1
261 2 2179.41 1810.5 1392.32 0 0 0
262 2 1542.59 2429.85 1748.8 0 0 0
263 2 2019.39 1637.88 2306.47 0 0 0
264 2 1566.57 1351.77 3119.38 0 0 -1
265 2 1621.08 1771.87 1659.12 0 0 0
266 2 2235.39 1531.79 1786.92 0 0 0
267 2 1696.74 1552.84 2189.54 0 0 0
268 2 2037.81 2244.58 3672.09 0 0 -1
269 2 2495.45 2626.73 2123.92 0 0 0
270 2 2777.01 1463.65 3078.49 0 -1 -1
271 2 2045.8 3449.13 1989.93 0 -1 0
272 2 3607.4 1610.43 2508.28 -1 0 0
273 2 1517.36 2114.51 2465.82 0 0 0
274 2 1740.72 1388 2131.68 0 0 0
275 2 1948.78 2333.24 1852.41 0 0 0
276 2 2739.55 1503.35 3016.09 -1 1 0
277 2 1524.06 1689.1 1531.24 0 0 0
278 2 3152.07 2576.45 1876.07 0 0 0
279 2 1872.42 2435.43 1657.73 0 0 0
280 2 1332.51 3459.76 1772.09 0 -1 0
281 2 1371.3 3613.22 2396.98 0 -1 -1
282 2 3378.48 2116.59 2263.08 0 0 0
283 2 3492.86 1735.21 1397.84 -1 0 0
284 2 3654.23 1817.38 1688.25 -1 0 0
285 2 1637.44 2554.82 1649.33 0 -1 0
286 2 2333.99 2196.24 3621.87 -1 0 -1
287 2 1939.79 1823.83 2494.65 0 0 0
288 2 2018.39 1419.98 1591.83 0 0 0
289 2 2776.61 2095.76 1573.36 0 0 1
290 2 3439.72 2165.89 1995.43 -1 0 0
291 2 1523.82 1411.19 2405.28 0 0 0
292 2 1714.65 1738.7 3258.89 1 0 0
293 2 3580.97 1862.14 2018.43 -1 0 0
294 2 3407.53 1338.28 2193.65 0 0 0
295 2 1709.24 2066.18 3396.52 0 0 -1
296 2 1463.41 3640.39 1434.97 0 -1 0
297 2 1432.93 2296.39 1731.82 0 0 0
298 2 1361.79 1879.33 3654.36 0 0 -1
299 2 1347.05 3507.9 2090.36 0 -1 0
300 2 1564.52 1967.36 2104.19 0 0 0
301 2 1764.19 1630.73 1938.24 0 0 0
302 2 1484.32 1975.88 2265.79 0 0 0
303 2 2193.37 1976.38 1467.91 0 0 0
304 2 2124.87 1882.46 2427.6 0 -1 0
305 2 3315.23 3195.63 2720.61 0 -1 0
306 2 3418.1 2033.11 2119.16 -1 0 0
307 2 1996.72 1805.26 3336.19 -1 0 -1
308 2 3505.77 1412.88 2073.88 -1 0 0
309 2 2245.67 2008.79 1783.42 0 0 0
310 2 2554.39 3517.56 2175.15 -1 -1 0
311 2 2012.37 2958.16 1954.48 0 0 -1
312 2 1818.02 3447.49 3656.33 0 -1 -1
313 2 1918.56 2297.65 2005.97 0 0 0
314 2 1873.26 1495.53 1508.9 0 0 0
315 2 1907.66 2370.71 1344.15 0 0 0
316 2 2218.31 1649.86 1346.07 0 0 0
317 2 2447.87 1532.43 1523.57 0 0 0
318 2 1581.12 2055 2689.97 0 0 0
319 2 1390.68 2408.72 2241.25 0 0 0
320 2 1644.2 1804.93 2150.98 0 0 0
321 2 2942.79 1335.97 2745.98 -1 0 -1
322 2 1680.76 1555.45 1802.71 0 0 0
323 2 1488 2396.57 2240.47 0 0 0
324 2 1579.33 1382.2 2758.22 0 0 -1
325 2 1482.44 3487.49 1982.72 0 -1 0
326 2 3652.44 1518.83 1822.35 -1 0 0
327 2 1454.36 1530.87 2275.88 0 0 0
328 2 1881.91 1463.08 2717.12 0 0 0
329 2 3387.32 3620.14 2974.81 0 -1 0
330 2 1388.92 2714.4 1559.14 0 0 0
331 2 3493.5 2337.68 1614.64 -1 0 0
332 2 2683.77 2044.7 3547.16 0 -1 0
333 2 1431.34 2338.82 2197.55 0 0 0
334 2 2032.53 1553.81 1466.99 0 0 0
335 2 1830.54 3333.72 2606.74 0 0 -1
336 2 1859.1 1590.88 2244.5 0 0 0
337 2 2250.32 1946.55 3678.71 0 0 -1
338 2 2454.95 2316.18 2438.1 0 -1 -1
339 2 1716.75 3639.26 2546.49 0 -1 -1
340 2 2339.01 1787.91 2225.92 0 0 0
341 2 1481.59 2570.18 3683.89 0 0 -1
342 2 2506.29 2087.06 1981.92 0 0 0
343 2 3604.05 2156.74 2003.83 -1 0 0
344 2 1838.16 2146.78 1698.35 0 0 0
345 2 3534.68 2090.63 1381.05 -1 0 0
346 2 1987.82 2314.69 2377.33 0 -1 0
347 2 2081.22 1998.43 1322.85 -1 0 0
348 2 1610.53 2279.1 1697.14 0 0 0
349 2 1760.64 3466.39 1549.76 0 -1 0
350 2 2107.44 2153.39 2080.38 0 0 0
351 2 1676.49 1691.66 3409.91 0 0 0
352 2 1535.46 1556.87 2517.49 0 0 0
353 2 3629.5 1451.75 2579.45 -1 0 0
354 2 1674.59 1491.52 2002 0 0 0
355 2 1606.91 2261.37 2185.85 0 0 0
356 2 1459.25 1693.16 2065.32 0 0 0
357 2 3302.99 2227.32 2517.76 0 0 0
358 2 1912.77 1765.61 3649.03 0 0 -1
359 2 1586.06 1470.09 1682.82 0 0 0
360 2 2911.53 2320.8 1795.84 0 0 0
361 2 1324.45 1524.56 3680.92 0 0 -1
362 2 1968.88 3368.94 2251.72 0 0 0
363 2 1806.34 3666.7 2270.39 0 -1 0
364 2 2154.52 3311.68 1921.75 0 -1 0
365 2 2527.26 2093.58 2123.03 0 0 0
366 2 3443.67 1998.24 3451.37 0 0 -1
367 2 3083.27 1800.43 3219.28 0 0 0
368 2 1342.23 2529.72 2748.11 0 -1 0
369 2 1873.67 1925.16 2365.22 0 0 0
370 2 3433.57 2018.66 1516.87 -1 0 0
371 2 1925.8 1631.71 2500.14 0 0 0
372 2 2822.46 1912.32 2504.69 0 0 0
373 2 2888.43 2242.55 1628.8 0 0 1
374 2 2332.73 2114.82 1682.5 0 0 0
375 2 2544.94 2416.63 3061.08 -1 0 0
376 2 3568.28 3408.1 1858.8 0 0 0
377 2 3530.06 2181.8 1678.24 -1 0 0
378 2 1851.7 2016.13 2989.01 1 0 -1
379 2 1727.63 2382.36 3265.95 0 0 -1
380 2 2832.91 1605.25 3536.85 -1 0 -1
381 2 2350.09 1772.56 1355.98 0 0 0
382 2 2821.78 1492.69 3015.03 0 0 0
383 2 3015.59 2483.08 1498.34 -1 -1 -1
384 2 1976.03 1983.65 2788.72 0 0 0
385 2 1841.54 1712.31 2799.18 0 -1 0
386 2 2070.92 1834.63 3617.86 0 0 -1
387 2 1856.1 3677.32 1829.24 0 -1 0
388 2 1548.03 1583.16 1915.44 0 0 0
389 2 1591.21 3326.83 2608.42 0 -1 -1
390 2 1873.67 3285.39 1810.76 0 -1 1
391 2 1487.82 1388.9 1562.32 0 0 0
392 2 3382.06 2111.23 1651.13 -1 0 0
393 2 1336.21 2220.59 1867.57 0 0 0
394 2 1460.66 2407.99 2416.45 0 1 0
395 2 1499.97 1332.3 1746.58 0 0 0
396 2 1860.24 3298.34 2049.37 0 -1 0
397 2 1889.7 1608.7 1811.15 0 0 0
398 2 3417.03 3457.9 1607.48 -1 -1 1
399 2 1408.01 3103.62 1620 0 -1 0
400 2 3061.86 3526.76 1514.5 -1 -1 0
401 2 1360.56 3687.73 2043.71 0 -1 0
402 2 1320.34 1350.81 1379.02 0 0 0
403 2 1799.4 1838.81 2225.16 0 0 0
404 2 1537.97 1639.79 1743.66 0 0 0
405 2 1456.72 2314.41 3485.29 0 0 -1
406 2 3624.66 1755.01 2606.16 0 0 0
407 2 3066.82 1561.98 3183.6 -1 0 0
408 2 2413.12 3444.69 2762.82 0 -1 0
409 2 1363.32 1656.51 1754.65 0 0 0
410 2 1335.99 1702.97 3667.01 1 1 0
411 2 1821.25 2056.33 2819.69 0 0 0
412 2 3218.21 1461.43 1695.36 -1 1 1
413 2 1738.21 2037.2 2385.36 0 0 0
414 2 3474.87 3422.98 3444.92 -1 -1 -1
415 2 1661.5 1610.48 1607.2 0 0 0
416 2 1447.58 1382.96 2178.07 0 0 0
417 2 3483.39 1784.15 1891.35 -1 0 0
418 2 2220.02 1510.29 3405.52 0 0 0
419 2 1621.39 3407.05 3612.3 1 0 -1
420 2 2533.19 1959.8 3580.21 0 0 0
421 2 2052.11 3563.69 1852.82 0 -1 0
422 2 1335.04 2296.46 2040.04 0 0 0
423 2 1687.71 2257.17 2029.14 0 0 0
424 2 3380.54 1384.9 3505.19 -1 1 -1
425 2 2270.22 3063.87 3159.35 0 -1 -1
426 2 3464.53 2500.74 1532.45 0 0 0
427 2 1500.56 1858.33 3447.39 0 0 0
428 2 2085.54 1388.54 1426.56 0 0 0
429 2 3556.71 3468.76 1349.78 -2 0 1
430 2 1410.51 2052.17 3343.14 0 0 -1
431 2 1573.31 2050.84 1791.91 0 0 0
432 2 1888.1 3403.05 1924.46 0 -1 0
433 2 2055.27 1692.11 1353.73 0 0 0
434 2 3322.1 1392.8 1955.12 -1 0 0
435 2 3406.08 2260.55 1758.33 -1 0 0
436 2 3606.25 2086.6 1544.65 -1 0 0
437 2 1765.21 1598.84 2423.85 0 0 0
438 2 1434.33 1985.94 2702.67 0 1 0
439 2 1824.22 2191.23 3436.13 0 0 -1
440 2 1726.5 2114.02 3027.15 0 0 -1
441 2 1688.44 1977.62 3547.82 0 0 -1
442 2 1830.2 2163.99 2119.37 0 0 0
443 2 1926.88 1474.49 2365.44 0 0 0
444 2 1633.48 1656.16 2056.18 0 0 0
445 2 1768.07 1886.57 3679.48 0 0 -1
446 2 3077.25 1367.84 1731.91 1 1 0
447 2 1829.88 1532.52 2071.64 0 0 0
448 2 3569.07 1622.36 1944.79 -1 0 0
449 2 3539.15 2597.84 3155.77 -1 0 0
450 2 1520.64 1938.06 3600.1 0 0 -1
451 2 2316.06 1643.97 1504.16 0 0 0
452 2 1582.03 1957.52 2413.96 0 0 0
453 2 1710.16 1447.03 1551.84 0 0 0
454 2 2205.25 1371.63 2047.27 0 0 0
455 2 1613.32 3330.25 1731.43 0 -1 0
456 2 1989.87 1912.06 2174.82 0 0 0
457 2 1743.35 3432.78 2030.79 0 -1 -1
458 2 1996.33 1536.43 2615.07 0 0 1
459 2 1531.02 1602.92 3449.85 1 0 -1
460 2 2279.76 2849.74 2580.12 0 -1 0
461 2 2218.53 1427.23 2215.54 -1 0 0
462 2 1548.99 1705.44 2611.64 0 0 0
463 2 1607.52 3368.26 1553.03 0 -1 0
464 2 2313.45 1954.3 2175.56 0 0 0
465 2 2477.35 1588.07 2105.84 0 0 0
466 2 2095.68 2289.11 2195.06 0 0 -1
467 2 2579.22 1417.85 3426.22 0 1 0
468 2 3677.81 1997 1958.12 -1 0 0
469 2 2405.42 1681.52 1993.15 0 0 0
470 2 1446.09 3493.07 2249.79 0 -1 0
471 2 3579.61 1915.73 1824.5 -1 0 0
472 2 3415.62 1628.77 1848.21 -1 0 0
473 2 2002.59 1857.11 1404.45 0 0 0
474 2 3678.47 3344.15 1614.05 -1 0 1
475 2 1464.72 3418.03 1656.85 0 -1 0
476 2 1377.71 1900.73 1827.5 0 0 0
477 2 2212.7 1765.89 1995.96 0 0 0
478 2 3569.84 1569.14 2121.03 -1 0 0
479 2 1480.19 3590.02 1616.13 0 -1 0
480 2 1699.45 1951.45 3238.11 0 0 0
481 2 2155.43 1868.72 2146.88 0 0 0
482 2 2035.59 3325.02 2097.72 0 0 0
483 2 2970.22 3459 1380.02 0 -1 0
484 2 3437.58 1394.36 1311.63 -1 1 0
485 2 3401.51 2320.53 1924.74 0 1 0
486 2 1855.38 2214.42 1866.29 0 0 0
487 2 1545.16 3621.48 2504.68 0 -1 0
488 2 1888.94 2204.54 2633.32 0 0 -2
489 2 3642.4 2467.94 2068.81 -1 1 0
490 2 3009.71 2237.77 2515.04 0 1 0
491 2 1584.25 1354.14 2063.74 0 0 0
492 2 3382.79 3240.55 3427.11 0 0 -1
493 2 3357.88 1933.77 1650.18 -1 0 0
494 2 2059.4 2164.73 1582.3 0 0 0
495 2 1591.35 3348.71 1995.35 0 -1 0
496 2 1735.35 2093.32 1463.72 0 0 0
497 2 1624.08 3512.56 2328.54 0 -1 0
498 2 1678.53 3211.45 3082.19 -1 -1 -1
499 2 2282.02 1896.1 3465.43 0 0 0
500 2 1907.83 2049.68 1826.57 0 0 0
501 2 1891.69 1317.94 2614.25 0 0 -1
502 2 2776.31 1493.48 1665.24 0 0 0
503 2 3342.25 1770.87 1786.57 -1 0 0
504 2 1988.33 1572.47 2125.9 0 0 0
505 2 1390.56 1989.05 2113.22 0 0 0
506 2 1636.9 1852.81 2550.55 0 0 0
507 2 2089.43 1505.79 3515.57 0 0 -1
508 2 1774.68 1825.46 1612.22 0 0 0
509 2 1367.12 1554.48 2122.99 0 0 0
510 2 2124.86 3386.68 3203.99 0 0 0
511 2 1434.14 2406.58 2117.89 0 -1 0
512 2 1636.97 2217.06 3183.07 0 0 -1
513 2 2115.31 1406.77 1743.98 0 0 0
514 2 3587.28 1320.32 2304.52 0 1 -1
515 2 2023.81 2014.95 1492.73 0 0 0
516 2 1850.29 2914.67 1370.19 0 0 1
517 2 2074.82 2028.82 1801.07 0 0 0
518 2 3048.71 1445.38 1978.1 0 1 0
519 2 1391.59 1371.58 2510.03 -1 0 -1
520 2 2556.9 3597.28 2569.66 0 -1 -1
521 2 2354.3 1916.16 1441.01 -1 0 0
522 2 3362.01 1944.3 2250.05 -1 0 0
523 2 1529.15 1946.15 3300.05 0 0 0
524 2 1434.2 2119.83 2605.3 0 -1 0
525 2 1491.8 3596.07 2128.11 0 -1 0
526 2 3582.61 1368.91 1772.92 -1 0 0
527 2 2042.1 1873.26 1727.78 0 0 0
528 2 3678.1 1849.83 2480.26 -1 0 0
529 2 1977.02 3275.05 1941.8 0 -1 0
530 2 3652.35 3476.38 2234.88 -1 0 0
531 2 1498.11 2141.17 1663.14 0 0 0
532 2 3267.87 1626.93 1739.29 0 0 0
533 2 2439.41 1773.34 1540.44 0 0 0
534 2 2527.6 1609.41 1808.14 0 0 0
535 2 1923.95 3381.91 1664.7 0 -1 0
536 2 3566.16 1612.93 3591.35 -1 0 -1
537 2 1348.02 3573.26 1906.12 0 -1 0
538 2 2833.97 3160.67 2147.68 0 -1 0
539 2 3473.1 1584.76 1497.73 -1 0 0
540 2 3189.23 1718.62 1870.72 0 0 0
541 2 2890.25 3461.29 3602.52 -1 0 -1
542 2 1713.65 2527.18 3602.65 0 0 -1
543 2 3585.24 1311.79 1953.84 -1 0 0
544 2 1698.47 2233.2 3324.64 0 0 -1
545 2 2275.89 2238.94 2174.1 -1 -1 -1
546 2 2260.55 1944.56 2011.04 0 0 0
547 2 2432.08 1635.93 1663.15 0 0 0
548 2 2111.68 1694.4 2152.56 0 0 0
549 2 2029.05 1995.47 2333.67 0 0 0
550 2 3166.25 3575.77 1715.68 0 -1 0
551 2 1317.66 2146.19 2163.87 0 0 0
552 2 2277.54 1655.65 2116.47 0 0 0
553 2 1551.89 1828.47 2000.51 0 0 0
554 2 3685.07 1996.96 2273.15 -1 0 0
555 2 1781.55 3324.35 2796.72 -1 0 0
556 2 1943.89 1456.6 1344.5 0 0 0
557 2 1416.06 3624.62 3652.11 1 0 -1
558 2 1883.8 3179.12 2841.51 -1 -1 -1
559 2 3279.37 1622.61 2092.54 0 1 0
560 2 1871.84 3525.1 1419.56 0 -1 0
561 2 2216.67 3247.34 1544.41 0 -1 1
562 2 2299.81 1428.78 1905.96 0 0 0
563 2 1940.42 3457.1 3265.92 -1 0 0
564 2 1784.61 1742.79 2525.58 0 0 0
565 2 2071.45 2808.4 2005.84 0 0 0
566 2 2198.67 2106.22 3449.82 0 0 -1
567 2 1671.95 2115.84 1648.47 0 0 0
568 2 3418.62 3353.53 1359.46 0 0 0
569 2 1785.58 1697.04 2124.37 0 0 0
570 2 3632.49 2304.66 2190.97 -1 0 -1
571 2 3270.42 3683.26 1633.4 -2 -1 0
572 2 3564.38 1468.41 1411.02 -1 0 0
573 2 2611.37 1380.34 3039.75 0 0 -1
574 2 2586.86 3115.97 1898.35 0 0 0
575 2 2106.94 3672.52 2191.11 0 -1 0
576 2 2777.92 2115.29 2713.43 0 0 0
577 2 2145.41 2035.88 2199.98 0 0 0
578 2 3014.66 2807.11 2156.23 0 0 1
579 2 3228.66 2075.35 2533.5 0 0 0
580 2 2016.05 1736.7 1836.13 0 0 0
581 2 1814.73 1654.24 3518.89 0 0 -1
582 2 1880.77 1391.32 3388.76 0 0 0
583 2 2411.22 1965.01 1757.05 0 0 0
584 2 1436.87 2354.98 1893.43 0 0 0
585 2 1547.86 1875.74 1808.81 0 0 0
586 2 1690.84 2327.62 2332.95 0 0 0
587 2 3644.67 1580.85 1629.85 -1 0 0
588 2 1496.23 2131.83 1391.83 0 0 0
589 2 1468.09 1833.89 2163.85 0 0 0
590 2 2169.74 1757.24 2307.27 0 0 0
591 2 3437.46 3516.35 1904.03 -1 -1 0
592 2 1805.51 1529.45 1674.63 0 0 0
593 2 3132.14 1414.61 3209.89 -1 0 -1
594 2 1995.4 1392.74 2494.95 0 0 0
595 2 1762.08 3492.27 2218.54 0 -1 0
596 2 1681.3 2187.7 1832.22 0 0 0
597 2 3599.94 1990.58 3626.3 -1 0 -1
598 2 3336.66 1726.13 1961.03 -1 0 0
599 2 1918.27 3531.95 2273.16 0 0 0
600 2 2178.9 3685.57 1869.82 0 -1 0
601 2 1507.79 3643.25 2297.63 0 -1 0
602 2 2641.03 1957.07 1635.1 0 0 0
603 2 3455.84 2326.74 2466.04 -1 1 0
604 2 2425.14 2854.42 2649.84 0 -1 -1
605 2 2240.43 2232.08 1994.75 -1 -1 0
606 2 1759.37 1694.02 1727.49 0 0 0
607 2 2143.02 1973.03 3535.42 0 0 -1
608 2 2118.34 2440.8 2134.16 -1 0 -1
609 2 2725.39 2628.94 1731.45 0 -1 -1
610 2 1336.04 3680.61 1548.14 1 -1 0
611 2 2692.95 3565.03 2480.17 0 -1 0
612 2 1915 2248.72 2256.62 0 0 0
613 2 2427.37 1381.22 1633.03 0 0 0
614 2 1555.35 1860.07 1519.06 0 0 0
615 2 1543.93 2115.8 3599.77 0 0 -1
616 2 1996.05 2182.01 1762.68 0 0 0
617 2 1457.48 1445.95 1981.57 0 0 0
618 2 1963.35 2036.89 1663 0 0 0
619 2 1404.48 2138.73 2008.13 0 0 0
620 2 2642.96 1731.16 1858.95 0 1 1
621 2 1838.68 3521.81 2570.92 0 -1 0
622 2 1893.02 1626.05 1383.08 0 0 0
623 2 3659.81 2256.35 3479.18 -1 0 -1
624 2 2314.81 1819.66 1860 0 0 0
625 2 1871.92 1908.9 1732.79 0 0 0
626 2 2844.86 3581.39 1841.24 0 0 1
627 2 3430.85 1633.27 2198.89 -1 0 0
628 2 3653.65 2344.14 3630.41 -1 0 0
629 2 2305.87 3644.94 1590.03 0 0 0
630 2 3149.74 3137.36 2702.08 0 0 0
631 2 1383.3 1842.82 2323.55 0 0 0
632 2 2090.22 1641.49 1971.98 0 0 0
633 2 1758.97 2274.88 2559.71 0 0 0
634 2 1462.52 2468.95 1429.99 0 0 0
635 2 1561.63 1814.02 2313.37 0 0 0
636 2 1844.39 2279.05 2419.71 0 0 0
637 2 1824.06 1855.57 3515.29 0 0 -1
638 2 2078.05 3627.01 2016.27 0 -1 0
639 2 2384.38 1886.18 3598.18 0 0 0
640 2 1901.25 2105.57 2356.78 0 0 0
641 2 1926.39 1326.75 1469.63 0 0 0
642 2 1853.97 1360.28 1626.33 0 0 0
643 2 1317.67 3295.31 1785.8 0 0 0
644 2 2257.53 1591.58 1958.43 0 0 0
645 2 3491.63 3220.06 2735.74 -1 -1 0
646 2 1932.39 1556.98 3432.96 0 0 0
647 2 2013.22 1814.03 2332.15 0 0 0
648 2 2098.74 2302.44 1668.68 0 0 0
649 2 1632.04 2510.03 1487.76 0 0 0
650 2 1542.75 1518.32 2119.6 0 0 0
651 2 2270.81 1801.72 1552.1 0 0 0
652 2 1860.93 1823.18 3225.17 0 0 0
653 2 2102.43 1522.87 3684.56 0 0 -1
654 2 1649.07 1610.3 3571.94 0 0 -1
655 2 2775.64 3088.44 1899.08 0 0 0
656 2 1816.92 2024.35 2222.59 0 0 0
657 2 1586.5 3580.61 2670.09 0 -1 0
658 2 1504.33 2838.69 1582.23 0 0 0
659 2 1605.27 1842.59 1351.75 0 0 0
660 2 1475.43 1828.95 2472.94 0 0 0
661 2 3508.8 1948.6 2563.69 0 0 -1
662 2 1756.43 2179.95 2277.1 0 0 0
663 2 1452.08 1406.09 3578.57 -1 1 -1
664 2 2437.41 1533.98 1937.9 0 0 0
665 2 3428.76 1414.66 1483.42 -1 1 0
666 2 1844.61 1768.57 1865.87 0 0 0
667 2 2045.86 1805.63 2033.09 0 0 0
668 2 2150.04 3302.06 2372.84 -1 -1 1
669 2 2684.97 3119.49 2036.62 0 0 1
670 2 1668.47 3683.91 2381.67 0 -1 0
671 2 1481.8 3487.17 2430.36 0 -1 -2
672 2 3426.22 1843.33 1524.6 -1 0 0
673 2 1774.1 3552.9 2406.64 0 0 0
674 2 3466.14 2103.11 3600.74 -1 0 -1
675 2 1601.03 3464.31 2137.65 0 -1 0
676 2 2972.97 1461.78 3204.26 0 0 -1
677 2 1651.25 3622.29 2193.98 0 -1 0
678 2 1775.29 1495.76 3470.41 0 0 -1
679 2 1796.45 1527.58 3640.86 0 0 -1
680 2 1353.34 1367.51 1867.89 0 0 0
681 2 2272.6 2099.86 2088.16 0 0 0
682 2 2213.72 1838.25 1717.28 0 0 0
683 2 1580.61 2119.21 1998.75 0 0 0
684 2 3434.83 3140.13 3547.8 -1 0 -1
685 2 2315.34 2668.26 2355.27 0 0 0
686 2 1920.18 1748.03 1682.41 0 0 0
687 2 2544.58 1779.63 2009.41 0 0 0
688 2 3435.29 3636.92 2031.8 -1 -1 0
689 2 1711.47 2456.44 1782.12 0 0 0
690 2 3362.27 3602.91 3564.74 0 -1 -1
691 2 3534.24 2304.23 2042.25 -1 0 0
692 2 3297.2 1675.48 1315.93 0 0 0
693 2 1696.52 1439.51 2492.42 0 0 0
694 2 3687.72 3560.08 1415.68 -1 0 0
695 2 2225.81 2128.58 1552.92 0 0 0
696 2 2108.33 2063.04 2460.84 -1 -1 0
697 2 1353.43 2288.37 2353.23 1 -1 -1
698 2 3573.06 1712.48 2228.43 -1 0 0
699 2 2463.44 3023.33 2212.22 0 -1 0
700 2 1321.88 2157.06 1405.02 0 0 0
701 2 1708.67 1917.79 1471.49 0 0 0
702 2 1951.55 2006.34 2490.82 0 0 0
703 2 1829.85 1342.76 2440.18 0 0 0
704 2 1502.53 3658.06 1921.69 0 -1 0
705 2 1974.08 2184.89 2482.68 0 0 0
706 2 3627.38 3337.59 3645.75 0 0 -1
707 2 1605.63 1409.29 2247.65 0 0 0
708 2 2013.9 1898.46 2628.27 0 0 0
709 2 1578.81 3198.32 1587.43 1 0 0
710 2 1349.57 1718.91 1556.31 0 0 0
711 2 3255.81 2072.23 2158.81 0 0 0
712 2 2384.17 1805.75 1692.71 0 1 0
713 2 1663.21 2667.79 1523.25 0 0 1
714 2 1399.74 2412.24 2591.97 0 0 0
715 2 1449.28 3295.32 1530.41 1 0 1
716 2 1952.89 3634.66 2139.03 0 -1 0
717 2 1909.1 1423.13 3552.91 0 0 -1
718 2 1879.66 1369 2019.92 0 0 0
719 2 1773.82 2314.5 2178.92 0 0 0
720 2 1776.2 3389.19 2360.91 0 0 0
721 2 2154.28 1885.3 1876.08 0 0 0
722 2 3623.06 2264.4 1546.93 -1 0 0
723 2 1966.84 2381.56 2149.38 0 0 0
724 2 3536.63 3232.32 1356.79 -1 0 0
725 2 3288.64 1454.17 3630.84 0 1 0
726 2 2887.8 2222.08 2914.4 0 0 -1
727 2 3573.75 3574.38 1817.5 0 -1 0
728 2 1989.61 2269.7 1450.4 0 0 0
729 2 3525.23 2167.37 2151.68 -1 0 0
730 2 1526.28 3158.65 2610.55 0 -1 0
731 2 1738.92 1947.78 2080.51 0 0 0
732 2 2413.31 2181.08 2050.05 0 0 0
733 2 2186.1 2425.71 1597.13 0 0 1
734 2 2040.98 1404.4 2081.73 0 0 0
735 2 1505.69 2206.79 1860.51 0 0 0
736 2 1673.47 2098.25 2146.04 0 0 0
737 2 3431.55 1362.99 1687.44 -1 0 0
738 2 1677.82 1880.43 3400.22 0 0 -1
739 2 1723.52 1327.23 1947.71 0 0 0
740 2 3684.68 3383.43 1431.3 -1 0 1
741 2 1930.27 2275.58 1617.77 0 0 0
742 2 1839.24 1751.19 3363.76 0 0 -1
743 2 1593.61 1418.16 1864.44 0 0 0
744 2 3562.19 1685.04 1759.4 -1 0 0
745 2 1754.07 2091.95 1972.57 0 0 0
746 2 1931.37 1884.35 1567.59 0 0 0
747 2 1687.98 3420.35 1395.34 0 -1 0
748 2 3520.04 1619.17 2355.4 -1 0 0
749 2 3556.28 1729.78 1567.31 -1 0 0
750 2 1402.21 2062.32 1536.25 0 0 0
751 2 1523.22 2616.26 2866.96 1 0 0
752 2 3342.57 1692.61 1479.65 0 0 0
753 2 2740.13 2766.72 2263.62 0 0 1
754 2 1704.72 1700.56 2288.17 0 0 0
755 2 1917.94 1679.62 2006.07 0 0 0
756 2 1851.25 3363.23 1450.06 0 -1 0
757 2 3675.9 1982.83 1411.23 -1 0 0
758 2 1348.86 3630.21 2224.56 0 -1 0
759 2 1820.64 1660.84 1559.96 0 0 0
760 2 1737.6 3470.96 2848.01 0 -1 0
761 2 1475.17 1968.85 1673.87 0 0 0
762 2 1809.83 1932.56 1920.5 0 0 0
763 2 3352.57 1780.01 2155.6 -1 0 0
764 2 1609.26 2337.86 1890.51 0 0 0
765 2 1870.53 2028.23 2652.42 -1 1 0
766 2 1964.03 2565.22 1599.04 -1 0 0
767 2 2120.23 1805.34 3458.78 0 0 -1
768 2 3587.01 3626.04 3672.67 -1 -1 0
769 2 1497.42 2122.42 2156.55 0 0 0
770 2 2100.53 1843.8 1553.03 0 0 0
771 2 3604.93 2090.83 1810.14 -1 0 0
772 2 1795.07 2059.8 3669.54 0 0 -1
773 2 1718.89 1842.65 2391.01 0 0 0
774 2 2422.21 2011.19 3684.7 0 0 -1
775 2 3630.68 3176.96 1626.26 -1 0 0
776 2 1343.62 1427.14 1675.09 0 0 0
777 2 1592.71 2713.57 2989.17 1 0 0
778 2 2113.88 2149.41 1411.31 0 0 0
779 2 3481.13 1832.54 1700.26 0 0 0
780 2 3482.08 3485.87 2116.4 -1 -1 0
781 2 1487.21 1567.39 3625.61 0 0 -1
782 2 1834.53 1922.32 3359.09 0 0 -1
783 2 1415.87 2131.75 2315.1 0 0 0
784 2 3653.79 1464.67 1998.82 -1 0 0
785 2 3094.01 2915.03 3242.35 0 0 0
786 2 1594.8 2106.84 2303.84 0 0 0
787 2 3438.7 2111.5 1829.06 -1 0 0
788 2 1671.83 3254.11 1451.45 1 0 1
789 2 1593.66 2196.1 2586.18 0 -1 0
790 2 2780.34 3681.16 2803.2 1 0 0
791 2 3275.2 3672.46 1813.69 0 0 0
792 2 2766.27 3116.45 2293.46 0 -1 0
793 2 1575.49 2293.56 3595.42 0 0 -1
794 2 3018.42 2273.29 1698.76 0 0 0
795 2 3420.36 3409.85 1767.82 -1 -1 0
796 2 1449.12 1793.14 1686.41 0 0 0
797 2 1883.19 1513.51 2891.88 0 0 0
798 2 3364.65 1909.15 3321.88 0 1 -1
799 2 1567.02 1652.12 3294.27 0 0 -1
800 2 1414.58 2232.97 3644.27 0 0 -1
801 2 1397.4 1542.73 2618.44 0 0 0
802 2 1428.09 1603.24 1404.01 0 0 0
803 2 1521.35 2271.79 2346.89 0 0 0
804 2 1782.74 1598.88 3324.74 0 1 -1
805 2 2104.85 1528.22 2405.34 0 0 0
806 2 2359.44 1649.38 1822.03 0 0 0
807 2 3266.19 1578.1 1924.56 -1 0 0
808 2 2397.76 3519.63 2615.56 1 -1 -1
809 2 3608.5 3272.75 1949.18 -1 0 1
810 2 2186.31 3388.24 2061.83 0 0 0
811 2 1875.13 1842.43 2060.34 0 0 0
812 2 3438.72 1833.94 3459.34 -1 0 -1
813 2 3624.71 2090.74 3471.33 -1 0 -1
814 2 2666.34 2877.59 2376.42 0 -1 0
815 2 1631.46 1519.77 3362.94 0 0 -1
816 2 3512.96 1913.55 1386.1 -1 0 0
817 2 1718.33 1853.05 1781.87 0 0 0
818 2 3663.83 1702.85 2383.35 -1 0 0
819 2 3383.86 2022.24 1363.24 0 0 0
820 2 1769.69 3537.46 1893.78 0 -1 0
821 2 3405.37 1680.66 1658.19 -1 0 0
822 2 1841.64 1793.9 1433.4 0 0 1
823 2 3480.68 1724.81 2066.93 -1 0 0
824 2 1449.1 2269.56 2496.89 1 0 0
825 2 1614.31 1556.97 2347.71 0 0 0