ITEM: TIMESTEP
270000
ITEM: NUMBER OF ATOMS
1000
ITEM: BOX BOUNDS pp pp pp
1.7661675932880660e+03 3.2338324067113986e+03
1.7661675932880660e+03 3.2338324067113986e+03
1.7661675932880660e+03 3.2338324067113986e+03
ITEM: ATOMS id type x y z ix iy iz
1 1 2682.31 2471.78 1845.15 -1 0 1
2 1 2235.59 1785.46 2580.05 0 0 0
3 1 2993.59 2550.8 2280.91 0 0 0
4 1 2340.98 1986.75 2978.39 0 -1 0
5 1 3078.01 2810.84 2630.8 -1 -1 1
6 1 2142.37 2029.27 3076.29 0 0 0
7 1 1975.71 2839.45 2731.86 0 -1 0
8 1 2295.38 2020.32 2483.36 0 0 1
9 1 2818.75 2847.6 2480.97 0 0 0
10 1 2730.08 2506.25 2591.37 0 0 0
11 1 2629.68 2267.93 2568.03 0 0 0
12 1 1829.73 2945.49 3191.44 0 0 0
13 1 2909.66 3141.46 3112.05 -1 0 -1
14 1 2320.71 2640.62 2743.32 0 0 -1
15 1 2964.17 2322.16 2217.97 0 0 0
16 1 2301.53 3228.53 2470.87 0 0 -1
17 1 2458.31 2759.53 2769.4 1 0 -1
18 1 2887.11 2400.97 2467.24 -1 1 0
19 1 2746.2 2107.64 2034.08 -1 0 0
20 1 1853.48 2849.12 2807.27 0 -1 0
21 1 2185.57 2506.96 2546.06 0 1 0
22 1 2611.84 2818.93 2659.58 2 -1 0
23 1 2745.72 2279.17 2627.53 0 0 1
24 1 2806.76 3050.5 2287.96 0 0 0
25 1 2019.74 2130.66 2697.01 -1 0 0
26 1 2782.45 2847.74 2782.37 0 0 0
27 1 2886.13 2432.99 2716.55 -1 0 1
28 1 2201.16 2469.05 2431.46 0 0 0
29 1 2545.47 2349.69 2601.31 0 0 -1
30 1 2696.03 3091.35 2752.85 0 0 0
31 1 1842.1 1962.43 2766.61 0 0 0
32 1 1948.74 2903.6 2983.97 0 0 -1
33 1 2302.63 2428.9 2909.69 0 0 0
34 1 2467.59 1782.51 2754 0 0 0
35 1 2183.02 2295.67 2429.2 0 0 -1
36 1 1883.66 2718.21 1819.51 0 -1 0
37 1 2060.49 2072.77 2101.9 0 0 0
38 1 2313.25 2818.97 2294.48 0 0 0
39 1 2964.31 2427.72 2754.64 -2 0 -1
40 1 2901.17 2483.69 2168.88 -1 -1 2
41 1 2132.58 2788.06 2078.08 0 0 -1
42 1 2777.01 2633.17 2214.15 0 -1 0
43 1 2457.23 2556.16 2199.28 0 -2 0
44 1 2822.34 3071.23 2010 0 -1 0
45 1 2474.49 2381.19 2700.77 0 0 0
46 1 2771.85 3158.06 2849.5 -1 -1 0
47 1 3065.71 2975.85 2305.11 -1 -1 -1
48 1 2960.54 2219.52 2698.05 0 0 -1
49 1 2764.43 2537.06 2337.12 -1 0 1
50 1 2860.18 1984.34 3020.67 -1 0 0
51 1 3014.29 1835.25 2310.01 -1 -1 1
52 1 3220.26 2525.8 3136.03 -1 0 -1
53 1 2890.67 2133.67 3072.39 -2 0 -1
54 1 3014.64 2342.11 2823.76 0 0 -1
55 1 2848.97 2848.86 2809.48 -2 0 -1
56 1 2899.42 2272.32 1958.47 0 0 0
57 1 2146.63 2516.6 3138.21 0 0 -1
58 1 2477.26 2584.7 3132.68 0 0 -1
59 1 2596.3 3065.29 2689.37 -1 -1 0
60 1 2184.38 2932.75 1898.95 -1 -1 1
61 1 2064.55 2705.19 2467.75 -1 0 0
62 1 2560.52 1808.85 2910.32 0 0 -1
63 1 2951.39 2299.28 2919.38 -1 0 0
64 1 2753.78 2588.96 2968.66 0 -1 -1
65 1 2969.54 2870.08 2665.84 -1 -1 -1
66 1 3001.05 2781.78 2520.9 -1 0 1
67 1 2495.62 2451.92 1970.88 0 0 0
68 1 2335.08 2811.97 3035.5 0 -1 -1
69 1 1838.06 2556.05 2714.81 0 0 0
70 1 1974.38 1850.22 3070.14 0 1 -1
71 1 2132.17 2632.31 2526.78 -1 0 -1
72 1 2666.47 2192.66 3211.99 0 0 -1
73 1 2605.2 1884.36 1777.52 0 1 1
74 1 2929.03 2654.7 2247.8 -1 0 -1
75 1 2144.09 2482.64 1951.37 0 0 1
76 1 1912.12 1958.5 2862.12 -1 0 0
77 1 2576.03 2490.04 3047.87 -1 -1 -1
78 1 1937.47 3204.26 2032.1 0 -1 0
79 1 2188.32 2389.07 2518.29 0 -1 0
80 1 2955.26 2429.8 2469.1 -1 0 0
81 1 3214.28 2039.58 2045.65 -1 0 0
82 1 2069.32 2305.33 3088.64 1 0 0
83 1 2484.7 2165.2 2648.92 -1 -1 -1
84 1 2133.1 3208.98 3129.29 1 0 -1
85 1 2500.93 2425.67 2460.41 0 -1 0
86 1 3102.21 2412.75 2757.86 -1 0 0
87 1 1977.85 2129.63 2810.15 0 -1 -1
88 1 1850.77 2699.57 2158.53 0 -1 0
89 1 2767.8 2746.98 1995.98 0 0 0
90 1 3140.56 3013.5 2366.75 -2 -1 0
91 1 1927.45 3138.4 2840.91 0 -1 -1
92 1 2126.92 2732.48 2490.69 0 -1 -1
93 1 2293.75 3089.45 2672.56 1 0 0
94 1 2305.14 2239.77 3085.41 0 0 -1
95 1 1994.1 2449.12 2777.77 -1 -1 -1
96 1 2705.62 2469.99 2103.66 -1 0 0
97 1 2347.25 2432.3 2146.42 0 -1 1
98 1 2651.48 2197.6 2863.19 -1 -1 0
99 1 2471.6 2779.89 2884.75 0 -1 -1
100 1 2685.4 2122.93 1845.58 -1 0 0
101 1 1837.96 2814.43 2396.07 0 -1 0
102 1 2322.18 1801.07 2636.75 -1 0 0
103 1 2791.29 2507.61 2183.06 -1 0 0
104 1 3155.74 2656.26 2451.05 0 -1 -1
105 1 3109.97 2939.34 2708.69 -1 0 0
106 1 3150.28 2115.33 2761.37 0 1 -1
107 1 2705.63 2254.79 2457.8 -1 -2 0
108 1 3067.49 2987.48 1895.88 -1 0 -1
109 1 2309.49 2525.61 2430.23 -1 -1 0
110 1 2701.93 2692.71 1889.87 0 -1 0
111 1 3145 1766.52 3149.42 -1 0 -1
112 1 2619.8 1910.55 2879.14 0 0 0
113 1 2409.99 2680.67 2855.26 0 0 -1
114 1 2669.91 2433.71 2838.56 -1 0 0
115 1 2314.13 2634.22 2917.89 0 0 -1
116 1 2782.64 2440.94 2810.11 0 0 0
117 1 2390.03 3177.81 2693.04 0 -1 -1
118 1 2204.04 2729.47 2326.45 -1 0 -1
119 1 3103.36 2863.74 2298.01 0 -1 0
120 1 2712.6 2356.57 1985.64 1 0 0
121 1 2962.9 3042.9 2929.63 -1 0 0
122 1 2731.15 2955.93 2471.32 0 0 -1
123 1 1943.39 1918.39 3164.63 -1 1 -1
124 1 2574.68 2514.95 1850.24 0 0 1
125 1 1945.8 2944.03 2097.84 0 -2 0
126 1 2267.39 3230.18 2895.47 0 0 -1
127 1 2714.3 2318.67 2198.25 -1 -1 0
128 1 2171.86 2328.66 3231.58 -1 0 0
129 1 2477 2448.36 2417.96 -1 0 0
130 1 3139.25 2606.13 2122.71 0 -1 0
131 1 2827.98 3004.85 1793.16 -1 -1 0
132 1 2591.78 2739.32 2901.66 0 -1 -1
133 1 2539.44 2424.16 2788.52 0 0 -1
134 1 2074.44 3046.48 2488.03 -1 -1 -1
135 1 2250.79 3177.48 3130.85 0 -1 -1
136 1 2869.76 2203.22 2979.77 -1 0 0
137 1 3003.84 2044.65 2079.43 -1 0 0
138 1 2703.9 2563.18 2034.15 0 -1 0
139 1 2871.62 2570.57 2157 -1 -1 -1
140 1 2847.09 2893.91 2709.19 -1 -1 -1
141 1 2793.59 2740.16 2164.03 -1 1 0
142 1 2452.45 2307.5 2792.59 0 1 -1
143 1 2994.89 2877.02 2315.86 -1 0 0
144 1 1831.06 2890.14 2550.98 -1 -1 0
145 1 2352.55 2291.95 2189.52 0 0 0
146 1 3104.16 2560.34 2228.89 -1 -1 0
147 1 1929.81 2485.11 2674.18 0 0 -1
148 1 2700.09 2661.37 2388.74 -1 -1 1
149 1 2905.24 2771.04 2707.35 0 0 0
150 1 2442.61 2574.98 2547.61 0 0 0
151 1 2541.3 2923.32 2707.16 0 -2 -1
152 1 3121.03 2605.36 2845.2 -1 -1 0
153 1 2822.03 2732.13 2794.77 -1 -1 -1
154 1 3049.72 2651.64 2323.11 -1 0 -1
155 1 2871.26 2399.27 2536.42 0 0 0
156 1 2136.78 2509.64 3010.34 0 0 -2
157 1 3204.1 2880.12 2366.76 0 0 -1
158 1 2685.89 2695.61 2129.43 -1 -1 0
159 1 2931.56 2622.14 2631.35 0 -1 0
160 1 2831.34 2052.27 2773.98 -1 0 0
161 1 2657.92 2684.96 2007.53 0 0 -1
162 1 2745.3 2152.77 2528.47 0 -1 0
163 1 2410.35 2567.38 2799.49 0 0 -1
164 1 3037.37 2458.67 2033.57 0 -1 -1
165 1 2320.72 2226.25 3155.56 0 0 -1
166 1 1799.71 2674.58 2062.89 0 0 -1
167 1 2626.17 2670.86 2379.79 0 -1 0
168 1 1999.96 2237.66 2874.35 0 0 0
169 1 2245.32 3072.1 1963.27 0 -1 -1
170 1 2875.18 2854.21 2384.06 0 -1 0
171 1 2757.52 2196.03 2935.33 -1 -1 -1
172 1 2592.96 2860.65 2199.11 0 -1 -1
173 1 2748.08 2407.61 2519.33 -1 0 -1
174 1 2798.82 1965.61 3161.53 -2 0 -1
175 1 2999.89 2911.91 1811.68 -1 -1 -1
176 1 2194.71 2172.31 2886.11 0 0 0
177 1 2759.11 3113.16 1887.34 -1 0 0
178 1 3096.36 2242.27 2749.47 -1 0 0
179 1 2046.46 2241.69 2932.33 -1 0 0
180 1 3058.75 2825.05 2881.91 0 0 -1
181 1 1895.68 2626.69 2956.86 0 -1 1
182 1 2795.08 3145.72 2242.12 0 -1 0
183 1 1818.32 2912.97 2108.16 0 -1 0
184 1 2854.43 2281.55 2653.95 0 -1 1
185 1 1887.66 2331.98 2610.65 0 0 -1
186 1 2956.54 2365.93 1995 -1 0 -1
187 1 3210.8 2632.06 2762.92 0 0 -1
188 1 2566.85 1789.18 3189.37 0 1 -1
189 1 3183.01 2168.61 3119.36 -1 0 -1
190 1 2574.98 2637.1 2488.31 -1 0 0
191 1 2805.41 1877.45 3025.88 0 0 0
192 1 3073.55 3105.31 1933.91 -1 -1 0
193 1 3135.4 2743.12 2844.27 -2 -1 0
194 1 2830.16 2207.05 2058.5 0 -1 -1
195 1 2218.96 2585.32 2724.29 -1 0 0
196 1 2413.94 2513.26 3204.63 0 0 -1
197 1 2241.22 2333.87 1851.81 -1 1 1
198 1 2762.11 3060.77 3119.52 -1 -1 0
199 1 2364.65 3034.31 1808.35 0 0 1
200 1 2158.35 2041.94 2896.22 0 0 -1
201 1 3061.44 2244.19 2892.96 -1 0 0
202 1 2570.58 2397.1 3128.84 -1 -1 -1
203 1 2981.86 2973.03 3146.18 -1 -1 0
204 1 2456.54 2374.66 2903 0 -1 -2
205 1 2901.5 2604.18 2954.04 -1 -1 0
206 1 3091.05 1852.46 3075.73 -1 0 0
207 1 2433.33 2705.81 3114.1 -1 -1 -1
208 1 2441.4 2265.98 2677.85 0 0 -1
209 1 2678.53 2647.65 2893.52 -1 -1 0
210 1 2966.43 2535.57 1941.42 0 -1 0
211 1 2777.72 2854.65 1946.87 -1 -1 0
212 1 2389.74 1774.78 2388.82 0 0 -1
213 1 2941.67 2657.89 2501.35 0 1 -1
214 1 2424.77 2820.78 2475.13 0 -1 0
215 1 1766.93 2876.87 2006.42 0 0 -1
216 1 2637.99 2367.56 3051.2 -1 0 -1
217 1 2853.48 2222.59 2172.26 -1 0 1
218 1 2222.45 2592.92 2069.82 0 0 0
219 1 2976.89 2866.7 2446.71 0 -1 0
220 1 2236.43 2446.73 3042.51 -1 0 -1
221 1 2903.86 1895.19 2952.68 -1 0 -1
222 1 2798.5 2242.58 1769.75 0 -1 1
223 1 2469.87 2463.58 3096.38 0 -1 -2
224 1 1863.74 3103.02 2496.16 0 -1 0
225 1 2753.1 3179.54 2455.18 0 -1 0
226 1 2731.91 2542.35 2837.77 0 -1 0
227 1 3116.32 2417.49 2639.68 -1 -1 -1
228 1 1803.7 3032.73 1813.63 0 0 1
229 1 2819.87 2156.79 2277.36 -1 -1 0
230 1 1848.46 2440.23 2585.53 0 0 -1
231 1 2163.33 2695.34 2436.57 -1 -1 0
232 1 2176.7 3161.9 3228.27 0 -1 -1
233 1 3117.58 2716.47 2718.62 -1 0 1
234 1 2082.02 1960.85 2562.23 0 -1 -1
235 1 2688.19 2372.99 1869.25 -1 -1 0
236 1 2509.39 2545.95 2190.51 -1 0 0
237 1 2955.58 2524.54 2876.29 0 -1 0
238 1 2904.87 2770.93 2465.24 0 -1 0
239 1 2685.48 2570.36 2152.84 -1 -1 0
240 1 2218.47 2549.18 2552.86 1 0 -1
241 1 2667.61 3152.04 1991.02 0 -1 0
242 1 2614 2136.52 1944.38 0 -2 0
243 1 2010.79 3204.95 1917.45 0 -1 0
244 1 2893.06 2568.79 2728.02 0 -1 -1
245 1 3044.78 1826.43 2514.82 -1 0 0
246 1 2831.84 2009.93 2655.58 0 -1 0
247 1 2442.45 3187.16 2589.68 0 -1 0
248 1 3038.36 2756.12 2110.9 -1 -1 0
249 1 3040.99 2615.94 2949.39 0 0 0
250 1 3193.7 1922.85 3073.83 -1 0 -1
251 1 2955.15 2665.42 2083.6 0 -1 0
252 1 2856.14 1884.93 2650.3 -1 0 0
253 1 1914.79 2628.11 2104.41 1 0 0
254 1 3146.12 2303.11 2582.69 -1 0 -1
255 1 2782.11 2054.54 3092.2 -1 0 -1
256 1 2433.08 2425.65 2783.99 -1 0 0
257 1 2814.4 2958.49 2047.01 -1 -1 0
258 1 2561.49 2125.38 2826.5 0 0 -1
259 1 2608.39 2158.95 3119.96 -1 0 -1
260 1 2614.11 2533.91 2901.14 0 0 0
261 1 1824.9 2125.48 2335.39 0 0 0
262 1 3014.33 2522.57 2150.19 -1 0 -1
263 1 2572.51 2785.33 2773.47 -1 0 -1
264 1 2277.44 2407.88 1957.57 0 0 -1
265 1 3152.28 2056.83 2886.85 -1 0 -1
266 1 2935.89 1908.2 3077 -1 0 -1
267 1 1817.86 2333.33 2871.37 0 0 -1
268 1 2238.69 2499.24 2550.16 0 -1 0
269 1 2775.35 1825.54 2821.5 -1 0 0
270 1 2347.16 2192.07 3123.27 0 0 -1
271 1 2102.89 2789.21 2399.31 0 -1 -1
272 1 2562.59 2420.98 2914.15 -1 0 -1
273 1 2195.07 2396.16 2886.84 0 0 -1
274 1 2358.55 2550.11 2924 1 -1 0
275 1 2845.82 2458.55 1965.16 -1 0 1
276 1 2754.62 2638.74 1791.69 -1 -1 0
277 1 2595.21 2607.37 2083.11 0 0 1
278 1 1789 1853.51 2741.36 0 0 -1
279 1 2362.05 2697.73 2464.81 0 -1 0
280 1 2457.24 2471.03 2977.64 -1 0 -1
281 1 2025.63 2821.75 2647.76 0 -1 0
282 1 2074.51 2345.4 2858.12 0 -1 0
283 1 2346.91 3117.2 3178.07 0 -1 -1
284 1 2195.64 2315.07 3081.16 0 0 -1
285 1 3221.79 2686.8 2880.8 -1 0 -1
286 1 2843.77 2135.68 2852.8 -1 1 0
287 1 2751.73 2073.27 1918.09 0 0 0
288 1 2357.24 2362.59 2696.48 1 0 0
289 1 2179.29 2677.01 2662.14 0 -1 0
290 1 2931.13 2485.61 2366.41 -1 -1 0
291 1 2294.11 2668.19 2445.82 -1 -1 0
292 1 3102.25 2286.39 2718.94 -1 0 -1
293 1 2612.86 2549.52 2547.33 0 0 1
294 1 2544.27 2627.77 2632.81 0 -1 -1
295 1 2017.82 3135.35 2539.06 0 -1 0
296 1 3089.97 2485.79 2859.9 0 0 0
297 1 2830.46 2339.32 2554.45 -1 0 0
298 1 2413.27 2424.32 2599.09 0 0 0
299 1 1884.71 2204.7 2541.38 1 0 0
300 1 2113.93 2439.22 3103.3 0 0 0
301 1 2387.11 2485.08 2544.12 -1 0 -1
302 1 3126.34 2034.1 1824.16 -1 0 0
303 1 2920.98 3157.57 1973.21 0 -1 0
304 1 2321.37 2743.04 3061.48 1 -1 -1
305 1 2418.9 1934.95 3069.15 0 0 -1
306 1 1858.4 3133.93 1807.06 0 -1 0
307 1 3007.15 2429.27 2084.41 -1 0 -1
308 1 1851.01 1895.93 1788.53 0 0 0
309 1 2633.97 2896.07 2346.59 0 0 -1
310 1 1927.57 2048.88 2715.91 0 0 -1
311 1 2199.66 2778.64 1814.82 0 -1 -1
312 1 2791.58 2358.44 2612.78 0 -1 1
313 1 2176.13 2109.55 2987.59 0 -1 -1
314 1 1932.93 2358.02 2821.09 1 0 0
315 1 2002.17 1938.51 2651.01 0 0 0
316 1 2840.9 2860.35 1839.43 -1 0 0
317 1 2233.59 2805.16 2593.79 1 0 -1
318 1 3196.97 3017.46 2770.09 0 -1 -1
319 1 2878.9 2212.76 1836.9 -1 0 0
320 1 2444.12 2654.19 2679.71 0 -1 0
321 1 2622.82 2284.78 3131.44 -1 0 0
322 1 2341.67 2469.8 1880.8 0 -1 0
323 1 2072.48 2131.43 2892.49 0 0 -1
324 1 3183.72 2358.38 1819.55 0 0 0
325 1 2147.11 3091.34 2843.18 0 0 0
326 1 2680.96 2754.05 2832.33 0 0 -1
327 1 2584.29 2972.36 2599.62 0 -1 0
328 1 2173.63 2259.09 2546.42 0 0 0
329 1 2152.52 2723.34 2075.36 0 0 0
330 1 2658.23 2518.31 2752.95 0 0 0
331 1 2476.29 2568.39 2085.87 -1 0 0
332 1 2276.94 2798.08 2990.32 0 -1 -1
333 1 2838.48 2508.87 2909.03 0 0 0
334 1 2861.19 3232.64 3097.6 -2 -1 0
335 1 2530.87 2856.07 2417.94 0 0 0
336 1 2464.29 2391.95 3207.06 0 -1 -1
337 1 1851.76 2432.43 2230.67 0 0 0
338 1 2675.57 2694.69 3166.95 0 -1 -1
339 1 2826.01 2667.29 3026.95 0 -1 0
340 1 2474.39 2460.46 2587.98 0 -1 0
341 1 2682.95 3125.39 3040.29 0 -1 -2
342 1 2766.06 2816.63 2900.36 0 -1 0
343 1 2731.68 2106.04 2840.84 1 -1 0
344 1 2900.08 2947.74 2936.98 0 -1 -1
345 1 2541.17 2300.47 1768.31 0 0 0
346 1 2650.24 2430.47 1898.88 0 -1 0
347 1 2487.92 2473.16 2765.06 -1 0 -1
348 1 2217.16 2471.55 2591.17 -1 -1 -1
349 1 2774.38 2621.97 2594.95 -1 0 0
350 1 2272.14 2305.82 2087.99 0 1 0
351 1 2080.48 1789.77 3033.71 0 0 -1
352 1 2371.98 2296.03 2978.63 0 1 0
353 1 2959.53 2605.77 2382.59 0 -1 0
354 1 2214.17 2602.27 2349.52 0 0 0
355 1 2377.83 2741.16 2955.34 0 -1 -1
356 1 2269.77 3025.38 1856.71 0 -1 0
357 1 2178.71 2854.79 2798.31 0 -1 -1
358 1 2952.09 3223.37 2247.4 -1 -1 0
359 1 2617.77 2320.64 2862.4 0 0 0
360 1 2233.11 1804.2 3192.77 0 1 -1
361 1 3151.64 2578.98 2352.93 -1 0 0
362 1 2761.5 2620.17 2776.81 0 -1 0
363 1 2513.52 2390.57 3018.52 0 0 -1
364 1 2789.56 2688.45 2913.33 -1 0 0
365 1 2185.92 3071.05 2732.05 0 -1 0
366 1 2054.6 2585.49 1890.4 0 0 0
367 1 2278.13 2568.66 2826.37 0 -1 -1
368 1 2625.16 1966.87 2578.77 -1 0 0
369 1 3003.04 2708.37 2662.86 0 0 -1
370 1 3064.67 2759.35 2221.34 -2 0 0
371 1 3130.67 2239.97 2035.11 -1 0 0
372 1 2910.26 2921.06 3191.79 -1 -1 -1
373 1 2813.52 2607.85 2784.46 0 1 0
374 1 2524.13 1982.27 2552.14 0 0 0
375 1 2998.55 1815.12 2377.61 0 0 -1
376 1 2684.77 2635.02 2503.71 0 1 0
377 1 3055.32 2491.39 2358.45 0 0 0
378 1 2342.94 2020.25 2865.03 0 1 -1
379 1 2868.69 2546.99 2265 -1 -1 0
380 1 2604.94 2198.25 2057.82 -1 0 0
381 1 2266.03 2534.45 2970.33 0 0 -1
382 1 3083.71 2832.19 2752.54 -1 -1 0
383 1 2704.52 2336.99 2364.18 -1 0 0
384 1 2800.81 2757.28 2392.14 0 -1 0
385 1 2948.99 2710.92 2349.81 0 0 0
386 1 2803.97 2928.28 2588.21 -1 0 0
387 1 2953.69 2356.49 2732.79 -1 0 -1
388 1 1772.97 2735.93 2827.27 0 0 -1
389 1 2448.29 2514.09 1875.9 0 0 0
390 1 1808.23 2637.92 1775.05 0 -1 0
391 1 2422.66 2012.04 1884.9 0 0 0
392 1 1980.34 2549.9 2939.15 -1 -1 -1
393 1 2581.34 2432.83 2676.74 0 0 1
394 1 2007.46 2189.38 3066.33 1 0 -1
395 1 2462.86 2458.37 2105.35 0 -1 -1
396 1 1829.13 2773.52 2574.75 1 0 0
397 1 2750.9 2780.49 1813.92 -1 0 0
398 1 2246.62 2441.04 2800.79 0 -1 0
399 1 2124.18 1876.31 2771.97 0 0 0
400 1 2227.17 2362.34 2701.65 -1 0 -1
401 1 2508.95 2477.84 2450.26 0 0 -1
402 1 2251.04 2552.49 3216.57 0 0 -2
403 1 1859.24 2134.87 2988.33 0 0 -1
404 1 2588.36 2650.53 2205.79 0 0 0
405 1 2654.01 2987.92 2772.35 -1 0 0
406 1 2157.02 2831.48 2313.42 0 -1 0
407 1 1962.21 2875.59 2865.36 -1 -1 0
408 1 3182.22 2418.25 2860.72 0 0 -1
409 1 3046.9 2649.49 2557.73 0 -1 -1
410 1 2580.34 2278.86 2443.23 0 0 -1
411 1 2171.02 2107.2 2061.84 0 0 0
412 1 2413.73 2964.22 2792.74 0 0 0
413 1 1849.42 2647.7 2825.82 0 0 -1
414 1 2080.45 2801.12 2781.01 0 -1 -1
415 1 2105.71 2398.23 2747.77 0 0 -1
416 1 2621.6 2650.26 1819.39 0 0 0
417 1 1907.01 2150.55 2429.23 -1 0 -1
418 1 3171.68 2939.9 2091.66 -1 0 1
419 1 2236.88 2585.6 2493.68 0 0 0
420 1 3060.91 2801.08 2369.65 -2 -1 -1
421 1 2815.73 2499.02 1873.74 -1 0 0
422 1 1866.19 2941.23 1995.8 0 -1 0
423 1 2985.27 2697.86 1805.08 0 -1 0
424 1 2071.08 2800.42 3092.29 0 -1 -1
425 1 2392.25 2809.44 3151.42 0 0 -1
426 1 2790.88 2576.47 2747.27 -1 0 -1
427 1 3065.89 2331.74 2254.63 -1 -1 0
428 1 2350.84 2903.55 2554.81 0 -1 -1
429 1 2854.99 2741.39 2271.21 -1 0 0
430 1 2112.64 1964.84 2281.71 0 -1 0
431 1 2602.27 2406.25 1793.45 0 0 0
432 1 2036.35 2802.78 2299.56 0 -1 0
433 1 2245.01 2659.9 2498.97 -1 -1 -1
434 1 3029.32 2683.5 2438.18 -1 0 0
435 1 2808.55 2106.69 2972.34 -1 0 0
436 1 2862.49 2686.81 1805.86 -1 0 0
437 1 2712.08 2257.63 2065.21 0 1 0
438 1 3202.52 2503.12 2643.01 -1 -1 -1
439 1 2796.83 2383.62 1940.18 0 0 0
440 1 2966.73 2047.48 3013.93 -1 0 -1
441 1 2721.23 1959.95 3051.78 -1 0 -1
442 1 1943.46 2562.59 2755.45 0 0 0
443 1 2991.14 2520.84 2992.32 0 -1 0
444 1 2783.8 2639.08 2083.55 -2 0 0
445 1 2440.23 2920.8 2536.77 0 -1 0
446 1 2901.13 2015.28 3134.33 -1 0 -1
447 1 2626.28 2686.37 2599.47 0 0 0
448 1 2084.39 2687.46 2306.72 -1 -1 0
449 1 2283.58 2461.73 1903.78 -1 0 0
450 1 2036.95 2438.3 3030.77 0 0 -1
451 1 2065.65 2712.26 2703.78 0 -1 -1
452 1 2190.72 2234.16 2999.24 0 0 0
453 1 3028.91 3016.93 2405.75 -1 0 0
454 1 2034.87 2248.36 2272.39 0 0 -1
455 1 2716.81 2606.59 3072.28 -1 0 -1
456 1 2880.03 1845.99 1815.94 0 1 0
457 1 2496.52 2731.07 2435.8 0 -1 -1
458 1 1989.17 2192.64 2930.61 0 1 -1
459 1 2113.78 2454.07 2233.3 0 -1 -1
460 1 3060.03 2485.69 2555.05 -1 -1 0
461 1 2795.88 2702.75 2501.91 0 -1 0
462 1 2918.19 2737.34 2579.62 -1 0 -1
463 1 3145.99 2108.15 2902 -1 0 -1
464 1 2661.26 2609.79 2642.35 0 0 0
465 1 1800.25 2702.15 2455.71 1 0 -2
466 1 2745.51 2926.1 2683.39 -1 -1 0
467 1 2670.99 2580.37 1904.16 0 1 0
468 1 3077.95 2779.05 1848.11 0 -1 1
469 1 2847.54 2522.15 2632.93 0 -1 -1
470 1 2842.35 2953.51 1921.12 -1 -1 -1
471 1 2847.13 2642.27 2345.43 0 0 0
472 1 2722.97 2898.28 1843.8 0 -1 0
473 1 1786.32 2407.06 2970.46 1 -1 0
474 1 2906.37 2368.4 2814.22 -2 -1 -1
475 1 2807.63 2517.43 2065.55 0 -1 0
476 1 2843.16 3200.66 2119.39 -1 -1 0
477 1 3069.11 2357.56 2035.23 0 -1 -1
478 1 2603.54 2490.29 2033.74 -1 -1 0
479 1 2603.04 1835.31 2317.53 0 0 -1
480 1 3118.84 2273.25 2464.38 -1 0 0
481 1 2871.86 1863.94 3223.06 0 1 0
482 1 2640.03 2022.65 2832.82 0 -1 -1
483 1 2926.26 2253.48 2793.08 -1 1 0
484 1 2745.7 2877.82 2362.8 -1 -1 0
485 1 2332.6 3028.29 2580.18 -1 -1 -1
486 1 3190.99 2884.17 1880.86 -1 -1 0
487 1 2700.65 2413.71 2720.49 -1 0 -1
488 1 2174.3 1867 2502.18 0 0 0
489 1 3035.35 2647.39 2164.29 -1 0 0
490 1 2921.33 2419.3 2946.96 -1 0 -1
491 1 2631.85 2713.45 2699.93 0 0 -1
492 1 2786.17 2533.67 3215.48 0 -1 0
493 1 2704.7 2462.32 2410.9 -1 0 0
494 1 2346.58 2410.03 3024.45 1 -1 0
495 1 2945.1 2774.07 2192.55 0 -1 0
496 1 2833.4 2610.73 2734.43 1 0 0
497 1 2611.92 3182.14 2625.31 -1 -1 0
498 1 2680.63 2909.88 2575.79 0 -1 0
499 1 2339.7 2523.17 1873.24 -1 0 -1
500 1 2687.23 2987.4 2339.51 0 -1 -1
501 1 2478.79 2703.59 2555.63 -1 0 -1
502 1 1874.92 2918.7 2889.57 -1 0 0
503 1 2489.42 2490.36 2839.36 0 0 0
504 1 2307.42 2590.47 2509.65 0 0 0
505 1 2094.88 2501.63 3138.29 -1 0 -1
506 1 1809.12 2171.97 2230.22 -1 0 0
507 1 3098.4 2089.66 2918.98 -1 0 -1
508 1 1971.69 1886.24 1994.8 0 0 -1
509 1 1980.37 1921.24 2515.08 0 0 0
510 1 2665.56 2364.34 2606.32 -1 -1 -1
511 1 3187.37 2968.64 2469.67 0 0 -1
512 1 1913.23 2987.35 3082.48 0 -1 -1
513 1 2948.46 2504.87 2059.88 0 -1 0
514 1 2752.21 2252.89 2294.48 -2 0 1
515 1 2513.13 2190.12 2426.83 -1 0 -1
516 1 2521.64 3173.26 2675.17 -1 -1 0
517 1 2920.02 2903.7 3085.76 0 -1 -1
518 1 2162.48 2814.66 2691.71 0 0 -1
519 1 2636.32 2581.61 2408.98 0 0 0
520 1 2953.89 2783.17 1836.32 -1 0 0
521 1 2507.92 2404.05 1853.02 -1 0 1
522 1 2477.44 2606.09 2200 -1 0 0
523 1 2936.71 2880.31 1917.3 0 0 0
524 1 2616.31 2427.78 2498.31 -1 -1 0
525 1 2969.1 2179.26 2899.37 0 0 -1
526 1 2122 2374.08 2625.84 0 0 0
527 1 1766.56 2231.51 2826.28 0 -1 -1
528 1 3048.58 2436.72 2251.37 0 1 0
529 1 2498.64 2591.91 1791.06 -1 -1 0
530 1 2027.09 2688.22 2584.93 0 0 0
531 1 2185.97 3188.9 1969.14 0 -1 0
532 1 3039.87 2585.7 2052.22 -1 0 0
533 1 2949.03 1837.04 2333.96 -1 0 -1
534 1 2363.7 1768.67 2805.68 0 0 -1
535 1 2650.33 3150.23 2488.17 -1 -2 0
536 1 2295.69 2547.21 2156 -1 0 0
537 1 2684.55 2914.3 2238.88 -1 -1 0
538 1 2054.29 2091.13 3000.03 0 0 -1
539 1 2980.19 2440.64 2648.64 -2 0 -1
540 1 2735.35 3046.2 2444.94 0 0 0
541 1 2490.38 2875.43 2811.44 0 0 -1
542 1 2381.91 2717.2 2418.65 0 -1 0
543 1 2320.55 2663.82 2613.23 0 0 -1
544 1 2919.9 2011.32 2905.37 -1 1 -1
545 1 2269.7 2780.47 2699.34 -1 0 -1
546 1 3082.82 1944.74 1902.83 -1 0 0
547 1 2486.88 2348.76 2402.27 0 -1 0
548 1 1971.86 2049.98 2910.81 0 0 0
549 1 2672.75 2494.7 3072.32 0 0 0
550 1 2168.7 2241.74 1841.73 0 0 0
551 1 2371.43 2667.33 1915.47 0 -1 0
552 1 2642.69 3163.52 3163.9 0 -1 -1
553 1 2829.94 2627.82 3166.63 -1 0 -1
554 1 2295.82 2416.16 2603.89 0 0 0
555 1 2126.26 2356.79 2999.69 0 0 0
556 1 2540.85 2878.74 2528.58 0 0 -1
557 1 2659.85 2613.58 2296.94 -1 0 0
558 1 2535.76 3125.03 2548.74 -1 0 -1
559 1 2533.23 2991.24 2813.03 -1 0 0
560 1 2000.5 2747.07 1768.97 0 0 0
561 1 3093.34 2391.9 2478.69 -1 -1 -1
562 1 2088.79 3104.57 3176.48 0 0 -1
563 1 3178.92 2505.53 2792.4 -1 0 0
564 1 2566.05 2684.34 3109.79 0 1 -1
565 1 3130.42 2623.29 3106.93 0 0 -1
566 1 3144.32 2253.84 2727.73 -1 0 1
567 1 2535.65 1892.77 2782.02 0 0 0
568 1 2924.12 2857.34 2536.82 -1 -1 -1
569 1 2669.32 2258.91 2959.3 0 0 0
570 1 1908.72 2853.52 2627.02 0 -1 0
571 1 2854.39 2767.51 1904.1 -1 -1 0
572 1 2541.76 2713.9 2673.93 -1 -1 0
573 1 2259.38 2339.66 2984.81 1 0 -1
574 1 2878.8 3024.47 3160.36 -1 0 0
575 1 1990.16 2423.39 2895.4 0 0 0
576 1 3124.76 2284.18 2767.89 0 -1 -1
577 1 3060.57 2576.89 2455.11 -1 -1 -1
578 1 1797.19 2602.23 2387.04 1 0 1
579 1 2842.84 3140.05 2540.88 0 0 -1
580 1 2397.66 2663.95 2442.39 0 1 1
581 1 1956.29 2298.35 2459.88 -1 0 0
582 1 2943.69 2992.53 2322.74 0 -1 0
583 1 2530.21 2440.79 2417.62 0 0 0
584 1 3090.5 2909 2387.32 0 0 1
585 1 2938.99 3020.03 3044.41 -1 -1 -1
586 1 2888.1 2205.03 3185.88 -1 -1 -2
587 1 1783.56 2231.01 2611.44 1 0 -1
588 1 2052.64 2411.27 2035.14 0 0 0
589 1 2790.14 2947.41 3183.71 1 -1 0
590 1 3116.95 2691.02 2040.18 -1 -1 1
591 1 2219.88 1982.51 2988.2 -1 -1 -1
592 1 2007.45 2343.16 2718.96 0 0 0
593 1 1878.14 2235.48 2889.87 0 0 0
594 1 2170.41 2974.59 2854.92 -1 1 0
595 1 2844.83 1788.78 2895.37 -1 0 -1
596 1 2777.31 2453.79 1956.71 1 0 0
597 1 2653.9 2578.93 3046.14 0 0 0
598 1 2869.13 3069.26 1904.03 0 -1 0
599 1 2315.92 3162.62 2581.01 -1 -1 0
600 1 2865.14 2165.29 2738.12 -1 0 -1
601 2 3215.57 2369.37 1958.1 -1 0 0
602 2 1970.12 2042.73 2296.03 1 0 0
603 2 2927.81 3071.36 2180.67 -1 0 1
604 2 2992.24 2954.27 2796.63 0 -1 0
605 2 1830.07 1803.33 3112.61 0 0 0
606 2 1796.75 2558.44 2224.97 1 0 0
607 2 2168.68 2592.65 2178.21 0 0 0
608 2 2725.08 3040.03 2568.74 0 -1 0
609 2 2862.9 2220.98 2393.93 0 0 0
610 2 2616.45 2882.54 2898.51 0 0 0
611 2 1878.69 2867.48 1850.03 0 0 1
612 2 2479.5 3180.87 2262.94 0 -1 0
613 2 2071.41 2553.76 2651.86 0 0 -1
614 2 2586.35 2102.52 2525.27 0 0 0
615 2 1814.73 2670.07 3069.98 0 0 0
616 2 3161.42 3143.84 1808.86 0 0 0
617 2 1878.73 2836.43 2231.81 0 -1 0
618 2 2470.7 3136.04 2866.9 0 0 0
619 2 2717.55 2115.67 2665.97 0 1 0
620 2 3188.09 3130.81 2461.98 -1 0 0
621 2 1770.68 3150.09 2779.24 0 0 -1
622 2 2306.05 3178.04 1846.11 0 0 0
623 2 2320.28 2549.46 3046.38 0 0 -1
624 2 1777.84 2370.42 2708.78 0 0 -1
625 2 2650.53 2008.06 3166.3 0 0 0
626 2 1893.04 3007.74 2751.77 1 0 -1
627 2 2067.73 1796.16 2599.89 0 1 0
628 2 3061.31 2559.86 2685.12 -1 0 0
629 2 2288.37 2058.6 2301.8 0 0 0
630 2 2526.18 1869.77 2155.73 0 1 0
631 2 3052.9 1928.59 2930.84 0 1 0
632 2 2197.92 2958.15 2050.69 0 -1 0
633 2 1872.14 2963.95 2394.47 0 -1 0
634 2 2969.3 2675.15 2806.83 -1 0 0
635 2 1850.01 1859.87 2276.35 0 0 0
636 2 2759.93 1950.84 2880.36 -1 0 0
637 2 1891.27 2215.01 2708.45 1 0 -1
638 2 1831.02 2017.48 2169.08 0 0 0
639 2 3027.38 2822.31 3136.14 0 0 0
640 2 2630.56 3217.3 2760.87 0 0 0
641 2 2356.68 2051.77 2615.2 0 0 0
642 2 2534.34 2939.08 2046.18 0 -1 0
643 2 1854.46 1786.26 2443.75 0 0 0
644 2 3185.28 2544.35 1962.72 -1 0 1
645 2 2551.17 3007.21 2249.19 0 -1 0
646 2 2249.42 2949.43 2237.55 0 -1 0
647 2 2185 2147.95 3131.16 0 0 0
648 2 2537.16 2628.86 2781.24 0 0 0
649 2 3005.94 2127.2 1785.25 -1 0 0
650 2 3015.1 2323.32 2331.66 0 0 0
651 2 3119.72 2113.47 2136.31 -1 0 0
652 2 1850.35 1843.32 2086.04 0 0 0
653 2 2848.53 2498.37 3055 0 0 -1
654 2 2500.04 3109.36 3202.07 0 -1 -1
655 2 2538.21 2018.2 2684.65 0 0 0
656 2 2705.42 1922.52 2699.83 0 0 0
657 2 2985.62 2061.76 2750.99 -1 0 -1
658 2 2586.22 2247.15 2703.78 -1 0 -1
659 2 1789.35 2069.98 2640.9 1 0 0
660 2 2414.79 2316.9 2011.49 0 0 0
661 2 2603.97 1814.55 1993.87 0 0 0
662 2 1988 1938.05 1831.81 0 0 0
663 2 1965.33 2830.1 2475.86 0 -1 0
664 2 2579.55 2994.14 3062.3 0 0 -1
665 2 2456.92 2392.18 2231.79 0 0 0
666 2 2561.86 3123.03 2104.31 0 -1 0
667 2 2785.8 1782.45 1964.83 0 0 0
668 2 1977.74 2350.99 2164.75 0 0 0
669 2 3070.01 2365.31 2969.96 -1 0 0
670 2 2196.7 1890.21 2826.65 0 0 -1
671 2 2753.38 1908.27 1824.63 0 0 1
672 2 1978.67 2545.2 2219.47 0 0 0
673 2 2314.99 2340.03 2418.16 0 0 0
674 2 3162.34 1785.4 2181.34 -1 0 0
675 2 2905.31 2783.85 2969.77 -1 0 0
676 2 2573.51 1978.84 1884.84 0 0 0
677 2 2075.06 2908.68 2171.14 0 -1 0
678 2 3073.22 2855.14 1980.73 -1 -1 0
679 2 2061.25 2951.91 3073.46 0 0 0
680 2 3007.18 1989.49 2208.91 -1 0 0
681 2 2302.42 3055.38 2834.29 0 0 0
682 2 2827.59 2373.7 2276.45 0 0 0
683 2 2413.94 2863.15 2601.74 0 -1 0
684 2 1936.42 3024.56 2232.1 0 -1 0
685 2 1968.04 3111.26 3055.95 0 0 -1
686 2 1963.33 2449.92 1890.15 0 0 0
687 2 2517.48 2822.25 3034.8 -1 -1 0
688 2 2886.47 2988.1 2465.18 -1 -1 0
689 2 2158.86 3104.85 2997.99 0 -1 0
690 2 3135.06 2975.81 3201.32 0 1 -1
691 2 2580.78 2335.29 2107.31 -1 0 0
692 2 2091.31 1772.73 2864.9 0 0 -1
693 2 3072.78 3138.13 2300.28 -1 -1 0
694 2 1898.33 2701.66 2672.27 0 0 0
695 2 2681.17 2142.5 2174.55 0 0 0
696 2 2397.34 1814.55 2942.01 0 1 0
697 2 1962.14 2065.51 2551.67 0 0 0
698 2 1990.85 2431.51 2515.51 1 0 0
699 2 2472.98 1796.85 1847.86 0 0 0
700 2 1789.57 2472.87 1819.14 0 0 0
701 2 3229.28 2825.07 2656.12 0 -1 -1
702 2 1895.57 2469.56 2374.27 0 0 0
703 2 2039.49 3063.81 2081.83 0 0 0
704 2 2228.16 3012.18 2411.16 0 -1 0
705 2 2070.81 1974.03 2779.18 0 0 -1
706 2 1960.74 2571.3 3222.49 0 0 0
707 2 1953.99 2995.54 2571.01 0 -1 0
708 2 1902.62 2594.67 2509.89 1 0 0
709 2 1897.12 1783.85 2936.25 0 0 0
710 2 2699.23 1832.02 3135.61 0 0 -1
711 2 2030.18 2921.27 1956.49 0 -1 0
712 2 2180.22 2659.35 3003.56 0 0 -1
713 2 2354.36 2482.51 2613.43 0 0 -1
714 2 2844.42 2003.36 2309.47 -1 0 0
715 2 2560.04 2278.62 1917.51 0 0 0
716 2 2317.87 2876.45 1801.75 0 0 0
717 2 2993.1 1780.18 3165.94 -1 0 -1
718 2 2645.41 2438.3 2242.33 -1 0 0
719 2 2003.43 1922.16 2151.94 0 0 0
720 2 1783.27 2019.2 3173.16 0 0 -1
721 2 3157.1 2444.43 2118.02 0 0 0
722 2 3216.36 2969.08 2219.63 -1 -1 0
723 2 2666.16 3032.59 3233.43 0 0 -1
724 2 2991.77 3127.98 2509.1 0 -1 0
725 2 2211.41 3208.17 2721.79 0 -1 -1
726 2 2268.31 2215.31 1947.27 0 0 0
727 2 3087.19 2442.22 1841.46 -1 0 0
728 2 2289.2 2169.89 2455.91 0 0 0
729 2 2884.69 1824.27 2490.07 -1 0 0
730 2 2897.49 2820.2 2041.61 -1 -1 0
731 2 2312.95 2692.97 3214.17 0 0 0
732 2 3150.03 1858.99 3228.03 -1 0 -1
733 2 2253.51 1842.07 2004.79 0 1 0
734 2 1889.79 2267.46 2300.59 0 0 0
735 2 2385.56 1887.1 2499.83 0 0 0
736 2 2232.63 3149.32 2106.13 0 -1 0
737 2 2195.33 2771.66 2129.47 -1 0 0
738 2 3121.18 2756.21 2988.91 0 0 0
739 2 2257.77 2951.76 2983.82 0 0 0
740 2 2852.84 1885.8 2170.07 0 0 0
741 2 2637.42 2083.23 2959.19 -1 1 0
742 2 2514.41 2140.45 1774.12 0 0 0
743 2 3211.66 2127.73 2465.14 -1 0 0
744 2 2583.32 2261.17 2267.57 0 0 0
745 2 2218.47 3004.65 3153.83 0 0 -1
746 2 2206.13 2609.44 1883.9 0 0 0
747 2 2753.56 2911.25 3013.98 0 0 -1
748 2 2440.1 1911.62 2000.06 0 0 0
749 2 2241.89 2092.04 2735.24 0 0 0
750 2 1840.65 1972.64 2433.09 0 0 0
751 2 3208.48 2661.26 2588.74 0 0 -1
752 2 2982.67 1784.93 2656.03 0 1 0
753 2 1823.97 2303.5 2126.65 0 0 0
754 2 2734.31 2382.66 3145.82 -1 0 0
755 2 2340.47 2134.57 2940.55 0 0 0
756 2 2586.72 3001.66 2431.85 0 -1 0
757 2 2397.4 2217.01 2326.43 0 0 0
758 2 3075.26 3098.66 2701.94 -1 -1 0
759 2 2697.72 1784.68 2154.72 0 0 0
760 2 2481.54 2628.82 2963.97 0 0 -1
761 2 2095.82 3068.59 1866.71 0 -1 0
762 2 2127.15 2114.23 2221.91 0 0 0
763 2 1898.4 2112.99 1832.1 0 0 0
764 2 2390.51 2852.34 2141.8 0 -1 0
765 2 2047.2 2365.6 2348.07 0 0 0
766 2 3098.4 2082.12 1932.66 -1 0 0
767 2 2405.3 2004.05 2159.98 0 1 0
768 2 2020.38 1863.91 2349.63 0 0 0
769 2 1969.87 3201.54 2194.62 0 -1 0
770 2 1799.16 2328 2462.75 1 -1 0
771 2 1851.22 2769.94 2937.8 1 0 -1
772 2 2056.49 2178.34 2401.19 0 0 0
773 2 2924.05 1921.19 1795.55 -1 0 1
774 2 1953.52 3015.88 3210.14 0 -1 -1
775 2 3167.63 3209.67 2002.17 -1 -1 0
776 2 2830.62 2783.65 3119.44 -1 0 -1
777 2 3115.84 2612.62 1794.96 -1 0 0
778 2 2134.19 2228.3 2735.07 0 0 -1
779 2 2815.59 2086.99 1770.53 -1 0 0
780 2 2932.64 2546.71 1777.85 -1 0 0
781 2 3018.71 1787.31 1885.79 -1 0 0
782 2 2504.4 2199.62 2919.15 0 0 0
783 2 2015.69 3020.64 2898.75 0 -1 -1
784 2 1850.56 1898.47 2594.77 0 0 -1
785 2 2968.99 2997.42 2010.98 -1 -1 0
786 2 1929.36 2027.96 2006.87 1 0 0
787 2 2539.95 2758.6 2076.66 0 0 0
788 2 2409.39 2144.48 2772.46 0 0 0
789 2 1864.89 2193.71 3136.09 0 0 -1
790 2 3164.53 2025.18 2330.35 -1 0 0
791 2 3082.44 1782.05 2816.65 0 0 -1
792 2 2117.88 2490.35 3217.63 0 0 -1
793 2 2092.62 1891.63 3151.22 0 0 0
794 2 2982.11 1971.07 2598.9 -1 0 0
795 2 2068.08 2940.55 2714.73 0 0 0
796 2 1880.86 2499.72 3033.17 0 0 -1
797 2 2990.07 3219.74 2968.24 -1 -1 -1
798 2 2042.69 3134.43 2714.94 0 0 0
799 2 3039.9 2189.47 3015.26 -1 1 -1
800 2 3048.31 2912.17 2979.35 -1 0 -1
801 2 2296.29 2274.96 2815.88 0 0 0
802 2 1953.53 1826.32 2748.87 0 1 0
803 2 2534.15 3092.75 1917.4 0 -1 0
804 2 2498.91 2750.95 2263.52 0 -1 0
805 2 2264.06 1873.19 2353.38 0 0 0
806 2 3190.89 2791.98 2120.42 -1 -1 0
807 2 3075.85 3089.99 3080.22 -1 0 -1
808 2 2826.73 2348.5 2071.31 -1 0 0
809 2 3129.28 1940.78 2710.04 0 0 0
810 2 2464.75 1958.25 3201.22 0 0 -1
811 2 1883.09 1962.46 3011.26 1 0 0
812 2 2569.77 1912.32 3020.06 0 0 -1
813 2 2384.91 1917.51 2736.29 0 0 0
814 2 2022.82 2713.99 2150.47 0 0 0