ITEM: TIMESTEP
271000
ITEM: NUMBER OF ATOMS
1000
ITEM: BOX BOUNDS pp pp pp
1.7646062477418709e+03 3.2353937522575934e+03
1.7646062477418709e+03 3.2353937522575934e+03
1.7646062477418709e+03 3.2353937522575934e+03
ITEM: ATOMS id type x y z ix iy iz
1 1 2682.65 2471.66 1843.83 -1 0 1
2 1 2235.03 1783.94 2580.22 0 0 0
3 1 2994.64 2550.91 2280.44 0 0 0
4 1 2340.64 1985.65 2979.41 0 -1 0
5 1 3079.24 2811.5 2631.08 -1 -1 1
6 1 2141.61 2028.26 3077.52 0 0 0
7 1 1974.6 2840.17 2732.35 0 -1 0
8 1 2294.94 2019.3 2483.32 0 0 1
9 1 2819.43 2848.34 2480.93 0 0 0
10 1 2730.57 2506.27 2591.57 0 0 0
11 1 2629.96 2267.43 2568.17 0 0 0
12 1 1828.3 2946.44 3192.91 0 0 0
13 1 2910.54 3142.82 3113.36 -1 0 -1
14 1 2320.32 2640.92 2743.84 0 0 -1
15 1 2965.16 2321.78 2217.37 0 0 0
16 1 2301.1 3230.08 2470.81 0 0 -1
17 1 2458.22 2760.09 2769.97 1 0 -1
18 1 2887.99 2400.79 2467.27 -1 1 0
19 1 2746.72 2106.8 2033.09 -1 0 0
20 1 1852.1 2849.87 2807.92 0 -1 0
21 1 2184.99 2506.95 2546.27 0 1 0
22 1 2612.08 2819.61 2659.92 2 -1 0
23 1 2746.24 2278.7 2627.8 0 0 1
24 1 2807.41 3051.67 2287.51 0 0 0
25 1 2018.72 2129.88 2697.43 -1 0 0
26 1 2783.12 2848.49 2783 0 0 0
27 1 2886.95 2432.84 2717.01 -1 0 1
28 1 2200.53 2468.99 2431.32 0 0 0
29 1 2545.57 2349.37 2601.52 0 0 -1
30 1 2696.45 3092.61 2753.39 0 0 0
31 1 1840.7 1961.29 2767.17 0 0 0
32 1 1947.56 2904.46 2985 0 0 -1
33 1 2302.21 2428.75 2910.56 0 0 0
34 1 2467.52 1780.98 2754.54 0 0 0
35 1 2182.35 2295.23 2429.05 0 0 -1
36 1 1882.35 2718.67 1818.06 0 -1 0
37 1 2059.55 2071.86 2101.06 0 0 0
38 1 2312.85 2819.65 2294.05 0 0 0
39 1 2965.28 2427.49 2755.16 -2 0 -1
40 1 2902.03 2483.66 2168.17 -1 -1 2
41 1 2132.01 2788.5 2077.32 0 0 -1
42 1 2777.6 2633.45 2213.55 0 -1 0
43 1 2457.18 2556.3 2198.71 0 -2 0
44 1 2823.03 3072.45 2008.95 0 -1 0
45 1 2474.44 2380.94 2701.2 0 0 0
46 1 2772.42 3159.46 2850.24 -1 -1 0
47 1 3066.91 2976.86 2304.69 -1 -1 -1
48 1 2961.52 2218.92 2698.47 0 0 -1
49 1 2764.99 2537.14 2336.78 -1 0 1
50 1 2860.94 1983.24 3021.78 -1 0 0
51 1 3015.25 1833.81 2309.75 -1 -1 1
52 1 3221.8 2525.85 3137.38 -1 0 -1
53 1 2891.5 2132.89 3073.61 -2 0 -1
54 1 3015.73 2341.77 2824.45 0 0 -1
55 1 2849.65 2849.6 2810.11 -2 0 -1
56 1 2900.27 2271.83 1957.32 0 0 0
57 1 2145.82 2516.57 3139.75 0 0 -1
58 1 2477.21 2584.88 3134.03 0 0 -1
59 1 2596.51 3066.5 2689.77 -1 -1 0
60 1 2183.71 2933.67 1897.68 -1 -1 1
61 1 2063.68 2705.65 2467.7 -1 0 0
62 1 2560.65 1807.38 2911.19 0 0 -1
63 1 2952.35 2298.86 2920.27 -1 0 0
64 1 2754.32 2589.15 2969.65 0 -1 -1
65 1 2970.53 2870.87 2666.19 -1 -1 -1
66 1 3002.12 2782.38 2520.94 -1 0 1
67 1 2495.62 2451.81 1969.75 0 0 0
68 1 2334.63 2812.52 3036.62 0 -1 -1
69 1 1836.65 2556.17 2715.26 0 0 0
70 1 1973.26 1848.84 3071.35 0 1 -1
71 1 2131.39 2632.6 2526.84 -1 0 -1
72 1 2666.83 2192.01 3213.5 0 0 -1
73 1 2605.42 1883.05 1775.99 0 1 1
74 1 2929.94 2655.03 2247.27 -1 0 -1
75 1 2143.34 2482.6 1950.2 0 0 1
76 1 1910.87 1957.35 2862.89 -1 0 0
77 1 2576.3 2490.09 3049.17 -1 -1 -1
78 1 1936.27 3205.76 2031.1 0 -1 0
79 1 2187.65 2388.83 2518.33 0 -1 0
80 1 2956.15 2429.62 2469.03 -1 0 0
81 1 3215.8 2038.6 2044.68 -1 0 0
82 1 2068.4 2304.91 3089.89 1 0 0
83 1 2484.67 2164.49 2649.23 -1 -1 -1
84 1 2132.32 3210.48 3130.63 1 0 -1
85 1 2501 2425.47 2460.3 0 -1 0
86 1 3103.49 2412.57 2758.41 -1 0 0
87 1 1976.74 2128.84 2810.81 0 -1 -1
88 1 1849.38 2699.99 2157.8 0 -1 0
89 1 2768.37 2747.51 1994.91 0 0 0
90 1 3141.92 3014.6 2366.47 -2 -1 0
91 1 1926.23 3139.76 2841.64 0 -1 -1
92 1 2126.1 2732.9 2490.58 0 -1 -1
93 1 2293.31 3090.7 2672.93 1 0 0
94 1 2304.81 2239.13 3086.81 0 0 -1
95 1 1993.02 2449.01 2778.36 -1 -1 -1
96 1 2706.06 2469.93 2102.82 -1 0 0
97 1 2346.93 2432.16 2145.66 0 -1 1
98 1 2651.8 2196.96 2863.97 -1 -1 0
99 1 2471.54 2780.49 2885.57 0 -1 -1
100 1 2685.79 2122.13 1844.19 -1 0 0
101 1 1836.55 2815.1 2395.85 0 -1 0
102 1 2321.8 1799.58 2637.05 -1 0 0
103 1 2791.91 2507.62 2182.39 -1 0 0
104 1 3157.14 2656.59 2450.95 0 -1 -1
105 1 3111.27 2940.28 2709.13 -1 0 0
106 1 3151.66 2114.51 2761.93 0 1 -1
107 1 2706.07 2254.27 2457.71 -1 -2 0
108 1 3068.7 2988.52 1894.6 -1 0 -1
109 1 2309.08 2525.66 2430.08 -1 -1 0
110 1 2702.36 2693.12 1888.57 0 -1 0
111 1 3146.37 1764.96 3150.8 -1 0 -1
112 1 2620.05 1909.3 2879.95 0 0 0
113 1 2409.8 2681.05 2856.02 0 0 -1
114 1 2670.27 2433.57 2839.28 -1 0 0
115 1 2313.74 2634.5 2918.78 0 0 -1
116 1 2783.24 2440.81 2810.77 0 0 0
117 1 2389.79 3179.25 2693.45 0 -1 -1
118 1 2203.41 2729.96 2326.08 -1 0 -1
119 1 3104.64 2864.51 2297.58 0 -1 0
120 1 2713.05 2356.26 1984.55 1 0 0
121 1 2963.89 3044.05 2930.54 -1 0 0
122 1 2731.64 2956.9 2471.25 0 0 -1
123 1 1942.21 1917.15 3166.05 -1 1 -1
124 1 2574.84 2514.99 1848.86 0 0 1
125 1 1944.62 2944.98 2096.98 0 -2 0
126 1 2266.9 3231.73 2896.31 0 0 -1
127 1 2714.76 2318.28 2197.61 -1 -1 0
128 1 2171.16 2328.3 3233.13 -1 0 0
129 1 2477.07 2448.44 2417.93 -1 0 0
130 1 3140.61 2606.36 2121.91 0 -1 0
131 1 2828.68 3005.93 1791.66 -1 -1 0
132 1 2591.98 2739.83 2902.52 0 -1 -1
133 1 2539.46 2424.06 2789.1 0 0 -1
134 1 2073.53 3047.65 2488.01 -1 -1 -1
135 1 2250.26 3178.92 3132.19 0 -1 -1
136 1 2870.54 2202.59 2980.79 -1 0 0
137 1 3004.91 2043.68 2078.54 -1 0 0
138 1 2704.33 2563.32 2033.16 0 -1 0
139 1 2872.41 2570.72 2156.27 -1 -1 -1
140 1 2847.83 2894.75 2709.64 -1 -1 -1
141 1 2794.22 2740.67 2163.31 -1 1 0
142 1 2452.35 2307.09 2793.21 0 1 -1
143 1 2995.94 2877.82 2315.47 -1 0 0
144 1 1829.64 2890.97 2551.09 -1 -1 0
145 1 2352.23 2291.51 2188.86 0 0 0
146 1 3105.44 2560.47 2228.31 -1 -1 0
147 1 1928.6 2485.08 2674.55 0 0 -1
148 1 2700.43 2661.72 2388.49 -1 -1 1
149 1 2906.1 2771.61 2707.8 0 0 0
150 1 2442.49 2575.13 2547.71 0 0 0
151 1 2541.39 2924.22 2707.6 0 -2 -1
152 1 3122.35 2605.58 2845.93 -1 -1 0
153 1 2822.72 2732.63 2795.4 -1 -1 -1
154 1 3050.89 2651.96 2322.73 -1 0 -1
155 1 2872.02 2398.97 2536.43 0 0 0
156 1 2136 2509.67 3011.43 0 0 -2
157 1 3205.6 2880.93 2366.48 0 0 -1
158 1 2686.29 2696.02 2128.64 -1 -1 0
159 1 2932.47 2622.39 2631.63 0 -1 0
160 1 2832.05 2051.31 2774.57 -1 0 0
161 1 2658.26 2685.36 2006.48 0 0 -1
162 1 2745.82 2152.03 2528.53 0 -1 0
163 1 2410.16 2567.52 2800.12 0 0 -1
164 1 3038.45 2458.52 2032.68 0 -1 -1
165 1 2320.33 2225.67 3156.84 0 0 -1
166 1 1798.22 2674.95 2061.96 0 0 -1
167 1 2626.52 2671.21 2379.54 0 -1 0
168 1 1998.94 2237.04 2875.31 0 0 0
169 1 2244.78 3073.32 1962.13 0 -1 -1
170 1 2875.98 2854.97 2383.81 0 -1 0
171 1 2758.07 2195.38 2936.25 -1 -1 -1
172 1 2593.16 2861.42 2198.47 0 -1 -1
173 1 2748.61 2407.41 2519.38 -1 0 -1
174 1 2799.45 1964.47 3162.93 -2 0 -1
175 1 3000.95 2912.78 1810.22 -1 -1 -1
176 1 2194.06 2171.61 2886.94 0 0 0
177 1 2759.66 3114.46 1886.03 -1 0 0
178 1 3097.66 2241.78 2749.97 -1 0 0
179 1 2045.36 2241.07 2933.17 -1 0 0
180 1 3059.94 2825.74 2882.72 0 0 -1
181 1 1894.39 2626.96 2957.83 0 -1 1
182 1 2795.71 3147.09 2241.58 0 -1 0
183 1 1816.87 2913.85 2107.33 0 -1 0
184 1 2855.19 2281.08 2654.28 0 -1 1
185 1 1886.36 2331.62 2610.88 0 0 -1
186 1 2957.51 2365.65 1993.93 -1 0 -1
187 1 3212.31 2632.34 2763.48 0 0 -1
188 1 2566.99 1787.67 3190.84 0 1 -1
189 1 3184.47 2167.91 3120.67 -1 0 -1
190 1 2575.14 2637.39 2488.29 -1 0 0
191 1 2806.06 1876.12 3026.99 0 0 0
192 1 3074.77 3106.59 1932.7 -1 -1 0
193 1 3136.75 2743.64 2845.01 -2 -1 0
194 1 2830.86 2206.43 2057.56 0 -1 -1
195 1 2218.37 2585.5 2724.76 -1 0 0
196 1 2413.75 2513.29 3206.13 0 0 -1
197 1 2240.67 2333.52 1850.44 -1 1 1
198 1 2762.67 3061.96 3120.84 -1 -1 0
199 1 2364.36 3035.44 1806.87 0 0 1
200 1 2157.63 2040.97 2897.06 0 0 -1
201 1 3062.63 2243.65 2893.79 -1 0 0
202 1 2570.73 2396.88 3130.18 -1 -1 -1
203 1 2982.88 2974.03 3147.56 -1 -1 0
204 1 2456.44 2374.4 2903.86 0 -1 -2
205 1 2902.36 2604.4 2955 -1 -1 0
206 1 3092.3 1851.08 3076.95 -1 0 0
207 1 2433.19 2706.25 3115.41 -1 -1 -1
208 1 2441.28 2265.48 2678.23 0 0 -1
209 1 2678.91 2647.96 2894.36 -1 -1 0
210 1 2967.42 2535.64 1940.23 0 -1 0
211 1 2778.31 2855.4 1945.69 -1 -1 0
212 1 2389.51 1773.24 2388.58 0 0 -1
213 1 2942.61 2658.23 2501.35 0 1 -1
214 1 2424.61 2821.46 2475.07 0 -1 0
215 1 1765.37 2877.68 2005.37 0 0 -1
216 1 2638.29 2367.27 3052.37 -1 0 -1
217 1 2854.23 2222 2171.56 -1 0 1
218 1 2221.85 2593.12 2068.91 0 0 0
219 1 2977.91 2867.48 2446.6 0 -1 0
220 1 2235.87 2446.62 3043.66 -1 0 -1
221 1 2904.72 1893.91 2953.64 -1 0 -1
222 1 2799.13 2242.03 1768.2 0 -1 1
223 1 2469.81 2463.5 3097.64 0 -1 -2
224 1 1862.39 3104.31 2496.15 0 -1 0
225 1 2753.64 3180.99 2455.09 0 -1 0
226 1 2732.4 2542.44 2838.49 0 -1 0
227 1 3117.63 2417.32 2639.97 -1 -1 -1
228 1 1802.22 3033.86 1812.17 0 0 1
229 1 2820.55 2156.06 2276.88 -1 -1 0
230 1 1847.07 2440.1 2585.71 0 0 -1
231 1 2162.57 2695.79 2436.5 -1 -1 0
232 1 2176.01 3163.31 3229.82 0 -1 -1
233 1 3118.89 2716.93 2719.09 -1 0 1
234 1 2081.13 1959.7 2562.36 0 -1 -1
235 1 2688.54 2372.8 1867.95 -1 -1 0
236 1 2509.34 2546.18 2189.9 -1 0 0
237 1 2956.55 2524.6 2877.09 0 -1 0
238 1 2905.73 2771.51 2465.16 0 -1 0
239 1 2685.87 2570.51 2152.11 -1 -1 0
240 1 2217.89 2549.23 2552.84 1 0 -1
241 1 2667.97 3153.43 1989.94 0 -1 0
242 1 2614.24 2135.75 1943.2 0 -2 0
243 1 2009.75 3206.45 1916.21 0 -1 0
244 1 2893.8 2569.01 2728.52 0 -1 -1
245 1 3045.94 1824.99 2514.85 -1 0 0
246 1 2832.54 2008.89 2655.91 0 -1 0
247 1 2442.33 3188.62 2589.87 0 -1 0
248 1 3039.5 2756.67 2110.07 -1 -1 0
249 1 3042.14 2616.18 2950.35 0 0 0
250 1 3195.18 1921.62 3075.05 -1 0 -1
251 1 2956.12 2665.77 2082.71 0 -1 0
252 1 2856.9 1883.62 2650.62 -1 0 0
253 1 1913.54 2628.38 2103.57 1 0 0
254 1 3147.49 2302.69 2582.86 -1 0 -1
255 1 2782.71 2053.59 3093.46 -1 0 -1
256 1 2433.01 2425.56 2784.57 -1 0 0
257 1 2815.07 2959.47 2046.05 -1 -1 0
258 1 2561.62 2124.58 2827.2 0 0 -1
259 1 2608.62 2158.23 3121.28 -1 0 -1
260 1 2614.35 2533.98 2901.99 0 0 0
261 1 1823.46 2124.68 2335.04 0 0 0
262 1 3015.43 2522.62 2149.45 -1 0 -1
263 1 2572.67 2785.94 2774.05 -1 0 -1
264 1 2276.98 2407.76 1956.34 0 0 -1
265 1 3153.59 2056 2887.81 -1 0 -1
266 1 2936.82 1906.94 3078.23 -1 0 -1
267 1 1816.41 2332.98 2872.16 0 0 -1
268 1 2238.12 2499.29 2550.29 0 -1 0
269 1 2775.94 1824.1 2822.19 -1 0 0
270 1 2346.92 2191.61 3124.54 0 0 -1
271 1 2102.05 2789.82 2399.09 0 -1 -1
272 1 2562.72 2420.81 2915.03 -1 0 -1
273 1 2194.42 2395.94 2887.67 0 0 -1
274 1 2358.25 2550.22 2924.91 1 -1 0
275 1 2846.44 2458.45 1964 -1 0 1
276 1 2755.17 2639.04 1790.18 -1 -1 0
277 1 2595.42 2607.6 2082.23 0 0 1
278 1 1787.48 1852.14 2741.87 0 0 -1
279 1 2361.68 2698.1 2464.7 0 -1 0
280 1 2457.15 2470.97 2978.66 -1 0 -1
281 1 2024.62 2822.43 2648.08 0 -1 0
282 1 2073.61 2345.07 2858.89 0 -1 0
283 1 2346.58 3118.52 3179.51 0 -1 -1
284 1 2194.99 2314.67 3082.39 0 0 -1
285 1 3223.34 2687.25 2881.55 -1 0 -1
286 1 2844.5 2134.9 2853.55 -1 1 0
287 1 2752.26 2072.36 1916.85 0 0 0
288 1 2356.94 2362.3 2696.9 1 0 0
289 1 2178.61 2677.38 2662.49 0 -1 0
290 1 2932.05 2485.58 2366.13 -1 -1 0
291 1 2293.7 2668.58 2445.81 -1 -1 0
292 1 3103.54 2285.89 2719.45 -1 0 -1
293 1 2613.1 2549.62 2547.43 0 0 1
294 1 2544.37 2628.04 2633.09 0 -1 -1
295 1 2016.79 3136.7 2539.15 0 -1 0
296 1 3091.23 2485.76 2860.66 0 0 0
297 1 2831.17 2339.09 2554.61 -1 0 0
298 1 2413.02 2424.37 2599.32 0 0 0
299 1 1883.4 2204.07 2541.47 1 0 0
300 1 2113.08 2439.18 3104.63 0 0 0
301 1 2386.75 2485.04 2544.46 -1 0 -1
302 1 3127.67 2033.11 1822.72 -1 0 0
303 1 2921.87 3158.97 1972.09 0 -1 0
304 1 2321.01 2743.65 3062.64 1 -1 -1
305 1 2418.73 1933.75 3070.36 0 0 -1
306 1 1857.03 3135.28 1805.58 0 -1 0
307 1 3008.3 2429.18 2083.42 -1 0 -1
308 1 1849.63 1894.65 1787.02 0 0 0
309 1 2634.26 2896.92 2346.26 0 0 -1
310 1 1926.35 2047.92 2716.37 0 0 -1
311 1 2199.02 2779.23 1813.36 0 -1 -1
312 1 2792.24 2358.12 2612.95 0 -1 1
313 1 2175.45 2108.72 2988.63 0 -1 -1
314 1 1931.72 2357.72 2821.77 1 0 0
315 1 2001.11 1937.32 2651.33 0 0 0
316 1 2841.63 2861.11 1838.03 -1 0 0
317 1 2233.03 2805.81 2593.98 1 0 -1
318 1 3198.46 3018.56 2770.67 0 -1 -1
319 1 2879.71 2212.15 1835.49 -1 0 0
320 1 2444 2654.52 2680.09 0 -1 0
321 1 2623.08 2284.33 3132.78 -1 0 0
322 1 2341.18 2469.71 1879.52 0 -1 0
323 1 2071.57 2130.65 2893.32 0 0 -1
324 1 3185.17 2358.07 1818.1 0 0 0
325 1 2146.35 3092.6 2843.91 0 0 0
326 1 2681.35 2754.59 2833.04 0 0 -1
327 1 2584.47 2973.37 2599.83 0 -1 0
328 1 2172.94 2258.58 2546.52 0 0 0
329 1 2151.86 2724.07 2074.61 0 0 0
330 1 2658.56 2518.35 2753.48 0 0 0
331 1 2476.24 2568.53 2084.99 -1 0 0
332 1 2276.55 2798.73 2991.43 0 -1 -1
333 1 2839.2 2508.89 2909.91 0 0 0
334 1 2861.96 3234.2 3098.87 -2 -1 0
335 1 2530.93 2856.83 2417.77 0 0 0
336 1 2464.22 2391.72 3208.56 0 -1 -1
337 1 1850.38 2432.29 2230.1 0 0 0
338 1 2675.94 2695.1 3168.37 0 -1 -1
339 1 2826.7 2667.65 3028.07 0 -1 0
340 1 2474.24 2460.32 2588.18 0 -1 0
341 1 2683.34 3126.72 3041.44 0 -1 -2
342 1 2766.62 2817.3 2901.21 0 -1 0
343 1 2732.17 2105.2 2841.57 1 -1 0
344 1 2900.93 2948.7 2937.91 0 -1 -1
345 1 2541.26 2300.05 1766.76 0 0 0
346 1 2650.65 2430.3 1897.49 0 -1 0
347 1 2487.89 2472.99 2765.74 -1 0 -1
348 1 2216.49 2471.58 2591.24 -1 -1 -1
349 1 2774.97 2622.23 2595.15 -1 0 0
350 1 2271.66 2305.41 2087.12 0 1 0
351 1 2079.59 1788.26 3034.84 0 0 -1
352 1 2371.71 2295.6 2979.64 0 1 0
353 1 2960.51 2606 2382.34 0 -1 0
354 1 2213.57 2602.49 2349.2 0 0 0
355 1 2377.57 2741.67 2956.31 0 -1 -1
356 1 2269.28 3026.5 1855.34 0 -1 0
357 1 2178.03 2855.54 2798.94 0 -1 -1
358 1 2953.05 3224.91 2246.86 -1 -1 0
359 1 2618.02 2320.26 2863.17 0 0 0
360 1 2232.54 1802.72 3194.25 0 1 -1
361 1 3153.03 2579.15 2352.62 -1 0 0
362 1 2762.21 2620.27 2777.31 0 -1 0
363 1 2513.55 2390.34 3019.62 0 0 -1
364 1 2790.18 2688.85 2914.21 -1 0 0
365 1 2185.26 3072.26 2732.54 0 -1 0
366 1 2053.65 2585.67 1889.1 0 0 0
367 1 2277.66 2568.8 2827.07 0 -1 -1
368 1 2625.43 1965.74 2578.94 -1 0 0
369 1 3004.11 2708.82 2663.21 0 0 -1
370 1 3065.87 2759.9 2220.75 -2 0 0
371 1 3132.01 2239.42 2034.12 -1 0 0
372 1 2911.13 2921.95 3193.26 -1 -1 -1
373 1 2814.15 2608.14 2785.11 0 1 0
374 1 2524.18 1981.17 2552.26 0 0 0
375 1 2999.54 1813.73 2377.17 0 0 -1
376 1 2685.17 2635.31 2503.72 0 1 0
377 1 3056.51 2491.37 2358.15 0 0 0
378 1 2342.61 2019.23 2865.81 0 1 -1
379 1 2869.48 2547.09 2264.5 -1 -1 0
380 1 2605.16 2197.61 2056.88 -1 0 0
381 1 2265.63 2534.56 2971.48 0 0 -1
382 1 3084.96 2832.9 2753.08 -1 -1 0
383 1 2704.96 2336.64 2363.89 -1 0 0
384 1 2801.45 2757.83 2391.91 0 -1 0
385 1 2949.95 2711.36 2349.49 0 0 0
386 1 2804.62 2929.2 2588.39 -1 0 0
387 1 2954.66 2356.26 2733.31 -1 0 -1
388 1 1771.4 2736.38 2828.03 0 0 -1
389 1 2448.17 2514.12 1874.57 0 0 0
390 1 1806.76 2638.21 1773.5 0 -1 0
391 1 2422.49 2011 1883.59 0 0 0
392 1 1979.23 2550.01 2940.09 -1 -1 -1
393 1 2581.51 2432.68 2677.12 0 0 1
394 1 2006.41 2188.72 3067.53 1 0 -1
395 1 2462.78 2458.29 2104.51 0 -1 -1
396 1 1827.7 2774.1 2574.91 1 0 0
397 1 2751.44 2781.09 1812.46 -1 0 0
398 1 2246.08 2440.92 2801.43 0 -1 0
399 1 2123.53 1875.01 2772.67 0 0 0
400 1 2226.59 2362.05 2702.08 -1 0 -1
401 1 2508.77 2477.7 2449.99 0 0 -1
402 1 2250.51 2552.6 3218.1 0 0 -2
403 1 1857.88 2134.09 2989.37 0 0 -1
404 1 2588.55 2650.85 2205.16 0 0 0
405 1 2654.33 2988.96 2772.93 -1 0 0
406 1 2156.29 2832.19 2313.02 0 -1 0
407 1 1961.07 2876.39 2866.14 -1 -1 0
408 1 3183.67 2418.08 2861.49 0 0 -1
409 1 3048.07 2649.8 2557.85 0 -1 -1
410 1 2580.51 2278.39 2443.11 0 0 -1
411 1 2170.32 2106.37 2060.91 0 0 0
412 1 2413.55 2965.21 2793.36 0 0 0
413 1 1848.04 2648.01 2826.52 0 0 -1
414 1 2079.56 2801.76 2781.6 0 -1 -1
415 1 2104.88 2398.01 2748.3 0 0 -1
416 1 2621.86 2650.58 1817.94 0 0 0
417 1 1905.75 2149.8 2429.08 -1 0 -1
418 1 3173.11 2940.84 2090.79 -1 0 1
419 1 2236.37 2585.82 2493.81 0 0 0
420 1 3062.1 2801.72 2369.37 -2 -1 -1
421 1 2816.42 2499.18 1872.49 -1 0 0
422 1 1864.84 2942.17 1994.73 0 -1 0
423 1 2986.32 2698.28 1803.8 0 -1 0
424 1 2070.16 2801.06 3093.55 0 -1 -1
425 1 2392.02 2810.1 3152.8 0 0 -1
426 1 2791.63 2576.94 2747.76 -1 0 -1
427 1 3066.99 2331.37 2254.26 -1 -1 0
428 1 2350.66 2904.32 2555.03 0 -1 -1
429 1 2855.74 2741.9 2270.72 -1 0 0
430 1 2111.82 1963.7 2281.25 0 -1 0
431 1 2602.48 2406.05 1791.95 0 0 0
432 1 2035.36 2803.42 2299.13 0 -1 0
433 1 2244.53 2660.15 2498.88 -1 -1 -1
434 1 3030.45 2683.89 2438.05 -1 0 0
435 1 2809.21 2105.85 2973.34 -1 0 0
436 1 2863.26 2687.21 1804.38 -1 0 0
437 1 2712.53 2257.12 2064.29 0 1 0
438 1 3204.01 2503.13 2643.31 -1 -1 -1
439 1 2797.44 2383.46 1939.01 0 0 0
440 1 2967.73 2046.52 3015.03 -1 0 -1
441 1 2721.7 1958.8 3052.96 -1 0 -1
442 1 1942.28 2562.72 2755.99 0 0 0
443 1 2992.19 2520.88 2993.37 0 -1 0
444 1 2784.41 2639.38 2082.66 -2 0 0
445 1 2440.04 2921.57 2536.99 0 -1 0
446 1 2901.98 2014.25 3135.68 -1 0 -1
447 1 2626.55 2686.76 2599.68 0 0 0
448 1 2083.5 2687.86 2306.3 -1 -1 0
449 1 2283.28 2461.6 1902.53 -1 0 0
450 1 2035.96 2438.17 3031.9 0 0 -1
451 1 2064.73 2712.71 2704.22 0 -1 -1
452 1 2190.07 2233.6 3000.3 0 0 0
453 1 3030.03 3018.03 2405.55 -1 0 0
454 1 2033.88 2247.83 2271.9 0 0 -1
455 1 2717.2 2606.78 3073.46 -1 0 -1
456 1 2880.91 1844.81 1814.29 0 1 0
457 1 2496.51 2731.56 2435.66 0 -1 -1
458 1 1988.17 2192.12 2931.44 0 1 -1
459 1 2112.96 2453.97 2232.73 0 -1 -1
460 1 3061.22 2485.66 2555.17 -1 -1 0
461 1 2796.51 2703.18 2501.91 0 -1 0
462 1 2919.08 2737.84 2579.79 -1 0 -1
463 1 3147.52 2107.31 2902.8 -1 0 -1
464 1 2661.6 2610.02 2642.65 0 0 0
465 1 1798.76 2702.58 2455.61 1 0 -2
466 1 2746.04 2927 2683.78 -1 -1 0
467 1 2671.35 2580.54 1902.9 0 1 0
468 1 3079.18 2779.64 1846.72 0 -1 1
469 1 2848.28 2522.2 2633.22 0 -1 -1
470 1 2843.08 2954.48 1919.89 -1 -1 -1
471 1 2847.87 2642.57 2345.1 0 0 0
472 1 2723.44 2899.13 1842.41 0 -1 0
473 1 1784.8 2406.87 2971.46 1 -1 0
474 1 2907.24 2368.12 2814.89 -2 -1 -1
475 1 2808.28 2517.47 2064.62 0 -1 0
476 1 2843.89 3202.15 2118.58 -1 -1 0
477 1 3070.32 2357.26 2034.24 0 -1 -1
478 1 2603.76 2490.27 2032.75 -1 -1 0
479 1 2603.25 1833.9 2317.14 0 0 -1
480 1 3120.16 2272.77 2464.3 -1 0 0
481 1 2872.8 1862.68 3224.84 0 1 0
482 1 2640.33 2021.63 2833.53 0 -1 -1
483 1 2927.17 2252.95 2793.7 -1 1 0
484 1 2746.22 2878.62 2362.51 -1 -1 0
485 1 2332.41 3029.4 2580.42 -1 -1 -1
486 1 3192.46 2884.99 1879.54 -1 -1 0
487 1 2701.08 2413.53 2720.96 -1 0 -1
488 1 2173.61 1865.66 2502.19 0 0 0
489 1 3036.49 2647.7 2163.58 -1 0 0
490 1 2922.22 2419.13 2947.91 -1 0 -1
491 1 2632.13 2713.91 2700.35 0 0 -1
492 1 2786.78 2533.74 3217.01 0 -1 0
493 1 2705.14 2462.24 2410.71 -1 0 0
494 1 2346.25 2409.84 3025.57 1 -1 0
495 1 2946.05 2774.65 2191.9 0 -1 0
496 1 2833.96 2610.69 2734.99 1 0 0
497 1 2612.16 3183.59 2625.58 -1 -1 0
498 1 2681.02 2910.75 2575.95 0 -1 0
499 1 2339.33 2523.11 1872.13 -1 0 -1
500 1 2687.63 2988.44 2339.17 0 -1 -1
501 1 2478.74 2704.02 2555.75 -1 0 -1
502 1 1873.59 2919.59 2890.4 -1 0 0
503 1 2489.4 2490.33 2840.02 0 0 0
504 1 2306.94 2590.66 2509.66 0 0 0
505 1 2094.1 2501.51 3139.82 -1 0 -1
506 1 1807.65 2171.27 2229.65 -1 0 0
507 1 3099.83 2088.6 2919.98 -1 0 -1
508 1 1970.57 1884.93 1993.73 0 0 -1
509 1 1979.26 1920.01 2515.11 0 0 0
510 1 2665.91 2364.05 2606.54 -1 -1 -1
511 1 3188.83 2969.64 2469.61 0 0 -1
512 1 1911.98 2988.39 3083.72 0 -1 -1
513 1 2949.41 2504.88 2058.94 0 -1 0
514 1 2752.75 2252.36 2294.04 -2 0 1
515 1 2513.03 2189.53 2426.79 -1 0 -1
516 1 2521.69 3174.69 2675.54 -1 -1 0
517 1 2920.92 2904.56 3087 0 -1 -1
518 1 2161.76 2815.33 2692.12 0 0 -1
519 1 2636.61 2581.78 2408.79 0 0 0
520 1 2954.86 2783.77 1834.91 -1 0 0
521 1 2507.94 2403.85 1851.64 -1 0 1
522 1 2477.45 2606.19 2199.36 -1 0 0
523 1 2937.64 2881.12 1916.06 0 0 0
524 1 2616.56 2427.62 2498.3 -1 -1 0
525 1 2970.09 2178.58 2900.22 0 0 -1
526 1 2121.19 2373.81 2626.11 0 0 0
527 1 1765 2230.94 2826.98 0 -1 -1
528 1 3049.74 2436.58 2250.84 0 1 0
529 1 2498.64 2592.11 1789.55 -1 -1 0
530 1 2026.08 2688.62 2585.11 0 0 0
531 1 2185.3 3190.37 1968.01 0 -1 0
532 1 3041.02 2585.88 2051.27 -1 0 0
533 1 2950.18 1835.59 2333.65 -1 0 -1
534 1 2363.41 1767.12 2806.33 0 0 -1
535 1 2650.65 3151.61 2488.14 -1 -2 0
536 1 2295.25 2547.31 2155.27 -1 0 0
537 1 2684.94 2915.18 2238.32 -1 -1 0
538 1 2053.35 2090.26 3001.09 0 0 -1
539 1 2981.21 2440.52 2648.96 -2 0 -1
540 1 2735.85 3047.36 2444.82 0 0 0
541 1 2490.36 2876.23 2812.1 0 0 -1
542 1 2381.71 2717.5 2418.56 0 -1 0
543 1 2320.17 2664.17 2613.47 0 0 -1
544 1 2920.79 2010.28 2906.24 -1 1 -1
545 1 2269.21 2781.07 2699.76 -1 0 -1
546 1 3084.06 1943.56 1901.56 -1 0 0
547 1 2486.85 2348.44 2402.06 0 -1 0
548 1 1970.74 2049.02 2911.69 0 0 0
549 1 2673.07 2494.72 3073.58 0 0 0
550 1 2167.91 2241.32 1840.43 0 0 0
551 1 2371.16 2667.69 1914.23 0 -1 0
552 1 2642.99 3164.93 3165.32 0 -1 -1
553 1 2830.65 2628.09 3168.05 -1 0 -1
554 1 2295.51 2416.13 2604.14 0 0 0
555 1 2125.47 2356.48 3000.75 0 0 0
556 1 2540.93 2879.54 2528.64 0 0 -1
557 1 2660.19 2613.83 2296.51 -1 0 0
558 1 2535.84 3126.36 2548.84 -1 0 -1
559 1 2533.3 2992.29 2813.69 -1 0 0
560 1 1999.44 2747.59 1767.41 0 0 0
561 1 3094.6 2391.67 2478.64 -1 -1 -1
562 1 2087.92 3105.86 3177.92 0 0 -1
563 1 3180.37 2505.55 2793.02 -1 0 0
564 1 2566.19 2684.73 3111.09 0 1 -1
565 1 3131.76 2623.55 3108.22 0 0 -1
566 1 3145.64 2253.35 2728.26 -1 0 1
567 1 2535.72 1891.48 2782.62 0 0 0
568 1 2925.02 2858.1 2536.9 -1 -1 -1
569 1 2669.68 2258.4 2960.27 0 0 0
570 1 1907.46 2854.28 2627.29 0 -1 0
571 1 2855.14 2768.08 1902.83 -1 -1 0
572 1 2541.85 2714.35 2674.3 -1 -1 0
573 1 2258.86 2339.31 2985.84 1 0 -1
574 1 2879.6 3025.58 3161.76 -1 0 0
575 1 1989.08 2423.23 2896.25 0 0 0
576 1 3126.09 2283.68 2768.4 0 -1 -1
577 1 3061.76 2577.06 2455.02 -1 -1 -1
578 1 1795.69 2602.45 2386.8 1 0 1
579 1 2843.57 3141.41 2540.97 0 0 -1
580 1 2397.38 2664.48 2442.2 0 1 1
581 1 1955.13 2297.92 2459.8 -1 0 0
582 1 2944.64 2993.58 2322.36 0 -1 0
583 1 2530.29 2440.6 2417.49 0 0 0
584 1 3091.76 2909.87 2387.08 0 0 1
585 1 2939.93 3021.14 3045.57 -1 -1 -1
586 1 2888.93 2204.4 3187.34 -1 -1 -2
587 1 1782.04 2230.44 2611.68 1 0 -1
588 1 2051.69 2411.08 2034.15 0 0 0
589 1 2790.75 2948.36 3185.17 1 -1 0
590 1 3118.26 2691.42 2039.2 -1 -1 1
591 1 2219.28 1981.41 2989.24 -1 -1 -1
592 1 2006.4 2342.83 2719.43 0 0 0
593 1 1876.81 2234.92 2890.69 0 0 0
594 1 2169.71 2975.6 2855.68 -1 1 0
595 1 2845.56 1787.27 2896.22 -1 0 -1
596 1 2778.04 2453.61 1955.54 1 0 0
597 1 2654.25 2579.02 3047.48 0 0 0
598 1 2869.91 3070.47 1902.76 0 -1 0
599 1 2315.53 3164.03 2581.18 -1 -1 0
600 1 2865.92 2164.58 2738.63 -1 0 -1
601 2 3217.09 2369.09 1956.95 -1 0 0
602 2 1968.99 2041.76 2295.6 1 0 0
603 2 2928.72 3072.58 2179.99 -1 0 1
604 2 2993.28 2955.24 2797.26 0 -1 0
605 2 1828.64 1801.85 3113.91 0 0 0
606 2 1795.25 2558.57 2224.39 1 0 0
607 2 2167.97 2592.84 2177.52 0 0 0
608 2 2725.56 3041.18 2568.88 0 -1 0
609 2 2863.67 2220.39 2393.7 0 0 0
610 2 2616.7 2883.35 2899.36 0 0 0
611 2 1877.37 2868.26 1848.65 0 0 1
612 2 2479.45 3182.32 2262.43 0 -1 0
613 2 2070.5 2553.88 2652.18 0 0 -1
614 2 2586.53 2101.67 2525.32 0 0 0
615 2 1813.27 2670.43 3071.19 0 0 0
616 2 3162.83 3145.21 1807.39 0 0 0
617 2 1877.41 2837.15 2231.24 0 -1 0
618 2 2470.64 3137.4 2867.68 0 0 0
619 2 2718.01 2114.85 2666.32 0 1 0
620 2 3189.55 3132.15 2461.9 -1 0 0
621 2 1769.13 3151.47 2779.84 0 0 -1
622 2 2305.64 3179.48 1844.71 0 0 0
623 2 2319.85 2549.55 3047.47 0 0 -1
624 2 1776.3 2370.15 2709.23 0 0 -1
625 2 2650.85 2007.02 3167.72 0 0 0
626 2 1891.75 3008.82 2752.3 1 0 -1
627 2 2066.81 1794.66 2600.1 0 1 0
628 2 3062.5 2559.99 2685.51 -1 0 0
629 2 2287.92 2057.66 2301.38 0 0 0
630 2 2526.23 1868.43 2155 0 1 0
631 2 3054.08 1927.38 2931.76 0 1 0
632 2 2197.28 2959.12 2049.74 0 -1 0
633 2 1870.8 2964.93 2394.25 0 -1 0
634 2 2970.3 2675.52 2807.48 -1 0 0
635 2 1848.63 1858.51 2275.87 0 0 0
636 2 2760.48 1949.67 2881.17 -1 0 0
637 2 1889.98 2214.41 2708.89 1 0 -1
638 2 1829.6 2016.45 2168.37 0 0 0
639 2 3028.5 2823 3137.49 0 0 0
640 2 2630.84 3218.83 2761.43 0 0 0
641 2 2356.38 2050.81 2615.44 0 0 0
642 2 2534.41 2940.02 2045.22 0 -1 0
643 2 1853.08 1784.74 2443.63 0 0 0
644 2 3186.74 2544.44 1961.58 -1 0 1
645 2 2551.28 3008.29 2248.66 0 -1 0
646 2 2248.89 2950.38 2236.99 0 -1 0
647 2 2184.33 2147.2 3132.5 0 0 0
648 2 2537.24 2629.14 2781.84 0 0 0
649 2 3007.02 2126.41 1783.73 -1 0 0
650 2 3016.24 2322.95 2331.22 0 0 0
651 2 3121.04 2112.65 2135.54 -1 0 0
652 2 1848.97 1841.92 2085.15 0 0 0
653 2 2849.27 2498.37 3056.18 0 0 -1
654 2 2500.04 3110.66 3203.56 0 -1 -1
655 2 2538.29 2017.17 2685.04 0 0 0
656 2 2705.86 1921.29 2700.26 0 0 0
657 2 2986.65 2060.82 2751.53 -1 0 -1
658 2 2586.4 2246.61 2704.21 -1 0 -1
659 2 1787.84 2069.06 2641.2 1 0 0
660 2 2414.61 2316.51 2010.45 0 0 0
661 2 2604.19 1813.09 1992.8 0 0 0
662 2 1986.92 1936.86 1830.39 0 0 0
663 2 1964.19 2830.81 2475.81 0 -1 0
664 2 2579.72 2995.19 3063.49 0 0 -1
665 2 2456.83 2391.95 2231.22 0 0 0
666 2 2561.99 3124.36 2103.47 0 -1 0
667 2 2786.4 1780.92 1963.7 0 0 0
668 2 1976.62 2350.67 2164.04 0 0 0
669 2 3071.22 2365.02 2970.96 -1 0 0
670 2 2195.98 1888.9 2827.29 0 0 -1
671 2 2753.92 1907.01 1823.19 0 0 1
672 2 1977.56 2545.29 2218.87 0 0 0
673 2 2314.6 2339.69 2417.98 0 0 0
674 2 3163.75 1783.88 2180.66 -1 0 0
675 2 2906.17 2784.45 2970.77 -1 0 0
676 2 2573.67 1977.74 1883.54 0 0 0
677 2 2074.15 2909.55 2170.45 0 -1 0
678 2 3074.44 2855.9 1979.63 -1 -1 0
679 2 2060.32 2952.87 3074.68 0 0 0
680 2 3008.26 1988.4 2208.29 -1 0 0
681 2 2302 3056.56 2835 0 0 0
682 2 2828.29 2373.43 2275.98 0 0 0
683 2 2413.71 2864.04 2601.83 0 -1 0
684 2 1935.22 3025.67 2231.53 0 -1 0
685 2 1966.91 3112.56 3057.13 0 0 -1
686 2 1962.19 2449.81 1888.85 0 0 0
687 2 2517.52 2822.93 3035.93 -1 -1 0
688 2 2887.29 2989.14 2465.11 -1 -1 0
689 2 2158.13 3106.14 2999.05 0 -1 0
690 2 3136.41 2976.82 3202.81 0 1 -1
691 2 2580.95 2334.94 2106.48 -1 0 0
692 2 2090.44 1771.18 2865.67 0 0 -1
693 2 3074 3139.49 2299.86 -1 -1 0
694 2 1897.05 2702.09 2672.64 0 0 0
695 2 2681.56 2141.74 2173.86 0 0 0
696 2 2397.12 1813.09 2942.95 0 1 0
697 2 1961 2064.59 2551.78 0 0 0
698 2 1989.77 2431.37 2515.55 1 0 0
699 2 2472.92 1795.36 1846.47 0 0 0
700 2 1788.06 2472.81 1817.69 0 0 0
701 2 3230.83 2825.77 2656.46 0 -1 -1
702 2 1894.28 2469.5 2374.01 0 0 0
703 2 2038.51 3065.01 2080.94 0 0 0
704 2 2227.58 3013.27 2410.97 0 -1 0
705 2 2069.9 1972.91 2779.77 0 0 -1
706 2 1959.59 2571.45 3224.03 0 0 0
707 2 1952.83 2996.59 2571.16 0 -1 0
708 2 1901.34 2594.87 2509.91 1 0 0
709 2 1895.84 1782.32 2937.18 0 0 0
710 2 2699.66 1830.59 3136.96 0 0 -1
711 2 2029.18 2922.16 1955.34 0 -1 0
712 2 2179.54 2659.69 3004.63 0 0 -1
713 2 2354.13 2482.32 2613.51 0 0 -1
714 2 2845.15 2002.3 2309.06 -1 0 0
715 2 2560.17 2278.15 1916.27 0 0 0
716 2 2317.48 2877.25 1800.26 0 0 0
717 2 2994.15 1778.65 3167.36 -1 0 -1
718 2 2645.72 2438.17 2241.79 -1 0 0
719 2 2002.38 1920.94 2151.2 0 0 0
720 2 1781.75 2018.18 3174.59 0 0 -1
721 2 3158.5 2444.31 2117.21 0 0 0
722 2 3217.88 2970.08 2219.03 -1 -1 0
723 2 2666.51 3033.72 3234.99 0 0 -1
724 2 2992.81 3129.32 2509.12 0 -1 0
725 2 2210.8 3209.68 2722.26 0 -1 -1
726 2 2267.82 2214.7 1946.09 0 0 0
727 2 3088.44 2442.1 1840.06 -1 0 0
728 2 2288.75 2169.19 2455.81 0 0 0
729 2 2885.5 1822.83 2490.05 -1 0 0
730 2 2898.33 2820.88 2040.63 -1 -1 0
731 2 2312.55 2693.38 3215.69 0 0 0
732 2 3151.41 1857.63 3229.58 -1 0 -1
733 2 2252.99 1840.67 2003.74 0 1 0
734 2 1888.49 2266.96 2300.17 0 0 0
735 2 2385.32 1885.79 2499.83 0 0 0
736 2 2232.06 3150.7 2105.3 0 -1 0
737 2 2194.53 2772.2 2128.53 -1 0 0
738 2 3122.5 2756.76 2989.95 0 0 0
739 2 2257.26 2952.72 2984.85 0 0 0
740 2 2853.59 1884.49 2169.37 0 0 0
741 2 2637.71 2082.34 2960.17 -1 1 0
742 2 2514.44 2139.68 1772.58 0 0 0
743 2 3213.18 2126.94 2465.07 -1 0 0
744 2 2583.5 2260.67 2267.08 0 0 0
745 2 2217.87 3005.72 3155.22 0 0 -1
746 2 2205.51 2609.67 1882.59 0 0 0
747 2 2754.1 2912.13 3015.08 0 0 -1
748 2 2439.97 1910.37 1999 0 0 0
749 2 2241.34 2091.17 2735.74 0 0 0
750 2 1839.25 1971.52 2432.95 0 0 0
751 2 3209.99 2661.6 2588.93 0 0 -1
752 2 2983.7 1783.41 2656.36 0 1 0
753 2 1822.53 2303.08 2125.86 0 0 0
754 2 2734.81 2382.41 3147.19 -1 0 0
755 2 2340.13 2133.79 2941.49 0 0 0
756 2 2586.9 3002.73 2431.7 0 -1 0
757 2 2397.18 2216.41 2326.06 0 0 0
758 2 3076.48 3099.94 2702.37 -1 -1 0
759 2 2698.14 1783.16 2153.98 0 0 0
760 2 2481.5 2629.1 2964.96 0 0 -1
761 2 2094.96 3069.8 1865.36 0 -1 0
762 2 2126.35 2113.41 2221.32 0 0 0
763 2 1897.12 2112.16 1830.68 0 0 0
764 2 2390.28 2853.09 2141.04 0 -1 0
765 2 2046.24 2365.32 2347.75 0 0 0
766 2 3099.67 2081.23 1931.45 -1 0 0
767 2 2405.1 2002.99 2159.26 0 1 0
768 2 2019.36 1862.55 2349.31 0 0 0
769 2 1968.74 3203.03 2193.97 0 -1 0
770 2 1797.66 2327.63 2462.67 1 -1 0
771 2 1849.84 2770.52 2938.74 1 0 -1
772 2 2055.55 2177.66 2400.98 0 0 0
773 2 2924.83 1919.8 1794.03 -1 0 1
774 2 1952.36 3016.98 3211.65 0 -1 -1
775 2 3169.05 3211.18 2001.11 -1 -1 0
776 2 2831.32 2784.26 3120.76 -1 0 -1
777 2 3117.15 2612.86 1793.46 -1 0 0
778 2 2133.41 2227.72 2735.57 0 0 -1
779 2 2816.26 2086.11 1768.98 -1 0 0
780 2 2933.56 2546.81 1776.32 -1 0 0
781 2 3019.81 1785.8 1884.48 -1 0 0
782 2 2504.41 2198.98 2920.04 0 0 0
783 2 2014.66 3021.74 2899.6 0 -1 -1
784 2 1849.17 1897.19 2594.97 0 0 -1
785 2 2969.99 2998.47 2009.94 -1 -1 0
786 2 1928.15 2026.95 2005.82 1 0 0
787 2 2540.03 2759.15 2075.76 0 0 0
788 2 2409.2 2143.72 2773.04 0 0 0
789 2 1863.54 2193.06 3137.45 0 0 -1
790 2 3165.94 2024.17 2329.99 -1 0 0
791 2 3083.68 1780.52 2817.33 0 0 -1
792 2 2117.07 2490.37 3218.95 0 0 -1
793 2 2091.76 1890.33 3152.6 0 0 0
794 2 2983.14 1969.95 2599.11 -1 0 0
795 2 2067.16 2941.48 2715.19 0 0 0
796 2 1879.54 2499.71 3034.3 0 0 -1
797 2 2991.11 3221.27 2969.24 -1 -1 -1
798 2 2041.72 3135.78 2715.4 0 0 0
799 2 3041.05 2188.81 3016.36 -1 1 -1
800 2 3049.47 2913.05 2980.37 -1 0 -1
801 2 2295.86 2274.48 2816.55 0 0 0
802 2 1952.36 1824.89 2749.4 0 1 0
803 2 2534.22 3094.01 1916.16 0 -1 0
804 2 2498.91 2751.48 2263.02 0 -1 0
805 2 2263.56 1871.86 2353.07 0 0 0
806 2 3192.36 2792.6 2119.62 -1 -1 0
807 2 3077.08 3091.24 3081.46 -1 0 -1
808 2 2827.43 2348.18 2070.4 -1 0 0
809 2 3130.62 1939.59 2710.49 0 0 0
810 2 2464.67 1957.1 3202.72 0 0 -1
811 2 1881.78 1961.32 3012.34 1 0 0
812 2 2569.91 1911.07 3021.17 0 0 -1
813 2 2384.66 1916.27 2736.8 0 0 0
814 2 2021.8 2714.45 2149.72 0 0 0