ITEM: TIMESTEP
857000
ITEM: NUMBER OF ATOMS
1000
ITEM: BOX BOUNDS pp pp pp
-2.1857824531601159e+02 3.2185782453160073e+03
-2.1857824531601159e+02 3.2185782453160073e+03
-2.1857824531601159e+02 3.2185782453160073e+03
ITEM: ATOMS id type x y z ix iy iz
1 1 2491.46 1042.11 2518.85 0 0 -1
2 1 1581.72 1051.42 1979.75 0 0 0
3 1 1729.69 37.7378 3127.59 0 1 0
4 1 882.952 1250.9 557.051 0 0 0
5 1 2921.14 -22.1119 -74.4594 0 0 0
6 1 3.04201 2734.49 2902.37 1 0 -1
7 1 1093.96 1409.34 667.182 0 0 0
8 1 1161.31 2103.97 597.405 0 0 0
9 1 2806.52 1789.03 2197.72 0 0 0
10 1 1150.22 500.343 -198.657 0 1 0
11 1 802.951 887.124 2433.12 0 0 0
12 1 3126.81 1620.97 1720.38 0 0 0
13 1 1966.74 2703.26 2277.05 0 0 0
14 1 1542.93 165.733 2385 1 0 0
15 1 2233.69 2829.55 1008.66 0 -1 0
16 1 486.572 697.451 1590.35 0 0 0
17 1 2156.42 2589.59 1868.29 0 0 -1
18 1 1839.22 2918.8 1322.4 0 0 0
19 1 1210.25 2957.38 -188.634 0 0 1
20 1 1617.07 1621.65 2578.39 0 0 -1
21 1 2313.87 1246.99 2440.76 0 0 -1
22 1 1350.8 2508.45 2282.53 0 -1 0
23 1 1264.84 1335.11 1794.91 1 0 0
24 1 1767.86 2114.07 1343.01 0 0 0
25 1 2905.02 708.008 734.576 -1 0 0
26 1 2344.96 3013.94 1632.39 0 0 1
27 1 1372.18 3211.88 1292.18 0 0 0
28 1 1632.72 1010.7 1367.7 1 0 0
29 1 1598.29 1122.97 777.758 0 0 0
30 1 970.568 1585.55 487.123 0 1 1
31 1 -32.9283 1424.5 2974.92 1 0 -1
32 1 1478.19 1035.63 2277.11 0 2 1
33 1 2886.45 -44.0459 1873.99 -1 0 0
34 1 2166.81 1398.27 1970.99 0 0 0
35 1 2516.07 1413.59 -54.4562 0 0 1
36 1 2347.58 1941.93 2328.85 -1 -1 -1
37 1 635.624 742.221 812.834 0 1 0
38 1 2012.02 2145.04 1210.68 0 0 0
39 1 2379.47 2558.69 2032.33 0 0 0
40 1 1640.48 348.286 558.575 0 0 0
41 1 745.103 55.4051 1404.73 0 0 -1
42 1 -201.419 661.515 985.923 0 0 0
43 1 1918.81 -81.5572 2157.36 -1 1 0
44 1 2616.33 1570.01 157.522 0 -2 0
45 1 3086.42 1685.43 2266.3 0 0 0
46 1 -40.9647 1710.13 69.5562 0 -1 0
47 1 2832.56 1688.28 286.356 -1 1 0
48 1 2223.02 2361.52 2511.68 0 0 0
49 1 1388.1 -72.6265 2374.51 0 1 0
50 1 2266.56 2277.85 2246.06 -1 -1 -1
51 1 1946.44 1950.85 1028.85 0 -1 0
52 1 1747.84 1433.91 2577.79 0 0 -1
53 1 546.746 245.892 302.083 0 0 0
54 1 1884.8 1560.01 1660.16 0 0 -1
55 1 1121.68 134.12 41.2722 0 0 0
56 1 -177.146 921.899 878.416 0 0 0
57 1 3009.47 2516.19 968.825 0 0 0
58 1 754.442 2549.07 2128.89 0 -1 -1
59 1 2211.49 1957.85 1106.7 -1 -1 0
60 1 -21.0384 658.377 430.647 0 0 0
61 1 2251.16 1087.47 387.373 -1 -1 0
62 1 2424.06 1278.95 2911.93 -1 0 0
63 1 1700.85 3217.68 1893.27 0 -1 0
64 1 182.712 2123.44 119.95 0 0 0
65 1 1007.68 1226.49 1712.47 0 0 0
66 1 -79.3396 685.338 -214.3 0 0 0
67 1 1734.41 3218.41 -213.067 0 -1 0
68 1 2332.81 1945.54 851.347 0 -1 0
69 1 304.924 1173.01 146.426 0 0 0
70 1 1886.11 2345.6 616.555 0 0 0
71 1 1997.18 -114.615 1890.63 0 0 -1
72 1 3073.83 128.162 3169.35 -1 0 -1
73 1 2218.84 900.237 1029.94 0 0 0
74 1 1660.06 262.445 589.66 -1 0 0
75 1 2436.2 2766.27 2219.29 -1 -1 -1
76 1 1773.75 200.796 2901.86 0 0 -1
77 1 1989.1 257.598 2793.63 -1 0 -1
78 1 324.242 2600.7 2933.02 0 0 -1
79 1 2997.11 346.972 2723.37 -1 0 -1
80 1 857.825 1658.27 2427.93 0 0 0
81 1 2980.79 2822.73 740.288 0 0 0
82 1 1299.15 833.887 44.9362 0 0 0
83 1 1270.94 2071.74 218.148 0 0 0
84 1 2866.09 -196.354 2082.28 -1 0 -1
85 1 1444.79 636.632 1731.21 0 -1 0
86 1 1783.64 -205.286 622.117 0 1 0
87 1 2038.13 983.304 3020.75 -1 0 0
88 1 862.881 2718.05 2865.07 0 0 -1
89 1 1729.27 291.181 564.911 0 0 0
90 1 1392.24 1411.95 169.936 0 0 0
91 1 800.15 -114.317 2948.36 0 1 0
92 1 2616.97 445.611 2187.36 0 0 -1
93 1 -61.9233 530.07 3208.72 0 0 0
94 1 2961.87 2430.44 3007.81 0 0 -1
95 1 1166.58 1221.42 1188.74 0 0 1
96 1 2655.89 860.816 485.428 -1 0 0
97 1 606.017 1311.15 779.209 0 0 0
98 1 2457.77 1464.99 3109.95 -1 0 -1
99 1 2954.67 2094.73 808.057 0 0 0
100 1 1194.52 476.243 2965.76 0 0 -1
101 1 -215.448 2526.14 3048.45 1 -1 -1
102 1 3157.03 523.242 1208.39 -1 0 0
103 1 1633.64 2640.52 1647.1 0 0 -1
104 1 719.722 982.336 488.275 0 0 0
105 1 1813.18 2527.36 2805.75 0 -1 -1
106 1 2210.19 750.766 1282.3 0 1 0
107 1 2639.87 2564.44 -63.2995 0 -1 0
108 1 1863.93 1540.69 2825.37 0 0 0
109 1 1436.84 2746.73 117.404 0 -1 1
110 1 1077.04 -58.8134 2987.48 -1 0 0
111 1 1888.68 2778.43 2920.12 0 0 0
112 1 803.021 2512.2 2409.15 -1 -1 -1
113 1 1686.38 2539.61 1898.07 0 0 0
114 1 1918.86 2660.08 2003.79 -1 0 -1
115 1 979.212 426.277 676.533 0 0 0
116 1 590.006 516.753 215.494 0 0 0
117 1 1923.69 655.828 2982.75 0 0 0
118 1 1718.6 105.061 -34.7715 0 0 0
119 1 1091.86 1335.14 394.166 0 0 1
120 1 2339.96 1283.92 2157.63 0 -1 0
121 1 482.96 456.883 1241.94 0 0 0
122 1 2226.77 996.065 2607.24 0 1 0
123 1 2046.12 1149.4 2453.19 0 0 0
124 1 678.604 705.914 535.605 0 0 0
125 1 1182.1 120.685 2446.74 0 0 -1
126 1 1853.97 830.741 231.579 -1 0 1
127 1 382.169 -13.5309 3218.52 0 0 -1
128 1 903.572 1497.81 181.102 0 0 0
129 1 2973.06 438.166 3011.19 0 0 0
130 1 2125.64 521.938 -170.361 -1 0 0
131 1 2706.8 2101.99 2552.6 0 0 0
132 1 3016.22 505.525 968.394 -1 0 0
133 1 723.142 3038.84 408.699 0 -1 1
134 1 2846 2469.11 1669.39 0 -1 0
135 1 247.574 2301.6 2872.62 0 0 -1
136 1 2476.38 1073.63 521.84 0 -1 0
137 1 -193.123 2385.32 669.669 1 0 0
138 1 86.9844 1449.04 2295.91 0 0 -1
139 1 -62.5876 387.416 2751 0 0 0
140 1 142.484 2885.66 -70.1949 1 -1 0
141 1 2009.64 2763.48 1479.44 -1 -1 0
142 1 949.855 959.297 1757.48 0 0 0
143 1 2415.38 -69.656 451.826 -1 0 0
144 1 2535.67 916.989 -183.462 0 0 1
145 1 735.621 1325.13 2880.02 0 0 -1
146 1 1850.32 2992.02 1050.66 -1 -1 0
147 1 1765.92 -188.791 727.068 -1 0 0
148 1 849.389 520.606 401.573 0 -1 0
149 1 2497.01 2303.97 2065.45 -1 -1 0
150 1 130.359 2491.71 910.11 0 0 0
151 1 -98.6414 1166.84 -217.59 0 0 1
152 1 -169.741 732.864 201.638 0 0 0
153 1 2907.43 3147.24 1434.88 -1 -1 0
154 1 212.724 2496.23 1701.68 0 -1 -1
155 1 3170.62 -39.1264 2952.75 -1 0 -1
156 1 2688.74 2512 1079.9 0 0 1
157 1 1519.52 395.444 1004.72 -1 0 0
158 1 2119.67 1583.01 477.744 -1 0 0
159 1 289.946 418.321 743.186 1 0 0
160 1 1384.82 2843.46 2198.58 0 -1 0
161 1 3118.47 2360.54 1182.7 -1 0 0
162 1 407.168 1381.07 1811.24 0 0 -1
163 1 2446.5 3140.69 2583.01 -1 -1 0
164 1 1983.8 2939.59 3135.62 0 -1 -1
165 1 2679.05 1636 -116.633 -1 1 0
166 1 -61.2906 1622.41 49.1206 0 0 0
167 1 1914.69 3191.92 2387.54 0 -1 -1
168 1 3014.88 1822.85 686.771 -1 0 0
169 1 374.699 2322.3 181.863 0 0 0
170 1 1070.72 1082.34 1470.87 0 0 -1
171 1 2465.4 369.935 1482.38 -1 0 0
172 1 2020.34 1434.16 2481.14 0 0 0
173 1 2067.27 1436.94 -53.6989 -1 0 0
174 1 330.495 3179.89 701.197 0 0 0
175 1 423.192 2881.9 -85.5716 0 -2 0
176 1 2486.01 2500.16 1748.59 0 -1 0
177 1 1975.31 2242.26 2693.03 0 -1 -1
178 1 1713.5 2750.95 1101.95 0 -1 0
179 1 2330.46 1520.89 2790.45 -1 0 0
180 1 2290.89 1516.73 2510.56 0 0 0
181 1 1574.74 1393.34 -82.9793 0 0 1
182 1 1665.13 184.397 2638.93 0 0 0
183 1 2426.7 39.6437 190.472 -1 0 0
184 1 1079.52 1136.07 706.705 0 0 0
185 1 3002.3 2050.77 108.857 -1 -1 1
186 1 2176.21 2741.25 2108.85 0 0 -1
187 1 1146.75 1317.56 923.955 0 0 0
188 1 750.363 2631.94 682.547 1 -1 0
189 1 1064.43 1076.85 430.104 0 -1 -2
190 1 2658.99 1567.37 616.934 0 0 -1
191 1 528.2 -53.5697 18.4661 0 0 0
192 1 822.89 967.309 2159.33 0 0 0
193 1 1074.09 2376.69 1540.17 0 0 0
194 1 1500.81 391.003 2217.54 0 0 -1
195 1 -202.603 1104.02 200.363 0 1 0
196 1 2190.77 291.293 3114.62 -1 0 -1
197 1 2638.17 1683.47 1933.06 -1 0 0
198 1 475.99 1560.61 983.71 0 0 0
199 1 693.018 1741.36 115.38 0 1 0
200 1 346.954 3119.36 1592.03 0 0 0
201 1 2870.27 574.086 1207.49 -1 -1 0
202 1 1995.03 292.025 2834.76 -1 0 0
203 1 2086.19 830.206 2776.39 0 0 0
204 1 1542.61 1435.59 2383.08 0 0 0
205 1 977.625 2734.92 1945.88 0 -1 0
206 1 1611.6 2560.01 883.219 0 0 0
207 1 954.577 1494.75 165.145 0 0 0
208 1 820.6 2085.67 541.444 0 0 0
209 1 714.3 2653.76 1864.72 1 0 0
210 1 384.311 1370.97 1859.22 0 0 0
211 1 200.911 2588.85 1433.57 0 -1 0
212 1 -119.263 876.433 1152.07 0 0 0
213 1 -76.129 1673.54 52.3339 0 -1 0
214 1 2383.69 2747.73 1819.34 0 -1 -1
215 1 1603.74 1260.33 2165.8 0 0 0
216 1 1828.05 1034.45 1860.56 0 1 0
217 1 2516.38 2563.81 486.616 -1 -1 0
218 1 732.541 3055.91 1640.1 -1 -1 0
219 1 2471.36 117.785 1369.58 0 1 0
220 1 589.34 1175.82 2708.93 -1 0 -1
221 1 3137.45 -68.2495 1384.67 0 1 0
222 1 3056.8 2649.21 1708.87 0 0 0
223 1 329.63 572.342 3201.91 0 0 0
224 1 2265.96 595.787 358.153 0 0 0
225 1 1885.15 2089.96 2097.39 -1 0 -1
226 1 1646.89 2152.96 2775.95 -1 -1 -1
227 1 1828.11 1022.71 2587.42 0 0 0
228 1 2605.43 1894.52 2368.85 0 0 0
229 1 3031.81 1474.21 1305.56 -1 -1 0
230 1 765.976 1079.79 752.489 0 0 -1
231 1 879.954 1318.54 830.162 0 0 0
232 1 171.384 134.063 -103.759 -1 0 -1
233 1 2908.25 243.76 973.045 -1 0 0
234 1 1624.24 2464.92 624.196 0 -1 0
235 1 2081.29 3131.5 972.622 1 0 0
236 1 812.825 2241.71 2748.13 0 0 0
237 1 864.443 2889.47 2158.82 0 0 0
238 1 1605.07 1676.91 2507.9 0 -1 0
239 1 625.488 148.13 1164.27 0 1 0
240 1 654.043 897.538 2676.95 0 0 -1
241 1 1840.13 2924.63 2405.89 0 0 0
242 1 3115.84 2682.89 413.561 0 -1 -1
243 1 2337.46 1622.95 1929.7 0 1 0
244 1 3145.5 1788.68 1185.3 0 0 0
245 1 829.516 2992.33 1387.19 0 -1 0
246 1 114.448 721.011 199.388 0 0 1
247 1 1538.07 848.601 456.098 0 0 1
248 1 923.369 1660.09 -25.7917 1 0 0
249 1 2027.69 844.009 2490.93 0 0 0
250 1 2553.95 1261.67 719.962 -1 0 0
251 1 1931.44 2552.87 2518.84 -1 -1 -1
252 1 1614.74 2995.89 2257.27 0 0 -1
253 1 766.491 2367.45 701.576 0 -1 0
254 1 1690.28 1648.03 2518.46 0 0 0
255 1 690.41 2479.52 1640.8 0 -1 0
256 1 2116.56 838.263 324.289 0 -1 0
257 1 773.009 2212.97 2475.74 0 0 -1
258 1 1225.81 165.017 1055.77 0 0 0
259 1 938.201 2974.9 -117.612 0 0 1
260 1 2205.36 848.877 1021.39 -1 0 0
261 1 174.832 3115.59 2734.25 0 -1 -1
262 1 -30.6235 1759.45 90.4206 0 -1 0
263 1 730.871 118.334 138.106 0 0 0
264 1 2800.84 2023.86 1197.31 -2 -1 0
265 1 2040.02 -94.6405 1421.54 -1 0 0
266 1 1961.32 1285.53 1817.19 0 0 0
267 1 1613 410.427 2483.46 0 1 0
268 1 131.7 2074.85 625.874 1 0 0
269 1 1461.52 2609.09 2049.95 0 -1 0
270 1 1870.11 1124.61 870.441 0 0 0
271 1 1860.65 2086.63 512.233 0 0 0
272 1 382.773 1319.38 952.726 0 0 -1
273 1 493.96 1571.17 933.998 0 0 0
274 1 -36.838 485.583 214.038 0 0 0
275 1 1289.05 3198.63 3120.53 0 -1 -1
276 1 280.967 1997.22 1851.33 0 0 0
277 1 764.749 2185.37 2108.51 0 -1 0
278 1 944.443 33.8896 1941.24 -1 1 -1
279 1 -93.9028 486.453 3217.57 0 -1 -1
280 1 3012.13 1651.55 453.073 0 0 0
281 1 -105.377 918.827 395.07 0 0 0
282 1 1702.61 2743.22 2167.38 0 -1 0
283 1 262.431 340.284 1382.54 1 0 0
284 1 1508.05 3136.19 2486.83 0 -1 0
285 1 2292.6 866.989 545.576 -1 0 0
286 1 -44.5257 980.09 2684.19 0 0 -1
287 1 3178.75 -113.17 -153.632 0 0 1
288 1 2000.26 879.373 827.187 0 0 0
289 1 -41.1094 2249.57 37.5281 0 -1 0
290 1 3197.8 2891.49 1712.62 -1 -1 -1
291 1 974.379 2733.34 3173.9 0 0 -1
292 1 2282.88 1350.71 90.5375 -1 0 0
293 1 1906.11 2621.14 3158.56 0 -1 0
294 1 2604.92 143.312 444.825 -1 0 1
295 1 639.967 1516.63 2530.53 0 0 -1
296 1 1678.11 309.208 566.752 0 0 0
297 1 1346.54 2934.84 481.375 0 -1 1
298 1 895.545 1165.96 1222.02 0 1 0
299 1 1226.29 2894.91 2710.85 0 -1 0
300 1 1642.84 2623.24 3034.33 0 -1 -1
301 1 382.476 2060.92 2108.33 0 -1 -1
302 1 2610.48 330.776 1248.74 -1 0 0
303 1 3018.02 1547.47 721.88 -1 0 0
304 1 -79.5624 919.139 13.018 0 0 0
305 1 252.913 2181.63 385.007 0 -1 0
306 1 2333.79 2763.5 537.391 -1 0 0
307 1 -168.201 204.253 3137.08 1 0 -1
308 1 860.029 1240.73 277.532 0 0 0
309 1 -212.741 2402.59 -139.548 1 0 0
310 1 1289.12 904.941 1423.74 0 0 0
311 1 2140.32 2124.46 519.784 0 0 0
312 1 1655.41 -162.501 2293.54 0 1 0
313 1 1132.62 248.264 3112.41 -1 0 -1
314 1 3101.41 1832.04 258.251 0 0 0
315 1 2879.71 1398.93 2399.03 0 0 0
316 1 414.142 907.876 1410.53 0 0 0
317 1 2438.94 2894.39 2977.98 0 0 0
318 1 2399.66 619.129 2216.4 -1 0 0
319 1 1092.01 935.519 2074.96 0 0 0
320 1 2202.94 1915.58 2924.26 0 0 -1
321 1 3162.07 1557.18 232.134 0 0 0
322 1 2576.94 2861.22 1998.77 0 1 0
323 1 -67.9183 -19.1647 799.899 0 0 0
324 1 3217.09 1022.34 1654.54 -1 0 0
325 1 928.962 1846.49 1640.57 0 -1 0
326 1 1142.07 -78.7404 221.7 0 1 0
327 1 2204.04 2914.09 736.845 -1 -1 0
328 1 1632.15 830.225 1803.13 0 0 0
329 1 -204.133 2045.15 -58.9246 0 0 0
330 1 423.833 651.694 649.997 0 -1 0
331 1 2821.12 1350.48 704.61 0 -1 0
332 1 2983.96 1855.66 960.381 -1 -1 -1
333 1 958.674 1076.96 956.032 0 0 0
334 1 1695.6 293.902 166.638 0 0 0
335 1 -185.787 1361.45 2283.33 0 0 -1
336 1 2788.59 2677.98 877.487 -1 0 0
337 1 356.895 84.2898 2496.51 0 0 -1
338 1 2072.58 1488.65 213.695 0 0 0
339 1 541.255 1175.17 390.038 0 0 0
340 1 2808.65 2329.54 888.126 0 0 0
341 1 105.689 2368.51 244.578 0 0 0
342 1 2685.18 39.8737 59.8363 0 -1 0
343 1 1774.5 -200.393 674.96 0 0 0
344 1 1743.09 2660.16 1371.11 0 1 -1
345 1 1102.07 1843.44 -120.284 0 0 0
346 1 498.68 1947.65 1557.61 1 0 0
347 1 1093.28 3195.45 -117.249 0 -1 0
348 1 2785.46 1575.2 1731.44 0 0 0
349 1 2762.88 1147.43 886.26 -1 0 0
350 1 1315.79 2329.17 180.117 0 0 0
351 1 2092.97 1710.57 1019.22 0 0 1
352 1 1407.05 2131.78 1953.49 0 1 0
353 1 1639.8 1648.85 2537.64 0 0 0
354 1 2064.77 1239.1 2181.5 0 0 -1
355 1 1295.34 1902.86 452.463 0 0 0
356 1 630.772 745.636 1341.39 1 0 0
357 1 3115.37 1328.7 72.7712 -1 0 0
358 1 724.121 2017.64 2892.79 0 -1 0
359 1 -201.174 2379.7 722.207 1 0 0
360 1 916.635 1468 138.362 0 0 0
361 1 -29.2582 1768.22 1110.06 0 0 0
362 1 -24.6844 1659.55 61.2466 1 0 0
363 1 3039.19 2111.46 1073.68 -1 -1 -1
364 1 784.563 855.105 1556.82 0 1 0
365 1 2041.65 2441.89 2189.5 0 -1 0
366 1 607.692 378.163 999.27 0 0 0
367 1 1241.96 890.178 314.401 0 0 0
368 1 2828.16 992.876 659.048 -1 0 0
369 1 797.048 2271.05 1184.51 0 0 -1
370 1 447.319 182.653 1897.27 0 0 0
371 1 1031.52 127.305 1261.28 -1 1 0
372 1 2344.93 2767.08 1492.16 0 -1 -1
373 1 2772.32 1468.73 374.063 0 0 0
374 1 2748.22 1158.22 429.625 0 0 0
375 1 791.897 -132.712 781.947 0 0 0
376 1 2280.21 2496.81 1561.19 0 1 0
377 1 2450.35 2117.01 2440.91 -1 0 0
378 1 1207.35 1673.28 611.107 0 0 0
379 1 554.539 88.2179 851.742 0 1 1
380 1 1819.64 -67.5813 2589.18 0 0 0
381 1 868.486 2823.81 1702.7 0 -1 0
382 1 276.791 2418.03 2610.65 1 0 0
383 1 2335.49 2470.28 109.878 -1 -1 0
384 1 2365.38 3040.02 466.615 0 0 0
385 1 951.395 1646.89 3130.82 0 0 0
386 1 2177.35 581.635 2881.49 0 -1 -1
387 1 -101.645 2799.62 1480.62 0 -1 0
388 1 3152.9 235.481 2927.94 -1 0 0
389 1 554.139 148.742 3077.09 0 0 0
390 1 929.752 954.026 2719.48 0 1 0
391 1 2892.42 3146.36 1383.08 -1 0 0
392 1 2884.57 1212.08 187.786 -1 0 0
393 1 1686.56 589.459 2277.77 0 0 0
394 1 1277.8 2976.86 1706.41 0 -1 0
395 1 1966.59 605.127 1311.06 0 0 0
396 1 318.232 600.277 50.1931 -1 0 0
397 1 1816.99 1455.33 2185.85 -1 0 -1
398 1 2650.48 2044.18 1435.58 -1 -1 0
399 1 92.3573 1009.01 223.096 0 0 0
400 1 988.413 1655.71 2182.65 0 0 -1
401 1 1198.2 11.211 -208.114 0 0 0
402 1 827.132 580.971 1596.78 -2 0 0
403 1 109.348 2372.34 1297.2 0 -1 0
404 1 1237.83 555.698 67.3505 0 0 0
405 1 2847.78 2295.57 1160.2 0 0 0
406 1 1963.73 2057.38 1538.97 0 -1 0
407 1 1983.59 810.02 1946.02 -1 0 0
408 1 2855.38 -100.817 2340.51 -1 0 0
409 1 612.885 2204.59 987.367 1 0 0
410 1 2443.79 802.032 310.337 -1 0 0
411 1 1655.99 1200.08 2435.35 1 1 0
412 1 1357.76 1224.79 2029.04 1 0 0
413 1 457.449 2184.79 -45.3987 0 0 0
414 1 1624.99 1053.72 1645.69 -1 0 -1
415 1 2704.24 2924.65 2930.24 -1 -1 0
416 1 264.558 2619.65 1152.73 -1 0 0
417 1 3182.57 1651.97 928 0 0 0
418 1 1842.21 3085.09 2636.78 0 0 -1
419 1 1881.19 2729.17 1727.69 0 0 0
420 1 1915.42 2378.91 1944.66 0 0 -1
421 1 1130.91 2969.04 2200.75 0 0 0
422 1 1729.12 -76.2754 2859.39 0 1 0
423 1 2158.6 745.587 3107.05 -1 -1 -1
424 1 2308.01 1515.3 1281.34 -1 -1 0
425 1 3078.63 2788.93 997.331 -1 0 0
426 1 649.07 1406.79 511.088 0 0 -1
427 1 1941.18 2228.93 278.702 0 0 0
428 1 2730.21 267.484 223.635 -1 0 0
429 1 1096.59 2229.38 2751.41 0 0 -1
430 1 1392.87 171.938 2624.16 0 0 -1
431 1 1659.42 2290.66 1768.25 0 -1 -1
432 1 297.985 3167.53 -125.412 0 -1 0
433 1 1485.38 2263.1 1100.46 0 1 0
434 1 46.8627 3052.22 2498.39 0 -1 -1
435 1 1937.06 2982.87 778.711 0 0 0
436 1 3023.78 656.432 -75.8495 -1 0 0
437 1 1362.24 1915.23 1905.38 0 0 0
438 1 618.536 636.606 1077.78 0 0 0
439 1 -93.0259 2518.97 393.321 0 0 0
440 1 1291.82 2965.11 2435.18 0 -1 -1
441 1 1178.53 2570.08 2069.21 1 0 1
442 1 2119.76 2856.63 1807.28 0 -1 -1
443 1 382.488 754.97 1172.92 0 0 0
444 1 1737.86 1274.67 2814.77 1 0 -1
445 1 367.867 565.72 968.9 0 0 0
446 1 2326.35 1862.92 2390.4 0 0 -1
447 1 1922.87 1536.57 1943.99 -1 0 0
448 1 3116.41 989.149 650.981 -1 0 0
449 1 2042.58 565.119 1824.18 -1 0 0
450 1 419.651 2462 -102.607 1 0 1
451 1 2831.29 1126.71 1902.78 1 0 0
452 1 1236.7 2868.35 1956.84 -1 0 -1
453 1 1719.51 888.955 889.548 0 0 0
454 1 823.022 808.407 2945.7 0 0 -1
455 1 3148.12 541.388 3191.22 -1 0 0
456 1 1752.92 2346.34 2590.87 0 0 -1
457 1 1527.9 810.944 1542.04 0 0 0
458 1 64.2576 1639.08 2806.84 0 0 -1
459 1 567.651 3101.62 1412.1 0 -1 0
460 1 1542.46 -64.4428 2645.22 0 0 0
461 1 227.435 583.312 1527.39 1 0 0
462 1 710.868 3105.37 2298.22 0 -1 -1
463 1 1065.34 817.04 1565.73 0 1 0
464 1 2239.32 709.962 1950.93 0 0 0
465 1 1903.28 -91.8722 990.925 0 0 0
466 1 2195.7 3119.98 1850.37 -1 -1 0
467 1 1068.61 2913.86 1524.27 -1 0 0
468 1 1290.48 887.715 589.936 0 0 0
469 1 3080.48 -101.394 678.641 -1 0 0
470 1 -26.9572 54.7559 1963.55 0 0 -1
471 1 2126.95 2383.12 3075.38 0 0 -1
472 1 -121.812 838.943 2453.16 0 0 -1
473 1 294.215 3181.78 741.152 0 -1 0
474 1 -73.7739 2312.86 988.676 0 -1 0
475 1 498.105 2083.93 1316.12 -1 -1 0
476 1 2804.87 1706.46 328.78 -1 0 1
477 1 1203.34 -9.2396 1864.54 -1 0 0
478 1 44.031 1908.97 1969.05 1 0 0
479 1 1007.29 1881.08 611.366 0 0 0
480 1 1991.68 2766.33 1141.79 0 -2 0
481 1 150.287 877.687 463.614 0 1 0
482 1 1920.56 2808.69 2649.18 0 0 0
483 1 226.329 419.156 246.612 1 0 0
484 1 2073.82 1305.09 436.059 0 0 1
485 1 2803.95 1392.7 -52.8197 0 0 0
486 1 2208.06 2602.75 2345.49 0 0 0
487 1 1529.13 2523.64 2792.25 0 0 -1
488 1 826.451 529.385 917.943 0 0 0
489 1 1330.4 1262.49 2355.38 0 0 0
490 1 -189.228 2428.96 701.492 0 0 0
491 1 2691.03 -171.106 -120.308 -1 0 0
492 1 257.775 1133.33 402.227 0 0 0
493 1 1378.48 1536.83 424.54 0 0 0
494 1 1840.67 3134.01 2992.05 0 -1 0
495 1 1020.76 2475.32 640.113 0 0 0
496 1 -32.1299 606.748 2581.56 0 1 0
497 1 2330.11 2979.64 2069.24 0 0 0
498 1 1098.42 1139.24 2858.57 0 1 0
499 1 1162 2718.68 2313.94 0 0 0
500 1 705.406 1184.44 2301.55 0 0 0
501 2 2486.55 1800.59 1638.38 0 0 0
502 2 620.669 1850.66 1059.68 1 0 0
503 2 54.1707 894.43 1463.71 0 0 0
504 2 1241.18 1517.11 -141.377 0 0 1
505 2 2754.98 1605.94 2949.67 0 0 -1
506 2 851.443 252.456 2386.37 0 0 0
507 2 668.579 1764.77 555.06 0 0 0
508 2 1287 2692.27 3000.13 0 0 -1
509 2 2929 3161.98 3051.66 0 0 0
510 2 629.263 1539.42 -188.434 0 0 0
511 2 1201.55 -183.314 2653.29 0 1 -1
512 2 1378.5 716.124 2135.24 0 0 0
513 2 151.227 2089.11 2373.91 0 0 0
514 2 1797.59 1869.32 2948.83 0 0 0
515 2 2668.55 1152.99 2232.88 0 0 -1
516 2 -160.073 3170.13 1918.33 1 -1 0
517 2 250.192 1806.8 826.173 1 0 0
518 2 940.562 2944.34 2493.21 0 0 0
519 2 2603.96 1371.82 2611.98 0 0 0
520 2 2944.6 2654.41 1295.39 -1 0 0
521 2 1724.47 1447.56 277.924 0 0 0
522 2 651.746 1442.19 1108.69 0 1 0
523 2 2328.11 280.055 2333.65 0 0 0
524 2 1064.39 1957.47 2977.89 0 0 -1
525 2 1995.14 2631.28 799.99 1 0 0
526 2 2355.12 2819.55 175.004 0 0 1
527 2 3109.09 3105.05 2306.57 0 -1 0
528 2 63.6053 2269.58 1938.02 1 0 0
529 2 183.633 2842.39 889.026 0 0 0
530 2 2525.5 2793.38 2643.81 -1 -1 -1
531 2 3062.16 814.358 1389.73 0 0 0
532 2 3120.23 2407.06 2304.01 -1 0 0
533 2 2527.69 1566.32 2239.73 0 1 0
534 2 2295.72 1699.63 41.672 0 0 1
535 2 -112.432 2446.26 1564.31 0 0 0
536 2 2541.78 2453.19 2378.6 0 0 0
537 2 2851.57 3053.58 974.871 -1 0 0
538 2 2059.01 1760.15 1364.64 0 0 0
539 2 2637.1 2910.67 -151.341 0 -1 1
540 2 1057.05 216.608 2760.51 0 1 0
541 2 956.536 635.935 2223.47 0 0 0
542 2 895.682 177.44 919.425 0 0 0
543 2 2649.88 490.428 916.174 0 -1 -1
544 2 931.798 1550.21 1840.64 0 0 -1
545 2 3068.76 2287.08 1883.52 0 0 0
546 2 1563.81 626.126 174.651 0 0 1
547 2 3178.82 1156.78 1982.31 0 1 0
548 2 1352.49 1122.29 3121.6 0 0 0
549 2 707.877 2791.25 89.6575 0 0 0
550 2 1495.17 2907.62 1431.45 0 0 0
551 2 233.935 279.741 3007.82 1 0 0
552 2 -129.88 2754.57 108.826 1 0 0
553 2 2462.34 88.385 3214.59 -1 0 0
554 2 2358.91 712.693 1603.76 0 0 0
555 2 312.995 553.018 1874.64 0 1 0
556 2 621.014 998.96 1072.32 1 0 0
557 2 780.859 -192.175 1129.34 0 1 0
558 2 1936.48 2285.46 2657.78 0 0 0
559 2 1264.76 212.937 702.255 0 0 0
560 2 1307.2 1643.77 1628.05 0 0 0
561 2 2055.19 -17.9328 2990.82 0 0 -1
562 2 1154.6 1487.6 2874.64 0 0 0
563 2 1303.64 957.08 1770.57 0 0 0
564 2 2320.87 270.436 2778.11 0 0 0
565 2 477.36 2841.39 576.416 0 0 0
566 2 970.146 1664.89 887.778 1 0 0
567 2 2802.33 126.717 2927.77 0 -1 -1
568 2 2217.38 1454 1619.85 0 0 0
569 2 153.022 196.641 1683.86 0 0 0
570 2 1508.24 2335.22 1443.55 0 0 0
571 2 1153.34 1150.86 82.1239 0 1 0
572 2 1718.77 -181.467 1289.03 0 0 0
573 2 -63.0706 2407.4 2737.03 1 -1 0
574 2 1451.03 153.773 1332.72 0 1 0
575 2 893.241 827.346 212.213 0 0 0
576 2 1862.74 214.954 1212.63 0 0 0
577 2 1937.57 823.698 1588.32 0 0 0
578 2 2545.96 1104.01 120.609 -1 0 1
579 2 143.387 1099.71 2956.36 1 0 -1
580 2 -139.807 158.222 63.1131 1 0 1
581 2 292.128 896.766 2587.11 0 0 0
582 2 2866.04 1726.76 2544.8 -1 0 0
583 2 75.3606 569.458 1185.29 0 0 0
584 2 -117.913 316.706 2400.26 0 0 0
585 2 294.607 2671.6 166.116 0 0 0
586 2 1812.15 2403.09 1133.26 0 0 0
587 2 501.17 2343.97 2282.66 0 0 0
588 2 2202.78 1171.12 721.923 0 0 -1
589 2 3082.94 1410.59 3145.36 -1 0 -1
590 2 3182.62 3030.31 1246.87 0 -1 0
591 2 2046.66 232.039 1957.78 0 1 -1
592 2 23.4828 1277.97 1678.7 0 0 0
593 2 1682.27 2383.82 2224.34 0 0 0
594 2 379.17 1295.75 2432.73 0 0 -1
595 2 2271.62 2119.32 175.637 0 0 0
596 2 2880.25 341.555 2387.55 -1 0 0
597 2 655.864 -51.9003 1734.94 0 0 0
598 2 -26.6391 812.325 1875.07 0 0 0
599 2 3130.64 626.477 642.874 -1 0 0
600 2 2668.13 9.14081 1079.05 0 1 0
601 2 2710.71 1191.35 3099.51 -1 0 -1
602 2 1412.27 1877.06 2727.36 0 0 0
603 2 3108.38 673.005 2222.55 -1 0 0
604 2 -56.1915 176.465 1308.19 0 0 0
605 2 622.966 2476.97 385.646 0 0 0
606 2 348.657 1722.13 2581.95 1 0 -1
607 2 1239.77 526.981 1425.11 -1 0 0
608 2 934.778 2098.84 873.647 0 0 0
609 2 1827.88 1054.89 507.424 -1 -1 -1
610 2 1094.38 2939.4 1160.89 0 0 0
611 2 267.115 2182.49 1043.33 0 -1 0
612 2 2279.66 1175.22 -216.452 0 0 0
613 2 2258.17 545.532 719.145 0 0 0
614 2 1932.67 3009.6 2065.81 0 -2 0
615 2 600.853 1610.19 1498.26 -1 -1 -1
616 2 3025.07 1020.22 -85.4382 -1 0 0
617 2 1454.65 -137.016 -14.1941 -1 0 0
618 2 2552.95 1339.09 1866.45 0 0 0
619 2 62.9091 2884.9 476.554 1 -1 1
620 2 3093.11 66.2622 2126.53 -1 0 -1
621 2 1587.86 2865.41 1841.74 0 0 0
622 2 366.239 1367.7 1924.9 0 0 -1
623 2 -85.8483 2637.63 1156.85 0 0 0
624 2 1809.73 75.6893 1630.79 0 1 0
625 2 3102.44 1240.94 892.168 -1 0 0
626 2 74.4863 1993.06 2790.18 0 0 -1
627 2 227.402 2178.17 1543.27 0 -1 0
628 2 1825.52 965.368 2221.71 -1 0 -1
629 2 -70.9728 1733.69 2479.64 0 0 -1
630 2 2859.71 2494.94 566.313 0 0 0
631 2 490.844 298.467 -58.5739 0 0 0
632 2 280.858 1728.26 2158.49 0 0 -1
633 2 -136.837 1983.39 1678.29 0 0 -1
634 2 2009.71 2878.96 440.622 0 -1 0
635 2 631.434 716.369 -103.958 0 0 0
636 2 2004.37 1130.34 119.338 0 0 0
637 2 2415.31 1396.86 415.338 0 0 0
638 2 2422.62 145.707 747.281 0 1 0
639 2 2703.62 736.702 2374.56 -1 -1 0
640 2 -76.9041 -144.281 462.605 0 0 0
641 2 696.377 750.361 1883.87 1 0 0
642 2 2857.63 2751.7 2364.56 0 -1 -1
643 2 1011.28 -129.984 2251.25 0 0 0
644 2 239.271 1365.39 -150.717 0 0 1
645 2 1200.52 3006.96 164.624 0 -1 0
646 2 426.996 1852.94 2996.04 0 0 -1
647 2 1278.88 2616.5 1697.06 0 -1 0
648 2 1346.51 2578.61 418.713 0 0 0
649 2 909.764 1283.34 2579.24 0 0 0
650 2 246.586 2778.72 2625.86 0 0 0
651 2 -142.824 1982.91 844 0 -1 0
652 2 2472.22 905.327 818.734 0 0 0
653 2 2410.84 2293.45 -189.87 0 -1 0
654 2 2729.63 2525.39 2003.6 0 -1 0
655 2 1203.8 1580.54 2457.11 0 0 0
656 2 2124.8 -181.19 632.679 0 1 0
657 2 945.702 2378.4 1864.58 0 0 0
658 2 2656.56 2181.65 1767.69 0 0 0
659 2 1551.44 2719.54 2486.09 0 0 -1
660 2 2143.1 2100.83 1986.81 0 0 -1
661 2 997.531 3120.62 1863.67 0 -1 0
662 2 1870.57 814.313 -146.626 0 0 0
663 2 -148.887 2933.85 3160.99 0 -1 0
664 2 2859.07 2411.17 2661.52 -1 0 -1
665 2 2169.25 179.486 393.093 0 0 0
666 2 1008.67 1952.24 2546.31 0 0 0
667 2 2759.47 550.329 1554.55 -1 0 0
668 2 1020.13 3197.48 512.803 0 0 0
669 2 2565.81 3199.42 1418.65 -1 -1 0
670 2 852.334 67.8976 -193.537 0 0 0
671 2 9.59316 1129.05 655.031 1 0 0
672 2 574.395 2776.82 2340.48 0 -1 0
673 2 637.54 1922.03 2310.95 0 0 -1
674 2 2960.83 -14.5997 280.874 -1 0 0
675 2 602.301 1833.76 1885.91 0 0 0
676 2 1063.31 2291.24 2274.94 0 -1 0
677 2 1170.89 -154.893 912.495 0 0 0
678 2 1402.74 2274.34 2544.07 0 0 0
679 2 55.6718 1088.47 2277.28 0 0 0
680 2 1238.45 807.919 2834.43 0 0 -1
681 2 1438.98 1891.61 3185.25 0 0 -1
682 2 1492.4 3012.55 1014.5 0 -1 0
683 2 2040.64 587.54 2220.14 0 0 0
684 2 253.343 417.885 2597.71 0 0 -1
685 2 2478.65 1269.97 1065.61 0 0 0
686 2 365.867 1835.08 -19.827 0 0 0
687 2 2176.76 3217.53 212.506 0 -1 1
688 2 513.55 2785.55 1587.4 0 0 0
689 2 761.229 334.558 1974.64 0 0 0
690 2 449.767 957.379 2178.99 0 0 0
691 2 2304.41 2113.86 1411.92 0 0 0
692 2 2680.2 2821 1608.35 -1 -1 0
693 2 1387.75 159.961 298.136 0 0 0
694 2 1906.23 546.557 2631.81 0 1 0
695 2 2395.83 1821.71 457.414 0 0 0
696 2 1700.1 1774.66 2077.29 0 0 0
697 2 2983.19 808.862 1818.72 0 0 0
698 2 1566.79 2906.75 -179.385 0 0 0
699 2 199.368 2923.84 1317.7 0 -1 0
700 2 2273.81 -15.4561 1678.02 -1 0 0
701 2 2119.77 2228.98 873.118 0 0 0
702 2 2225.2 -6.96847 1116.1 0 1 0
703 2 2257.95 2689.68 3203.16 0 -1 0
704 2 1392.4 274.744 1738.78 0 1 0
705 2 28.2078 -94.714 2277.6 0 0 -1
706 2 1112.7 2602.88 44.5889 0 0 -1
707 2 1361.04 2265.53 2977.69 0 0 -1
708 2 1549.16 796.878 2529.79 0 0 0
709 2 1305.31 995.912 937.616 0 0 0
710 2 593.025 -22.3987 2159.89 0 -1 -1
711 2 1447.52 -155.539 1638.83 0 0 0
712 2 416.383 3083.74 201.975 0 -1 1
713 2 1762.24 2533.69 301.596 -1 0 1
714 2 979.086 219.04 1617.85 0 0 0
715 2 220.839 2491.8 555.159 0 0 0
716 2 476.764 2146.7 660.568 0 0 0
717 2 2269.1 -106.133 2124.54 0 1 0
718 2 1785.88 3215.11 -168.858 0 -1 1
719 2 591.068 3012.56 1963.22 0 -1 0
720 2 1703.87 2097.04 28.4533 0 0 1
721 2 635.659 3120.33 3181.53 0 -1 -1
722 2 2351.62 1581.64 800.545 -1 0 0
723 2 2461.93 2265.18 2760.32 0 -1 0
724 2 2124.89 1611.28 3069.27 0 0 -1
725 2 1171.64 254.603 2107.93 0 1 0
726 2 2598.71 2427.35 1409.74 0 0 0
727 2 2665.8 1019.05 1594.52 0 0 0
728 2 2976.81 895.884 328.904 0 1 0
729 2 2610.42 1437.41 1447.42 0 0 0
730 2 1385.54 1254.92 1462.67 0 0 0
731 2 3006.12 3068.18 28.5583 -1 -1 0
732 2 96.7146 2579.48 3209.53 0 -1 -1
733 2 2903.54 1478.26 2044.56 0 0 0
734 2 826.827 2952.14 816.062 0 -1 0
735 2 547.642 2265.81 3055.63 0 0 -1
736 2 2594.99 3180.3 1846.22 -1 -1 -1
737 2 999.492 829.983 1212.06 0 1 0
738 2 1328.07 2354.76 787.278 0 0 0
739 2 475.967 2121.68 2657.37 0 0 -1
740 2 3019.21 3029.65 452.511 -1 -1 0
741 2 1379.05 3187.21 2062.82 0 -1 -1
742 2 2482.2 1836.83 2705.69 -1 -1 -1
743 2 1986.79 502.505 137.385 0 0 0
744 2 257.007 -163.222 1907.14 -1 0 0
745 2 1536.95 718.135 1172.83 0 0 0
746 2 1927.8 942.213 1168.64 0 0 0
747 2 2045.98 1350.73 1086.7 0 0 1
748 2 2076.89 2001.82 -189.621 0 0 0
749 2 825.407 3209.94 126.846 0 -1 0
750 2 1535.9 3008.47 2821.78 0 0 0
751 2 638.109 1130.69 15.1201 0 0 1
752 2 355.569 981.654 1756.6 1 0 0
753 2 3072.79 688.821 2661.65 -1 0 0
754 2 1263.91 475.801 2477.71 0 0 0
755 2 617.609 2688.7 3114.06 0 0 0
756 2 3208.18 2004.18 2177.14 -1 0 0
757 2 1011.17 1960.34 1978.72 0 0 0
758 2 1452.98 1949.61 1264.58 -1 0 0
759 2 283.591 223.319 1048.29 1 0 0
760 2 2274.26 795.1 -2.02995 0 0 1
761 2 2972.74 1828.07 -189.462 -1 0 0
762 2 591.808 2844.3 1162.46 0 0 0
763 2 2417.89 1938.72 2050.73 0 0 0
764 2 257.792 1817.46 400.401 0 0 0
765 2 1027.82 2295.5 315.531 0 0 0
766 2 2513.44 2200.4 1043.39 0 0 0
767 2 2576.71 782.239 1237.73 0 0 0
768 2 2843.73 2238.99 -152.481 0 0 0
769 2 75.4721 676.997 2901.32 0 0 -1
770 2 2177.32 -69.7742 2553 0 0 -1
771 2 456.499 1481.37 208.812 0 0 0
772 2 2650.17 2876.04 613.967 0 -1 0
773 2 2078.84 133.517 -27.2869 0 0 1
774 2 1866.62 1443.04 693.26 0 0 0
775 2 1628.36 1255.93 1104.29 0 0 0
776 2 1686.15 1715.06 976.396 -1 -1 0
777 2 2997.04 1301.03 1616.12 0 0 0
778 2 2696.46 703.453 60.9024 0 0 0
779 2 940.543 1244.33 3157.57 0 0 -1
780 2 1001.58 3024.38 2963.5 0 0 -1
781 2 1731.71 2006 2462.42 0 -1 -1
782 2 2858.61 1164.08 1234.05 0 0 0
783 2 1609.42 1372.73 1810.15 0 0 0
784 2 1410.91 1174.4 426.901 0 0 0
785 2 50.6851 -117.516 3090.99 0 1 0
786 2 119.118 2892.28 1742.23 0 -1 0
787 2 2920.26 3128.96 1499.29 0 -1 0
788 2 3148.34 1023.24 2939.77 -1 0 -1
789 2 502.372 649.916 2883.68 0 0 -1
790 2 2407.34 909.386 2906.13 -1 -1 -1
791 2 -0.0702218 1329.5 2622.05 0 0 -1
792 2 1528.31 466.231 2824.83 0 0 -1
793 2 2892.53 407.948 1952.23 -1 0 0
794 2 124.434 655.727 2255.59 0 0 -1
795 2 2725.83 -137.799 627.029 -1 0 0
796 2 2930.87 1872.89 1871.05 0 0 0
797 2 2140.94 3026.62 2828.86 0 -1 0
798 2 702.582 1184.74 1900.34 0 0 0
799 2 1940.52 2813.76 24.1975 0 -1 0
800 2 2086.68 1261.49 2795.92 0 0 -1
801 2 2785.12 2748.25 221.351 -1 -1 1
802 2 2955.18 237.586 1324.4 0 0 0
803 2 2656.38 87.2019 2113.58 0 0 0
804 2 3065.78 1078.18 2395.99 -1 0 0
805 2 1576.26 1061.6 53.0305 0 -1 0
806 2 245.845 69.7347 649.155 0 0 0
807 2 758.533 1959.75 -151.405 0 -1 0
808 2 -109.777 707.966 3182.99 0 0 0
809 2 2178.87 3027.4 1297.67 -1 -1 -1
810 2 418.406 1003.11 690.886 0 0 -1
811 2 2686.22 507.38 2746.9 0 0 -1
812 2 11.4485 -184.016 1531.2 0 0 0
813 2 263.042 1813.75 1308.05 0 0 0
814 2 -125.441 513.465 1567.75 0 0 0
815 2 1212.42 2064.02 1604.82 0 0 0
816 2 627.911 354.887 626.13 0 1 0
817 2 1458.7 697.228 3192.94 0 0 -1
818 2 -178.328 3110.56 2771 0 -1 0