ITEM: TIMESTEP
286000
ITEM: NUMBER OF ATOMS
1000
ITEM: BOX BOUNDS pp pp pp
1.7411860645489455e+03 3.2588139354505188e+03
1.7411860645489455e+03 3.2588139354505188e+03
1.7411860645489455e+03 3.2588139354505188e+03
ITEM: ATOMS id type x y z ix iy iz
1 1 2687.84 2469.94 1823.99 -1 0 1
2 1 2226.59 1761.14 2582.78 0 0 0
3 1 3010.39 2552.53 2273.45 0 0 0
4 1 2335.57 1969.27 2994.68 0 -1 0
5 1 3097.69 2821.42 2635.26 -1 -1 1
6 1 2130.2 2013.24 3095.91 0 0 0
7 1 1957.87 2851.01 2739.75 0 -1 0
8 1 2288.41 2003.99 2482.79 0 0 1
9 1 2829.6 2859.43 2480.33 0 0 0
10 1 2737.91 2506.47 2594.48 0 0 0
11 1 2634.09 2260.03 2570.34 0 0 0
12 1 1806.91 2960.65 3214.98 0 0 0
13 1 2923.61 3163.3 3132.89 -1 0 -1
14 1 2314.6 2645.41 2751.6 0 0 -1
15 1 2979.98 2316.1 2208.37 0 0 0
16 1 2294.77 3253.34 2469.88 0 0 -1
17 1 2456.89 2768.37 2778.57 1 0 -1
18 1 2901.22 2398.1 2467.77 -1 1 0
19 1 2754.58 2094.28 2018.22 -1 0 0
20 1 1831.47 2861.01 2817.73 0 -1 0
21 1 2176.4 2507.03 2549.41 0 1 0
22 1 2615.65 2829.79 2665.01 2 -1 0
23 1 2754.08 2271.65 2631.87 0 0 1
24 1 2817.2 3069.24 2280.74 0 0 0
25 1 2003.39 2118.09 2703.72 -1 0 0
26 1 2793.2 2859.6 2792.44 0 0 0
27 1 2899.28 2430.71 2723.92 -1 0 1
28 1 2190.99 2468 2429.13 0 0 0
29 1 2547.02 2344.58 2604.76 0 0 -1
30 1 2702.7 3111.48 2761.46 0 0 0
31 1 1819.7 1944.13 2775.68 0 0 0
32 1 1929.97 2917.34 3000.44 0 0 -1
33 1 2295.91 2426.48 2923.63 0 0 0
34 1 2466.48 1758.08 2762.65 0 0 0
35 1 2172.23 2288.71 2426.79 0 0 -1
36 1 1862.68 2725.64 1796.34 0 -1 0
37 1 2045.53 2058.22 2088.35 0 0 0
38 1 2306.89 2829.83 2287.49 0 0 0
39 1 2979.92 2423.96 2762.92 -2 0 -1
40 1 2914.83 2483.14 2157.61 -1 -1 2
41 1 2123.7 2794.91 2066.05 0 0 -1
42 1 2786.44 2637.7 2204.42 0 -1 0
43 1 2456.42 2558.25 2190.13 0 -2 0
44 1 2833.32 3090.68 1993.31 0 -1 0
45 1 2473.62 2377.15 2707.6 0 0 0
46 1 2781.1 3180.46 2861.39 -1 -1 0
47 1 3084.96 2992.05 2298.47 -1 -1 -1
48 1 2976.22 2209.97 2704.79 0 0 -1
49 1 2773.43 2538.32 2331.58 -1 0 1
50 1 2872.44 1966.78 3038.4 -1 0 0
51 1 3029.43 1812.16 2305.99 -1 -1 1
52 1 3244.78 2526.68 3157.68 -1 0 -1
53 1 2903.97 2121.2 3091.88 -2 0 -1
54 1 3032.16 2336.73 2834.78 0 0 -1
55 1 2859.73 2860.72 2819.56 -2 0 -1
56 1 2913.02 2264.57 1940.04 0 0 0
57 1 2133.65 2516.21 3162.96 0 0 -1
58 1 2476.48 2587.58 3154.22 0 0 -1
59 1 2599.58 3084.54 2695.82 -1 -1 0
60 1 2173.63 2947.48 1878.49 -1 -1 1
61 1 2050.79 2712.64 2467.04 -1 0 0
62 1 2562.58 1785.32 2924.29 0 0 -1
63 1 2966.76 2292.45 2933.65 -1 0 0
64 1 2762.42 2591.98 2984.61 0 -1 -1
65 1 2985.52 2882.68 2671.49 -1 -1 -1
66 1 3018.11 2791.37 2521.61 -1 0 1
67 1 2495.48 2450.28 1952.87 0 0 0
68 1 2327.96 2820.86 3053.33 0 -1 -1
69 1 1815.52 2557.96 2722.12 0 0 0
70 1 1956.49 1828.1 3089.55 0 1 -1
71 1 2119.65 2636.82 2527.69 -1 0 -1
72 1 2672.14 2182.2 3236.23 0 0 -1
73 1 2608.78 1863.41 1752.93 0 1 1
74 1 2943.64 2659.97 2239.22 -1 0 -1
75 1 2131.98 2482.05 1932.7 0 0 1
76 1 1892.1 1940.06 2874.45 -1 0 0
77 1 2580.34 2490.86 3068.64 -1 -1 -1
78 1 1918.32 3228.24 2016.17 0 -1 0
79 1 2177.7 2385.29 2518.91 0 -1 0
80 1 2969.44 2426.86 2468.02 -1 0 0
81 1 3238.6 2023.9 2030.18 -1 0 0
82 1 2054.66 2298.7 3108.67 1 0 0
83 1 2484.18 2153.8 2653.99 -1 -1 -1
84 1 2120.61 3233.11 3150.71 1 0 -1
85 1 2501.19 2423.76 2458.26 0 -1 0
86 1 3122.71 2409.78 2766.64 -1 0 0
87 1 1960.08 2117.02 2820.71 0 -1 -1
88 1 1828.66 2706.36 2146.91 0 -1 0
89 1 2776.92 2755.39 1978.82 0 0 0
90 1 3162.36 3030.98 2362.22 -2 -1 0
91 1 1907.96 3160.13 2852.52 0 -1 -1
92 1 2113.91 2739.16 2488.86 0 -1 -1
93 1 2286.73 3109.52 2678.44 1 0 0
94 1 2299.86 2229.49 3107.89 0 0 -1
95 1 1976.87 2447.38 2787.22 -1 -1 -1
96 1 2712.62 2468.97 2090.17 -1 0 0
97 1 2342.05 2430 2134.38 0 -1 1
98 1 2656.64 2187.3 2875.56 -1 -1 0
99 1 2470.63 2789.42 2897.85 0 -1 -1
100 1 2691.71 2110.1 1823.3 -1 0 0
101 1 1815.42 2825.14 2392.53 0 -1 0
102 1 2316.13 1777.28 2641.41 -1 0 0
103 1 2801.2 2507.87 2172.27 -1 0 0
104 1 3178.06 2661.58 2449.39 0 -1 -1
105 1 3130.73 2954.3 2715.79 -1 0 0
106 1 3172.41 2102.24 2770.27 0 1 -1
107 1 2712.63 2246.44 2456.36 -1 -2 0
108 1 3086.81 3004.08 1875.32 -1 0 -1
109 1 2303 2526.48 2427.86 -1 -1 0
110 1 2708.8 2699.27 1869.09 0 -1 0
111 1 3166.96 1741.55 3171.52 -1 0 -1
112 1 2623.88 1890.49 2892.05 0 0 0
113 1 2406.92 2686.82 2867.35 0 0 -1
114 1 2675.69 2431.45 2850.08 -1 0 0
115 1 2307.8 2638.79 2932.12 0 0 -1
116 1 2792.26 2438.93 2820.67 0 0 0
117 1 2386.28 3200.88 2699.62 0 -1 -1
118 1 2193.96 2737.28 2320.54 -1 0 -1
119 1 3123.9 2876.12 2291.14 0 -1 0
120 1 2719.83 2351.69 1968.13 1 0 0
121 1 2978.66 3061.38 2944.25 -1 0 0
122 1 2739.02 2971.45 2470.34 0 0 -1
123 1 1924.45 1898.59 3187.26 -1 1 -1
124 1 2577.23 2515.46 1828.12 0 0 1
125 1 1926.93 2959.15 2084.14 0 -2 0
126 1 2259.47 3255.04 2908.93 0 0 -1
127 1 2721.6 2312.49 2187.98 -1 -1 0
128 1 2160.69 2322.83 3256.48 -1 0 0
129 1 2477.09 2446.78 2415.83 -1 0 0
130 1 3161.01 2609.75 2109.86 0 -1 0
131 1 2839.15 3022.04 1769.1 -1 -1 0
132 1 2594.9 2747.46 2915.33 0 -1 -1
133 1 2539.69 2422.61 2797.85 0 0 -1
134 1 2059.95 3065.09 2487.63 -1 -1 -1
135 1 2242.3 3200.54 3152.33 0 -1 -1
136 1 2882.34 2193.11 2996.1 -1 0 0
137 1 3020.99 2029.15 2065.12 -1 0 0
138 1 2710.84 2565.33 2018.29 0 -1 0
139 1 2884.27 2572.97 2145.32 -1 -1 -1
140 1 2858.91 2907.32 2716.31 -1 -1 -1
141 1 2803.59 2748.33 2152.59 -1 1 0
142 1 2450.84 2300.95 2802.55 0 1 -1
143 1 3011.73 2889.85 2309.59 -1 0 0
144 1 1808.29 2903.42 2552.72 -1 -1 0
145 1 2347.53 2284.87 2178.95 0 0 0
146 1 3124.72 2562.4 2219.66 -1 -1 0
147 1 1910.4 2484.6 2680.11 0 0 -1
148 1 2705.38 2667.05 2384.77 -1 -1 1
149 1 2919.04 2780.26 2714.41 0 0 0
150 1 2440.66 2577.53 2549.23 0 0 0
151 1 2542.7 2937.73 2714.22 0 -2 -1
152 1 3142.17 2608.94 2856.95 -1 -1 0
153 1 2832.99 2740.04 2804.81 -1 -1 -1
154 1 3068.43 2656.8 2317.08 -1 0 -1
155 1 2883.38 2394.57 2536.46 0 0 0
156 1 2124.41 2509.97 3027.72 0 0 -2
157 1 3228.07 2893.06 2362.23 0 0 -1
158 1 2692.22 2702.27 2116.82 -1 -1 0
159 1 2946.25 2626.29 2635.82 0 -1 0
160 1 2842.62 2037.02 2783.31 -1 0 0
161 1 2663.3 2691.26 1990.76 0 0 -1
162 1 2753.65 2140.95 2529.44 0 -1 0
163 1 2407.3 2569.67 2809.68 0 0 -1
164 1 3054.6 2456.22 2019.49 0 -1 -1
165 1 2314.43 2217.03 3175.97 0 0 -1
166 1 1775.87 2680.52 2048.01 0 0 -1
167 1 2631.99 2676.48 2375.88 0 -1 0
168 1 1983.72 2227.72 2889.77 0 0 0
169 1 2236.65 3091.57 1945 0 -1 -1
170 1 2887.95 2866.27 2380.11 0 -1 0
171 1 2766.29 2185.68 2950.14 -1 -1 -1
172 1 2596.13 2872.93 2188.87 0 -1 -1
173 1 2756.52 2404.46 2519.99 -1 0 -1
174 1 2808.99 1947.42 3184.05 -2 0 -1
175 1 3016.9 2925.93 1788.25 -1 -1 -1
176 1 2184.32 2161.16 2899.26 0 0 0
177 1 2767.93 3134.03 1866.48 -1 0 0
178 1 3117.32 2234.31 2757.64 -1 0 0
179 1 2028.74 2231.75 2945.71 -1 0 0
180 1 3077.78 2836.12 2894.91 0 0 -1
181 1 1875.1 2631 2972.42 0 -1 1
182 1 2805.12 3167.7 2233.35 0 -1 0
183 1 1795.11 2927.02 2094.82 0 -1 0
184 1 2866.5 2274.11 2659.19 0 -1 1
185 1 1866.81 2326.26 2614.41 0 0 -1
186 1 2972.08 2361.37 1977.81 -1 0 -1
187 1 3235 2636.56 2771.87 0 0 -1
188 1 2569.13 1764.99 3212.84 0 1 -1
189 1 3206.27 2157.33 3140.44 -1 0 -1
190 1 2577.53 2641.76 2487.92 -1 0 0
191 1 2815.81 1856.25 3043.78 0 0 0
192 1 3093.08 3125.91 1914.64 -1 -1 0
193 1 3157.03 2751.4 2855.99 -2 -1 0
194 1 2841.4 2197.08 2043.47 0 -1 -1
195 1 2209.4 2588.23 2731.92 -1 0 0
196 1 2411.01 2513.71 3228.62 0 0 -1
197 1 2232.41 2328.22 1829.75 -1 1 1
198 1 2771.03 3079.86 3140.61 -1 -1 0
199 1 2360.04 3052.5 1784.8 0 0 1
200 1 2146.72 2026.35 2909.71 0 0 -1
201 1 3080.55 2235.48 2906.34 -1 0 0
202 1 2572.98 2393.59 3150.25 -1 -1 -1
203 1 2998.26 2989.13 3168.18 -1 -1 0
204 1 2455.06 2370.4 2916.72 0 -1 -2
205 1 2915.17 2607.72 2969.49 -1 -1 0
206 1 3111.17 1830.42 3095.33 -1 0 0
207 1 2431.06 2712.82 3135 -1 -1 -1
208 1 2439.41 2258.01 2683.91 0 0 -1
209 1 2684.61 2652.67 2906.92 -1 -1 0
210 1 2982.31 2536.78 1922.41 0 -1 0
211 1 2787.18 2866.72 1928.04 -1 -1 0
212 1 2385.99 1750.09 2385.03 0 0 -1
213 1 2956.71 2663.27 2501.4 0 1 -1
214 1 2422.21 2831.7 2474.28 0 -1 0
215 1 1741.98 2889.7 1989.62 0 0 -1
216 1 2642.69 2363.05 3069.96 -1 0 -1
217 1 2865.51 2213.15 2161.1 -1 0 1
218 1 2213 2596.09 2055.18 0 0 0
219 1 2993.13 2879.18 2444.9 0 -1 0
220 1 2227.46 2444.92 3060.98 -1 0 -1
221 1 2917.61 1874.6 2968.09 -1 0 -1
222 1 2808.66 2233.81 1744.89 0 -1 1
223 1 2468.85 2462.34 3116.68 0 -1 -2
224 1 1842.08 3123.55 2496.03 0 -1 0
225 1 2761.72 3202.68 2453.66 0 -1 0
226 1 2739.81 2543.79 2849.27 0 -1 0
227 1 3137.3 2414.68 2644.43 -1 -1 -1
228 1 1780 3050.86 1790.26 0 0 1
229 1 2830.76 2145.11 2269.78 -1 -1 0
230 1 1826.28 2438.19 2588.44 0 0 -1
231 1 2151.11 2702.75 2435.53 -1 -1 0
232 1 2165.7 3184.43 3253.07 0 -1 -1
233 1 3138.6 2723.84 2726.06 -1 0 1
234 1 2067.79 1942.49 2564.35 0 -1 -1
235 1 2693.8 2369.89 1848.4 -1 -1 0
236 1 2508.71 2549.54 2180.68 -1 0 0
237 1 2971.09 2525.38 2889.1 0 -1 0
238 1 2918.65 2780.15 2464.05 0 -1 0
239 1 2691.79 2572.75 2141.03 -1 -1 0
240 1 2209.08 2549.89 2552.6 1 0 -1
241 1 2673.32 3174.24 1973.7 0 -1 0
242 1 2617.88 2124.15 1925.47 0 -2 0
243 1 1994.14 3228.95 1897.62 0 -1 0
244 1 2904.81 2572.25 2735.97 0 -1 -1
245 1 3063.32 1803.5 2515.33 -1 0 0
246 1 2843.13 1993.25 2660.87 0 -1 0
247 1 2440.49 3210.55 2592.73 0 -1 0
248 1 3056.69 2764.84 2097.65 -1 -1 0
249 1 3059.41 2619.88 2964.69 0 0 0
250 1 3217.32 1903.2 3093.37 -1 0 -1
251 1 2970.65 2671.05 2069.43 0 -1 0
252 1 2868.26 1863.99 2655.42 -1 0 0
253 1 1894.87 2632.47 2090.94 1 0 0
254 1 3168.12 2296.4 2585.5 -1 0 -1
255 1 2791.71 2039.37 3112.36 -1 0 -1
256 1 2431.95 2424.11 2793.27 -1 0 0
257 1 2825.1 2974.1 2031.59 -1 -1 0
258 1 2563.58 2112.63 2837.62 0 0 -1
259 1 2612.08 2147.34 3141.06 -1 0 -1
260 1 2617.99 2535.06 2914.79 0 0 0
261 1 1801.92 2112.73 2329.79 0 0 0
262 1 3031.84 2523.34 2138.28 -1 0 -1
263 1 2574.98 2795.04 2782.78 -1 0 -1
264 1 2270.04 2406.02 1937.85 0 0 -1
265 1 3172.96 2042.87 2900.97 -1 0 -1
266 1 2950.73 1888.05 3096.64 -1 0 -1
267 1 1794.64 2327.66 2884.01 0 0 -1
268 1 2229.66 2499.99 2552.27 0 -1 0
269 1 2784.73 1802.58 2832.45 -1 0 0
270 1 2341.98 2183.74 3143.69 0 0 -1
271 1 2089.38 2799.05 2395.88 0 -1 -1
272 1 2564.72 2418.29 2928.25 -1 0 -1
273 1 2184.69 2392.62 2900.01 0 0 -1
274 1 2353.74 2551.82 2938.44 1 -1 0
275 1 2855.52 2456.98 1946.69 -1 0 1
276 1 2763.29 2643.47 1767.57 -1 -1 0
277 1 2598.45 2611.02 2068.92 0 0 1
278 1 1764.79 1831.5 2749.58 0 0 -1
279 1 2355.95 2703.75 2463.06 0 -1 0
280 1 2455.79 2470.05 2993.9 -1 0 -1
281 1 2009.48 2832.7 2652.79 0 -1 0
282 1 2060.03 2340.14 2870.32 0 -1 0
283 1 2341.7 3138.21 3201.15 0 -1 -1
284 1 2185.27 2308.77 3100.94 0 0 -1
285 1 3246.75 2694.17 2892.66 -1 0 -1
286 1 2855.47 2123.27 2864.81 -1 1 0
287 1 2760.29 2058.74 1898.28 0 0 0
288 1 2352.38 2357.91 2703.17 1 0 0
289 1 2168.37 2683.03 2667.66 0 -1 0
290 1 2945.81 2485.12 2361.87 -1 -1 0
291 1 2287.43 2674.36 2445.69 -1 -1 0
292 1 3123.22 2278.43 2727.15 -1 0 -1
293 1 2616.7 2551.2 2548.94 0 0 1
294 1 2545.78 2632.12 2637.33 0 -1 -1
295 1 2001.4 3156.98 2540.39 0 -1 0
296 1 3110.06 2485.31 2872.15 0 0 0
297 1 2841.83 2335.55 2557.07 -1 0 0
298 1 2409.24 2425.15 2602.78 0 0 0
299 1 1863.76 2194.64 2542.79 1 0 0
300 1 2100.34 2438.65 3124.71 0 0 0
301 1 2380.93 2484.32 2550.57 -1 0 -1
302 1 3147.66 2018.24 1801.15 -1 0 0
303 1 2935.31 3179.96 1955.27 0 -1 0
304 1 2315.57 2752.76 3080.04 1 -1 -1
305 1 2416.14 1915.72 3088.52 0 0 -1
306 1 1836.55 3155.51 1783.47 0 -1 0
307 1 3025.49 2427.9 2068.46 -1 0 -1
308 1 1828.91 1875.37 1764.31 0 0 0
309 1 2638.53 2909.56 2341.36 0 0 -1
310 1 1908.08 2033.52 2723.26 0 0 -1
311 1 2189.43 2788.12 1791.49 0 -1 -1
312 1 2802.3 2353.24 2615.44 0 -1 1
313 1 2165.11 2096.26 3004.19 0 -1 -1
314 1 1913.62 2353.18 2832.02 1 0 0
315 1 1985.23 1919.4 2656.15 0 0 0
316 1 2852.51 2872.61 1816.94 -1 0 0
317 1 2224.52 2815.55 2596.98 1 0 -1
318 1 3220.7 3035.08 2779.28 0 -1 -1
319 1 2891.8 2202.98 1814.33 -1 0 0
320 1 2442.22 2659.44 2685.83 0 -1 0
321 1 2627 2277.46 3152.93 -1 0 0
322 1 2333.81 2468.35 1860.34 0 -1 0
323 1 2057.93 2118.89 2905.85 0 0 -1
324 1 3206.99 2353.55 1796.38 0 0 0
325 1 2135.09 3111.47 2854.86 0 0 0
326 1 2687.13 2762.7 2843.65 0 0 -1
327 1 2587.16 2988.45 2603.01 0 -1 0
328 1 2162.52 2250.89 2548 0 0 0
329 1 2141.92 2735.27 2063.39 0 0 0
330 1 2663.61 2518.93 2761.56 0 0 0
331 1 2475.49 2570.72 2071.78 -1 0 0
332 1 2270.57 2808.51 3007.97 0 -1 -1
333 1 2850 2509.17 2922.96 0 0 0
334 1 2873.49 3257.58 3117.94 -2 -1 0
335 1 2531.92 2868.19 2415.15 0 0 0
336 1 2463.08 2388.28 3231.13 0 -1 -1
337 1 1829.69 2430.13 2221.5 0 0 0
338 1 2681.55 2701.31 3189.65 0 -1 -1
339 1 2837.1 2672.99 3044.89 0 -1 0
340 1 2471.99 2458.24 2591.25 0 -1 0
341 1 2689.18 3146.68 3058.68 0 -1 -2
342 1 2775.11 2827.4 2913.99 0 -1 0
343 1 2739.57 2092.63 2852.45 1 -1 0
344 1 2913.7 2962.98 2951.85 0 -1 -1
345 1 2542.57 2293.68 1743.4 0 0 0
346 1 2656.83 2427.76 1876.66 0 -1 0
347 1 2487.48 2470.48 2776.04 -1 0 -1
348 1 2206.54 2472.13 2592.28 -1 -1 -1
349 1 2783.73 2626.12 2598.18 -1 0 0
350 1 2264.39 2299.21 2073.97 0 1 0
351 1 2066.2 1765.59 3051.88 0 0 -1
352 1 2367.62 2289.09 2994.92 0 1 0
353 1 2975.18 2609.38 2378.59 0 -1 0
354 1 2204.44 2605.75 2344.4 0 0 0
355 1 2373.67 2749.37 2970.84 0 -1 -1
356 1 2261.93 3043.27 1834.81 0 -1 0
357 1 2167.78 2866.86 2808.46 0 -1 -1
358 1 2967.48 3248 2238.8 -1 -1 0
359 1 2621.78 2314.54 2874.74 0 0 0
360 1 2224.02 1780.51 3216.36 0 1 -1
361 1 3173.83 2581.67 2347.92 -1 0 0
362 1 2772.47 2621.55 2784.41 0 -1 0
363 1 2513.98 2386.85 3036.17 0 0 -1
364 1 2799.42 2694.87 2927.41 -1 0 0
365 1 2175.23 3090.49 2739.95 0 -1 0
366 1 2039.44 2588.4 1869.64 0 0 0
367 1 2270.57 2570.99 2837.48 0 -1 -1
368 1 2629.42 1948.73 2581.46 -1 0 0
369 1 3020.16 2715.47 2668.41 0 0 -1
370 1 3083.89 2768.18 2211.86 -2 0 0
371 1 3152.13 2231.12 2019.28 -1 0 0
372 1 2924.22 2935.39 3215.34 -1 -1 -1
373 1 2824.7 2612.16 2793.96 0 1 0
374 1 2524.95 1964.64 2553.92 0 0 0
375 1 3014.42 1792.98 2370.39 0 0 -1
376 1 2691.06 2639.62 2503.84 0 1 0
377 1 3074.23 2491.09 2353.63 0 0 0
378 1 2337.59 2003.92 2877.46 0 1 -1
379 1 2881.24 2548.58 2257 -1 -1 0
380 1 2608.51 2187.98 2042.77 -1 0 0
381 1 2259.72 2536.09 2988.67 0 0 -1
382 1 3103.58 2843.5 2761.14 -1 -1 0
383 1 2711.49 2331.44 2359.56 -1 0 0
384 1 2811.05 2766.04 2388.47 0 -1 0
385 1 2964.28 2718.1 2344.7 0 0 0
386 1 2814.32 2942.86 2591.21 -1 0 0
387 1 2969.32 2352.9 2741.11 -1 0 -1
388 1 1747.83 2742.95 2839.51 0 0 -1
389 1 2446.52 2514.57 1854.66 0 0 0
390 1 1784.68 2642.62 1750.37 0 -1 0
391 1 2420.03 1995.43 1863.96 0 0 0
392 1 1962.64 2551.6 2954.1 -1 -1 -1
393 1 2584.11 2430.54 2682.76 0 0 1
394 1 1990.7 2178.81 3085.61 1 0 -1
395 1 2461.6 2456.96 2091.92 0 -1 -1
396 1 1806.29 2782.83 2577.29 1 0 0
397 1 2759.44 2790.04 1790.56 -1 0 0
398 1 2237.99 2439.03 2811.03 0 -1 0
399 1 2113.79 1855.54 2783.05 0 0 0
400 1 2217.88 2357.66 2708.51 -1 0 -1
401 1 2508.93 2476.16 2448.02 0 0 -1
402 1 2242.57 2554.28 3240.97 0 0 -2
403 1 1837.43 2122.44 3004.96 0 0 -1
404 1 2591.37 2655.66 2195.77 0 0 0
405 1 2659.25 3004.53 2781.62 -1 0 0
406 1 2145.34 2842.77 2307.07 0 -1 0
407 1 1943.9 2888.38 2877.8 -1 -1 0
408 1 3205.44 2415.47 2873 0 0 -1
409 1 3065.52 2654.57 2559.69 0 -1 -1
410 1 2583.08 2271.33 2441.3 0 0 -1
411 1 2159.82 2093.83 2046.92 0 0 0
412 1 2410.8 2980.03 2802.71 0 0 0
413 1 1827.27 2652.73 2836.92 0 0 -1
414 1 2066.17 2811.37 2790.57 0 -1 -1
415 1 2092.29 2394.76 2756.2 0 0 -1
416 1 2625.74 2655.37 1796.22 0 0 0
417 1 1886.83 2138.65 2426.82 -1 0 -1
418 1 3194.55 2954.88 2077.76 -1 0 1
419 1 2228.7 2589.21 2495.7 0 0 0
420 1 3080 2811.33 2365.21 -2 -1 -1
421 1 2826.79 2501.64 1853.65 -1 0 0
422 1 1844.61 2956.25 1978.64 0 -1 0
423 1 3002.1 2704.67 1784.6 0 -1 0
424 1 2056.48 2810.64 3112.46 0 -1 -1
425 1 2388.58 2819.97 3173.59 0 0 -1
426 1 2800.39 2582.65 2756.3 -1 0 -1
427 1 3083.51 2325.74 2248.76 -1 -1 0
428 1 2348.16 2915.76 2558.45 0 -1 -1
429 1 2867.07 2749.6 2263.42 -1 0 0
430 1 2099.45 1946.62 2274.28 0 -1 0
431 1 2605.75 2403.06 1769.4 0 0 0
432 1 2020.56 2813.09 2292.74 0 -1 0
433 1 2237.34 2663.75 2497.53 -1 -1 -1
434 1 3047.34 2689.75 2436.07 -1 0 0
435 1 2819.05 2093.3 2988.41 -1 0 0
436 1 2874.83 2693.17 1782.23 -1 0 0
437 1 2719.3 2249.38 2050.41 0 1 0
438 1 3226.43 2503.23 2647.87 -1 -1 -1
439 1 2806.53 2381.16 1921.48 0 0 0
440 1 2982.62 2032.08 3031.43 -1 0 -1
441 1 2728.76 1941.56 3070.57 -1 0 -1
442 1 1924.52 2564.72 2764.15 0 0 0
443 1 3007.86 2521.55 3009.08 0 -1 0
444 1 2793.47 2643.82 2069.37 -2 0 0
445 1 2437.27 2933.14 2540.26 0 -1 0
446 1 2914.78 1998.78 3155.92 -1 0 -1
447 1 2630.58 2692.71 2602.86 0 0 0
448 1 2070.24 2693.84 2300.14 -1 -1 0
449 1 2278.79 2459.68 1883.89 -1 0 0
450 1 2021.19 2436.2 3048.84 0 0 -1
451 1 2050.86 2719.48 2710.72 0 -1 -1
452 1 2180.2 2225.11 3016.24 0 0 0
453 1 3046.91 3034.53 2402.55 -1 0 0
454 1 2019.03 2239.8 2264.64 0 0 -1
455 1 2722.86 2609.62 3091.22 -1 0 -1
456 1 2894.22 1827.3 1789.18 0 1 0
457 1 2496.4 2738.93 2433.62 0 -1 -1
458 1 1973.27 2184.34 2943.93 0 1 -1
459 1 2100.64 2452.51 2224.22 0 -1 -1
460 1 3079.09 2485.2 2556.93 -1 -1 0
461 1 2805.95 2709.66 2501.97 0 -1 0
462 1 2932.43 2745.42 2582.33 -1 0 -1
463 1 3168.98 2094.53 2915.8 -1 0 -1
464 1 2666.75 2613.53 2647.19 0 0 0
465 1 1776.43 2709.03 2454.2 1 0 -2
466 1 2753.87 2940.6 2689.64 -1 -1 0
467 1 2676.81 2583.11 1883.88 0 1 0
468 1 3097.63 2788.54 1825.91 0 -1 1
469 1 2859.37 2522.9 2637.46 0 -1 -1
470 1 2854.01 2968.95 1901.41 -1 -1 -1
471 1 2858.94 2647.11 2340.17 0 0 0
472 1 2730.56 2911.84 1821.47 0 -1 0
473 1 1762.03 2403.9 2986.48 1 -1 0
474 1 2920.21 2363.92 2824.92 -2 -1 -1
475 1 2818.1 2518.02 2050.76 0 -1 0
476 1 2854.84 3224.51 2106.44 -1 -1 0
477 1 3088.48 2352.72 2019.41 0 -1 -1
478 1 2607.06 2489.96 2017.87 -1 -1 0
479 1 2606.54 1812.68 2311.32 0 0 -1
480 1 3139.91 2265.53 2463.16 -1 0 0
481 1 2886.97 1843.76 3252 0 1 0
482 1 2644.8 2006.4 2844.15 0 -1 -1
483 1 2940.77 2245.08 2803.06 -1 1 0
484 1 2754.06 2890.68 2358.13 -1 -1 0
485 1 2329.58 3046.13 2584 -1 -1 -1
486 1 3214.52 2897.25 1859.78 -1 -1 0
487 1 2707.48 2410.78 2727.99 -1 0 -1
488 1 2163.21 1845.45 2502.26 0 0 0
489 1 3053.57 2652.4 2152.86 -1 0 0
490 1 2935.67 2416.56 2962.17 -1 0 -1
491 1 2636.33 2720.72 2706.73 0 0 -1
492 1 2795.91 2534.81 3239.84 0 -1 0
493 1 2711.67 2461.04 2407.87 -1 0 0
494 1 2341.35 2406.96 3042.31 1 -1 0
495 1 2960.25 2783.4 2182.09 0 -1 0
496 1 2844.2 2611.88 2743.62 1 0 0
497 1 2615.73 3205.36 2629.58 -1 -1 0
498 1 2686.78 2923.83 2578.37 0 -1 0
499 1 2333.72 2522.1 1855.8 -1 0 -1
500 1 2693.6 3004 2334.05 0 -1 -1
501 1 2478.06 2710.52 2557.53 -1 0 -1
502 1 1853.64 2932.95 2902.83 -1 0 0
503 1 2489.04 2489.78 2849.83 0 0 0
504 1 2299.69 2593.47 2509.73 0 0 0
505 1 2082.43 2499.65 3162.74 -1 0 -1
506 1 1785.6 2160.8 2221.04 -1 0 0
507 1 3123.42 2073.13 2934.64 -1 0 -1
508 1 1953.71 1865.35 1977.6 0 0 -1
509 1 1962.68 1901.54 2515.59 0 0 0
510 1 2671.2 2359.72 2609.94 -1 -1 -1
511 1 3210.77 2984.6 2468.64 0 0 -1
512 1 1893.25 3003.94 3102.31 0 -1 -1
513 1 2963.72 2505.03 2044.89 0 -1 0
514 1 2760.8 2244.47 2287.48 -2 0 1
515 1 2511.43 2180.77 2426.14 -1 0 -1
516 1 2522.38 3196.18 2681.13 -1 -1 0
517 1 2934.32 2917.44 3105.7 0 -1 -1
518 1 2150.99 2825.37 2698.24 0 0 -1
519 1 2640.96 2584.38 2405.88 0 0 0
520 1 2969.35 2792.81 1813.72 -1 0 0
521 1 2508.19 2400.78 1830.99 -1 0 1
522 1 2477.83 2607.66 2189.84 -1 0 0
523 1 2951.58 2893.25 1897.46 0 0 0
524 1 2620.27 2425.32 2498.25 -1 -1 0
525 1 2985.06 2168.34 2912.97 0 0 -1
526 1 2109.13 2369.79 2630.12 0 0 0
527 1 1741.59 2222.37 2837.39 0 -1 -1
528 1 3067.25 2434.56 2242.9 0 1 0
529 1 2498.59 2595.04 1766.92 -1 -1 0
530 1 2010.99 2694.63 2587.82 0 0 0
531 1 2175.28 3212.35 1951.07 0 -1 0
532 1 3058.25 2588.61 2036.98 -1 0 0
533 1 2967.78 1813.75 2328.91 -1 0 -1
534 1 2359.05 1743.78 2816.09 0 0 -1
535 1 2655.45 3172.36 2487.76 -1 -2 0
536 1 2288.73 2548.82 2144.29 -1 0 0
537 1 2690.83 2928.4 2229.99 -1 -1 0
538 1 2039.12 2077.21 3017.05 0 0 -1
539 1 2996.53 2438.62 2653.7 -2 0 -1
540 1 2743.37 3064.79 2443.07 0 0 0
541 1 2490.05 2888.21 2822.04 0 0 -1
542 1 2378.89 2721.06 2417.53 0 -1 0
543 1 2314.44 2669.39 2617.09 0 0 -1
544 1 2934.2 1994.69 2919.17 -1 1 -1
545 1 2261.86 2790.02 2706.12 -1 0 -1
546 1 3102.67 1925.84 1882.51 -1 0 0
547 1 2486.43 2343.62 2398.94 0 -1 0
548 1 1953.88 2034.66 2924.8 0 0 0
549 1 2677.5 2495.35 3092.91 0 0 0
550 1 2156.08 2234.97 1820.92 0 0 0
551 1 2367.05 2673.03 1895.57 0 -1 0
552 1 2647.54 3186.11 3186.5 0 -1 -1
553 1 2841.18 2632.17 3189.33 -1 0 -1
554 1 2291.02 2415.7 2607.75 0 0 0
555 1 2113.54 2351.91 3016.7 0 0 0
556 1 2542.24 2891.63 2529.55 0 0 -1
557 1 2665.29 2617.45 2290.03 -1 0 0
558 1 2536.98 3146.31 2550.4 -1 0 -1
559 1 2534.36 3007.96 2823.68 -1 0 0
560 1 1983.5 2755.48 1744.08 0 0 0
561 1 3113.54 2388.22 2477.96 -1 -1 -1
562 1 2074.79 3125.15 3199.51 0 0 -1
563 1 3202.04 2505.72 2802.35 -1 0 0
564 1 2568.29 2690.62 3130.55 0 1 -1
565 1 3151.88 2627.48 3127.59 0 0 -1
566 1 3165.35 2245.91 2735.97 -1 0 1
567 1 2536.86 1872.1 2791.63 0 0 0
568 1 2938.56 2869.5 2538.07 -1 -1 -1
569 1 2675.08 2250.71 2974.93 0 0 0
570 1 1888.59 2865.56 2631.34 0 -1 0
571 1 2866.46 2776.62 1883.82 -1 -1 0
572 1 2543.18 2721.18 2679.85 -1 -1 0
573 1 2251.18 2334.2 3001.31 1 0 -1
574 1 2891.69 3042.32 3182.84 -1 0 0
575 1 1972.8 2420.79 2908.86 0 0 0
576 1 3145.81 2276.25 2776.09 0 -1 -1
577 1 3079.65 2579.51 2453.58 -1 -1 -1
578 1 1773.26 2605.71 2383.2 1 0 1
579 1 2854.51 3161.84 2542.27 0 0 -1
580 1 2393.05 2673.12 2438.93 0 1 1
581 1 1937.78 2291.48 2458.51 -1 0 0
582 1 2958.8 3009.3 2316.7 0 -1 0
583 1 2530.46 2438.89 2415.5 0 0 0
584 1 3110.6 2922.93 2383.49 0 0 1
585 1 2953.94 3037.73 3062.95 -1 -1 -1
586 1 2901.31 2194.99 3209.23 -1 -1 -2
587 1 1759.18 2221.85 2615.24 1 0 -1
588 1 2037.41 2408.25 2019.32 0 0 0
589 1 2800.01 2962.64 3206.99 1 -1 0
590 1 3137.95 2697.52 2024.53 -1 -1 1
591 1 2210.34 1964.9 3004.82 -1 -1 -1
592 1 1990.68 2337.82 2726.42 0 0 0
593 1 1856.97 2226.48 2903.14 0 0 0
594 1 2159.19 2990.75 2867.01 -1 1 0
595 1 2856.56 1764.57 2908.83 -1 0 -1
596 1 2789.23 2450.87 1938.12 1 0 0
597 1 2659.62 2580.36 3067.66 0 0 0
598 1 2881.69 3088.64 1883.74 0 -1 0
599 1 2309.65 3185.17 2583.77 -1 -1 0
600 1 2877.57 2153.89 2746.23 -1 0 -1
601 2 3239.93 2364.92 1939.65 -1 0 0
602 2 1952.08 2027.16 2289.09 1 0 0
603 2 2942.37 3090.81 2169.79 -1 0 1
604 2 3008.99 2969.74 2806.73 0 -1 0
605 2 1807.26 1779.61 3133.46 0 0 0
606 2 1772.81 2560.43 2215.61 1 0 0
607 2 2157.4 2595.8 2167.25 0 0 0
608 2 2732.74 3058.42 2571.08 0 -1 0
609 2 2875.25 2211.48 2390.32 0 0 0
610 2 2620.42 2895.56 2912.08 0 0 0
611 2 1857.54 2879.99 1827.9 0 0 1
612 2 2478.8 3204.05 2254.87 0 -1 0
613 2 2056.82 2555.59 2657.03 0 0 -1
614 2 2589.29 2088.98 2526.13 0 0 0
615 2 1791.4 2675.85 3089.38 0 0 0
616 2 3183.94 3165.76 1785.33 0 0 0
617 2 1857.58 2847.89 2222.68 0 -1 0
618 2 2469.71 3157.7 2879.39 0 0 0
619 2 2724.96 2102.58 2671.62 0 1 0
620 2 3211.51 3152.28 2460.69 -1 0 0
621 2 1745.85 3172.22 2788.75 0 0 -1
622 2 2299.45 3201.12 1823.84 0 0 0
623 2 2313.29 2550.9 3063.76 0 0 -1
624 2 1753.26 2366.01 2715.89 0 0 -1
625 2 2655.65 1991.32 3188.98 0 0 0
626 2 1872.38 3025.02 2760.34 1 0 -1
627 2 2053.02 1772.2 2603.29 0 1 0
628 2 3080.41 2561.9 2691.42 -1 0 0
629 2 2281.16 2043.58 2295.05 0 0 0
630 2 2527.07 1848.31 2144.01 0 1 0
631 2 3071.72 1909.14 2945.51 0 1 0
632 2 2187.64 2973.74 2035.4 0 -1 0
633 2 1850.77 2979.74 2390.88 0 -1 0
634 2 2985.27 2681.11 2817.27 -1 0 0
635 2 1827.89 1838.08 2268.73 0 0 0
636 2 2768.78 1932.14 2893.31 -1 0 0
637 2 1870.55 2205.31 2715.55 1 0 -1
638 2 1808.25 2001.05 2157.81 0 0 0
639 2 3045.33 2833.28 3157.8 0 0 0
640 2 2635 3241.72 2769.75 0 0 0
641 2 2351.81 2036.51 2619.12 0 0 0
642 2 2535.51 2954.03 2030.73 0 -1 0
643 2 1832.48 1761.96 2441.83 0 0 0
644 2 3208.61 2545.86 1944.43 -1 0 1
645 2 2552.91 3024.47 2240.66 0 -1 0
646 2 2240.89 2964.73 2228.62 0 -1 0
647 2 2174.28 2135.96 3152.65 0 0 0
648 2 2538.43 2633.25 2790.82 0 0 0
649 2 3023.17 2114.51 1760.92 -1 0 0
650 2 3033.49 2317.44 2324.63 0 0 0
651 2 3140.81 2100.31 2123.93 -1 0 0
652 2 1828.24 1820.96 2071.94 0 0 0
653 2 2860.4 2498.32 3073.9 0 0 -1
654 2 2500.04 3130.11 3225.97 0 -1 -1
655 2 2539.51 2001.8 2690.94 0 0 0
656 2 2712.41 1902.86 2706.64 0 0 0
657 2 3002.15 2046.84 2759.54 -1 0 -1
658 2 2589.16 2238.54 2710.71 -1 0 -1
659 2 1765.16 2055.34 2645.7 1 0 0
660 2 2411.89 2310.67 1994.86 0 0 0
661 2 2607.51 1791.21 1976.64 0 0 0
662 2 1970.57 1918.92 1809.06 0 0 0
663 2 1947.13 2841.34 2475.04 0 -1 0
664 2 2582.26 3010.96 3081.44 0 0 -1
665 2 2455.46 2388.5 2222.66 0 0 0
666 2 2563.97 3144.24 2090.84 0 -1 0
667 2 2795.52 1758.02 1946.62 0 0 0
668 2 1959.96 2345.92 2153.34 0 0 0
669 2 3089.42 2360.72 2985.96 -1 0 0
670 2 2185.11 1869.21 2836.82 0 0 -1
671 2 2762.01 1888.13 1801.63 0 0 1
672 2 1960.93 2546.74 2209.92 0 0 0
673 2 2308.69 2334.59 2415.37 0 0 0
674 2 3184.89 1761.07 2170.49 -1 0 0
675 2 2919.11 2793.51 2985.76 -1 0 0
676 2 2576.01 1961.1 1863.9 0 0 0
677 2 2060.59 2922.59 2159.95 0 -1 0
678 2 3092.74 2867.23 1963.05 -1 -1 0
679 2 2046.31 2967.29 3092.98 0 0 0
680 2 3024.44 1972.11 2199 -1 0 0
681 2 2295.69 3074.29 2845.67 0 0 0
682 2 2838.74 2369.4 2268.84 0 0 0
683 2 2410.23 2877.36 2603.1 0 -1 0
684 2 1917.24 3042.42 2222.98 0 -1 0
685 2 1949.93 3132.07 3074.87 0 0 -1
686 2 1945.06 2448.21 1869.39 0 0 0
687 2 2518.08 2833.22 3053 -1 -1 0
688 2 2899.63 3004.71 2464 -1 -1 0
689 2 2147.24 3125.44 3014.94 0 -1 0
690 2 3156.68 2992 3225.19 0 1 -1
691 2 2583.52 2329.68 2093.94 -1 0 0
692 2 2077.4 1747.97 2877.32 0 0 -1
693 2 3092.28 3159.85 2293.48 -1 -1 0
694 2 1877.85 2708.53 2678.13 0 0 0
695 2 2687.34 2130.33 2163.47 0 0 0
696 2 2393.84 1791.22 2957.06 0 1 0
697 2 1943.83 2050.72 2553.43 0 0 0
698 2 1973.52 2429.18 2516.04 1 0 0
699 2 2472.06 1772.92 1825.66 0 0 0
700 2 1765.38 2471.95 1795.96 0 0 0
701 2 3254.1 2836.14 2661.44 0 -1 -1
702 2 1874.99 2468.52 2369.99 0 0 0
703 2 2023.82 3083 2067.59 0 0 0
704 2 2218.9 3029.62 2408.13 0 -1 0
705 2 2056.2 1956.13 2788.68 0 0 -1
706 2 1942.38 2573.73 3247.09 0 0 0
707 2 1935.4 3012.41 2573.43 0 -1 0
708 2 1882.28 2597.89 2510.23 1 0 0
709 2 1876.6 1759.47 2951.1 0 0 0
710 2 2706.01 1809.28 3157.25 0 0 -1
711 2 2014.19 2935.61 1937.99 0 -1 0
712 2 2169.34 2664.77 3020.7 0 0 -1
713 2 2350.88 2479.46 2614.21 0 0 -1
714 2 2856.14 1986.45 2302.98 -1 0 0
715 2 2562.09 2271.09 1897.68 0 0 0
716 2 2311.67 2889.27 1777.98 0 0 0
717 2 3009.88 1755.68 3188.61 -1 0 -1
718 2 2650.36 2436.2 2233.56 -1 0 0
719 2 1986.53 1902.49 2140.09 0 0 0
720 2 1758.87 2002.83 3196.08 0 0 -1
721 2 3179.47 2442.54 2105.02 0 0 0
722 2 3240.74 2985.05 2210.09 -1 -1 0
723 2 2671.82 3050.72 3258.4 0 0 -1
724 2 3008.51 3149.36 2509.41 0 -1 0
725 2 2201.59 3232.28 2729.34 0 -1 -1
726 2 2260.42 2205.62 1928.45 0 0 0
727 2 3107.18 2440.26 1819.04 -1 0 0
728 2 2282.02 2158.65 2454.41 0 0 0
729 2 2897.78 1801.27 2489.73 -1 0 0
730 2 2911.02 2831.1 2026 -1 -1 0
731 2 2306.58 2699.54 3238.48 0 0 0
732 2 3172.16 1837.17 3252.81 -1 0 -1
733 2 2245.12 1819.67 1987.93 0 1 0
734 2 1869.01 2259.54 2293.8 0 0 0
735 2 2381.66 1866.23 2499.83 0 0 0
736 2 2223.53 3171.42 2092.73 0 -1 0
737 2 2182.41 2780.19 2114.32 -1 0 0
738 2 3142.33 2764.93 3005.56 0 0 0
739 2 2249.53 2967.14 3000.29 0 0 0
740 2 2864.85 1864.89 2158.84 0 0 0
741 2 2642.1 2069.04 2974.82 -1 1 0
742 2 2514.9 2128.21 1749.41 0 0 0
743 2 3235.89 2115.06 2463.95 -1 0 0
744 2 2586.16 2253.04 2259.66 0 0 0
745 2 2208.89 3021.83 3176.09 0 0 -1
746 2 2196.13 2613.17 1862.93 0 0 0
747 2 2762.19 2925.25 3031.48 0 0 -1
748 2 2438.06 1891.59 1983.04 0 0 0
749 2 2233.1 2078.15 2743.25 0 0 0
750 2 1818.21 1954.69 2430.81 0 0 0
751 2 3232.6 2666.75 2591.76 0 0 -1
752 2 2999.1 1760.59 2661.34 0 1 0
753 2 1800.96 2296.81 2113.94 0 0 0
754 2 2742.29 2378.66 3167.8 -1 0 0
755 2 2335.04 2122.13 2955.55 0 0 0
756 2 2589.67 3018.74 2429.53 0 -1 0
757 2 2393.91 2207.38 2320.52 0 0 0
758 2 3094.84 3119.04 2708.82 -1 -1 0
759 2 2704.45 1760.33 2142.96 0 0 0
760 2 2480.91 2633.21 2979.76 0 0 -1
761 2 2082.06 3087.94 1845.15 0 -1 0
762 2 2114.45 2101.1 2212.44 0 0 0
763 2 1877.92 2099.81 1809.36 0 0 0
764 2 2386.78 2864.34 2129.61 0 -1 0
765 2 2031.78 2361.03 2342.9 0 0 0
766 2 3118.77 2067.9 1913.34 -1 0 0
767 2 2402.08 1987.16 2148.41 0 1 0
768 2 2004.05 1842.25 2344.51 0 0 0
769 2 1951.82 3225.42 2184.22 0 -1 0
770 2 1775.3 2322.14 2461.48 1 -1 0
771 2 1829.14 2779.13 2952.71 1 0 -1
772 2 2041.4 2167.39 2397.82 0 0 0
773 2 2936.53 1898.83 1771.13 -1 0 1
774 2 1934.92 3033.44 3234.31 0 -1 -1
775 2 3190.36 3233.83 1985.23 -1 -1 0
776 2 2841.87 2793.31 3140.53 -1 0 -1
777 2 3136.81 2616.46 1770.96 -1 0 0
778 2 2121.73 2219.05 2743.07 0 0 -1
779 2 2826.33 2072.93 1745.69 -1 0 0
780 2 2947.37 2548.3 1753.27 -1 0 0
781 2 3036.36 1763.05 1864.88 -1 0 0
782 2 2504.55 2189.39 2933.42 0 0 0
783 2 1999.21 3038.36 2912.33 0 -1 -1
784 2 1828.45 1878 2597.99 0 0 -1
785 2 2984.95 3014.35 1994.33 -1 -1 0
786 2 1909.94 2011.89 1990.08 1 0 0
787 2 2541.31 2767.41 2062.25 0 0 0
788 2 2406.31 2132.38 2781.73 0 0 0
789 2 1843.27 2183.28 3157.75 0 0 -1
790 2 3187.15 2009.02 2324.57 -1 0 0
791 2 3102.26 1757.61 2827.43 0 0 -1
792 2 2104.9 2490.8 3238.59 0 0 -1
793 2 2078.76 1870.92 3173.38 0 0 0
794 2 2998.52 1953.07 2602.27 -1 0 0
795 2 2053.37 2955.54 2722.04 0 0 0
796 2 1859.78 2499.71 3051.32 0 0 -1
797 2 3006.75 3244.24 2984.18 -1 -1 -1
798 2 2027.13 3156.03 2722.26 0 0 0
799 2 3058.28 2178.9 3032.8 -1 1 -1
800 2 3066.97 2926.2 2995.66 -1 0 -1
801 2 2289.36 2267.3 2826.63 0 0 0
802 2 1934.92 1803.39 2757.34 0 1 0
803 2 2535.31 3112.93 1897.57 0 -1 0
804 2 2498.87 2759.49 2255.47 0 -1 0
805 2 2256.03 1851.85 2348.39 0 0 0
806 2 3214.41 2801.92 2107.5 -1 -1 0
807 2 3095.46 3110.07 3099.97 -1 0 -1
808 2 2837.85 2343.35 2056.72 -1 0 0
809 2 3150.7 1921.74 2717.19 0 0 0
810 2 2463.55 1939.81 3225.09 0 0 -1
811 2 1862.09 1944.16 3028.66 1 0 0
812 2 2572.14 1892.32 3037.76 0 0 -1
813 2 2380.99 1897.68 2744.34 0 0 0
814 2 2006.58 2721.28 2138.57 0 0 0