ITEM: TIMESTEP
603000
ITEM: NUMBER OF ATOMS
1000
ITEM: BOX BOUNDS pp pp pp
1.2462395264051197e+03 3.7537604735943451e+03
1.2462395264051197e+03 3.7537604735943451e+03
1.2462395264051197e+03 3.7537604735943451e+03
ITEM: ATOMS id type x y z ix iy iz
1 1 2797.28 2420.43 1409.14 -1 0 1
2 1 2048.26 1279.2 2636.77 0 0 0
3 1 3343.3 2586.8 2125.68 0 0 0
4 1 2228.31 1623.1 3317.34 0 -1 0
5 1 3487.53 3031.08 2723.48 -1 -1 1
6 1 1888.99 1695.75 3484.6 0 0 0
7 1 1604.25 3079.95 2896.14 0 -1 0
8 1 2150.41 1680.46 2471.57 0 0 1
9 1 3044.59 3093.88 2467.49 0 0 0
10 1 2893.09 2510.68 2656.11 0 0 0
11 1 2721.56 2103.5 2616.22 0 0 0
12 1 1354.83 3261.12 3681.33 0 0 0
13 1 3199.92 3595.94 3545.7 -1 0 -1
14 1 2193.67 2740.26 2915.72 0 0 -1
15 1 3293.05 2196.15 2018.16 0 0 0
16 1 2160.9 3744.71 2450.24 0 0 -1
17 1 2428.77 2943.42 2960.27 1 0 -1
18 1 3183.24 2338.54 2485.14 -1 1 0
19 1 2920.63 1829.64 1703.97 -1 0 0
20 1 1395.41 3096.48 3024.97 0 -1 0
21 1 1998.82 2535.92 2586.04 0 1 0
22 1 2691.08 3044.9 2772.65 2 -1 0
23 1 2919.81 2122.71 2717.88 0 0 1
24 1 3024.1 3440.53 2137.72 0 0 0
25 1 1679.47 1868.98 2836.59 -1 0 0
26 1 3014.53 3094.66 2995.46 0 0 0
27 1 3159.71 2385.51 2869.98 -1 0 1
28 1 1989.43 2447.12 2382.9 0 0 0
29 1 2577.69 2243.2 2673.09 0 0 -1
30 1 2834.92 3510.32 2932 0 0 0
31 1 1375.97 1581.56 2955.5 0 0 0
32 1 1558.16 3189.56 3326.86 0 0 -1
33 1 2162.79 2378.52 3199.96 0 0 0
34 1 2444.62 1274.15 2933.96 0 0 0
35 1 1958.44 2150.89 2379.04 0 0 -1
36 1 1446.98 2872.81 1337.37 0 -1 0
37 1 1749.09 1770.07 1819.85 0 0 0
38 1 2180.94 3044.96 2148.87 0 0 0
39 1 3287.99 2341.08 2924.19 -2 0 -1
40 1 3185.41 2472.13 1934.28 -1 -1 2
41 1 1902.11 2969.14 1798.73 0 0 -1
42 1 2973.27 2727.52 2011.63 0 -1 0
43 1 2446.23 2603.64 2002.58 0 -2 0
44 1 3050.73 3475.96 1662.82 0 -1 0
45 1 2456.42 2297.01 2843.01 0 0 0
46 1 2964.45 3624.3 3097.12 -1 -1 0
47 1 3466.51 3312.99 2167.03 -1 -1 -1
48 1 3286.84 2020.79 2838.37 0 0 -1
49 1 2951.78 2563.31 2221.73 -1 0 1
50 1 3115.36 1618.98 3389.57 -1 0 0
51 1 3353.4 1358.22 2204.94 -1 -1 1
52 1 3730.58 2544.08 3586.66 -1 0 -1
53 1 3167.46 1874.12 3477.94 -2 0 -1
54 1 3379.26 2230.24 3053.14 0 0 -1
55 1 3064.27 3095.5 3015.73 -2 0 -1
56 1 3182.42 2111 1574.79 0 0 0
57 1 1874.03 2510.02 3620.09 0 0 -1
58 1 2461.15 2644.71 3580.95 0 0 -1
59 1 2664.53 3465.81 2823.54 -1 -1 0
60 1 1960.76 3239.36 1473.11 -1 -1 1
61 1 1797.51 2862.09 2451.72 -1 0 0
62 1 2603.39 1319.16 3201.03 0 0 -1
63 1 3271.21 2157.07 3216.51 -1 0 0
64 1 2933.59 2651.98 3300.7 0 -1 -1
65 1 3302.21 3132.28 2783.34 -1 -1 -1
66 1 3356.05 2981.42 2535.7 -1 0 1
67 1 2492.52 2417.85 1595.99 0 0 0
68 1 2185.1 2994.81 3406.06 0 -1 -1
69 1 1369.07 2595.76 2867 0 0 0
70 1 1601.98 1389.84 3474.09 0 1 -1
71 1 1871.56 2726.06 2545.76 -1 0 -1
72 1 2784.42 1974.91 3716.44 0 0 -1
73 1 2679.74 1448.18 1265.64 0 1 1
74 1 3233 2764.31 2069.12 -1 0 -1
75 1 1891.93 2470.34 1562.66 0 0 1
76 1 1495.6 1574.84 3118.69 -1 0 0
77 1 2677.86 2517.27 3477.48 -1 -1 -1
78 1 1538.9 3703.24 1700.59 0 -1 0
79 1 1967.48 2310.47 2531.24 0 -1 0
80 1 3226.39 2358.06 2459.93 -1 0 0
81 1 3720.36 1713.37 1723.74 -1 0 0
82 1 1764.17 2167.4 3505.69 1 0 0
83 1 2473.86 1927.99 2754.42 -1 -1 -1
84 1 1873.15 3711.29 3575.15 1 0 -1
85 1 2504.1 2388.86 2415.4 0 -1 0
86 1 3528.88 2350.93 2940.55 -1 0 0
87 1 1607.91 1867.22 3029.89 0 -1 -1
88 1 1390.78 2840.96 1916.6 0 -1 0
89 1 2957.54 2921.97 1638.88 0 0 0
90 1 3594.4 3377.33 2272.34 -2 -1 0
91 1 1521.8 3590.71 3082.45 0 -1 -1
92 1 1850.81 2866.9 2447.78 0 -1 -1
93 1 2147.62 3507.08 2794.83 1 0 0
94 1 2208.33 2033.15 3534.76 0 0 -1
95 1 1635.66 2413.06 2974.57 -1 -1 -1
96 1 2851.31 2448.73 1822.85 -1 0 0
97 1 2239.03 2384.34 1895.9 0 -1 1
98 1 2758.81 1983.34 3120.52 -1 -1 0
99 1 2451.48 2978.2 3157.35 0 -1 -1
100 1 2816.76 1855.78 1381.92 -1 0 0
101 1 1368.89 3037.21 2322.44 0 -1 0
102 1 2196.19 1305.87 2733.65 -1 0 0
103 1 2997.67 2513 1958.51 -1 0 0
104 1 3620.34 2766.97 2416.37 0 -1 -1
105 1 3542.14 3250.62 2856.55 -1 0 0
106 1 3611 1842.79 2946.55 0 1 -1
107 1 2851.32 2081.05 2427.9 -1 -2 0
108 1 3469.57 3332.87 1467.86 -1 0 -1
109 1 2174.51 2543.75 2380.8 -1 -1 0
110 1 2844.99 2829.24 1457.58 0 -1 0
111 1 3601.99 1246.84 3609.53 -1 0 -1
112 1 2704.68 1492.93 3147.77 0 0 0
113 1 2346.21 2808.67 3106.96 0 0 -1
114 1 2790.29 2386.74 3078.43 -1 0 0
115 1 2182.44 2729.31 3213.98 0 0 -1
116 1 2982.89 2399.09 3029.82 0 0 0
117 1 2312.11 3658.04 2829.82 0 -1 -1
118 1 1994.34 2892.05 2203.48 -1 0 -1
119 1 3530.85 3121.45 2154.9 0 -1 0
120 1 2863.23 2254.94 1621.22 1 0 0
121 1 3290.87 3427.55 3234.02 -1 0 0
122 1 2894.92 3278.95 2450.99 0 0 -1
123 1 1549.03 1506.31 3635.53 -1 1 -1
124 1 2627.6 2525.55 1389.88 0 0 1
125 1 1553.14 3258.64 1812.9 0 -2 0
126 1 2102.58 3747.52 3175.66 0 0 -1
127 1 2866.14 2190.19 1984.46 -1 -1 0
128 1 1939.37 2207.27 3749.91 -1 0 0
129 1 2480.04 2411.83 2373.1 -1 0 0
130 1 3592.17 2681.33 1855.39 0 -1 0
131 1 3060.36 3362.54 1292.36 -1 -1 0
132 1 2656.81 2908.87 3186.24 0 -1 -1
133 1 2525.72 2400.09 2989.3 0 0 -1
134 1 1772.92 3433.67 2479.56 -1 -1 -1
135 1 2074.22 3657.48 3577.82 0 -1 -1
136 1 3131.73 1992.94 3319.69 -1 0 0
137 1 3360.82 1722.03 1781.46 -1 0 0
138 1 2848.37 2607.95 1704.09 0 -1 0
139 1 3134.91 2620.57 1913.98 -1 -1 -1
140 1 3093.01 3173 2857.4 -1 -1 -1
141 1 3001.61 2910.31 1925.98 -1 1 0
142 1 2418.77 2171.11 2999.89 0 1 -1
143 1 3345.52 3144.14 2185.39 -1 0 0
144 1 1357.12 3166.56 2587.1 -1 -1 0
145 1 2248.08 2144.55 1969.55 0 0 0
146 1 3532.21 2603.1 2036.81 -1 -1 0
147 1 1525.83 2474.56 2797.59 0 0 -1
148 1 2805.16 2780.41 2305.47 -1 -1 1
149 1 3192.36 2963.07 2854.27 0 0 0
150 1 2401.96 2628.1 2581.33 0 0 0
151 1 2570.56 3223.25 2853.94 0 -2 -1
152 1 3561.04 2680 3089.77 -1 -1 0
153 1 3050.19 2896.6 3003.62 -1 -1 -1
154 1 3439.2 2759.08 2197.77 -1 0 -1
155 1 3146.76 2320.89 2520.06 0 0 0
156 1 1879.43 2516.48 3371.93 0 0 -2
157 1 3702.97 3149.44 2272.36 0 0 -1
158 1 2817.6 2834.2 1866.88 -1 -1 0
159 1 3237.32 2708.67 2724.41 0 -1 0
160 1 3066.1 1735.04 2968.1 -1 0 0
161 1 2769.81 2816.01 1658.6 0 0 -1
162 1 2919.1 1906.76 2548.65 0 -1 0
163 1 2346.83 2615.12 3011.68 0 0 -1
164 1 3404.58 2416.23 1725.85 0 -1 -1
165 1 2213.76 2029.06 3587.86 0 0 -1
166 1 1303.54 2798.27 1753.19 0 0 -1
167 1 2752.26 2787.2 2299.06 0 -1 0
168 1 1657.61 2038.85 3176.55 0 0 0
169 1 2064.87 3477.44 1582.99 0 -1 -1
170 1 3141 3105.18 2301.91 0 -1 0
171 1 2939.98 1980.66 3243.76 -1 -1 -1
172 1 2658.82 3116.18 1985.93 0 -1 -1
173 1 2923.85 2342.14 2533.03 -1 0 -1
174 1 3010.53 1586.99 3630.23 -2 0 -1
175 1 3354.06 3203.75 1324.01 -1 -1 -1
176 1 1978.42 1940.14 3159.68 0 0 0
177 1 2942.7 3547.59 1453.26 -1 0 0
178 1 3533.46 2077 2920.17 -1 0 0
179 1 1690.53 2040.82 3219.02 -1 0 0
180 1 3454.64 3055.35 3152.49 0 0 -1
181 1 1467.51 2716.45 3280.55 0 -1 1
182 1 3004.14 3603.22 2059.42 0 -1 0
183 1 1335.34 3205.56 1830.54 0 -1 0
184 1 3105.55 2126.77 2763.02 0 -1 1
185 1 1453.81 2212.94 2689.04 0 0 -1
186 1 3280 2270.94 1637.21 -1 0 -1
187 1 3714.41 2725.63 2949.21 0 0 -1
188 1 2614.21 1285.56 3677.8 0 1 -1
189 1 3666.94 1933.82 3558.18 -1 0 -1
190 1 2628.1 2734.23 2480.03 -1 0 0
191 1 3021.8 1436.36 3398.46 0 0 0
192 1 3479.92 3534.17 1532.83 -1 -1 0
193 1 3585.58 2915.38 3088.2 -2 -1 0
194 1 3064.08 1999.5 1745.69 0 -1 -1
195 1 2019.85 2645.77 2883.2 -1 0 0
196 1 2352.96 2522.65 3703.87 0 0 -1
197 1 2057.87 2216.17 1392.57 -1 1 1
198 1 2947.82 3458.08 3558.45 -1 -1 0
199 1 2268.74 3412.87 1318.3 0 0 1
200 1 1916.29 1717.4 3176.95 0 0 -1
201 1 3459.22 2062.95 3171.37 -1 0 0
202 1 2620.58 2324.19 3574.39 -1 -1 -1
203 1 3323.26 3308.17 3604.01 -1 -1 0
204 1 2425.74 2285.86 3188.53 0 -1 -2
205 1 3185.98 2677.98 3275.72 -1 -1 0
206 1 3509.81 1393.67 3483.64 -1 0 0
207 1 2386.1 2851.64 3549.19 -1 -1 -1
208 1 2399.88 2100.17 2803.87 0 0 -1
209 1 2805.02 2752.26 3172.34 -1 -1 0
210 1 3296.9 2560.77 1545.66 0 -1 0
211 1 2974.49 3105.92 1554.97 -1 -1 0
212 1 2311.62 1260.96 2310.04 0 0 -1
213 1 3254.6 2769.76 2502.31 0 1 -1
214 1 2371.47 3048.05 2457.51 0 -1 0
215 1 1247.54 3143.89 1656.72 0 0 -1
216 1 2735.76 2273.72 3441.73 -1 0 -1
217 1 3103.92 2026.05 1940.05 -1 0 1
218 1 2025.79 2658.76 1765.04 0 0 0
219 1 3314.77 3126.51 2408.96 0 -1 0
220 1 2049.69 2408.99 3426.88 -1 0 -1
221 1 3190 1466.68 3273.41 -1 0 -1
222 1 3009.98 2060.19 1252.36 0 -1 1
223 1 2448.53 2437.78 3518.91 0 -1 -2
224 1 1412.95 3530.27 2493.44 0 -1 0
225 1 2932.42 3661.01 2423.43 0 -1 0
226 1 2896.22 2572.35 3077.09 0 -1 0
227 1 3552.99 2359.03 2738.64 -1 -1 -1
228 1 1310.36 3410.17 1327.33 0 0 1
229 1 3046.5 1913.63 2119.61 -1 -1 0
230 1 1386.84 2397.88 2646.13 0 0 -1
231 1 1895.09 2852.51 2421.11 -1 -1 0
232 1 1947.64 3630.86 3744.26 0 -1 -1
233 1 3555.14 2869.84 2873.52 -1 0 1
234 1 1785.88 1578.85 2606.32 0 -1 -1
235 1 2803.15 2321.88 1433.19 -1 -1 0
236 1 2498.57 2602.66 1989.97 -1 0 0
237 1 3278.36 2541.94 3142.9 0 -1 0
238 1 3191.73 2962.89 2440.61 0 -1 0
239 1 2816.89 2620.21 1906.88 -1 -1 0
240 1 2037.58 2566.68 2564.2 1 0 -1
241 1 2786.37 3614.02 1630.41 0 -1 0
242 1 2694.77 1878.99 1550.72 0 -2 0
243 1 1664.18 3704.42 1504.71 0 -1 0
244 1 3115.73 2644.19 2904.36 0 -1 -1
245 1 3430.76 1349.19 2525.32 -1 0 0
246 1 3066.95 1662.72 2765.8 0 -1 0
247 1 2401.67 3674.02 2653.22 0 -1 0
248 1 3419.79 2937.59 1835.22 -1 -1 0
249 1 3424.29 2698.08 3267.79 0 0 0
250 1 3685.2 1513.93 3480.4 -1 0 -1
251 1 3277.63 2782.62 1788.58 0 -1 0
252 1 3108.47 1449.15 2756.79 -1 0 0
253 1 1500.16 2718.88 1824.13 1 0 0
254 1 3603.9 2163.6 2641.27 -1 0 -1
255 1 2981.98 1738.92 3511.78 -1 0 -1
256 1 2429.93 2400.04 2986.23 -1 0 0
257 1 3037.16 3283.34 1726.06 -1 -1 0
258 1 2605.05 1859.96 3057.83 0 0 -1
259 1 2685.19 1917.32 3559.2 -1 0 -1
260 1 2694.95 2557.93 3185.35 0 0 0
261 1 1346.58 1860.12 2218.76 0 0 0
262 1 3378.75 2538.57 1902.35 -1 0 -1
263 1 2623.89 2987.49 2967.23 -1 0 -1
264 1 2120.34 2346.35 1569.54 0 0 -1
265 1 3602.07 1759.78 3187.3 -1 0 -1
266 1 3244.72 1488.9 3485.81 -1 0 -1
267 1 1334.56 2215.25 3134.49 0 0 -1
268 1 2049.78 2519.9 2588.04 0 -1 0
269 1 2970.45 1347.67 3049.29 -1 0 0
270 1 2257.71 2032.77 3556.67 0 0 -1
271 1 1821.54 2994.12 2327.97 0 -1 -1
272 1 2606.93 2365 3207.58 -1 0 -1
273 1 1979.02 2322.59 3160.93 0 0 -1
274 1 2258.34 2585.62 3224.42 1 -1 0
275 1 3055.85 2419.76 1580.05 -1 0 1
276 1 2935.03 2737.04 1289.84 -1 -1 0
277 1 2662.67 2683.44 1787.74 0 0 1
278 1 1285.24 1395.47 2912.37 0 0 -1
279 1 2272.89 2832.65 2422.85 0 -1 0
280 1 2426.95 2450.51 3316.05 -1 0 -1
281 1 1689.53 3049.71 2752.46 0 -1 0
282 1 1773.05 2235.87 3111.86 0 -1 0
283 1 2238.44 3554.5 3658.48 0 -1 -1
284 1 1979.99 2184.04 3492.92 0 0 -1
285 1 3742.54 2843.54 3124.03 -1 0 -1
286 1 3087.33 1877.55 3102.76 -1 1 0
287 1 2930.08 1770.93 1505.81 0 0 0
288 1 2256.1 2265.24 2835.69 1 0 0
289 1 1952.06 2802.42 2777.03 0 -1 0
290 1 3236.59 2475.42 2271.77 -1 -1 0
291 1 2127.56 2782.72 2435.12 -1 -1 0
292 1 3539.34 2121.01 2889.75 -1 0 -1
293 1 2692.83 2584.6 2580.87 0 0 1
294 1 2575.64 2718.29 2726.9 0 -1 -1
295 1 1676.18 3585.5 2566.74 0 -1 0
296 1 3507.98 2475.73 3114.89 0 0 0
297 1 3056.29 2251.37 2615.74 -1 0 0
298 1 2330.37 2423.51 2667.07 0 0 0
299 1 1448.77 1995.47 2570.7 1 0 0
300 1 1833.55 2438.64 3569.76 0 0 0
301 1 2290.52 2464.39 2612.82 -1 0 -1
302 1 3570.11 1704 1345.31 -1 0 0
303 1 3219.24 3623.47 1599.97 0 -1 0
304 1 2195.77 2953.65 3438.74 1 -1 -1
305 1 2361.45 1534.61 3472.39 0 0 -1
306 1 1403.81 3583.07 1316.1 0 -1 0
307 1 3380 2392.31 1767.2 -1 0 -1
308 1 1391.19 1467.94 1284.45 0 0 0
309 1 2728.89 3176.7 2237.89 0 0 -1
310 1 1522 1729.25 2868.89 0 0 -1
311 1 1986.86 2976.06 1329.36 0 -1 -1
312 1 3023.58 2253.52 2658.31 0 -1 1
313 1 1946.67 1832.91 3333.06 0 -1 -1
314 1 1531.15 2257.42 3048.59 1 0 0
315 1 1649.46 1540.69 2758 0 0 0
316 1 3082.43 3115.65 1371.41 -1 0 0
317 1 2044.84 3021.38 2660.23 1 0 -1
318 1 3690.78 3384.09 2961.45 0 -1 -1
319 1 3147.36 2009.25 1367.09 -1 0 0
320 1 2404.53 2763.44 2807.04 0 -1 0
321 1 2709.84 2132.3 3578.82 -1 0 0
322 1 2208.95 2459.36 1460.15 0 -1 0
323 1 1769.58 1870.3 3170.57 0 0 -1
324 1 3668.14 2258.03 1337.44 0 0 0
325 1 1897.08 3510.31 3086.33 0 0 0
326 1 2809.18 2934.05 3067.8 0 0 -1
327 1 2644.02 3307.04 2670.2 0 -1 0
328 1 1942.39 2088.41 2579.31 0 0 0
329 1 1920.72 2920.05 1799.8 0 0 0
330 1 2770.33 2531.28 2932.16 0 0 0
331 1 2459.5 2616.84 1792.46 -1 0 0
332 1 2151.07 3009.05 3367.13 0 -1 -1
333 1 3078.29 2515.15 3198.84 0 0 0
334 1 3117.1 3751.72 3521 -2 -1 0
335 1 2552.74 3108.35 2359.8 0 0 0
336 1 2438.99 2315.4 3708.01 0 -1 -1
337 1 1392.47 2384.56 2039.85 0 0 0
338 1 2799.96 2832.62 3639.49 0 -1 -1
339 1 3056.98 2785.83 3400.3 0 -1 0
340 1 2384.06 2420.08 2661.7 0 -1 0
341 1 2812.57 3568.49 3423.09 0 -1 -2
342 1 2954.56 3040.96 3184.02 0 -1 0
343 1 2895.83 1826.91 3082.33 1 -1 0
344 1 3183.53 3264.97 3246.58 0 -1 -1
345 1 2570.34 2159.1 1249.9 0 0 0
346 1 2789.27 2373.68 1434.19 0 -1 0
347 1 2477.36 2421.15 2999.14 -1 0 -1
348 1 2012.18 2492.29 2614.98 -1 -1 -1
349 1 2968.79 2708.39 2662.22 -1 0 0
350 1 2110.71 2168.25 1796.09 0 1 0
351 1 1783.25 1286.57 3411.84 0 0 -1
352 1 2281.28 2151.52 3317.74 0 1 0
353 1 3285.12 2680.72 2299.4 0 -1 0
354 1 2011.66 2674.74 2242.91 0 0 0
355 1 2291.27 2912.02 3277.95 0 -1 -1
356 1 2106.65 3397.63 1400.93 0 -1 0
357 1 1951.08 3106.16 3009.66 0 -1 -1
358 1 3272.4 3735.89 2068.43 -1 -1 0
359 1 2701.21 2193.56 3119.17 0 0 0
360 1 2044.01 1311.21 3683.61 0 1 -1
361 1 3613.34 2634.93 2248.73 -1 0 0
362 1 2984.72 2684.25 2958.49 0 -1 0
363 1 2523.1 2313.04 3385.89 0 0 -1
364 1 2994.72 2821.97 3206.19 -1 0 0
365 1 1963.4 3475.64 2896.46 0 -1 0
366 1 1739.03 2646.06 1458.48 0 0 0
367 1 2120.93 2617.3 3057.61 0 -1 -1
368 1 2713.84 1589.15 2634.59 -1 0 0
369 1 3359.45 2856.01 2778.25 0 0 -1
370 1 3464.74 2943.1 2023.91 -2 0 0
371 1 3577.5 2055.74 1705.72 -1 0 0
372 1 3200.93 3219.38 3681.93 -1 -1 -1
373 1 3038.55 2683.93 2961.62 0 1 0
374 1 2541.23 1615.45 2589.09 0 0 0
375 1 3341.68 1343.23 2255.27 0 0 -1
376 1 2815.69 2730.69 2506.34 0 1 0
377 1 3448.78 2485.29 2258.16 0 0 0
378 1 2231.66 1680.35 3123.66 0 1 -1
379 1 3129.92 2580.27 2098.5 -1 -1 0
380 1 2679.29 1984.46 1744.54 -1 0 0
381 1 2135.42 2568.59 3352.86 0 0 -1
382 1 3497.28 3067.56 2931.47 -1 -1 0
383 1 2849.43 2221.49 2267.95 -1 0 0
384 1 3013.93 2939.57 2315.73 0 -1 0
385 1 3267.1 2860.35 2243.41 0 0 0
386 1 3019.34 3231.73 2650.7 -1 0 0
387 1 3280.41 2290.24 2908.59 -1 0 -1
388 1 1248.5 2878.7 3085.72 0 0 -1
389 1 2411.64 2524.08 1433.72 0 0 0
390 1 1318.11 2735.64 1261.41 0 -1 0
391 1 2367.86 1666.32 1449.1 0 0 0
392 1 1612.15 2585.26 3250.3 -1 -1 -1
393 1 2638.97 2385.23 2801.97 0 0 1
394 1 1658.49 1969.31 3467.58 1 0 -1
395 1 2436.55 2428.88 1825.74 0 -1 -1
396 1 1353.81 2967.3 2627.71 1 0 0
397 1 2928.67 2979.22 1327.82 -1 0 0
398 1 2067.1 2399.27 3013.91 0 -1 0
399 1 1903.9 1443.23 2999.34 0 0 0
400 1 2033.87 2264.81 2844.52 -1 0 -1
401 1 2511.79 2441.13 2405.19 0 0 -1
402 1 2074.66 2589.68 3724.27 0 0 -2
403 1 1405.26 1876.17 3334.32 0 0 -1
404 1 2650.97 2757.19 1997.33 0 0 0
405 1 2763.12 3333.62 2965.31 -1 0 0
406 1 1914.01 3066.35 2181.23 0 -1 0
407 1 1581.18 3141.7 3124.23 -1 -1 0
408 1 3665.58 2360.34 3116.29 0 0 -1
409 1 3434.39 2755.4 2598.63 0 -1 -1
410 1 2637.27 2122.18 2403.01 0 0 -1
411 1 1937.94 1828.91 1751.39 0 0 0
412 1 2352.61 3293.13 3000.15 0 0 0
413 1 1388.48 2752.35 3056.67 0 0 -1
414 1 1783.2 3014.47 2980.1 0 -1 -1
415 1 1826.36 2326.12 2923.32 0 0 -1
416 1 2707.76 2756.72 1337.17 0 0 0
417 1 1486.88 1902.96 2379.08 -1 0 -1
418 1 3647.58 3251.58 1802.35 -1 0 1
419 1 2067.86 2604.86 2540.61 0 0 0
420 1 3458.32 3014.4 2277.3 -2 -1 -1
421 1 3045.92 2553.49 1455.44 -1 0 0
422 1 1417.12 3253.84 1638.57 0 -1 0
423 1 3334.48 2839.42 1368.31 0 -1 0
424 1 1767.18 3013.27 3511.94 0 -1 -1
425 1 2315.91 3028.68 3612.95 0 0 -1
426 1 3013.88 2655.02 2923.76 -1 0 -1
427 1 3434.41 2207.15 2129.94 -1 -1 0
428 1 2283.8 3169.55 2616.91 0 -1 -1
429 1 3106.5 2912.41 2109.11 -1 0 0
430 1 1838.19 1585.67 2127.05 0 -1 0
431 1 2674.72 2339.83 1292.86 0 0 0
432 1 1707.84 3017.3 2157.54 0 -1 0
433 1 2089.9 2772.03 2471.92 -1 -1 -1
434 1 3404.35 2813.51 2394.38 -1 0 0
435 1 3027.16 1828.02 3306.99 -1 0 0
436 1 3119.32 2819.17 1314.05 -1 0 0
437 1 2862.34 2085.91 1757.16 0 1 0
438 1 3700.26 2505.33 2744.33 -1 -1 -1
439 1 3004.08 2340.22 1553.56 0 0 0
440 1 3297.42 1726.87 3378.06 -1 0 -1
441 1 2877.98 1577.32 3442.73 -1 0 -1
442 1 1549.15 2606.93 2936.44 0 0 0
443 1 3339.12 2535.61 3341.14 0 -1 0
444 1 2984.88 2737.63 1788.48 -2 0 0
445 1 2380.62 3189.55 2595.89 0 -1 0
446 1 3185.33 1671.86 3583.76 -1 0 -1
447 1 2715.75 2818.41 2669.95 0 0 0
448 1 1789.92 2820.28 2169.77 -1 -1 0
449 1 2164.09 2445.69 1486.37 -1 0 0
450 1 1708.87 2394.58 3406.83 0 0 -1
451 1 1757.91 2862.65 2848.16 0 -1 -1
452 1 1971.6 2045.81 3352.96 0 0 0
453 1 3403.65 3383.18 2338.98 -1 0 0
454 1 1705.31 2070.07 2111.12 0 0 -1
455 1 2812.7 2641.41 3477.01 -1 0 -1
456 1 3173.64 1430.31 1307.73 0 1 0
457 1 2494.06 2894.78 2390.32 0 -1 -1
458 1 1649.9 2005.67 3218.36 0 1 -1
459 1 1840.14 2421.53 2044.34 0 -1 -1
460 1 3456.81 2475.54 2594.06 -1 -1 0
461 1 3005.51 2846.41 2503.26 0 -1 0
462 1 3214.49 2905.5 2636.03 -1 0 -1
463 1 3606.44 1811.64 3200.91 -1 0 -1
464 1 2775.51 2687.58 2743.2 0 0 0
465 1 1304.47 2845.38 2424.32 1 0 -2
466 1 2919.46 3227.99 2813.33 -1 -1 0
467 1 2792.14 2637.31 1482.01 0 1 0
468 1 3487.44 2976.75 1386.23 0 -1 1
469 1 3093.78 2537.84 2727.12 0 -1 -1
470 1 3084.91 3274.84 1510.97 -1 -1 -1
471 1 3093.07 2743.07 2235.91 0 0 0
472 1 2880.94 3180.47 1378.88 0 -1 0
473 1 1280.68 2341.22 3303.79 1 -1 0
474 1 3194.29 2275.16 3036.85 -2 -1 -1
475 1 3025.58 2529.78 1757.74 0 -1 0
476 1 3086.3 3697.08 1849.73 -1 -1 0
477 1 3472.33 2256.65 1705.94 0 -1 -1
478 1 2676.89 2483.41 1703.39 -1 -1 0
479 1 2676.04 1364.37 2188.24 0 0 -1
480 1 3557.3 2112.6 2439.14 -1 0 0
481 1 3159.35 1434.79 1256.09 0 1 1
482 1 2739.25 1684.44 3068.63 0 -1 -1
483 1 3228.27 2078.81 3000.73 -1 1 0
484 1 2919.78 3145.51 2265.59 -1 -1 0
485 1 2270.74 3399.67 2660.09 -1 -1 -1
486 1 3680.57 3156.36 1442.19 -1 -1 0
487 1 2842.82 2352.58 2876.7 -1 0 -1
488 1 1943.54 1418.52 2503.73 0 0 0
489 1 3414.65 2751.81 1926.44 -1 0 0
490 1 3219.84 2362.13 3263.63 -1 0 -1
491 1 2725.26 2864.69 2841.58 0 0 -1
492 1 2988.92 2557.52 3722.41 0 -1 0
493 1 2849.74 2435.62 2347.77 -1 0 0
494 1 2237.88 2346.28 3396.04 1 -1 0
495 1 3260.46 2968.25 1974.72 0 -1 0
496 1 3067.68 2659.55 2923.26 1 0 0
497 1 2691.22 3665.45 2714.1 -1 -1 0
498 1 2808.61 3200.28 2629.48 0 -1 0
499 1 2219.39 2511.98 1463.09 -1 0 -1
500 1 2819.88 3332.74 2225.81 0 -1 -1
501 1 2463.76 2847.83 2595.05 -1 0 -1
502 1 1432.04 3215.35 3165.58 -1 0 0
503 1 2481.34 2459.8 3036.13 0 0 0
504 1 2108.28 2635.47 2522.37 0 0 0
505 1 1839.16 2469.96 3612.84 -1 0 -1
506 1 1319.62 1939.55 2039.08 -1 0 0
507 1 3563.67 1783.26 3217.01 -1 0 -1
508 1 1597.38 1451.38 1636.86 0 0 -1
509 1 1612.2 1511.19 2525.76 0 0 0
510 1 2782.86 2268.22 2681.64 -1 -1 -1
511 1 3674.38 3300.68 2448.18 0 0 -1
512 1 1497.5 3332.64 3495.17 0 -1 -1
513 1 3266.19 2508.32 1748.04 0 -1 0
514 1 2930.91 2077.8 2148.87 -2 0 1
515 1 2483.16 1992.38 2407.73 -1 0 -1
516 1 2536.98 3650.27 2799.28 -1 -1 0
517 1 3217.61 3189.72 3500.77 0 -1 -1
518 1 1923.34 3037.6 2827.55 0 0 -1
519 1 2732.9 2639.42 2344.49 0 0 0
520 1 3275.48 2983.8 1366.09 -1 0 0
521 1 2513.53 2336.07 1394.62 -1 0 1
522 1 2473.55 2649.76 1997.39 -1 0 0
523 1 3246.13 3149.76 1504.45 0 0 0
524 1 2698.71 2376.6 2497.1 -1 -1 0
525 1 3301.45 1952.02 3182.33 0 0 -1
526 1 1854.18 2284.86 2715 0 0 0
527 1 1246.91 2041.28 3057.46 0 -1 -1
528 1 3437.25 2391.88 2075.21 0 1 0
529 1 2497.67 2657.03 1288.76 -1 -1 0
530 1 1692.02 2821.58 2645.1 0 0 0
531 1 1963.47 3677 1593.02 0 -1 0
532 1 3422.38 2646.41 1734.97 -1 0 0
533 1 3302.53 1360.02 2222.39 -1 0 -1
534 1 2267.12 1250.52 3022.26 0 0 -1
535 1 2756.84 3610.92 2479.78 -1 -2 0
536 1 2150.93 2580.66 1912.28 -1 0 0
537 1 2815.3 3207.83 2053.87 -1 -1 0
538 1 1738.51 1801.44 3354.3 0 0 -1
539 1 3320.4 2398.59 2753.96 -2 0 -1
540 1 2902.1 3433.19 2405.93 0 0 0
541 1 2483.56 3141.43 3032.09 0 0 -1
542 1 2297.47 2850.66 2378.5 0 -1 0
543 1 2193.41 2779.88 2693.46 0 0 -1
544 1 3217.41 1665.09 3192.58 -1 1 -1
545 1 2106.53 2979.19 2840.57 -1 0 -1
546 1 3495.76 1551.33 1479.74 -1 0 0
547 1 2477.58 2241.61 2333.03 0 -1 0
548 1 1597.67 1731.14 3201.88 0 0 0
549 1 2783.75 2499.34 3485.46 0 0 0
550 1 1905.67 2101.44 1409.1 0 0 0
551 1 2280.34 2785.89 1501.33 0 -1 0
552 1 2743.78 3633.64 3634.28 0 -1 -1
553 1 3063.71 2718.38 3638.95 -1 0 -1
554 1 2213.28 2403.89 2677.06 0 0 0
555 1 1861.47 2255.32 3353.72 0 0 0
556 1 2569.79 3147.08 2548.83 0 0 -1
557 1 2773.11 2694.06 2153.08 -1 0 0
558 1 2561.1 3567.87 2583.27 -1 0 -1
559 1 2556.77 3339.29 3034.81 -1 0 0
560 1 1646.6 2922.12 1251.02 0 0 0
561 1 3513.73 2315.31 2463.59 -1 -1 -1
562 1 1797.45 3532.92 3655.77 0 0 -1
563 1 3659.95 2509.45 2999.57 -1 0 0
564 1 2612.84 2814.95 3541.83 0 1 -1
565 1 3577.07 2710.64 3536.94 0 0 -1
566 1 3581.37 2088.57 2898.56 -1 0 1
567 1 2560.91 1462.54 2981.84 0 0 0
568 1 3224.61 3110.52 2562.9 -1 -1 -1
569 1 2789.29 2088.1 3284.71 0 0 0
570 1 1489.79 3104 2717.01 0 -1 0
571 1 3105.48 2957.04 1481.9 -1 -1 0
572 1 2571.35 2865.45 2797.17 -1 -1 0
573 1 2088.89 2226.05 3328.3 1 0 -1
574 1 3147.18 3396.06 3628.22 -1 0 0
575 1 1628.93 2369.12 3175.55 0 0 0
576 1 3561.89 2118.83 2938.57 0 -1 -1
577 1 3457.74 2631.37 2423.31 -1 -1 -1
578 1 1299.24 2674.66 2307.01 1 0 1
579 1 3085.74 3593.53 2569.85 0 0 -1
580 1 2311.5 2803.22 2399.65 0 1 1
581 1 1571.07 2155.48 2431.46 -1 0 0
582 1 3258.05 3341.49 2197.15 0 -1 0
583 1 2533.28 2403.93 2372.77 0 0 0
584 1 3508.88 3198.78 2307.49 0 0 1
585 1 3250.03 3388.48 3430.14 -1 -1 -1
586 1 3163.07 1996.04 3671.83 -1 -1 -2
587 1 1275.96 2040.43 2690.4 1 0 -1
588 1 1735.68 2348.4 1705.79 0 0 0
589 1 2995.7 3264.4 3668.13 1 -1 0
590 1 3554.06 2826.35 1714.4 -1 -1 1
591 1 2021.41 1615.87 3334.1 -1 -1 -1
592 1 1658.47 2232.04 2874.1 0 0 0
593 1 1437.54 2048.07 3166.09 0 0 0
594 1 1936.89 3310.84 3106.39 -1 1 0
595 1 3089.14 1284.87 3175.5 -1 0 -1
596 1 3011.83 2391.42 1567.92 1 0 0
597 1 2774.11 2605.99 3485.44 0 0 0
598 1 3130.66 3472.59 1481.78 0 -1 0
599 1 2185.49 3632.09 2638.41 -1 -1 0
600 1 3123.85 1928.14 2906.83 -1 0 -1
601 2 3722.56 2276.81 1574.16 -1 0 0
602 2 1594.69 1718.75 2151.52 1 0 0
603 2 3230.92 3476.18 1954.41 -1 0 1
604 2 3340.99 3276.13 3006.79 0 -1 0
605 2 1355.41 1309.73 3546.64 0 0 0
606 2 1298.48 2599.85 2030.12 1 0 0
607 2 1933.93 2658.29 1950.21 0 0 0
608 2 2884.55 3422.65 2617.44 0 -1 0
609 2 3120.01 2023.3 2318.77 0 0 0
610 2 2698.96 3153.57 3180.86 0 0 0
611 2 1438.49 3127.85 1389.52 0 0 1
612 2 2464.97 3663.27 2094.98 0 -1 0
613 2 1767.75 2591.85 2759.46 0 0 -1
614 2 2647.52 1820.89 2543.17 0 0 0
615 2 1329.2 2790.56 3473.81 0 0 0
616 2 3630.05 3600.01 1319.18 0 0 0
617 2 1438.56 3074.8 2041.8 0 -1 0
618 2 2449.95 3586.69 3126.84 0 0 0
619 2 2871.69 1843.37 2783.56 0 1 0
620 2 3675.6 3577.75 2435.05 -1 0 0
621 2 1253.95 3610.68 2977.09 0 0 -1
622 2 2168.64 3658.44 1382.81 0 0 0
623 2 2174.47 2579.39 3407.59 0 0 -1
624 2 1266.18 2278.62 2856.71 0 0 -1
625 2 2757.18 1659.52 3638.38 0 0 0
626 2 1463 3367.47 2930.15 1 0 -1
627 2 1761.47 1297.48 2670.66 0 1 0
628 2 3459 2602.28 2816.28 -1 0 0
629 2 2138.42 1745.87 2161.38 0 0 0
630 2 2544.72 1423.24 1911.81 0 1 0
631 2 3444.64 1523.74 3236.1 0 1 0
632 2 1983.9 3282.75 1732.36 0 -1 0
633 2 1427.29 3292.66 2319.7 0 -1 0
634 2 3301.8 2799.25 3024.22 -1 0 0
635 2 1389.49 1406.33 2117.89 0 0 0
636 2 2944.09 1561.75 3149.86 -1 0 0
637 2 1459.98 2013.1 2856.14 1 0 -1
638 2 1357.04 1675.61 1934.61 0 0 0
639 2 3401.03 3050.67 3586.85 0 0 0
640 2 2723.06 3725.52 2945.7 0 0 0
641 2 2255.14 1734.19 2696.82 0 0 0
642 2 2558.67 3250.18 1724.65 0 -1 0
643 2 1397.08 1280.56 2403.89 0 0 0
644 2 3670.81 2575.77 1582.05 -1 0 1
645 2 2587.42 3366.57 2071.5 0 -1 0
646 2 2071.88 3267.85 2051.61 0 -1 0
647 2 1961.82 1898.52 3578.35 0 0 0
648 2 2563.49 2720.17 2980.5 0 0 0
649 2 3364.41 1863.07 1278.85 -1 0 0
650 2 3397.08 2200.96 2186.55 0 0 0
651 2 3558.79 1839.61 1878.63 -1 0 0
652 2 1390.07 1378.05 1792.74 0 0 0
653 2 3095.47 2497.22 3448.23 0 0 -1
654 2 2500.07 3541.1 3699.49 0 -1 -1
655 2 2565.28 1676.83 2815.48 0 0 0
656 2 2850.96 1513.37 2841.42 0 0 0
657 2 3329.68 1751.25 2928.82 -1 0 -1
658 2 2647.31 2068 2848.15 -1 0 -1
659 2 1285.85 1765.3 2740.74 1 0 0
660 2 2354.42 2187.18 1665.38 0 0 0
661 2 2677.63 1328.9 1635.28 0 0 0
662 2 1625.25 1539.91 1358.39 0 0 0
663 2 1586.51 3063.99 2458.76 0 -1 0
664 2 2635.92 3344.24 3460.69 0 0 -1
665 2 2426.4 2315.78 2041.76 0 0 0
666 2 2605.69 3564.46 1823.96 0 -1 0
667 2 2988.28 1274.05 1585.66 0 0 0
668 2 1607.71 2245.41 1927.23 0 0 0
669 2 3473.87 2269.88 3302.93 -1 0 0
670 2 1957.64 1453.54 3039.86 0 0 -1
671 2 2932.91 1489.02 1346.12 0 0 1
672 2 1609.31 2577.22 2020.71 0 0 0
673 2 2183.91 2226.69 2360.17 0 0 0
674 2 3631.62 1279.1 1955.57 -1 0 0
675 2 3192.47 2984.96 3302.61 -1 0 0
676 2 2625.59 1609.6 1449 0 0 0
677 2 1773.98 3198.24 1938.15 0 -1 0
678 2 3479.35 3106.77 1612.83 -1 -1 0
679 2 1750.39 3272.09 3479.76 0 0 0
680 2 3366.52 1627.78 2002.66 -1 0 0
681 2 2162.43 3448.87 3071.14 0 0 0
682 2 3059.69 2284.22 2118.07 0 0 0
683 2 2341.72 3146.37 2644.22 0 -1 0
684 2 1537.12 3396.21 2042.29 0 -1 0
685 2 1591.15 3544.35 3449.84 0 0 -1
686 2 1583.09 2414.43 1458.07 0 0 0
687 2 2529.87 3050.56 3413.7 -1 -1 0
688 2 3160.29 3333.92 2440.51 -1 -1 0
689 2 1917.15 3533.39 3350.82 0 -1 0
690 2 3585 3312.92 3698.21 0 1 -1
691 2 2638.01 2218.59 1829.09 -1 0 0
692 2 1801.76 1257.45 3123.43 0 0 -1
693 2 3478.6 3590.25 2158.78 -1 -1 0
694 2 1472.05 2844.54 2794.32 0 0 0
695 2 2809.54 1889.21 1943.96 0 0 0
696 2 2324.6 1328.91 3255.18 0 1 0
697 2 1581.06 1757.67 2588.28 0 0 0
698 2 1630.12 2382.99 2526.51 1 0 0
699 2 2453.84 1298.67 1385.81 0 0 0
700 2 1286.22 2453.65 1336.75 0 0 0
701 2 3745.98 3055.39 2766.74 0 -1 -1
702 2 1467.32 2447.99 2285.19 0 0 0
703 2 1713.22 3463.27 1785.55 0 0 0
704 2 2035.55 3375.07 2348.21 0 -1 0
705 2 1766.72 1601.38 2976.98 0 0 -1
706 2 1578.66 2621.82 3734.39 0 0 0
707 2 1567.14 3346.64 2621.32 0 -1 0
708 2 1479.36 2661.74 2516.9 1 0 0
709 2 1469.97 1276.44 3245.34 0 0 0
710 2 2840.39 1358.74 3585.95 0 0 -1
711 2 1697.31 3219.74 1571.41 0 -1 0
712 2 1953.66 2772.25 3360.34 0 0 -1
713 2 2276.47 2429.39 2669.53 0 0 -1
714 2 3088.44 1651.48 2174.47 -1 0 0
715 2 2602.59 2121.78 1504.81 0 0 0
716 2 2188.82 3143.17 1307.03 0 0 0
717 2 3342.46 1270.18 3637.77 -1 0 -1
718 2 2748.44 2394.58 2059.77 -1 0 0
719 2 1651.61 1512.76 1905.33 0 0 0
720 2 1275.46 1678.55 3650.11 0 0 -1
721 2 3622.66 2405.06 1847.39 0 0 0
722 2 3723.9 3301.43 2020.99 -1 -1 0
723 2 2783.89 3409.93 3753.07 0 0 -1
724 2 3340.19 3572.91 2515.55 0 -1 0
725 2 2006.94 3709.92 2878.93 0 -1 -1
726 2 2104.15 2013.6 1555.65 0 0 0
727 2 3503.22 2401.29 1374.87 -1 0 0
728 2 2139.84 1936 2424.67 0 0 0
729 2 3157.24 1345.51 2483.03 -1 0 0
730 2 3179.11 3047.07 1716.83 -1 -1 0
731 2 2180.43 2829.7 3720.17 0 0 0
732 2 3610.59 1404.83 3743.85 -1 0 -1
733 2 2078.87 1375.91 1653.93 0 1 0
734 2 1457.44 2102.7 2159.31 0 0 0
735 2 2304.48 1452.85 2499.72 0 0 0
736 2 2043.2 3609.37 1827.08 0 -1 0
737 2 1956.21 2956.01 1843.35 -1 0 0
738 2 3561.29 2937.74 3335.31 0 0 0
739 2 2086.15 3271.84 3326.61 0 0 0
740 2 3102.82 1450.63 1936.32 0 0 0
741 2 2734.78 1787.95 3284.53 -1 1 0
742 2 2524.61 1885.7 1259.83 0 0 0
743 2 3715.88 1863.98 2440.44 -1 0 0
744 2 2642.36 2091.96 2102.9 0 0 0
745 2 2019.01 3362.19 3617.08 0 0 -1
746 2 1997.92 2686.98 1447.39 0 0 0
747 2 2933.21 3202.63 3378.15 0 0 -1
748 2 2397.66 1494.75 1645.85 0 0 0
749 2 2059.02 1803 2901.91 0 0 0
750 2 1373.5 1599 2385.68 0 0 0
751 2 3710.44 2775.51 2651.62 0 0 -1
752 2 3324.65 1278.3 2766.58 0 1 0
753 2 1345 2164.27 1862.13 0 0 0
754 2 2900.33 2299.52 3603.38 -1 0 0
755 2 2227.45 1875.66 3252.69 0 0 0
756 2 2648.16 3357.1 2383.56 0 -1 0
757 2 2324.71 2016.51 2203.45 0 0 0
758 2 3482.84 3522.82 2845.02 -1 -1 0
759 2 2837.81 1277.87 1910.08 0 0 0
760 2 2468.46 2720.1 3292.7 0 0 -1
761 2 1809.46 3471.44 1418.01 0 -1 0
762 2 1862.97 1840.91 2024.88 0 0 0
763 2 1472.16 1838.78 1358.88 0 0 0
764 2 2312.94 3101.98 1888.02 0 -1 0
765 2 1726.39 2270.38 2240.43 0 0 0
766 2 3522.37 1786.05 1530.69 -1 0 0
767 2 2338.21 1652.66 1919.08 0 1 0
768 2 1680.56 1413.23 2243.09 0 0 0
769 2 1594.26 3698.59 1978.25 0 -1 0
770 2 1302.6 2206.13 2436.36 1 -1 0
771 2 1391.56 2961.2 3247.99 1 0 -1
772 2 1742.27 1950.44 2331.18 0 0 0
773 2 3199.06 1474.73 1293.97 -1 0 1
774 2 1566.34 3381.39 3713.28 0 -1 -1
775 2 3640.65 3712.47 1649.46 -1 -1 0
776 2 3064.86 2984.62 3558.33 -1 0 -1
777 2 3552.17 2692.42 1295.43 -1 0 0
778 2 1875.01 2035.79 2901.62 0 0 -1
779 2 3039.19 1794.37 1253.69 -1 0 0
780 2 3239.17 2579.8 1266.21 -1 0 0
781 2 3386.21 1282.37 1450.62 -1 0 0
782 2 2507.51 1986.8 3216.12 0 0 0
783 2 1672.56 3389.51 3181.27 0 -1 -1
784 2 1390.42 1472.29 2661.91 0 0 -1
785 2 3301.27 3349.84 1664.51 -1 -1 0
786 2 1525.06 1693.51 1657.48 1 0 0
787 2 2568.25 2941.83 1776.72 0 0 0
788 2 2345.19 1892.59 2965.5 0 0 0
789 2 1414.91 1976.7 3586.77 0 0 -1
790 2 3635.35 1688.77 2210.15 -1 0 0
791 2 3495.1 1273.37 3041.01 0 0 -1
792 2 1845.98 2488.07 3678.24 0 0 -1
793 2 1803.99 1460.59 3612.61 0 0 0
794 2 3323.69 1596.32 2668.97 -1 0 0
795 2 1762.06 3252.68 2866.87 0 0 0
796 2 1442.19 2499.51 3410.92 0 0 -1
797 2 3337.29 3729.68 3300 -1 -1 -1
798 2 1718.69 3583.93 2867.23 0 0 0
799 2 3422.43 1969.46 3380.33 -1 1 -1
800 2 3436.79 3204.2 3318.97 -1 0 -1
801 2 2151.96 2115.51 3039.69 0 0 0
802 2 1566.34 1349.02 2925.19 0 1 0
803 2 2558.34 3512.73 1504.62 0 -1 0
804 2 2498.14 2928.75 2095.97 0 -1 0
805 2 2096.9 1429.09 2249.49 0 0 0
806 2 3680.39 2998.85 1851.49 -1 -1 0
807 2 3483.85 3508 3491.31 -1 0 -1
808 2 3058.22 2241.17 1767.58 -1 0 0
809 2 3575.13 1544.56 2858.85 0 0 0
810 2 2439.77 1574.42 3698.05 0 0 -1
811 2 1446 1581.61 3373.49 1 0 0
812 2 2619.2 1495.95 3388.53 0 0 -1
813 2 2303.37 1504.81 2903.71 0 0 0
814 2 1684.73 2865.61 1902.82 0 0 0