ITEM: TIMESTEP
470000
ITEM: NUMBER OF ATOMS
1000
ITEM: BOX BOUNDS pp pp pp
1.4538984840490593e+03 3.5461015159504054e+03
1.4538984840490593e+03 3.5461015159504054e+03
1.4538984840490593e+03 3.5461015159504054e+03
ITEM: ATOMS id type x y z ix iy iz
1 1 2749.41 2439.52 1586.2 -1 0 1
2 1 2123.08 1481.4 2614.12 0 0 0
3 1 3203.63 2572.42 2187.68 0 0 0
4 1 2273.31 1768.34 3181.96 0 -1 0
5 1 3323.97 2943.12 2686.46 -1 -1 1
6 1 1990.19 1828.95 3321.52 0 0 0
7 1 1752.61 2983.9 2830.53 0 -1 0
8 1 2208.31 1816.2 2476.28 0 0 1
9 1 2954.39 2995.51 2472.88 0 0 0
10 1 2827.98 2508.91 2630.26 0 0 0
11 1 2684.86 2169.17 2596.97 0 0 0
12 1 1544.51 3135.06 3485.67 0 0 0
13 1 3083.99 3414.42 3372.5 -1 0 -1
14 1 2244.41 2700.47 2846.86 0 0 -1
15 1 3161.7 2246.48 2097.96 0 0 0
16 1 2217.07 3538.55 2458.48 0 0 -1
17 1 2440.57 2869.97 2884.03 1 0 -1
18 1 3067.4 2364.43 2484.89 -1 1 0
19 1 2850.96 1940.67 1835.81 -1 0 0
20 1 1578.36 2997.69 2938.02 0 -1 0
21 1 2070.83 2519.6 2576.03 0 1 0
22 1 2659.43 2954.65 2727.49 2 -1 0
23 1 2850.28 2185.2 2681.79 0 0 1
24 1 2937.29 3284.75 2197.73 0 0 0
25 1 1815.38 1973.5 2780.84 -1 0 0
26 1 2925.09 2996.1 2911.67 0 0 0
27 1 3050.44 2404.47 2808.7 -1 0 1
28 1 2074 2455.88 2402.3 0 0 0
29 1 2564.82 2285.73 2644.42 0 0 -1
30 1 2779.45 3342.98 2860.45 0 0 0
31 1 1562.14 1733.68 2880.05 0 0 0
32 1 1714.16 3075.35 3189.91 0 0 -1
33 1 2218.64 2398.64 3084.02 0 0 0
34 1 2453.79 1477.19 2862.09 0 0 0
35 1 2048.14 2208.72 2399.07 0 0 -1
36 1 1621.39 2811.06 1529.94 0 -1 0
37 1 1873.46 1890.96 1932.5 0 0 0
38 1 2233.78 2954.7 2207.03 0 0 0
39 1 3158.12 2371.69 2855.25 -2 0 -1
40 1 3071.88 2476.75 2027.98 -1 -1 2
41 1 1997.62 2895.04 1912.86 0 0 -1
42 1 2894.88 2689.84 2092.52 0 -1 0
43 1 2449.77 2584.07 2082.12 0 -2 0
44 1 2959.51 3314.31 1801.48 0 -1 0
45 1 2463.64 2330.63 2786.2 0 0 0
46 1 2887.52 3438.09 2998.22 -1 -1 0
47 1 3306.43 3178.34 2222.18 -1 -1 -1
48 1 3156.51 2100.16 2782.33 0 0 -1
49 1 2876.96 2552.82 2267.82 -1 0 1
50 1 3013.44 1764.9 3242.24 -1 0 0
51 1 3215.56 1548.07 2250.02 -1 -1 1
52 1 3526.76 2536.78 3406.68 -1 0 -1
53 1 3056.91 1977.78 3315.97 -2 0 -1
54 1 3233.63 2274.92 2961.53 0 0 -1
55 1 2975.03 2996.94 2932.03 -2 0 -1
56 1 3069.39 2175.43 1728.03 0 0 0
57 1 1982.87 2512.95 3432.28 0 0 -1
58 1 2467.58 2620.74 3401.91 0 0 -1
59 1 2637.28 3305.84 2769.95 -1 -1 0
60 1 2050.07 3116.9 1643.19 -1 -1 1
61 1 1906.6 2801.13 2459.84 -1 0 0
62 1 2586.27 1514.74 3084.92 0 0 -1
63 1 3143.47 2213.87 3097.83 -1 0 0
64 1 2861.78 2626.81 3168.08 0 -1 -1
65 1 3169.34 3027.56 2736.41 -1 -1 -1
66 1 3214.27 2901.68 2529.79 -1 0 1
67 1 2493.76 2431.46 1745.72 0 0 0
68 1 2240.92 2917.08 3256.97 0 -1 -1
69 1 1556.38 2579.9 2806.21 0 0 0
70 1 1750.71 1573.72 3312.75 0 1 -1
71 1 1975.65 2688.62 2538.18 -1 0 -1
72 1 2737.31 2061.88 3514.96 0 0 -1
73 1 2649.97 1622.39 1470.09 0 1 1
74 1 3111.6 2720.53 2140.49 -1 0 -1
75 1 1992.64 2475.25 1717.91 0 0 1
76 1 1661.95 1728.07 3016.21 -1 0 0
77 1 2639.39 2507.78 3310.9 -1 -1 -1
78 1 1698.09 3503.95 1832.99 0 -1 0
79 1 2055.68 2341.86 2526.07 0 -1 0
80 1 3113.95 2385.04 2463.09 -1 0 0
81 1 3518.23 1843.65 1852.31 -1 0 0
82 1 1886.05 2222.49 3339.12 1 0 0
83 1 2478.19 2022.74 2712.28 -1 -1 -1
84 1 1976.97 3510.67 3397.07 1 0 -1
85 1 2502.88 2403.47 2433.41 0 -1 0
86 1 3358.46 2375.62 2867.58 -1 0 0
87 1 1755.66 1972.03 2942.13 0 -1 -1
88 1 1574.5 2784.49 2013.23 0 -1 0
89 1 2881.76 2852.08 1781.5 0 0 0
90 1 3413.13 3232.02 2310.05 -2 -1 0
91 1 1683.82 3410.06 2985.98 0 -1 -1
92 1 1959.78 2809.41 2460.33 0 -1 -1
93 1 2205.98 3340.28 2745.99 1 0 0
94 1 2248.12 2111.09 3359.62 0 0 -1
95 1 1778.82 2427.46 2895.97 -1 -1 -1
96 1 2793.12 2457.23 1935.01 -1 0 0
97 1 2282.25 2403.49 1995.96 0 -1 1
98 1 2715.94 2068.92 3017.74 -1 -1 0
99 1 2459.51 2899 3048.47 0 -1 -1
100 1 2764.29 1962.48 1567.11 -1 0 0
101 1 1556.23 2948.24 2351.85 0 -1 0
102 1 2246.51 1503.66 2694.95 -1 0 0
103 1 2915.24 2510.85 2048.2 -1 0 0
104 1 3434.78 2722.75 2430.23 0 -1 -1
105 1 3369.53 3126.3 2797.49 -1 0 0
106 1 3426.99 1951.64 2872.59 0 1 -1
107 1 2793.13 2150.44 2439.84 -1 -2 0
108 1 3308.98 3194.92 1638.81 -1 0 -1
109 1 2228.42 2536.51 2400.54 -1 -1 0
110 1 2787.85 2774.71 1630.23 0 -1 0
111 1 3419.47 1454.4 3425.76 -1 0 -1
112 1 2670.78 1659.73 3040.48 0 0 0
113 1 2371.69 2757.54 3006.43 0 0 -1
114 1 2742.21 2405.5 2982.63 -1 0 0
115 1 2235.04 2691.33 3095.72 0 0 -1
116 1 2902.91 2415.81 2942.07 0 0 0
117 1 2343.23 3466.23 2775.19 0 -1 -1
118 1 2078.09 2827.12 2252.6 -1 0 -1
119 1 3360.11 3018.52 2212.06 0 -1 0
120 1 2803.06 2295.53 1766.77 1 0 0
121 1 3159.88 3273.92 3112.45 -1 0 0
122 1 2829.51 3149.94 2459.11 0 0 -1
123 1 1706.54 1670.9 3447.46 -1 1 -1
124 1 2606.46 2521.32 1573.75 0 0 1
125 1 1709.97 3132.98 1926.7 0 -2 0
126 1 2168.41 3540.89 3063.75 0 0 -1
127 1 2805.5 2241.51 2069.85 -1 -1 0
128 1 2032.23 2255.76 3542.89 -1 0 0
129 1 2478.77 2426.5 2391.01 -1 0 0
130 1 3411.27 2651.29 1962.16 0 -1 0
131 1 2967.55 3219.68 1492.38 -1 -1 0
132 1 2630.84 2841.15 3072.58 0 -1 -1
133 1 2529.42 2412.75 2907.18 0 0 -1
134 1 1893.34 3279.03 2482.94 -1 -1 -1
135 1 2144.74 3465.76 3399.3 0 -1 -1
136 1 3027.1 2076.93 3183.92 -1 0 0
137 1 3218.24 1850.88 1900.47 -1 0 0
138 1 2790.67 2590.07 1835.91 0 -1 0
139 1 3029.75 2600.6 2011.04 -1 -1 -1
140 1 2994.79 3061.53 2798.21 -1 -1 -1
141 1 2918.53 2842.35 2021.06 -1 1 0
142 1 2432.22 2225.58 2917.09 0 1 -1
143 1 3205.48 3037.45 2237.5 -1 0 0
144 1 1546.41 3056.16 2572.67 -1 -1 0
145 1 2289.8 2203.42 2057.41 0 0 0
146 1 3361.25 2586.02 2113.53 -1 -1 0
147 1 1687.18 2478.77 2748.3 0 0 -1
148 1 2759.11 2733.39 2338.23 -1 -1 1
149 1 3077.68 2886.37 2795.59 0 0 0
150 1 2418.2 2606.88 2567.86 0 0 0
151 1 2558.87 3103.46 2795.32 0 -2 -1
152 1 3385.3 2650.19 2992.09 -1 -1 0
153 1 2959.06 2830.92 2920.21 -1 -1 -1
154 1 3283.64 2716.17 2247.83 -1 0 -1
155 1 3034.44 2347.94 2522.92 0 0 0
156 1 1982.21 2513.75 3227.51 0 0 -2
157 1 3503.72 3041.87 2310.07 0 0 -1
158 1 2764.99 2778.84 1971.74 -1 -1 0
159 1 3115.2 2674.11 2687.24 0 -1 0
160 1 2972.34 1861.74 2890.57 -1 0 0
161 1 2725.12 2763.67 1797.96 0 0 -1
162 1 2849.68 2005.01 2540.59 0 -1 0
163 1 2372.2 2596.05 2926.93 0 0 -1
164 1 3256.84 2432.13 1850.57 0 -1 -1
165 1 2253.64 2106.97 3413.1 0 0 -1
166 1 1501.71 2748.86 1876.88 0 0 -1
167 1 2705.98 2740.21 2331.8 0 -1 0
168 1 1795.69 2116.93 3059.82 0 0 0
169 1 2136.94 3315.55 1734.88 0 -1 -1
170 1 3034.83 3004.94 2334.72 0 -1 0
171 1 2867.1 2066.68 3120.57 -1 -1 -1
172 1 2632.52 3014.12 2071.07 0 -1 -1
173 1 2853.65 2368.29 2527.56 -1 0 -1
174 1 2925.97 1738.21 3443.03 -2 0 -1
175 1 3212.6 3087.19 1518.78 -1 -1 -1
176 1 2064.81 2032.87 3050.42 0 0 0
177 1 2869.37 3374.08 1626.63 -1 0 0
178 1 3358.84 2142.97 2851.99 -1 0 0
179 1 1828.78 2118.99 3102.36 -1 0 0
180 1 3296.52 2963.37 3044.42 0 0 -1
181 1 1638.52 2680.6 3151.27 0 -1 1
182 1 2920.64 3420.49 2132.39 0 -1 0
183 1 1528.24 3088.7 1941.42 0 -1 0
184 1 3005.25 2188.59 2719.46 0 -1 1
185 1 1627.09 2260.48 2657.73 0 0 -1
186 1 3150.81 2308.88 1780.11 -1 0 -1
187 1 3513.27 2688.26 2874.8 0 0 -1
188 1 2595.3 1486.71 3482.72 0 1 -1
189 1 3473.66 2027.6 3382.91 -1 0 -1
190 1 2606.89 2695.43 2483.34 -1 0 0
191 1 2935.37 1612.53 3249.65 0 0 0
192 1 3317.62 3362.88 1693.02 -1 -1 0
193 1 3405.78 2846.58 2990.77 -2 -1 0
194 1 2970.65 2082.4 1870.63 0 -1 -1
195 1 2099.37 2621.63 2819.73 -1 0 0
196 1 2377.32 2518.9 3504.48 0 0 -1
197 1 2131.1 2263.18 1575.99 -1 1 1
198 1 2873.65 3299.39 3383.14 -1 -1 0
199 1 2307.05 3261.67 1514.02 0 0 1
200 1 2012.97 1847.02 3064.82 0 0 -1
201 1 3300.35 2135.34 3060.18 -1 0 0
202 1 2600.61 2353.31 3396.44 -1 -1 -1
203 1 3186.9 3174.32 3421.16 -1 -1 0
204 1 2438.04 2321.33 3074.49 0 -1 -2
205 1 3072.36 2648.51 3147.24 -1 -1 0
206 1 3342.56 1576.91 3320.72 -1 0 0
207 1 2404.96 2793.39 3375.42 -1 -1 -1
208 1 2416.46 2166.39 2753.54 0 0 -1
209 1 2754.5 2710.47 3060.98 -1 -1 0
210 1 3164.91 2550.7 1703.73 0 -1 0
211 1 2895.9 3005.56 1711.49 -1 -1 0
212 1 2342.82 1466.18 2341.51 0 0 -1
213 1 3129.61 2725.08 2501.93 0 1 -1
214 1 2392.76 2957.28 2464.54 0 -1 0
215 1 1454.99 3037.25 1796.39 0 0 -1
216 1 2696.71 2311.2 3285.75 -1 0 -1
217 1 3003.89 2104.55 2032.8 -1 0 1
218 1 2104.34 2632.46 1886.77 0 0 0
219 1 3179.82 3022.74 2424.04 0 -1 0
220 1 2124.27 2424.07 3273.37 -1 0 -1
221 1 3075.71 1637.83 3145.31 -1 0 -1
222 1 2925.52 2133.03 1459 0 -1 1
223 1 2457.05 2448.08 3350.15 0 -1 -2
224 1 1592.99 3359.63 2494.53 0 -1 0
225 1 2860.8 3468.71 2436.11 0 -1 0
226 1 2830.6 2560.37 2981.51 0 -1 0
227 1 3378.59 2382.38 2699.11 -1 -1 -1
228 1 1507.4 3259.42 1521.56 0 0 1
229 1 2955.99 2010.75 2182.62 -1 -1 0
230 1 1571.21 2414.79 2621.93 0 0 -1
231 1 2001.1 2791.83 2430.16 -1 -1 0
232 1 2039.13 3443.56 3538.18 0 -1 -1
233 1 3380.38 2808.58 2811.65 -1 0 1
234 1 1904.16 1731.42 2588.71 0 -1 -1
235 1 2755.06 2344.66 1609.34 -1 -1 0
236 1 2502.2 2583.09 2069.49 -1 0 0
237 1 3149.44 2534.99 3036.42 0 -1 0
238 1 3077.16 2886.22 2450.44 0 -1 0
239 1 2764.4 2600.3 2005.12 -1 -1 0
240 1 2104.55 2556.64 2555.97 1 0 -1
241 1 2738.94 3429.51 1774.44 0 -1 0
242 1 2662.51 1981.85 1707.95 0 -2 0
243 1 1802.62 3504.94 1669.56 0 -1 0
244 1 3024.9 2616.36 2833.32 0 -1 -1
245 1 3276.6 1539.8 2521.13 -1 0 0
246 1 2973.04 1801.4 2721.78 0 -1 0
247 1 2417.96 3479.57 2627.84 0 -1 0
248 1 3267.45 2865.11 1945.32 -1 -1 0
249 1 3271.2 2665.27 3140.63 0 0 0
250 1 3488.89 1677.25 3318.02 -1 0 -1
251 1 3148.83 2735.81 1906.41 0 -1 0
252 1 3007.69 1623.2 2714.26 -1 0 0
253 1 1665.76 2682.63 1936.08 1 0 0
254 1 3421.06 2219.32 2617.87 -1 0 -1
255 1 2902.15 1864.98 3344.2 -1 0 -1
256 1 2432.86 2412.31 2904.01 -1 0 0
257 1 2948.19 3153.6 1854.25 -1 -1 0
258 1 2587.65 1965.97 2965.44 0 0 -1
259 1 2654.52 2013.83 3383.77 -1 0 -1
260 1 2662.66 2548.34 3071.84 0 0 0
261 1 1537.62 1966.11 2265.34 0 0 0
262 1 3233.2 2532.18 2001.34 -1 0 -1
263 1 2603.37 2906.75 2889.84 -1 0 -1
264 1 2183.22 2371.8 1723.65 0 0 -1
265 1 3419.42 1879.23 3067.76 -1 0 -1
266 1 3121.37 1656.37 3322.53 -1 0 -1
267 1 1527.59 2262.41 3029.4 0 0 -1
268 1 2123.75 2510.06 2575.26 0 -1 0
269 1 2892.53 1538.53 2958.31 -1 0 0
270 1 2297.18 2105.54 3381.3 0 0 -1
271 1 1933.91 2912.28 2356.46 0 -1 -1
272 1 2589.22 2387.36 3090.39 -1 0 -1
273 1 2065.31 2351.97 3051.46 0 0 -1
274 1 2298.36 2571.44 3104.43 1 -1 0
275 1 2969.29 2436.04 1733.79 -1 0 1
276 1 2862.97 2697.78 1490.28 -1 -1 0
277 1 2635.73 2653.05 1905.71 0 0 1
278 1 1486.44 1578.41 2844.07 0 0 -1
279 1 2306.97 2778.19 2439.41 0 -1 0
280 1 2439.05 2458.71 3180.89 -1 0 -1
281 1 1823.77 2958.66 2710.64 0 -1 0
282 1 1893.45 2279.61 3010.52 0 -1 0
283 1 2281.76 3379.84 3466.61 0 -1 -1
284 1 2066.12 2236.37 3328.46 0 0 -1
285 1 3535.59 2783.65 3023.92 -1 0 -1
286 1 2990.05 1980.64 3002.92 -1 1 0
287 1 2858.84 1891.68 1670.47 0 0 0
288 1 2296.49 2304.12 2780.09 1 0 0
289 1 2042.82 2752.33 2731.14 0 -1 0
290 1 3114.59 2479.49 2309.57 -1 -1 0
291 1 2192.44 2736.8 2442.75 -1 -1 0
292 1 3364.74 2187.08 2821.5 -1 0 -1
293 1 2660.89 2570.59 2567.47 0 0 1
294 1 2563.11 2682.14 2689.32 0 -1 -1
295 1 1812.63 3405.71 2555.69 0 -1 0
296 1 3341.03 2479.75 3013.05 0 0 0
297 1 2966.89 2292.37 2593.01 -1 0 0
298 1 2369.84 2430.51 2640.18 0 0 0
299 1 1622.88 2079.04 2558.99 1 0 0
300 1 1943.93 2441.17 3384.14 0 0 0
301 1 2327.61 2473.92 2587.27 -1 0 -1
302 1 3392.87 1835.84 1536.56 -1 0 0
303 1 3100.11 3437.39 1749.04 0 -1 0
304 1 2247.17 2872.89 3287.31 1 -1 -1
305 1 2384.39 1694.51 3311.34 0 0 -1
306 1 1585.37 3403.68 1512.19 0 -1 0
307 1 3232.17 2408.12 1892.08 -1 0 -1
308 1 1574.84 1638.88 1485.78 0 0 0
309 1 2690.98 3064.62 2281.31 0 0 -1
310 1 1683.98 1856.91 2807.79 0 0 -1
311 1 2071.85 2897.21 1523.25 0 -1 -1
312 1 2934.13 2294.53 2635.65 0 -1 1
313 1 2038.32 1943.4 3195.08 0 -1 -1
314 1 1691.62 2297.6 2957.73 1 0 0
315 1 1790.33 1699.58 2715.27 0 0 0
316 1 2985.97 3013.68 1558.34 -1 0 0
317 1 2120.23 2935.02 2633.69 1 0 -1
318 1 3493.56 3237.66 2885.02 0 -1 -1
319 1 3040.14 2090.53 1554.73 -1 0 0
320 1 2420.34 2719.8 2756.18 0 -1 0
321 1 2675.08 2193.2 3400.13 -1 0 0
322 1 2259.68 2462.39 1627.85 0 -1 0
323 1 1890.56 1974.6 3059.5 0 0 -1
324 1 3474.66 2298.11 1529.99 0 0 0
325 1 1996.94 3342.98 2989.21 0 0 0
326 1 2757.97 2862.16 2973.75 0 0 -1
327 1 2620.16 3173.37 2642.01 0 -1 0
328 1 2034.75 2156.58 2566.18 0 0 0
329 1 2014.14 2843.73 1911.34 0 0 0
330 1 2725.56 2526.1 2860.58 0 0 0
331 1 2466.2 2597.49 1909.65 -1 0 0
332 1 2204.19 2926.13 3218.48 0 -1 -1
333 1 2982.51 2512.64 3083.09 0 0 0
334 1 3014.89 3544.4 3351.89 -2 -1 0
335 1 2544 3007.59 2383.02 0 0 0
336 1 2449.1 2345.98 3507.93 0 -1 -1
337 1 1575.91 2403.68 2116.06 0 0 0
338 1 2750.28 2777.53 3450.76 0 -1 -1
339 1 2964.73 2738.48 3251.19 0 -1 0
340 1 2423.2 2433.28 2632.35 0 -1 0
341 1 2760.8 3391.51 3270.2 0 -1 -2
342 1 2879.27 2951.36 3070.73 0 -1 0
343 1 2830.27 1938.4 2985.88 1 -1 0
344 1 3070.32 3138.27 3122.92 0 -1 -1
345 1 2558.69 2215.57 1456.96 0 0 0
346 1 2737.86 2395.41 1614.88 0 -1 0
347 1 2481.26 2436.71 2912.91 -1 0 -1
348 1 2091.53 2480.37 2606.73 -1 -1 -1
349 1 2891.14 2673.88 2635.35 -1 0 0
350 1 2175.18 2223.19 1912.67 0 1 0
351 1 1901.96 1487.55 3260.82 0 0 -1
352 1 2317.51 2209.24 3182.3 0 1 0
353 1 3155.08 2650.78 2332.63 0 -1 0
354 1 2092.55 2645.79 2285.49 0 0 0
355 1 2325.84 2843.78 3149.1 0 -1 -1
356 1 2171.8 3248.95 1582.97 0 -1 0
357 1 2042 3005.76 2925.25 0 -1 -1
358 1 3144.47 3531.19 2139.91 -1 -1 0
359 1 2667.88 2244.32 3016.61 0 0 0
360 1 2119.54 1508.11 3487.57 0 1 -1
361 1 3428.94 2612.59 2290.35 -1 0 0
362 1 2895.55 2657.09 2885.81 0 -1 0
363 1 2519.28 2344.01 3239.16 0 0 -1
364 1 2912.78 2768.64 3089.22 -1 0 0
365 1 2052.27 3314.05 2830.8 0 -1 0
366 1 1865.07 2621.86 1630.99 0 0 0
367 1 2183.71 2597.87 2965.25 0 -1 -1
368 1 2678.42 1740.01 2612.3 -1 0 0
369 1 3217.1 2797.04 2732.17 0 0 -1
370 1 3304.95 2869.71 2102.76 -2 0 0
371 1 3399.03 2129.32 1837.28 -1 0 0
372 1 3084.83 3100.23 3486.17 -1 -1 -1
373 1 2948.9 2655.87 2890.67 0 1 0
374 1 2534.4 1761.96 2574.33 0 0 0
375 1 3203.81 1533.05 2300.47 0 0 -1
376 1 2763.4 2692.48 2505.29 0 1 0
377 1 3291.63 2487.72 2298.21 0 0 0
378 1 2276.11 1816.11 3020.37 0 1 -1
379 1 3025.58 2566.98 2165 -1 -1 0
380 1 2649.6 2069.85 1869.67 -1 0 0
381 1 2191.47 2556.03 3205.53 0 0 -1
382 1 3332.1 2973.55 2860.01 -1 -1 0
383 1 2791.56 2267.62 2306.38 -1 0 0
384 1 2928.81 2866.77 2346.25 0 -1 0
385 1 3140.05 2800.67 2285.91 0 0 0
386 1 2933.32 3110.53 2625.74 -1 0 0
387 1 3150.51 2320.69 2839.6 -1 0 -1
388 1 1456.93 2818.96 2985.45 0 0 -1
389 1 2426.28 2520.09 1610.33 0 0 0
390 1 1513.86 2696.61 1466.56 0 -1 0
391 1 2389.75 1804.4 1623.16 0 0 0
392 1 1759.2 2571.14 3126.03 -1 -1 -1
393 1 2615.95 2404.24 2751.95 0 0 1
394 1 1797.87 2057.21 3307.32 1 0 -1
395 1 2447.06 2440.66 1937.42 0 -1 -1
396 1 1543.65 2889.9 2606.56 1 0 0
397 1 2857.67 2899.85 1521.97 -1 0 0
398 1 2138.8 2415.95 2928.79 0 -1 0
399 1 1996.66 1617.12 2912.13 0 0 0
400 1 2111.08 2303.76 2787.46 -1 0 -1
401 1 2510.59 2455.87 2423.17 0 0 -1
402 1 2145.11 2574.82 3521.5 0 0 -2
403 1 1586.58 1979.5 3196.13 0 0 -1
404 1 2625.97 2714.59 2080.59 0 0 0
405 1 2719.54 3195.55 2888.24 -1 0 0
406 1 2011.07 2972.54 2234.02 0 -1 0
407 1 1733.37 3035.42 3020.84 -1 -1 0
408 1 3472.53 2383.47 3014.22 0 0 -1
409 1 3279.63 2713.1 2582.3 0 -1 -1
410 1 2614.53 2184.76 2419.08 0 0 -1
411 1 2031.03 1940.06 1875.39 0 0 0
412 1 2377.03 3161.77 2917.31 0 0 0
413 1 1572.58 2710.55 2964.47 0 0 -1
414 1 1901.92 2929.26 2900.58 0 -1 -1
415 1 1937.93 2354.92 2853.2 0 0 -1
416 1 2673.35 2714.2 1529.76 0 0 0
417 1 1654.68 2001.84 2399.11 -1 0 -1
418 1 3457.51 3127.1 1917.9 -1 0 1
419 1 2142.89 2606.39 2520.27 0 0 0
420 1 3299.59 2929.2 2314.18 -2 -1 -1
421 1 2954.7 2537.79 1625.3 -1 0 0
422 1 1596.48 3128.98 1781.25 0 -1 0
423 1 3195.53 2783.01 1548.22 0 -1 0
424 1 1888.56 2928.25 3344.33 0 -1 -1
425 1 2346.4 2941.12 3428.62 0 0 -1
426 1 2923.65 2626.38 2852.06 -1 0 -1
427 1 3283.79 2256.34 2184.94 -1 -1 0
428 1 2313.32 3061.23 2594.52 0 -1 -1
429 1 3006.05 2844.1 2173.85 -1 0 0
430 1 1947.81 1737.11 2188.82 0 -1 0
431 1 2645.78 2366.36 1492.8 0 0 0
432 1 1839.05 2931.62 2214.26 0 -1 0
433 1 2154.64 2726.07 2479.69 -1 -1 -1
434 1 3254.57 2761.59 2411.87 -1 0 0
435 1 2939.85 1939.32 3173.33 -1 0 0
436 1 3016.75 2766.31 1510.48 -1 0 0
437 1 2802.32 2154.5 1880.2 0 1 0
438 1 3501.46 2504.45 2703.86 -1 -1 -1
439 1 2920.13 2360.5 1708.63 0 0 0
440 1 3165.34 1854.92 3232.63 -1 0 -1
441 1 2815.38 1730.14 3286.58 -1 0 -1
442 1 1706.64 2589.22 2864.15 0 0 0
443 1 3200.14 2529.71 3201.82 0 -1 0
444 1 2904.57 2698.27 1906.33 -2 0 0
445 1 2402.08 3077.39 2577.71 0 -1 0
446 1 3071.82 1809.02 3404.26 -1 0 -1
447 1 2680.02 2765.67 2641.8 0 0 0
448 1 1907.53 2767.23 2224.47 -1 -1 0
449 1 2213.26 2450.77 1652.72 -1 0 0
450 1 1839.91 2412.04 3256.63 0 0 -1
451 1 1880.82 2802.58 2790.5 0 -1 -1
452 1 2059.12 2121.04 3211.69 0 0 0
453 1 3253.98 3236.9 2365.65 -1 0 0
454 1 1836.94 2141.28 2175.53 0 0 -1
455 1 2778.27 2632.72 3312.22 -1 0 -1
456 1 3055.29 1594.95 1510.28 0 1 0
457 1 2495.04 2829.39 2408.48 0 -1 -1
458 1 1787.96 2083.73 3101.62 0 1 -1
459 1 1949.44 2434.53 2119.81 0 -1 -1
460 1 3298.34 2479.6 2578.48 -1 -1 0
461 1 2921.78 2789.03 2502.72 0 -1 0
462 1 3096.15 2838.33 2613.5 -1 0 -1
463 1 3423.92 1931.17 3081.41 -1 0 -1
464 1 2729.88 2656.51 2702.92 0 0 0
465 1 1502.49 2788.17 2436.86 1 0 -2
466 1 2849.99 3107.41 2761.43 -1 -1 0
467 1 2743.75 2614.57 1650.62 0 1 0
468 1 3323.89 2897.79 1570.71 0 -1 1
469 1 2995.43 2531.57 2689.5 0 -1 -1
470 1 2988.03 3146.5 1674.78 -1 -1 -1
471 1 2994.84 2702.81 2279.65 0 0 0
472 1 2817.85 3067.76 1564.57 0 -1 0
473 1 1482.63 2367.52 3170.66 1 -1 0
474 1 3079.3 2312.4 2947.94 -2 -1 -1
475 1 2938.53 2524.84 1880.68 0 -1 0
476 1 2989.19 3498.81 1957.43 -1 -1 0
477 1 3311.28 2296.95 1837.46 0 -1 -1
478 1 2647.59 2486.16 1835.33 -1 -1 0
479 1 2646.88 1552.47 2239.88 0 0 -1
480 1 3382.18 2176.76 2449.22 -1 0 0
481 1 3047.57 1609.06 1458.81 0 1 1
482 1 2699.62 1819.52 2974.45 0 -1 -1
483 1 3107.65 2148.57 2917.79 -1 1 0
484 1 2850.25 3038.59 2304.42 -1 -1 0
485 1 2301.72 3251.02 2630.73 -1 -1 -1
486 1 3485.04 3047.65 1617.4 -1 -1 0
487 1 2786.04 2377 2814.31 -1 0 -1
488 1 2035.71 1597.64 2503.11 0 0 0
489 1 3263.16 2710.1 2021.43 -1 0 0
490 1 3100.62 2384.97 3137.15 -1 0 -1
491 1 2687.95 2804.29 2785 0 0 -1
492 1 2907.94 2547.99 3519.95 0 -1 0
493 1 2791.81 2446.28 2372.98 -1 0 0
494 1 2281.29 2371.74 3247.63 1 -1 0
495 1 3134.51 2890.69 2061.72 0 -1 0
496 1 2976.96 2634.27 2849.96 1 0 0
497 1 2659.55 3472.41 2678.64 -1 -1 0
498 1 2757.5 3084.29 2608.04 0 -1 0
499 1 2267.44 2515.73 1629.91 -1 0 -1
500 1 2766.9 3194.81 2271.22 0 -1 -1
501 1 2469.76 2790.22 2579.31 -1 0 -1
502 1 1608.93 3096.86 3055.34 -1 0 0
503 1 2484.99 2472.14 2953.66 0 0 0
504 1 2192.39 2623.24 2513.05 0 0 0
505 1 1942.96 2476.8 3424.47 -1 0 -1
506 1 1515.12 2032.38 2115.42 -1 0 0
507 1 3381.07 1902.68 3097.43 -1 0 -1
508 1 1746.88 1625.06 1779.82 0 0 -1
509 1 1759.25 1674.97 2521.49 0 0 0
510 1 2736.01 2306.61 2651.56 -1 -1 -1
511 1 3479.87 3168.07 2456.76 0 0 -1
512 1 1663.54 3194.73 3330.34 0 -1 -1
513 1 3139.29 2506.94 1872.59 0 -1 0
514 1 2859.54 2147.73 2207.03 -2 0 1
515 1 2489.04 2074.74 2420.43 -1 0 -1
516 1 2530.85 3459.75 2749.71 -1 -1 0
517 1 3098.76 3075.48 3335.01 0 -1 -1
518 1 2018.85 2948.56 2773.3 0 0 -1
519 1 2694.33 2616.33 2370.25 0 0 0
520 1 3147.04 2903.67 1553.9 -1 0 0
521 1 2511.29 2363.22 1577.71 -1 0 1
522 1 2477.13 2630.26 2076.92 -1 0 0
523 1 3122.55 3042.14 1669.34 0 0 0
524 1 2665.8 2397.04 2497.58 -1 -1 0
525 1 3168.71 2042.78 3069.31 0 0 -1
526 1 1961.15 2320.5 2679.39 0 0 0
527 1 1454.46 2117.26 2965.13 0 -1 -1
528 1 3282.01 2409.79 2145.57 0 1 0
529 1 2498.06 2631.02 1489.38 -1 -1 0
530 1 1825.85 2768.31 2621.06 0 0 0
531 1 2052.34 3482.05 1743.25 0 -1 0
532 1 3269.61 2622.16 1861.68 -1 0 0
533 1 3164.57 1549.87 2267.51 -1 0 -1
534 1 2305.69 1457.47 2935.76 0 0 -1
535 1 2714.3 3426.92 2483.13 -1 -2 0
536 1 2208.75 2567.3 2009.62 -1 0 0
537 1 2763.08 3090.59 2127.76 -1 -1 0
538 1 1864.63 1917.14 3212.81 0 0 -1
539 1 3184.52 2415.39 2711.9 -2 0 -1
540 1 2835.5 3278.63 2421.51 0 0 0
541 1 2486.29 3035.19 2943.96 0 0 -1
542 1 2331.6 2796.25 2394.96 0 -1 0
543 1 2244.19 2733.53 2661.42 0 0 -1
544 1 3098.58 1803.37 3077.87 -1 1 -1
545 1 2171.7 2899.82 2784.16 -1 0 -1
546 1 3330.83 1708.46 1648.72 -1 0 0
547 1 2481.29 2284.41 2360.68 0 -1 0
548 1 1747.12 1858.48 3085.63 0 0 0
549 1 2736.84 2499.75 3321.94 0 0 0
550 1 2007.6 2162.2 1585.63 0 0 0
551 1 2316.72 2738.54 1666.74 0 -1 0
552 1 2703.4 3445.87 3446.41 0 -1 -1
553 1 2970.35 2682.21 3450.31 -1 0 -1
554 1 2245.01 2411.68 2649.19 0 0 0
555 1 1967.23 2295.85 3212.32 0 0 0
556 1 2558.23 3039.9 2540.74 0 0 -1
557 1 2727.87 2661.92 2210.54 -1 0 0
558 1 2550.98 3391 2569.48 -1 0 -1
559 1 2547.36 3200.28 2946.23 -1 0 0
560 1 1787.95 2852.2 1457.89 0 0 0
561 1 3345.82 2345.9 2469.62 -1 -1 -1
562 1 1913.81 3361.84 3464.34 0 0 -1
563 1 3467.83 2507.89 2916.83 -1 0 0
564 1 2594.15 2762.79 3369.27 0 1 -1
565 1 3398.68 2675.75 3365.19 0 0 -1
566 1 3406.86 2154.57 2830.33 -1 0 1
567 1 2550.82 1634.38 2902.04 0 0 0
568 1 3104.6 3009.4 2552.49 -1 -1 -1
569 1 2741.37 2156.33 3154.74 0 0 0
570 1 1657.11 3003.96 2681.07 0 -1 0
571 1 3005.2 2881.34 1650.53 -1 -1 0
572 1 2559.53 2804.92 2747.95 -1 -1 0
573 1 2156.98 2271.42 3191.11 1 0 -1
574 1 3039.99 3247.65 3441.36 -1 0 0
575 1 1773.21 2390.8 3063.66 0 0 0
576 1 3387.33 2184.9 2870.43 0 -1 -1
577 1 3299.11 2609.61 2436.01 -1 -1 -1
578 1 1498.12 2645.73 2338.97 1 0 1
579 1 2988.73 3412.41 2558.28 0 0 -1
580 1 2345.67 2748.69 2416.15 0 1 1
581 1 1724.92 2212.54 2442.81 -1 0 0
582 1 3132.5 3202.12 2247.31 0 -1 0
583 1 2532.13 2418.58 2390.68 0 0 0
584 1 3341.78 3083.05 2339.38 0 0 1
585 1 3125.8 3241.32 3276.08 -1 -1 -1
586 1 3053.25 2079.51 3477.74 -1 -1 -2
587 1 1478.7 2116.55 2658.87 1 0 -1
588 1 1862.27 2373.51 1837.33 0 0 0
589 1 2913.6 3137.79 3474.65 1 -1 0
590 1 3379.48 2772.3 1844.52 -1 -1 1
591 1 2100.68 1762.31 3195.95 -1 -1 -1
592 1 1797.85 2276.42 2812.14 0 0 0
593 1 1613.51 2122.92 3055.77 0 0 0
594 1 2030.16 3176.54 3005.95 -1 1 0
595 1 2991.56 1486.13 3063.62 -1 0 -1
596 1 2922.01 2412.58 1722.62 1 0 0
597 1 2721.54 2586.5 3319.99 0 0 0
598 1 3026.2 3311.5 1650.42 0 -1 0
599 1 2237.58 3444.58 2615.48 -1 -1 0
600 1 3020.52 2022.86 2839.45 -1 0 -1
601 2 3520.07 2313.78 1727.5 -1 0 0
602 2 1744.63 1848.15 2209.24 1 0 0
603 2 3109.86 3314.5 2044.78 -1 0 1
604 2 3201.7 3147.58 2922.85 0 -1 0
605 2 1544.99 1506.88 3373.29 0 0 0
606 2 1497.49 2583.31 2107.94 1 0 0
607 2 2027.69 2632.07 2041.27 0 0 0
608 2 2820.86 3269.84 2597.99 0 -1 0
609 2 3017.32 2102.25 2348.79 0 0 0
610 2 2666.01 3045.32 3068.09 0 0 0
611 2 1614.31 3023.86 1573.45 0 0 1
612 2 2470.77 3470.6 2162.06 0 -1 0
613 2 1889.03 2576.64 2716.48 0 0 -1
614 2 2623.09 1933.37 2536.02 0 0 0
615 2 1523.12 2742.43 3312.52 0 0 0
616 2 3442.88 3417.81 1514.76 0 0 0
617 2 1614.36 2979.6 2117.69 0 -1 0
618 2 2458.24 3406.7 3023.02 0 0 0
619 2 2810.13 1952.12 2736.59 0 1 0
620 2 3480.89 3399.24 2445.81 -1 0 0
621 2 1460.33 3426.72 2898.07 0 0 -1
622 2 2223.52 3466.57 1567.85 0 0 0
623 2 2230.66 2566.87 3260.46 0 0 -1
624 2 1470.54 2315.29 2797.63 0 0 -1
625 2 2714.58 1798.73 3449.84 0 0 0
626 2 1634.76 3223.79 2858.9 1 0 -1
627 2 1883.79 1496.65 2642.39 0 1 0
628 2 3300.16 2585.34 2763.89 -1 0 0
629 2 2198.31 1870.77 2217.46 0 0 0
630 2 2537.32 1601.58 2009.24 0 1 0
631 2 3288.18 1685.44 3114.18 0 1 0
632 2 2069.38 3153.1 1859.5 0 -1 0
633 2 1604.96 3161.37 2349.57 0 -1 0
634 2 3169 2749.68 2937.39 -1 0 0
635 2 1573.42 1587.48 2181.18 0 0 0
636 2 2870.54 1717.15 3042.22 -1 0 0
637 2 1632.24 2093.74 2797.15 1 0 -1
638 2 1546.35 1812.15 2028.26 0 0 0
639 2 3251.8 2959.47 3406.84 0 0 0
640 2 2686.12 3522.54 2871.88 0 0 0
641 2 2295.7 1861.03 2664.22 0 0 0
642 2 2548.95 3125.93 1853.07 0 -1 0
643 2 1579.76 1482.54 2419.81 0 0 0
644 2 3476.89 2563.22 1734.09 -1 0 1
645 2 2572.94 3223.04 2142.47 0 -1 0
646 2 2142.79 3140.67 2125.87 0 -1 0
647 2 2050.96 1998.14 3399.74 0 0 0
648 2 2552.97 2683.7 2900.92 0 0 0
649 2 3221.24 1968.57 1481.11 -1 0 0
650 2 3246.32 2250.13 2241.77 0 0 0
651 2 3383.43 1948.99 1981.55 -1 0 0
652 2 1573.91 1563.88 1909.88 0 0 0
653 2 2996.84 2497.68 3291.18 0 0 -1
654 2 2500.06 3368.66 3500.82 0 -1 -1
655 2 2554.46 1813.17 2763.22 0 0 0
656 2 2792.83 1676.78 2784.87 0 0 0
657 2 3192.26 1875.27 2857.8 -1 0 -1
658 2 2622.91 2139.55 2790.49 -1 0 -1
659 2 1486.95 1886.99 2700.86 1 0 0
660 2 2378.53 2238.99 1803.61 0 0 0
661 2 2648.21 1522.86 1778.5 0 0 0
662 2 1770.13 1698.93 1547.47 0 0 0
663 2 1737.81 2970.57 2465.59 0 -1 0
664 2 2613.4 3204.41 3301.57 0 0 -1
665 2 2438.59 2346.29 2117.66 0 0 0
666 2 2588.18 3388.16 1935.93 0 -1 0
667 2 2907.41 1477.11 1737.11 0 0 0
668 2 1755.5 2287.58 2022.1 0 0 0
669 2 3312.57 2307.99 3169.95 -1 0 0
670 2 2050.61 1627.46 2952.81 0 0 -1
671 2 2861.2 1656.47 1537.23 0 0 1
672 2 1756.83 2564.43 2100.09 0 0 0
673 2 2236.26 2271.96 2383.33 0 0 0
674 2 3444.19 1481.31 2045.74 -1 0 0
675 2 3077.78 2904.63 3169.67 -1 0 0
676 2 2604.79 1757.08 1623.08 0 0 0
677 2 1894.23 3082.59 2031.21 0 -1 0
678 2 3317.15 3006.27 1759.77 -1 -1 0
679 2 1874.55 3144.21 3317.49 0 0 0
680 2 3223 1772.25 2085.04 -1 0 0
681 2 2218.34 3291.71 2976.54 0 0 0
682 2 2966.99 2319.96 2181.33 0 0 0
683 2 2370.36 3036.88 2623.13 0 -1 0
684 2 1696.6 3247.78 2118.1 0 -1 0
685 2 1741.68 3371.37 3292.52 0 0 -1
686 2 1734.96 2428.61 1630.64 0 0 0
687 2 2524.92 2959.37 3262.37 -1 -1 0
688 2 3050.93 3195.8 2450.37 -1 -1 0
689 2 2013.69 3362.23 3209.9 0 -1 0
690 2 3405.29 3178.28 3499.75 0 1 -1
691 2 2615.15 2265.2 1940.21 -1 0 0
692 2 1917.4 1463.25 3020.17 0 0 -1
693 2 3316.52 3409.68 2215.29 -1 -1 0
694 2 1642.31 2787.47 2745.57 0 0 0
695 2 2758.27 1990.37 2036.06 0 0 0
696 2 2353.65 1522.87 3130.1 0 1 0
697 2 1733.27 1880.63 2573.66 0 0 0
698 2 1774.19 2402.37 2522.12 1 0 0
699 2 2461.48 1497.64 1570.36 0 0 0
700 2 1487.26 2461.33 1529.42 0 0 0
701 2 3539.61 2963.4 2722.56 0 -1 -1
702 2 1638.36 2456.61 2320.77 0 0 0
703 2 1843.53 3303.73 1903.88 0 0 0
704 2 2112.48 3230.14 2373.35 0 -1 0
705 2 1888.18 1750.22 2897.97 0 0 -1
706 2 1731.26 2601.64 3529.94 0 0 0
707 2 1721.65 3206.41 2601.23 0 -1 0
708 2 1648.41 2634.95 2514.1 1 0 0
709 2 1640.57 1479.1 3121.89 0 0 0
710 2 2784.01 1547.77 3406.08 0 0 -1
711 2 1830.26 3100.53 1725.21 0 -1 0
712 2 2044.15 2727.16 3217.84 0 0 -1
713 2 2304.06 2446.45 2645.23 0 0 -1
714 2 2990.98 1792.02 2228.39 -1 0 0
715 2 2585.6 2184.42 1669.64 0 0 0
716 2 2240.36 3036.64 1504.62 0 0 0
717 2 3202.93 1473.87 3449.32 -1 0 -1
718 2 2707.29 2412.04 2132.69 -1 0 0
719 2 1792.13 1676.28 2003.82 0 0 0
720 2 1478.28 1814.6 3459.61 0 0 -1
721 2 3436.72 2420.78 1955.48 0 0 0
722 2 3521.19 3168.69 2100.33 -1 -1 0
723 2 2736.87 3259.22 3545.53 0 0 -1
724 2 3201.03 3395.2 2512.97 0 -1 0
725 2 2088.61 3509.52 2816.17 0 -1 -1
726 2 2169.72 2094.16 1712.06 0 0 0
727 2 3337.06 2417.64 1561.23 -1 0 0
728 2 2199.5 2029.42 2437.15 0 0 0
729 2 3048.38 1536.72 2485.84 -1 0 0
730 2 3066.63 2956.46 1846.55 -1 -1 0
731 2 2233.36 2775.09 3518.08 0 0 0
732 2 3426.64 1586.22 3537.83 -1 0 -1
733 2 2148.62 1562.09 1794.06 0 1 0
734 2 1630.12 2168.5 2215.74 0 0 0
735 2 2336.86 1626.29 2499.76 0 0 0
736 2 2118.86 3425.62 1938.53 0 -1 0
737 2 2049.45 2882.14 1955.51 -1 0 0
738 2 3385.51 2865.24 3196.96 0 0 0
739 2 2154.7 3144 3189.7 0 0 0
740 2 3002.98 1624.43 2029.68 0 0 0
741 2 2695.9 1905.88 3154.59 -1 1 0
742 2 2520.54 1987.45 1465.24 0 0 0
743 2 3514.5 1969.32 2450.31 -1 0 0
744 2 2618.78 2159.55 2168.67 0 0 0
745 2 2098.67 3219.39 3432.06 0 0 -1
746 2 2081.08 2656.01 1621.73 0 0 0
747 2 2861.46 3086.25 3232.7 0 0 -1
748 2 2414.61 1661.25 1787.32 0 0 0
749 2 2132.06 1918.44 2835.34 0 0 0
750 2 1560.08 1748.23 2404.62 0 0 0
751 2 3509.96 2729.88 2626.5 0 0 -1
752 2 3188.06 1480.65 2722.43 0 1 0
753 2 1536.3 2219.88 1967.78 0 0 0
754 2 2834.02 2332.72 3420.63 -1 0 0
755 2 2272.59 1979.06 3128.02 0 0 0
756 2 2623.62 3215.14 2402.85 0 -1 0
757 2 2353.74 2096.59 2252.57 0 0 0
758 2 3320.05 3353.41 2787.88 -1 -1 0
759 2 2781.86 1480.29 2007.79 0 0 0
760 2 2473.68 2683.64 3161.4 0 0 -1
761 2 1923.83 3310.54 1597.22 0 -1 0
762 2 1968.48 1950.07 2103.57 0 0 0
763 2 1642.4 1948.3 1547.88 0 0 0
764 2 2343.92 3002.28 1989.38 0 -1 0
765 2 1854.52 2308.41 2283.42 0 0 0
766 2 3353.04 1904.3 1691.23 -1 0 0
767 2 2365.01 1793 2015.29 0 1 0
768 2 1816.28 1593.23 2285.64 0 0 0
769 2 1744.28 3500.07 2064.67 0 -1 0
770 2 1500.92 2254.81 2446.9 1 -1 0
771 2 1575.15 2884.81 3124.1 1 0 -1
772 2 1867.77 2041.46 2359.14 0 0 0
773 2 3088.19 1652.26 1492.8 -1 0 1
774 2 1720.98 3235.41 3512.32 0 -1 -1
775 2 3451.73 3511.65 1790.33 -1 -1 0
776 2 2971.3 2904.36 3383.04 -1 0 -1
777 2 3377.9 2660.55 1494.94 -1 0 0
778 2 1978.52 2112.68 2835.1 0 0 -1
779 2 2949.88 1911.24 1460.11 -1 0 0
780 2 3116.74 2566.58 1470.56 -1 0 0
781 2 3239.43 1484.04 1624.43 -1 0 0
782 2 2506.27 2071.8 3097.51 0 0 0
783 2 1809.6 3242.18 3068.43 0 -1 -1
784 2 1574.2 1642.51 2635.09 0 0 -1
785 2 3168.56 3209.08 1802.89 -1 -1 0
786 2 1686.54 1827.08 1797.03 1 0 0
787 2 2556.95 2868.65 1896.52 0 0 0
788 2 2370.83 1993.19 2888.4 0 0 0
789 2 1594.63 2063.38 3406.77 0 0 -1
790 2 3447.31 1823.13 2258.16 -1 0 0
791 2 3330.28 1476.54 2951.4 0 0 -1
792 2 1954.56 2490.66 3490.86 0 0 -1
793 2 1919.27 1632.74 3428.33 0 0 0
794 2 3187.26 1746 2640.99 -1 0 0
795 2 1884.28 3128.01 2806.11 0 0 0
796 2 1617.39 2499.59 3260.05 0 0 -1
797 2 3198.61 3526.01 3167.5 -1 -1 -1
798 2 1848.1 3404.4 2806.41 0 0 0
799 2 3269.65 2057.34 3234.52 -1 1 -1
800 2 3281.63 3087.56 3183.32 -1 0 -1
801 2 2209.61 2179.2 2950.3 0 0 0
802 2 1720.98 1539.65 2854.77 0 1 0
803 2 2548.68 3344.99 1669.48 0 -1 0
804 2 2498.45 2857.73 2162.89 0 -1 0
805 2 2163.66 1606.47 2290.98 0 0 0
806 2 3484.88 2916.23 1958.9 -1 -1 0
807 2 3320.9 3341.05 3327.12 -1 0 -1
808 2 2965.77 2284.04 1888.89 -1 0 0
809 2 3397.06 1702.81 2799.42 0 0 0
810 2 2449.75 1727.72 3499.62 0 0 -1
811 2 1620.57 1733.72 3228.81 1 0 0
812 2 2599.45 1662.25 3241.36 0 0 -1
813 2 2335.94 1669.65 2836.84 0 0 0