ITEM: TIMESTEP
921000
ITEM: NUMBER OF ATOMS
1000
ITEM: BOX BOUNDS pp pp pp
-3.2263596310241155e+02 3.3226359631024070e+03
-3.2263596310241155e+02 3.3226359631024070e+03
-3.2263596310241155e+02 3.3226359631024070e+03
ITEM: ATOMS id type x y z ix iy iz
1 1 2551.49 1014.39 2580.54 0 0 -1
2 1 1586.67 1024.26 2008.8 0 0 0
3 1 1743.6 -50.8004 3226.14 0 1 0
4 1 845.591 1235.82 499.957 0 0 0
5 1 3007.19 -114.274 -169.791 0 0 0
6 1 -87.5969 2809.24 2987.29 1 0 -1
7 1 1069.37 1403.85 616.755 0 0 0
8 1 1140.8 2140.54 542.754 0 0 0
9 1 2885.63 1806.53 2239.96 0 0 0
10 1 1129.04 439.815 -301.508 0 1 0
11 1 760.745 850.015 2489.62 0 0 0
12 1 3225.31 1628.29 1733.72 0 0 0
13 1 1995.01 2776.12 2324.1 0 0 0
14 1 1545.53 84.9453 2438.58 1 0 0
15 1 2278.11 2910.05 978.91 0 -1 0
16 1 425.21 648.857 1595.82 0 0 0
17 1 2196.17 2655.56 1890.59 0 0 -1
18 1 1859.76 3004.71 1311.65 0 0 0
19 1 1192.71 3045.62 -290.879 0 0 1
20 1 1625.92 1630.9 2641.14 0 0 -1
21 1 2363.15 1231.67 2497.72 0 0 -1
22 1 1341.76 2569.52 2329.91 0 -1 0
23 1 1250.6 1325.13 1812.76 1 0 0
24 1 1784.08 2151.25 1333.5 0 0 0
25 1 2990.1 660.053 688.23 -1 0 0
26 1 2396.12 3105.6 1640.4 0 0 1
27 1 1364.44 3315.54 1279.6 0 0 0
28 1 1640.76 981.073 1359.69 1 0 0
29 1 1604.24 1100.15 734.028 0 0 0
30 1 938.511 1590.73 425.795 0 1 1
31 1 -125.745 1419.93 3064.23 1 0 -1
32 1 1476.87 1007.51 2324.16 0 2 1
33 1 2970.4 -137.536 1896.63 -1 0 0
34 1 2207.19 1392.11 1999.51 0 0 0
35 1 2577.6 1408.36 -148.577 0 0 1
36 1 2440.68 1934.77 2339.47 -1 -1 -1
37 1 583.287 696.338 771.227 0 1 0
38 1 2043.02 2184.1 1193.17 0 0 0
39 1 2432.72 2622.8 2064.57 0 0 0
40 1 1650.08 275.434 502.74 0 0 0
41 1 699.395 -32.0633 1398.96 0 0 -1
42 1 -304.438 610.746 954.796 0 0 0
43 1 1944.17 -177.318 2197.16 -1 1 0
44 1 2683.92 1574.25 76.2372 0 -2 0
45 1 3182.47 1696.66 2312.69 0 0 0
46 1 -134.516 1721.42 -17.3038 0 -1 0
47 1 2912.44 1700.2 214.102 -1 1 0
48 1 2266.8 2413.68 2572.94 0 0 0
49 1 1381.32 -167.847 2427.46 0 1 0
50 1 2312.98 2324.94 2291.24 -1 -1 -1
51 1 1973.47 1978.15 1000.32 0 -1 0
52 1 1762.85 1429.91 2643.05 0 0 -1
53 1 489.028 169.958 229.551 0 0 0
54 1 1908.1 1563.65 1669.86 0 0 -1
55 1 1098.77 51.4181 -47.0519 0 0 0
56 1 -278.695 886.896 840.78 0 0 0
57 1 3100.87 2577.71 936.663 0 0 0
58 1 709.299 2612.59 2166.97 0 -1 -1
59 1 2254.57 1985.58 1082.89 -1 -1 0
60 1 -113.135 607.418 365.899 0 0 0
61 1 2296.64 1062.49 320.005 -1 -1 0
62 1 2480.02 1265.56 2997.42 -1 0 0
63 1 1713.01 3321.68 1917.08 0 -1 0
64 1 102.952 2161.19 36.3902 0 0 0
65 1 977.875 1209.93 1725.33 0 0 0
66 1 -179.654 633.595 -321.937 0 0 0
67 1 1750.41 3322.34 -315.24 0 -1 0
68 1 2383.23 1972.52 812.072 0 -1 0
69 1 232.563 1153.21 64.4684 0 0 0
70 1 1909.49 2396.8 563.064 0 0 0
71 1 2027.28 -212.378 1914.29 0 0 -1
72 1 3169.12 45.0987 3270.43 -1 0 -1
73 1 2261.97 862.395 1001.22 0 0 0
74 1 1674.71 191.764 531.95 -1 0 0
75 1 2492.89 2842.94 2262.85 -1 -1 -1
76 1 1790.32 122.131 2986.75 0 0 -1
77 1 2018.91 183.504 2873.3 -1 0 -1
78 1 253.051 2667.34 3019.79 0 0 -1
79 1 3087.76 277.157 2797.44 -1 0 -1
80 1 818.943 1667.85 2484.11 0 0 0
81 1 3070.45 2902.82 694.288 0 0 0
82 1 1286.99 793.555 -43.1661 0 0 0
83 1 1257.07 2106.36 140.533 0 0 0
84 1 2948.8 -299.066 2117.53 -1 0 -1
85 1 1441.44 584.356 1745.21 0 -1 0
86 1 1800.33 -307.12 572.207 0 1 0
87 1 2070.71 952.019 3112.83 -1 0 0
88 1 824.304 2791.8 2947.72 0 0 -1
89 1 1737.44 215.545 510.475 0 0 0
90 1 1385.72 1406.62 89.4023 0 0 0
91 1 757.775 -212.062 3036.05 0 1 0
92 1 2684.6 381.77 2228.97 0 0 -1
93 1 -156.194 469.274 3319.45 0 0 0
94 1 3050.38 2486.77 3099.11 0 0 -1
95 1 1146.39 1204.55 1169.89 0 0 1
96 1 2725.87 822.114 423.997 -1 0 0
97 1 551.887 1299.71 735.566 0 0 0
98 1 2515.76 1462.87 3207.43 -1 0 -1
99 1 3042.75 2130.74 766.161 0 0 0
100 1 1176.02 414.256 3054.5 0 0 -1
101 1 -319.316 2588.27 3142.21 1 -1 -1
102 1 3257.36 464.101 1190.73 -1 0 0
103 1 1641.74 2709.58 1656.01 0 0 -1
104 1 672.477 950.992 427.016 0 0 0
105 1 1832.14 2589.56 2884.81 0 -1 -1
106 1 2253.19 705.401 1269.11 0 1 0
107 1 2708.89 2628.89 -157.955 0 -1 0
108 1 1885.97 1543.15 2905.62 0 0 0
109 1 1433.01 2822.22 33.6898 0 -1 1
110 1 1051.43 -153.198 3077.55 -1 0 0
111 1 1912.21 2855.83 3006.1 0 0 0
112 1 760.819 2573.48 2464.2 -1 -1 -1
113 1 1697.67 2602.56 1922.17 0 0 0
114 1 1944.22 2730.32 2034.29 -1 0 -1
115 1 947.679 361.265 626.673 0 0 0
116 1 534.907 457.218 137.719 0 0 0
117 1 1949.34 604.715 3072.52 0 0 0
118 1 1731.84 20.5989 -127.7 0 0 0
119 1 1067.15 1325.16 327.209 0 0 1
120 1 2390.82 1270.84 2197.45 0 -1 0
121 1 421.38 393.724 1226.31 0 0 0
122 1 2270.78 965.552 2674.28 0 1 0
123 1 2079.19 1128.18 2510.9 0 0 0
124 1 628.869 657.833 477.212 0 0 0
125 1 1162.86 37.1694 2504.07 0 0 -1
126 1 1875.4 790.218 154.778 -1 0 1
127 1 314.486 -105.173 3322.58 0 0 -1
128 1 868.745 1497.02 100.07 0 0 0
129 1 3062.25 373.874 3102.69 0 0 0
130 1 2163.52 462.718 -271.5 -1 0 0
131 1 2779.87 2138.44 2616.33 0 0 0
132 1 3108.02 445.311 936.206 -1 0 0
133 1 676.105 3132.02 342.622 0 -1 1
134 1 2927.49 2527.79 1679.65 0 -1 0
135 1 171.741 2350.14 2955.73 0 0 -1
136 1 2535.49 1047.82 462.614 0 -1 0
137 1 -293.804 2442.3 620.746 1 0 0
138 1 1.42807 1445.96 2344.1 0 0 -1
139 1 -157.2 320.05 2826.74 0 0 0
140 1 60.288 2969.56 -165.268 1 -1 0
141 1 2040.5 2839.98 1478.2 -1 -1 0
142 1 916.545 926.558 1773.07 0 0 0
143 1 2470.8 -164.697 388.361 -1 0 0
144 1 2598.37 881.689 -285.393 0 0 1
145 1 689.338 1314.55 2963.58 0 0 -1
146 1 1871.53 3082.36 1023.45 -1 -1 0
147 1 1782.68 -290.688 676.751 -1 0 0
148 1 809.995 461.305 335.065 0 -1 0
149 1 2557.38 2352.65 2099.69 -1 -1 0
150 1 47.4294 2551.76 874.393 0 0 0
151 1 -195.437 1146.67 -321.588 0 0 1
152 1 -270.842 686.415 123.024 0 0 0
153 1 2992.77 3246.45 1431.92 -1 -1 0
154 1 134.781 2556.55 1713.89 0 -1 -1
155 1 3271.77 -132.319 3040.71 -1 0 -1
156 1 2760.72 2573.27 1054.46 0 0 1
157 1 1520.71 328.564 974.728 -1 0 0
158 1 2157.19 1588.04 415.847 -1 0 0
159 1 216.679 352.827 697.362 1 0 0
160 1 1377.85 2924.81 2240.88 0 -1 0
161 1 3216.46 2412.64 1163.49 -1 0 0
162 1 338.822 1372.8 1834.07 0 0 -1
163 1 2503.81 3240.03 2648.59 -1 -1 0
164 1 2013.09 3026.76 3234.66 0 -1 -1
165 1 2750.44 1644.24 -214.519 -1 1 0
166 1 -154.899 1633.51 -37.7658 0 0 0
167 1 1939.8 3294.37 2441.28 0 -1 -1
168 1 3106.6 1842.39 637.531 -1 0 0
169 1 306.563 2372.09 102.052 0 0 0
170 1 1044.73 1057.05 1469.11 0 0 -1
171 1 2523.86 301.511 1481.31 -1 0 0
172 1 2051.84 1430.18 2540.54 0 0 0
173 1 2101.62 1433.12 -147.773 -1 0 0
174 1 259.918 3281.67 655.501 0 0 0
175 1 357.993 2965.57 -181.576 0 -2 0
176 1 2545.71 2560.72 1763.64 0 -1 0
177 1 1967.03 2317.66 2797.99 0 -1 -1
178 1 1726.43 2826.69 1077.85 0 -1 0
179 1 2380.75 1522.15 2868.59 -1 0 0
180 1 2338.77 1517.74 2571.75 0 0 0
181 1 1579.26 1386.88 -178.827 0 0 1
182 1 1675.13 104.739 2707.89 0 0 0
183 1 2482.81 -48.779 111.182 -1 0 0
184 1 1054.06 1114.04 658.672 0 0 0
185 1 3093.26 2084.12 24.6246 -1 -1 1
186 1 2217.16 2816.4 2145.72 0 0 -1
187 1 1125.36 1306.51 889.076 0 0 0
188 1 704.974 2700.47 633.051 1 -1 0
189 1 1038.06 1051.23 365.323 0 -1 -2
190 1 2729.16 1571.45 563.465 0 0 -1
191 1 469.359 -147.636 -71.2388 0 0 0
192 1 781.892 935.055 2199.25 0 0 0
193 1 1048.31 2429.77 1542.6 0 0 0
194 1 1500.86 323.855 2260.99 0 0 -1
195 1 -305.694 1080.05 121.671 0 1 0
196 1 2232.6 218.107 3212.38 -1 0 -1
197 1 2707.08 1694.58 1959.28 -1 0 0
198 1 414.536 1564.6 950.931 0 0 0
199 1 644.156 1755.98 31.5433 0 1 0
200 1 277.139 3217.41 1597.6 0 0 0
201 1 2953.23 518.023 1189.78 -1 -1 0
202 1 2024.81 217.753 2914.23 -1 0 0
203 1 2121.68 789.651 2853.67 0 0 0
204 1 1545.19 1431.69 2436.55 0 0 0
205 1 945.996 2809.69 1972.88 0 -1 0
206 1 1618.35 2624.2 845.874 0 0 0
207 1 919.762 1493.95 84.1009 0 0 0
208 1 779.463 2121.13 483.405 0 0 0
209 1 666.727 2723.62 1886.8 1 0 0
210 1 317.574 1364.09 1882.63 0 0 0
211 1 122.253 2654.78 1429.55 0 -1 0
212 1 -217.308 838.676 1131.01 0 0 0
213 1 -169.662 1685.19 -34.4554 0 -1 0
214 1 2437.19 2823.28 1838.67 0 -1 -1
215 1 1610.03 1245.81 2206.11 0 0 0
216 1 1847.91 1006.26 1882.4 0 1 0
217 1 2577.92 2628.22 425.257 -1 -1 0
218 1 686.072 3150.12 1648.58 -1 -1 0
219 1 2530.17 34.0936 1361.68 0 1 0
220 1 534.2 1156.19 2782.13 -1 0 -1
221 1 3236.6 -163.205 1377.69 0 1 0
222 1 3151.07 2718.8 1721.52 0 0 0
223 1 258.766 516.173 3304.95 0 0 0
224 1 2312.34 541.038 289.015 0 0 0
225 1 1897.52 2124.69 2141.2 -1 0 -1
226 1 1655.79 2192.5 2853.21 -1 -1 -1
227 1 1847.98 993.81 2653.27 0 0 0
228 1 2672.36 1918.41 2421.45 0 0 0
229 1 3124.56 1472.65 1293.78 -1 -1 0
230 1 721.531 1054.35 707.228 0 0 -1
231 1 842.411 1307.55 789.604 0 0 0
232 1 90.9377 51.3574 -200.864 -1 0 -1
233 1 2993.52 167.697 941.138 -1 0 0
234 1 1631.76 2523.35 571.167 0 -1 0
235 1 2116.49 3230.28 940.689 1 0 0
236 1 771.218 2286.62 2823.71 0 0 0
237 1 825.961 2973.6 2198.71 0 0 0
238 1 1613.11 1686.38 2570.54 0 -1 0
239 1 572.537 66.2755 1143.94 0 1 0
240 1 602.821 861.06 2748.21 0 0 -1
241 1 1860.73 3010.89 2460.74 0 0 0
242 1 3213.68 2754.51 347.778 0 -1 -1
243 1 2388.17 1630.4 1955.71 0 1 0
244 1 3245.13 1806.16 1166.24 0 0 0
245 1 788.919 3082.69 1380.36 0 -1 0
246 1 30.5548 673.845 120.638 0 0 1
247 1 1540.37 809.16 392.891 0 0 1
248 1 888.455 1669.79 -118.176 1 0 0
249 1 2059.64 804.289 2550.93 0 0 0
250 1 2617.77 1247.24 672.731 -1 0 0
251 1 1957.57 2616.62 2580.53 -1 -1 -1
252 1 1621.68 3086.47 2303.13 0 0 -1
253 1 722.078 2419.97 653.232 0 -1 0
254 1 1698.79 1657.01 2581.68 0 0 0
255 1 641.39 2538.83 1649.33 0 -1 0
256 1 2153.89 798.195 253.101 0 -1 0
257 1 728.991 2256.14 2534.82 0 0 -1
258 1 1209.2 84.1852 1028.87 0 0 0
259 1 904.184 3064.21 -215.557 0 0 1
260 1 2248.47 810.979 992.668 -1 0 0
261 1 94.5945 3213.41 2808.98 0 -1 -1
262 1 -124.475 1769.81 3.20815 0 -1 0
263 1 684.301 34.6758 55.6446 0 0 0
264 1 2879.61 2055.58 1178.98 -2 -1 0
265 1 2072.71 -191.194 1416.79 -1 0 0
266 1 1989.25 1272.54 1836.39 0 0 0
267 1 1619.84 344.455 2543.01 0 1 0
268 1 48.8516 2109.66 572.946 1 0 0
269 1 1459.19 2676.24 2083.25 0 -1 0
270 1 1892.52 1101.89 832.322 0 0 0
271 1 1882.49 2122.14 452.425 0 0 0
272 1 315.127 1308.45 919.589 0 0 -1
273 1 432.497 1575.16 901.245 0 0 0
274 1 -129.892 424.161 136.174 0 0 0
275 1 1276.27 3301.48 3218.65 0 -1 -1
276 1 207.156 2027.33 1872.6 0 0 0
277 1 720.231 2226.87 2145.35 0 -1 0
278 1 910.805 -54.8815 1967.96 -1 1 -1
279 1 -184.237 424.352 3316.86 0 -1 -1
280 1 3103.69 1660.73 389.683 0 0 0
281 1 -202.58 883.638 328.168 0 0 0
282 1 1714.88 2818.49 2207.79 0 -1 0
283 1 187.498 270.065 1375.43 1 0 0
284 1 1508.53 3235.26 2546.58 0 -1 0
285 1 2340.59 828.66 487.787 -1 0 0
286 1 -138.045 948.61 2755.89 0 0 -1
287 1 3280.4 -210.846 -253.757 0 0 1
288 1 2030.55 841.795 786.449 0 0 0
289 1 -134.422 2294.95 -51.0228 0 -1 0
290 1 3300.6 2975.75 1725.49 -1 -1 -1
291 1 942.553 2808.01 3275.25 0 0 -1
292 1 2330.29 1341.67 5.19635 -1 0 0
293 1 1930.69 2689.02 3258.98 0 -1 0
294 1 2671.82 61.1665 380.936 -1 0 1
295 1 587.893 1517.64 2592.92 0 0 -1
296 1 1688.56 238.418 509.486 0 0 0
297 1 1337.25 3021.72 419.698 0 -1 1
298 1 858.946 1145.74 1205.18 0 1 0
299 1 1209.72 2979.37 2784.17 0 -1 0
300 1 1651.49 2691.25 3127.23 0 -1 -1
301 1 314.811 2094.89 2145.17 0 -1 -1
302 1 2677.71 259.981 1233.53 -1 0 0
303 1 3109.93 1550.34 674.766 -1 0 0
304 1 -175.203 883.969 -77.0169 0 0 0
305 1 177.404 2222.9 317.495 0 -1 0
306 1 2384.28 2840.01 479.107 -1 0 0
307 1 -268.887 122.424 3235.44 1 0 -1
308 1 821.28 1225.04 203.513 0 0 0
309 1 -316.445 2457.24 -238.82 1 0 0
310 1 1276.35 868.911 1419.12 0 0 0
311 1 2179.09 2162.27 460.433 0 0 0
312 1 1664.82 -263.163 2341.59 0 1 0
313 1 1110.37 172.473 3210.04 -1 0 -1
314 1 3198.38 1852.15 183.065 0 0 0
315 1 2963.25 1392.81 2453.46 0 0 0
316 1 348.394 872.024 1405.12 0 0 0
317 1 2495.79 2978.82 3067.47 0 0 0
318 1 2454.14 565.793 2259.77 -1 0 0
319 1 1067.3 901.341 2109.77 0 0 0
320 1 2245.51 1940.74 3010.5 0 0 -1
321 1 3262.71 1560.64 155.366 0 0 0
322 1 2642.15 2943.64 2028.97 0 1 0
323 1 -162.854 -111.148 757.509 0 0 0
324 1 3321.06 993.415 1663.9 -1 0 0
325 1 894.386 1867.47 1649.08 0 -1 0
326 1 1120.4 -174.331 144.301 0 1 0
327 1 2246.66 2999.71 690.637 -1 -1 0
328 1 1640.15 789.671 1821.49 0 0 0
329 1 -307.316 2078.16 -153.315 0 0 0
330 1 358.673 600.33 598.53 0 -1 0
331 1 2901.11 1341.43 656.45 0 -1 0
332 1 3073.81 1877.2 927.708 -1 -1 -1
333 1 925.898 1051.35 923.095 0 0 0
334 1 1707.44 220.875 85.9041 0 0 0
335 1 -287.86 1353.06 2330.76 0 0 -1
336 1 2866.61 2749.31 839.794 -1 0 0
337 1 287.681 -1.42961 2556.85 0 0 -1
338 1 2107.25 1487.96 135.811 0 0 0
339 1 483.204 1155.5 322.831 0 0 0
340 1 2887.89 2379.76 851.077 0 0 0
341 1 21.2652 2421.09 168.564 0 0 0
342 1 2756.94 -48.5351 -27.3637 0 -1 0
343 1 1790.96 -305.125 625.278 0 0 0
344 1 1757.8 2730.41 1363.31 0 1 -1
345 1 1077.98 1864.23 -218.39 0 0 0
346 1 438.051 1974.76 1561.1 1 0 0
347 1 1068.66 3298.1 -215.171 0 -1 0
348 1 2863.3 1579.75 1745.46 0 0 0
349 1 2839.34 1126.08 849.098 -1 0 0
350 1 1304.63 2379.38 100.2 0 0 0
351 1 2128.88 1723.32 990.105 0 0 1
352 1 1394.07 2170.52 1979.58 0 1 0
353 1 1647.85 1657.21 2599.85 0 0 0
354 1 2098.97 1223.3 2222.77 0 0 -1
355 1 1282.95 1927.25 389.036 0 0 0
356 1 578.141 699.961 1331.79 1 0 0
357 1 3213.18 1318.33 -13.6456 -1 0 0
358 1 677.142 2048.98 2977.12 0 -1 0
359 1 -301.978 2437.22 674.912 1 0 0
360 1 881.818 1467.2 57.3116 0 0 0
361 1 -121.853 1784.46 1086.45 0 0 0
362 1 -118.406 1671.16 -25.5829 1 0 0
363 1 3132.38 2148.48 1047.87 -1 -1 -1
364 1 741.244 816.058 1560.26 0 1 0
365 1 2074.44 2498.92 2231.24 0 -1 0
366 1 553.664 310.238 968.952 0 0 0
367 1 1226.34 853.254 242.614 0 0 0
368 1 2908.57 962.17 608.129 -1 0 0
369 1 754.485 2317.73 1165.41 0 0 -1
370 1 383.581 102.889 1921.32 0 0 0
371 1 1003.15 44.1901 1246.82 -1 1 0
372 1 2396.09 2843.8 1491.68 0 -1 -1
373 1 2849.36 1466.84 305.889 0 0 0
374 1 2823.8 1137.53 364.815 0 0 0
375 1 749.023 -231.57 738.47 0 0 0
376 1 2327.45 2557.17 1564.9 0 1 0
377 1 2507.89 2154.37 2497.88 -1 0 0
378 1 1189.63 1683.77 557.286 0 0 0
379 1 497.292 2.73633 812.491 0 1 1
380 1 1838.99 -162.496 2655.13 0 0 0
381 1 830.249 2903.96 1714.97 0 -1 0
382 1 202.727 2473.62 2677.9 1 0 0
383 1 2386.08 2529.03 25.7074 -1 -1 0
384 1 2417.77 3133.27 404.045 0 0 0
385 1 918.178 1655.78 3229.57 0 0 0
386 1 2218.36 526.03 2965.14 0 -1 -1
387 1 -198.623 2878.31 1479.44 0 -1 0
388 1 3252.98 158.916 3014.4 -1 0 0
389 1 496.868 66.9249 3172.58 0 0 0
390 1 895.225 920.968 2793.32 0 1 0
391 1 2977.85 3245.5 1380.52 -1 0 0
392 1 2968.4 1194.65 108.333 -1 0 0
393 1 1697.85 534.327 2324.87 0 0 0
394 1 1264.35 3066.28 1718.91 0 -1 0
395 1 1994.84 550.944 1299.62 0 0 0
396 1 246.677 545.8 -37.5909 -1 0 0
397 1 1836.18 1452.63 2227.37 -1 0 -1
398 1 2720.14 2077.13 1431.68 -1 -1 0
399 1 7.12639 979.284 145.781 0 0 0
400 1 957.437 1665.13 2223.98 0 0 -1
401 1 1179.93 -78.9333 -311.538 0 0 0
402 1 786.391 525.325 1602.64 -2 0 0
403 1 25.1455 2425.16 1284.92 0 -1 0
404 1 1221.95 498.522 -19.3946 0 0 0
405 1 2929.38 2343.74 1139.63 0 0 0
406 1 1991.81 2091.13 1541.33 0 -1 0
407 1 2012.87 768.243 1973.02 -1 0 0
408 1 2937.45 -197.745 2391.4 -1 0 0
409 1 559.171 2247.25 956.328 1 0 0
410 1 2500.94 759.771 238.304 -1 0 0
411 1 1665.43 1181.92 2491.98 1 1 0
412 1 1349.15 1208.13 2061.07 1 0 0
413 1 394.323 2226.26 -138.971 0 0 0
414 1 1632.56 1026.7 1654.51 -1 0 -1
415 1 2777.15 3010.91 3016.84 -1 -1 0
416 1 189.753 2687.44 1131.71 -1 0 0
417 1 3284.44 1661.17 893.366 0 0 0
418 1 1862.93 3181.06 2705.61 0 0 -1
419 1 1904.27 2803.6 1741.47 0 0 0
420 1 1940.57 2432.13 1971.58 0 0 -1
421 1 1108.56 3057.99 2243.18 0 0 0
422 1 1742.99 -171.717 2941.7 0 1 0
423 1 2198.48 699.908 3204.36 -1 -1 -1
424 1 2356.93 1516.23 1268.1 -1 -1 0
425 1 3174.21 2866.97 966.895 -1 0 0
426 1 597.547 1401.15 451.211 0 0 -1
427 1 1967.9 2273.07 204.754 0 0 0
428 1 2804.7 192.857 146.353 -1 0 0
429 1 1072.16 2273.54 2827.18 0 0 -1
430 1 1386.38 91.5251 2692.23 0 0 -1
431 1 1669.07 2338.53 1784.49 0 -1 -1
432 1 225.205 3268.5 -223.829 0 -1 0
433 1 1484.49 2309.31 1076.26 0 1 0
434 1 -41.1229 3146.2 2558.84 0 -1 -1
435 1 1963.52 3072.66 735.038 0 0 0
436 1 3116.04 605.355 -171.265 -1 0 0
437 1 1353.89 1940.37 1929.92 0 0 0
438 1 565.165 584.329 1052.22 0 0 0
439 1 -189.482 2580.67 326.313 0 0 0
440 1 1279.21 3053.82 2491.8 0 -1 -1
441 1 1159.07 2634.88 2103.68 1 0 1
442 1 2157.28 2938.77 1825.88 0 -1 -1
443 1 314.824 709.859 1153.12 0 0 0
444 1 1752.26 1261.03 2894.38 1 0 -1
445 1 299.318 509.151 936.743 0 0 0
446 1 2376.39 1884.89 2444.32 0 0 -1
447 1 1948.47 1538.79 1970.87 -1 0 0
448 1 3214.28 958.217 599.574 -1 0 0
449 1 2075.43 508.514 1843.81 -1 0 0
450 1 354.237 2520.25 -199.642 1 0 1
451 1 2911.89 1104.11 1927.17 1 0 0
452 1 1220.75 2951.2 1984.5 -1 0 -1
453 1 1732.8 851.957 852.585 0 0 0
454 1 782.032 766.532 3033.24 0 0 -1
455 1 3243.46 487.557 3294.84 -1 0 0
456 1 1768.23 2397.59 2656.92 0 0 -1
457 1 1529.59 769.223 1544.58 0 0 0
458 1 -22.6748 1647.5 2885.97 0 0 -1
459 1 511.199 3198.59 1406.78 0 -1 0
460 1 1545.04 -159.168 2714.56 0 0 0
461 1 150.382 527.807 1529.05 1 0 0
462 1 663.087 3202.58 2346.55 0 -1 -1
463 1 1039.02 775.688 1569.71 0 1 0
464 1 2284.08 662.126 1978.24 0 0 0
465 1 1927.7 -188.258 960.101 0 0 0
466 1 2237.83 3218.07 1871.58 -1 -1 0
467 1 1042.49 2999.46 1525.74 -1 0 0
468 1 1277.79 850.642 534.833 0 0 0
469 1 3176.18 -198.357 628.909 -1 0 0
470 1 -119.413 -32.7518 1991.62 0 0 -1
471 1 2164.91 2436.6 3170.76 0 0 -1
472 1 -220.011 798.917 2510.88 0 0 -1
473 1 223.666 3283.55 695.12 0 -1 0
474 1 -169.064 2362.08 957.716 0 -1 0
475 1 437.441 2119.29 1304.99 -1 -1 0
476 1 2884.68 1718.43 256.633 -1 0 1
477 1 1185.38 -100.622 1886.61 -1 0 0
478 1 -44.1261 1933.73 1997.45 1 0 0
479 1 977.456 1904.15 557.561 0 0 0
480 1 2021.45 2843.01 1120.1 0 -2 0
481 1 68.5641 840.006 400.862 0 1 0
482 1 1946.02 2887.93 2718.76 0 0 0
483 1 149.999 354.408 172.857 1 0 0
484 1 2108.57 1293.29 371.639 0 0 1
485 1 2882.9 1386.2 -146.841 0 0 0
486 1 2250.94 2669.52 2396.68 0 0 0
487 1 1530.9 2585.62 2870.49 0 0 -1
488 1 785.669 470.615 882.7 0 0 0
489 1 1320.13 1248.11 2407.17 0 0 0
490 1 -294.181 2485.18 652.932 0 0 0
491 1 2763.15 -272.289 -218.416 -1 0 0
492 1 182.56 1111.13 335.758 0 0 0
493 1 1371.13 1539.06 359.422 0 0 0
494 1 1861.3 3232.94 3082.39 0 -1 0
495 1 991.743 2534.37 588.048 0 0 0
496 1 -124.898 552.663 2647.04 0 1 0
497 1 2380.38 3069.23 2103.7 0 0 0
498 1 1074.1 1117.4 2940.83 0 1 0
499 1 1141.54 2792.47 2363.23 0 0 0
500 1 657.294 1165.33 2350.08 0 0 0
501 2 2546.29 1818.79 1646.76 0 0 0
502 2 567.427 1871.89 1033.02 1 0 0
503 2 -33.3724 857.763 1461.52 0 0 0
504 2 1225.51 1518.15 -240.76 0 0 1
505 2 2830.97 1612.35 3037.44 0 0 -1
506 2 812.174 176.919 2440.04 0 0 0
507 2 618.238 1780.8 497.845 0 0 0
508 2 1274.11 2764.46 3090.96 0 0 -1
509 2 3015.52 3262.61 3145.61 0 0 0
510 2 576.541 1541.81 -290.666 0 0 0
511 2 1183.48 -285.237 2723.12 0 1 -1
512 2 1371.15 668.662 2173.7 0 0 0
513 2 69.56 2124.78 2426.82 0 0 0
514 2 1815.61 1891.68 3036.56 0 0 0
515 2 2739.3 1131.98 2277.26 0 0 -1
516 2 -260.588 3271.25 1943.66 1 -1 0
517 2 174.517 1825.38 785.373 1 0 0
518 2 906.689 3031.8 2553.34 0 0 0
519 2 2670.8 1364.06 2679.31 0 0 0
520 2 3032.07 2724.3 1283 -1 0 0
521 2 1738.06 1444.39 203.929 0 0 0
522 2 600.385 1438.69 1084.99 0 1 0
523 2 2378.25 206.189 2384.13 0 0 0
524 2 1038.01 1985.17 3067.37 0 0 -1
525 2 2025.12 2699.78 757.605 1 0 0
526 2 2406.9 2899.44 94.7771 0 0 1
527 2 3206.52 3202.23 2355.41 0 -1 0
528 2 -23.3666 2316.18 1964.54 1 0 0
529 2 103.928 2923.67 852.033 0 0 0
530 2 2587.59 2871.7 2713.06 -1 -1 -1
531 2 3156.75 772.844 1383.06 0 0 0
532 2 3218.33 2461.98 2352.7 -1 0 0
533 2 2589.92 1570.34 2284.52 0 1 0
534 2 2343.9 1711.71 -46.6279 0 0 1
535 2 -210.062 2503.56 1568.21 0 0 0
536 2 2604.86 2510.9 2431.79 0 0 0
537 2 2933.4 3147.65 943.075 -1 0 0
538 2 2092.86 1775.9 1356.44 0 0 0
539 2 2705.95 2996.08 -251.327 0 -1 1
540 2 1030.23 138.901 2836.83 0 1 0
541 2 923.63 583.617 2267.27 0 0 0
542 2 859.091 97.3609 884.272 0 0 0
543 2 2719.51 429.299 880.824 0 -1 -1
544 2 897.394 1553.25 1861.27 0 0 -1
545 2 3163.75 2334.73 1906.75 0 0 0
546 2 1567.68 573.214 94.4025 0 0 1
547 2 3280.47 1135.99 2011.51 0 1 0
548 2 1343.55 1099.43 3219.78 0 0 0
549 2 659.915 2869.43 4.26305 0 0 0
550 2 1494.88 2992.85 1427.3 0 0 0
551 2 157.276 205.856 3099.11 1 0 0
552 2 -228.567 2830.53 24.5924 1 0 0
553 2 2520.61 2.91348 3318.41 -1 0 0
554 2 2410.91 665.022 1610.04 0 0 0
555 2 241.123 495.68 1897.32 0 1 0
556 2 567.793 968.623 1046.43 1 0 0
557 2 737.316 -294.634 1106.9 0 1 0
558 2 1960.42 2334.84 2731.48 0 0 0
559 2 1250.52 135.007 653.952 0 0 0
560 2 1295.53 1652.47 1635.8 0 0 0
561 2 2088.8 -109.842 3081.09 0 0 -1
562 2 1133.68 1486.85 2957.87 0 0 0
563 2 1291.75 924.207 1786.96 0 0 0
564 2 2370.57 195.987 2855.49 0 0 0
565 2 415.44 2922.6 520.494 0 0 0
566 2 938.064 1674.88 850.709 1 0 0
567 2 2881.19 43.5669 3014.22 0 -1 -1
568 2 2260.82 1451.22 1627.1 0 0 0
569 2 71.4644 117.724 1695 0 0 0
570 2 1508.74 2385.8 1440.13 0 0 0
571 2 1132.35 1129.72 -3.72674 0 1 0
572 2 1732.01 -283.277 1276.25 0 0 0
573 2 -157.713 2462.34 2811.93 1 -1 0
574 2 1448.07 72.2607 1322.59 0 1 0
575 2 856.503 786.618 134.24 0 0 0
576 2 1884.71 137.146 1195.23 0 0 0
577 2 1964.06 782.749 1593.67 0 0 0
578 2 2609.29 1080.04 37.0886 -1 0 1
579 2 61.2463 1075.47 3044.54 1 0 -1
580 2 -239.095 76.9793 -23.8886 1 0 1
581 2 218.993 860.241 2652.93 0 0 0
582 2 2948.75 1740.49 2608.06 -1 0 0
583 2 -10.8995 513.115 1166.24 0 0 0
584 2 -215.875 245.059 2454.77 0 0 0
585 2 221.622 2742.54 85.3514 0 0 0
586 2 1831.06 2457.77 1111.05 0 0 0
587 2 440.692 2395.07 2330.05 0 0 0
588 2 2245.33 1151.21 674.812 0 0 -1
589 2 3178.79 1405.17 3244.99 -1 0 -1
590 2 3284.51 3122.97 1231.54 0 -1 0
591 2 2079.75 155.265 1985.5 0 1 -1
592 2 -65.9184 1264.52 1689.52 0 0 0
593 2 1693.31 2437.33 2268.2 0 0 0
594 2 311.305 1283.38 2489.21 0 0 -1
595 2 2318.34 2156.82 95.4484 0 0 0
596 2 2963.82 271.412 2441.29 -1 0 0
597 2 604.753 -145.866 1749.16 0 0 0
598 2 -119.075 770.687 1897.78 0 0 0
599 2 3229.37 573.586 590.976 -1 0 0
600 2 2738.86 -81.1288 1053.57 0 1 0
601 2 2784.01 1172.66 3196.36 -1 0 -1
602 2 1406.95 1899.89 2801.68 0 0 0
603 2 3205.76 622.931 2266.3 -1 0 0
604 2 -150.417 96.3262 1296.58 0 0 0
605 2 569.862 2536.13 318.174 0 0 0
606 2 278.944 1735.58 2647.46 1 0 -1
607 2 1224.01 468.066 1420.58 -1 0 0
608 2 900.555 2135.1 835.722 0 0 0
609 2 1847.73 1027.94 447.324 -1 -1 -1
610 2 1069.81 3026.55 1140.35 0 0 0
611 2 192.466 2223.82 1015.68 0 -1 0
612 2 2326.87 1155.55 -320.381 0 0 0
613 2 2304.08 487.741 671.866 0 0 0
614 2 1958.87 3101 2100.07 0 -2 0
615 2 546.411 1616.86 1498.16 -1 -1 -1
616 2 3117.42 991.166 -181.434 -1 0 0
617 2 1451.91 -236.135 -105.877 -1 0 0
618 2 2616.71 1329.35 1888.64 0 0 0
619 2 -24.1049 2968.76 414.586 1 -1 1
620 2 3189.57 -20.5488 2164.46 -1 0 -1
621 2 1593.18 2948.09 1862.43 0 0 0
622 2 298.306 1359.76 1947.65 0 0 -1
623 2 -181.869 2706.51 1136.07 0 0 0
624 2 1828.49 -10.5509 1638.7 0 1 0
625 2 3199.47 1225.25 855.364 -1 0 0
626 2 -11.8267 2022.91 2868.3 0 0 -1
627 2 150.348 2219.23 1545.89 0 -1 0
628 2 1845.23 932.996 2265.41 -1 0 -1
629 2 -166.093 1747.84 2538.96 0 0 -1
630 2 2942.04 2555.18 509.78 0 0 0
631 2 429.741 225.716 -152.944 0 0 0
632 2 207.04 1742.08 2198.36 0 0 -1
633 2 -235.945 2012.65 1689.08 0 0 -1
634 2 2040.57 2962.46 376.478 0 -1 0
635 2 578.844 668.921 -201.076 0 0 0
636 2 2034.91 1107.96 35.7408 0 0 0
637 2 2470.73 1390.62 349.663 0 0 0
638 2 2478.49 63.7066 701.705 0 1 0
639 2 2776.49 690.485 2427.52 -1 -1 0
640 2 -172.384 -243.84 399.792 0 0 0
641 2 647.719 704.972 1907.11 1 0 0
642 2 2939.83 2827.49 2416.91 0 -1 -1
643 2 981.684 -228.677 2296.73 0 0 0
644 2 162.936 1357.24 -250.666 0 0 1
645 2 1182.39 3098.2 83.769 0 -1 0
646 2 362.027 1874.31 3086.62 0 0 -1
647 2 1265.49 2684.1 1708.99 0 -1 0
648 2 1337.21 2643.92 353.243 0 0 0
649 2 874.026 1270.22 2644.58 0 0 0
650 2 170.693 2856.15 2694.03 0 0 0
651 2 -242.295 2012.14 804.28 0 -1 0
652 2 2531.09 869.32 777.484 0 0 0
653 2 2465.99 2341.5 -292.189 0 -1 0
654 2 2804.08 2587.48 2034.09 0 -1 0
655 2 1185.87 1585.41 2515.06 0 0 0
656 2 2162.63 -282.984 580.164 0 1 0
657 2 912.14 2431.59 1886.65 0 0 0
658 2 2726.58 2222.93 1783.89 0 0 0
659 2 1554.56 2793.38 2545.79 0 0 -1
660 2 2191.67 2137.47 2012.99 0 0 -1
661 2 967.107 3218.75 1885.69 0 -1 0
662 2 1893.01 772.796 -246.327 0 0 0
663 2 -248.725 3020.67 3261.57 0 -1 0
664 2 2941.36 2466.34 2731.85 -1 0 -1
665 2 2209.77 99.5307 326.071 0 0 0
666 2 978.917 1979.63 2609.66 0 0 0
667 2 2835.73 492.827 1557.86 -1 0 0
668 2 991.071 3300.26 453.03 0 0 0
669 2 2630.35 3302.32 1413.73 -1 -1 0
670 2 813.119 -18.8144 -296.079 0 0 0
671 2 -80.6491 1106.59 603.869 1 0 0
672 2 518.351 2854.12 2391.37 0 -1 0
673 2 585.319 1947.59 2360.05 0 0 -1
674 2 3049.29 -106.307 207.058 -1 0 0
675 2 547.946 1853.97 1909.28 0 0 0
676 2 1036.87 2339.15 2321.86 0 -1 0
677 2 1150.97 -255.094 876.923 0 0 0
678 2 1396.85 2321.23 2607.28 0 0 0
679 2 -31.7805 1063.55 2324.34 0 0 0
680 2 1222.61 766.015 2915.22 0 0 -1
681 2 1435.29 1915.32 3287.29 0 0 -1
682 2 1491.94 3104.14 985.1 0 -1 0
683 2 2073.37 532.292 2263.74 0 0 0
684 2 177.86 352.364 2664.17 0 0 -1
685 2 2537.9 1256.04 1039.31 0 0 0
686 2 297.197 1855.37 -111.851 0 0 0
687 2 2217.73 3321.52 134.55 0 -1 1
688 2 453.821 2863.39 1592.69 0 0 0
689 2 716.497 263.992 2003.38 0 0 0
690 2 386.177 924.524 2220.1 0 0 0
691 2 2353.11 2151.03 1406.59 0 0 0
692 2 2751.65 2900.99 1614.91 -1 -1 0
693 2 1380.95 78.8239 225.365 0 0 0
694 2 1930.82 488.827 2700.34 0 1 0
695 2 2450.07 1841.19 394.287 0 0 0
696 2 1712.22 1791.29 2112.24 0 0 0
697 2 3073 767.014 1838.01 0 0 0
698 2 1570.83 2991.92 -281.069 0 0 0
699 2 120.616 3010.05 1306.66 0 -1 0
700 2 2320.67 -107.215 1688.79 -1 0 0
701 2 2157.3 2273.12 835.161 0 0 0
702 2 2269.12 -98.2135 1092.86 0 1 0
703 2 2303.85 2761.72 3306.28 0 -1 0
704 2 1385.88 200.557 1753.24 0 1 0
705 2 -60.9073 -191.272 2324.69 0 0 -1
706 2 1089.25 2669.65 -43.5344 0 0 -1
707 2 1352.62 2311.88 3067.16 0 0 -1
708 2 1552.14 754.305 2592.14 0 0 0
709 2 1293.53 965.39 903.565 0 0 0
710 2 538.109 -114.578 2199.85 0 -1 -1
711 2 1444.34 -255.78 1647.24 0 0 0
712 2 350.771 3179.64 123.381 0 -1 1
713 2 1778.12 2596.28 229.034 -1 0 1
714 2 947.546 141.479 1624.99 0 0 0
715 2 143.387 2551.85 497.95 0 0 0
716 2 414.809 2185.86 609.741 0 0 0
717 2 2315.66 -203.383 2162.35 0 1 0
718 2 1802.24 3319.02 -270.721 0 -1 1
719 2 536.033 3104.15 1991.27 0 -1 0
720 2 1716.22 2133.19 -60.647 0 0 1
721 2 583.325 3218.44 3283.35 0 -1 -1
722 2 2403.19 1586.58 758.194 -1 0 0
723 2 2520.18 2311.51 2836.63 0 -1 0
724 2 2162.72 1618.02 3164.29 0 0 -1
725 2 1151.75 179.196 2144.73 0 1 0
726 2 2665.24 2483.5 1404.28 0 0 0
727 2 2736.39 989.925 1600.24 0 0 0
728 2 3066.23 859.305 257.996 0 1 0
729 2 2677.65 1433.62 1444.24 0 0 0
730 2 1378.61 1240.08 1460.41 0 0 0
731 2 3097.31 3163.14 -60.5356 -1 -1 0
732 2 11.7475 2644.84 3313.04 0 -1 -1
733 2 2988.52 1476.95 2077.54 0 0 0
734 2 786.067 3040.06 774.651 0 -1 0
735 2 489.978 2312.18 3149.82 0 0 -1
736 2 2661.29 3282.04 1867.18 -1 -1 -1
737 2 969.187 789.415 1194.63 0 1 0
738 2 1317.66 2406.51 744.124 0 0 0
739 2 413.963 2159.32 2727.45 0 0 -1
740 2 3111.2 3122.26 389.087 -1 -1 0
741 2 1371.73 3289.36 2096.9 0 -1 -1
742 2 2541.67 1857.22 2778.69 -1 -1 -1
743 2 2016.27 442.108 54.8802 0 0 0
744 2 181.745 -263.928 1931.8 -1 0 0
745 2 1539.18 670.794 1153.02 0 0 0
746 2 1953.71 908.44 1148.58 0 0 0
747 2 2079.04 1341.69 1061.68 0 0 1
748 2 2111.82 2032.2 -291.925 0 0 0
749 2 784.562 3313.47 43.7037 0 -1 0
750 2 1538.08 3099.81 2901.81 0 0 0
751 2 585.923 1108.33 -74.7875 0 0 1
752 2 286.275 950.269 1772.14 1 0 0
753 2 3168.02 639.705 2731.99 -1 0 0
754 2 1249.61 413.787 2536.91 0 0 0
755 2 564.182 2760.68 3211.79 0 0 0
756 2 3311.6 2034.71 2218.14 -1 0 0
757 2 981.577 1988.21 2007.71 0 0 0
758 2 1450.13 1976.84 1250.33 -1 0 0
759 2 209.939 146.018 1020.94 1 0 0
760 2 2321.14 752.419 -92.9759 0 0 1
761 2 3061.91 1847.94 -291.757 -1 0 0
762 2 536.818 2925.7 1142.02 0 0 0
763 2 2473.47 1965.28 2084.08 0 0 0
764 2 182.578 1836.68 333.822 0 0 0
765 2 999.229 2343.67 243.813 0 0 0
766 2 2574.8 2242.81 1015.74 0 0 0
767 2 2641.9 738.779 1221.85 0 0 0
768 2 2925.09 2283.73 -252.537 0 0 0
769 2 -10.7813 627.165 2986.17 0 0 -1
770 2 2218.33 -164.822 2616.76 0 0 -1
771 2 393.316 1480.24 130.632 0 0 0
772 2 2719.82 2959.36 560.319 0 -1 0
773 2 2113.88 50.7779 -119.762 0 0 1
774 2 1888.82 1439.6 644.413 0 0 0
775 2 1636.13 1241.15 1080.33 0 0 0
776 2 1697.42 1728.08 944.693 -1 -1 0
777 2 3087.69 1288.99 1623.15 0 0 0
778 2 2768.91 655.223 -26.2331 0 0 0
779 2 906.668 1228.85 3257.94 0 0 -1
780 2 971.399 3116.68 3052.12 0 0 -1
781 2 1745.74 2036.63 2520.69 0 -1 -1
782 2 2940.87 1143.74 1217.95 0 0 0
783 2 1616.05 1365.02 1828.93 0 0 0
784 2 1405.52 1154.68 361.927 0 0 0
785 2 -37.069 -215.454 3187.33 0 1 0
786 2 35.5071 2976.58 1756.89 0 -1 0
787 2 3005.6 3228.15 1496.36 0 -1 0
788 2 3248.14 994.37 3026.94 -1 0 -1
789 2 441.967 598.444 2967.46 0 0 -1
790 2 2462.28 873.625 2991.27 -1 -1 -1
791 2 -90.8976 1319.17 2689.99 0 0 -1
792 2 1530.03 403.637 2905.05 0 0 -1
793 2 2976.85 341.825 1979.61 -1 0 0
794 2 41.1452 604.608 2301.34 0 0 -1
795 2 2800.05 -236.965 574.171 -1 0 0
796 2 3017.51 1895.47 1893.51 0 0 0
797 2 2179.75 3119.06 2909.32 0 -1 0
798 2 654.299 1165.65 1924.58 0 0 0
799 2 1967.19 2893.31 -65.1605 0 -1 0
800 2 2122.21 1247.05 2874.39 0 0 -1
801 2 2862.94 2823.83 143.93 -1 -1 1
802 2 3043.29 161.148 1313.77 0 0 0
803 2 2726.39 1.65873 2150.73 0 0 0
804 2 3160.59 1052.64 2450.24 -1 0 0
805 2 1580.88 1035.05 -34.5817 0 -1 0
806 2 169.908 -16.866 597.638 0 0 0
807 2 713.638 1987.58 -251.396 0 -1 0
808 2 -206.019 662.311 3285.31 0 0 0
809 2 2219.97 3119.88 1285.42 -1 -1 -1
810 2 352.916 973.028 641.896 0 0 -1
811 2 2758.05 447.278 2822.4 0 0 -1
812 2 -78.6814 -285.981 1533.08 0 0 0
813 2 188.145 1832.75 1296.43 0 0 0
814 2 -223.859 453.732 1571.85 0 0 0
815 2 1195.01 2098.17 1611.17 0 0 0
816 2 575.107 285.552 573.219 0 1 0