ITEM: TIMESTEP
545000
ITEM: NUMBER OF ATOMS
1000
ITEM: BOX BOUNDS pp pp pp
1.3367975680844315e+03 3.6632024319150332e+03
1.3367975680844315e+03 3.6632024319150332e+03
1.3367975680844315e+03 3.6632024319150332e+03
ITEM: ATOMS id type x y z ix iy iz
1 1 2776.39 2428.97 1486.31 -1 0 1
2 1 2080.89 1367.38 2626.89 0 0 0
3 1 3282.39 2580.53 2152.72 0 0 0
4 1 2247.93 1686.44 3258.3 0 -1 0
5 1 3416.21 2992.72 2707.34 -1 -1 1
6 1 1933.12 1753.84 3413.48 0 0 0
7 1 1668.95 3038.06 2867.52 0 -1 0
8 1 2175.66 1739.66 2473.62 0 0 1
9 1 3005.26 3050.98 2469.84 0 0 0
10 1 2864.7 2509.91 2644.84 0 0 0
11 1 2705.56 2132.14 2607.83 0 0 0
12 1 1437.55 3206.15 3596.01 0 0 0
13 1 3149.36 3516.78 3470.17 -1 0 -1
14 1 2215.8 2722.91 2885.69 0 0 -1
15 1 3235.77 2218.1 2052.96 0 0 0
16 1 2185.4 3654.8 2453.83 0 0 -1
17 1 2433.92 2911.39 2927.02 1 0 -1
18 1 3133.29 2350.05 2485.17 -1 1 0
19 1 2890.25 1878.06 1761.47 -1 0 0
20 1 1475.2 3053.4 2987.05 0 -1 0
21 1 2029.82 2528.59 2582.18 0 1 0
22 1 2677.28 3005.55 2752.95 2 -1 0
23 1 2889.49 2149.96 2702.14 0 0 1
24 1 2986.24 3372.6 2163.89 0 0 0
25 1 1738.74 1914.56 2812.28 -1 0 0
26 1 2975.54 3051.68 2958.93 0 0 0
27 1 3112.06 2393.78 2843.26 -1 0 1
28 1 2026.31 2450.94 2391.36 0 0 0
29 1 2572.08 2261.75 2660.58 0 0 -1
30 1 2810.73 3437.35 2900.8 0 0 0
31 1 1457.16 1647.9 2922.6 0 0 0
32 1 1626.19 3139.76 3267.14 0 0 -1
33 1 2187.14 2387.3 3149.4 0 0 0
34 1 2448.62 1362.7 2902.62 0 0 0
35 1 1997.56 2176.11 2387.77 0 0 -1
36 1 1523.04 2845.88 1421.35 0 -1 0
37 1 1803.33 1822.79 1868.97 0 0 0
38 1 2203.98 3005.6 2174.24 0 0 0
39 1 3231.35 2354.42 2894.13 -2 0 -1
40 1 3135.9 2474.15 1975.14 -1 -1 2
41 1 1944.73 2937.09 1849.46 0 0 -1
42 1 2939.09 2711.09 2046.9 0 -1 0
43 1 2447.83 2595.13 2037.3 0 -2 0
44 1 3010.95 3405.47 1723.29 0 -1 0
45 1 2459.57 2311.67 2818.24 0 0 0
46 1 2930.9 3543.1 3053.99 -1 -1 0
47 1 3396.7 3254.27 2191.08 -1 -1 -1
48 1 3230 2055.41 2813.93 0 0 -1
49 1 2919.15 2558.74 2241.83 -1 0 1
50 1 3070.92 1682.62 3325.32 -1 0 0
51 1 3293.25 1441 2224.64 -1 -1 1
52 1 3641.7 2540.89 3508.17 -1 0 -1
53 1 3119.25 1919.32 3407.3 -2 0 -1
54 1 3315.76 2249.73 3013.19 0 0 -1
55 1 3025.34 3052.51 2979.22 -2 0 -1
56 1 3133.13 2139.1 1641.62 0 0 0
57 1 1922.49 2512.14 3536.91 0 0 -1
58 1 2463.95 2634.26 3502.87 0 0 -1
59 1 2652.65 3396.05 2800.17 -1 -1 0
60 1 1999.71 3185.95 1547.28 -1 -1 1
61 1 1844.86 2835.54 2455.34 -1 0 0
62 1 2595.93 1404.45 3150.4 0 0 -1
63 1 3215.51 2181.84 3164.75 -1 0 0
64 1 2902.27 2641.01 3242.87 0 -1 -1
65 1 3244.26 3086.61 2762.88 -1 -1 -1
66 1 3294.22 2946.65 2533.12 -1 0 1
67 1 2493.06 2423.78 1661.29 0 0 0
68 1 2209.42 2960.89 3341.03 0 -1 -1
69 1 1450.75 2588.84 2840.49 0 0 0
70 1 1666.84 1470.03 3403.73 0 1 -1
71 1 1916.95 2709.73 2542.45 -1 0 -1
72 1 2763.88 2012.84 3628.58 0 0 -1
73 1 2666.75 1524.15 1354.8 0 1 1
74 1 3180.06 2745.22 2100.24 -1 0 -1
75 1 1935.85 2472.48 1630.37 0 0 1
76 1 1568.14 1641.66 3074 -1 0 0
77 1 2658.57 2511.25 3403.89 -1 -1 -1
78 1 1608.32 3616.33 1758.33 0 -1 0
79 1 2005.95 2324.16 2528.99 0 -1 0
80 1 3177.34 2369.85 2460.98 -1 0 0
81 1 3632.21 1770.18 1779.81 -1 0 0
82 1 1817.32 2191.42 3433.05 1 0 0
83 1 2475.75 1969.31 2736.05 -1 -1 -1
84 1 1918.43 3623.8 3497.49 1 0 -1
85 1 2503.57 2395.26 2423.23 0 -1 0
86 1 3454.56 2361.7 2908.73 -1 0 0
87 1 1672.34 1912.93 2991.62 0 -1 -1
88 1 1470.89 2816.34 1958.74 0 -1 0
89 1 2924.49 2891.49 1701.08 0 0 0
90 1 3515.35 3313.96 2288.79 -2 -1 0
91 1 1592.45 3511.93 3040.38 0 -1 -1
92 1 1898.35 2841.79 2453.2 0 -1 -1
93 1 2173.07 3434.34 2773.53 1 0 0
94 1 2225.42 2067 3458.24 0 0 -1
95 1 1698.09 2419.34 2940.29 -1 -1 -1
96 1 2825.93 2452.44 1871.76 -1 0 0
97 1 2257.88 2392.69 1939.53 0 -1 1
98 1 2740.11 2020.66 3075.7 -1 -1 0
99 1 2454.98 2943.66 3109.87 0 -1 -1
100 1 2793.88 1902.31 1462.68 -1 0 0
101 1 1450.59 2998.41 2335.26 0 -1 0
102 1 2218.14 1392.12 2716.77 -1 0 0
103 1 2961.72 2512.06 1997.62 -1 0 0
104 1 3539.42 2747.68 2422.41 0 -1 -1
105 1 3466.87 3196.4 2830.79 -1 0 0
106 1 3530.76 1890.26 2914.3 0 1 -1
107 1 2825.94 2111.31 2433.1 -1 -2 0
108 1 3399.54 3272.71 1542.41 -1 0 -1
109 1 2198.02 2540.59 2389.41 -1 -1 0
110 1 2820.07 2805.46 1532.87 0 -1 0
111 1 3522.4 1337.36 3529.39 -1 0 -1
112 1 2689.89 1565.67 3100.98 0 0 0
113 1 2357.32 2786.37 3063.12 0 0 -1
114 1 2769.32 2394.92 3036.65 -1 0 0
115 1 2205.38 2712.75 3162.41 0 0 -1
116 1 2948.01 2406.38 2991.55 0 0 0
117 1 2325.68 3574.39 2805.99 0 -1 -1
118 1 2030.86 2863.74 2224.9 -1 0 -1
119 1 3456.39 3076.56 2179.83 0 -1 0
120 1 2836.99 2272.65 1684.69 1 0 0
121 1 3233.75 3360.55 3181 -1 0 0
122 1 2866.4 3222.69 2454.53 0 0 -1
123 1 1617.72 1578.09 3553.52 -1 1 -1
124 1 2618.38 2523.7 1470.06 0 0 1
125 1 1621.53 3203.84 1862.53 0 -2 0
126 1 2131.29 3657.41 3126.86 0 0 -1
127 1 2839.69 2212.57 2021.7 -1 -1 0
128 1 1979.87 2228.41 3659.63 -1 0 0
129 1 2479.52 2418.23 2380.93 -1 0 0
130 1 3513.28 2668.23 1901.95 0 -1 0
131 1 3019.89 3300.24 1379.58 -1 -1 0
132 1 2645.48 2879.34 3136.67 0 -1 -1
133 1 2527.55 2405.63 2953.32 0 0 -1
134 1 1825.44 3366.23 2481.03 -1 -1 -1
135 1 2104.97 3573.87 3499.97 0 -1 -1
136 1 3086.1 2029.57 3260.48 -1 0 0
137 1 3298.64 1778.22 1833.36 -1 0 0
138 1 2823.2 2600.15 1761.57 0 -1 0
139 1 3089.05 2611.86 1956.31 -1 -1 -1
140 1 3050.18 3124.39 2831.59 -1 -1 -1
141 1 2965.38 2880.67 1967.45 -1 1 0
142 1 2424.64 2194.87 2963.78 0 1 -1
143 1 3284.45 3097.61 2208.11 -1 0 0
144 1 1439.66 3118.41 2580.81 -1 -1 0
145 1 2266.27 2170.22 2007.86 0 0 0
146 1 3457.65 2595.65 2070.26 -1 -1 0
147 1 1596.19 2476.4 2776.09 0 0 -1
148 1 2785.06 2759.9 2319.75 -1 -1 1
149 1 3142.35 2929.62 2828.68 0 0 0
150 1 2409.04 2618.84 2575.46 0 0 0
151 1 2565.46 3171.01 2828.38 0 -2 -1
152 1 3484.4 2667 3047.17 -1 -1 0
153 1 3010.45 2867.96 2967.24 -1 -1 -1
154 1 3371.36 2740.36 2219.6 -1 0 -1
155 1 3097.22 2332.45 2521.5 0 0 0
156 1 1924.25 2515.29 3308.95 0 0 -2
157 1 3616.08 3102.53 2288.81 0 0 -1
158 1 2794.66 2810.06 1912.61 -1 -1 0
159 1 3184.06 2693.6 2708.2 0 -1 0
160 1 3025.21 1790.29 2934.29 -1 0 0
161 1 2750.32 2793.19 1719.38 0 0 -1
162 1 2888.83 1949.61 2545.13 0 -1 0
163 1 2357.9 2606.8 2974.72 0 0 -1
164 1 3340.15 2423.16 1780.25 0 -1 -1
165 1 2230.92 2062.88 3511.82 0 0 -1
166 1 1389.96 2776.72 1807.13 0 0 -1
167 1 2732.1 2766.71 2313.34 0 -1 0
168 1 1717.83 2072.85 3125.72 0 0 0
169 1 2096.3 3406.84 1649.23 0 -1 -1
170 1 3094.7 3061.47 2316.22 0 -1 0
171 1 2908.2 2018.17 3190.04 -1 -1 -1
172 1 2647.35 3071.67 2023.06 0 -1 -1
173 1 2893.23 2353.55 2530.65 -1 0 -1
174 1 2973.66 1652.93 3548.59 -2 0 -1
175 1 3292.37 3152.92 1408.95 -1 -1 -1
176 1 2016.09 1980.58 3112.03 0 0 0
177 1 2910.72 3471.92 1528.87 -1 0 0
178 1 3457.34 2105.8 2890.43 -1 0 0
179 1 1750.81 2074.91 3168.13 -1 0 0
180 1 3385.69 3015.24 3105.36 0 0 -1
181 1 1542.08 2700.82 3224.18 0 -1 1
182 1 2967.73 3523.53 2091.24 0 -1 0
183 1 1419.46 3154.6 1878.89 0 -1 0
184 1 3061.81 2153.73 2744.03 0 -1 1
185 1 1529.37 2233.67 2675.39 0 0 -1
186 1 3223.66 2287.49 1699.53 -1 0 -1
187 1 3626.7 2709.33 2916.76 0 0 -1
188 1 2605.96 1373.28 3592.73 0 1 -1
189 1 3582.65 1974.72 3481.75 -1 0 -1
190 1 2618.85 2717.31 2481.48 -1 0 0
191 1 2984.11 1513.19 3333.57 0 0 0
192 1 3409.14 3459.47 1602.68 -1 -1 0
193 1 3507.17 2885.38 3045.71 -2 -1 0
194 1 3023.33 2035.65 1800.18 0 -1 -1
195 1 2054.53 2635.24 2855.52 -1 0 0
196 1 2363.58 2521.01 3616.92 0 0 -1
197 1 2089.81 2236.67 1472.56 -1 1 1
198 1 2915.47 3388.88 3482 -1 -1 0
199 1 2285.45 3346.93 1403.65 0 0 1
200 1 1958.45 1773.93 3128.05 0 0 -1
201 1 3389.94 2094.52 3122.88 -1 0 0
202 1 2611.87 2336.89 3496.78 -1 -1 -1
203 1 3263.8 3249.8 3524.27 -1 -1 0
204 1 2431.11 2301.33 3138.8 0 -1 -2
205 1 3136.43 2665.13 3219.69 -1 -1 0
206 1 3436.87 1473.58 3412.59 -1 0 0
207 1 2394.32 2826.24 3473.41 -1 -1 -1
208 1 2407.11 2129.05 2781.92 0 0 -1
209 1 2782.99 2734.04 3123.78 -1 -1 0
210 1 3239.34 2556.38 1614.6 0 -1 0
211 1 2940.22 3062.15 1623.22 -1 -1 0
212 1 2325.23 1350.45 2323.76 0 0 -1
213 1 3200.09 2750.28 2502.14 0 1 -1
214 1 2380.76 3008.47 2460.58 0 -1 0
215 1 1338.01 3097.39 1717.63 0 0 -1
216 1 2718.73 2290.06 3373.71 -1 0 -1
217 1 3060.3 2060.28 1980.5 -1 0 1
218 1 2060.05 2647.29 1818.12 0 0 0
219 1 3255.92 3081.26 2415.54 0 -1 0
220 1 2082.21 2415.57 3359.94 -1 0 -1
221 1 3140.16 1541.32 3217.55 -1 0 -1
222 1 2973.15 2091.96 1342.47 0 -1 1
223 1 2452.25 2442.27 3445.32 0 -1 -2
224 1 1491.46 3455.85 2493.92 0 -1 0
225 1 2901.19 3577.15 2428.96 0 -1 0
226 1 2867.6 2567.13 3035.41 0 -1 0
227 1 3476.94 2369.21 2721.4 -1 -1 -1
228 1 1396.29 3344.43 1412.03 0 0 1
229 1 3007.03 1955.98 2147.09 -1 -1 0
230 1 1467.24 2405.25 2635.58 0 0 -1
231 1 1941.52 2826.05 2425.03 -1 -1 0
232 1 1987.54 3549.18 3654.39 0 -1 -1
233 1 3478.93 2843.13 2846.54 -1 0 1
234 1 1837.46 1645.39 2598.64 0 -1 -1
235 1 2782.18 2331.6 1510.07 -1 -1 0
236 1 2500.12 2594.15 2024.7 -1 0 0
237 1 3222.14 2538.91 3096.46 0 -1 0
238 1 3141.76 2929.46 2444.9 0 -1 0
239 1 2794 2611.53 1949.72 -1 -1 0
240 1 2066.4 2561.72 2560.16 1 0 -1
241 1 2765.68 3533.56 1693.22 0 -1 0
242 1 2680.7 1923.85 1619.29 0 -2 0
243 1 1724.55 3617.43 1576.6 0 -1 0
244 1 3076.47 2632.06 2873.15 0 -1 -1
245 1 3363.53 1432.31 2523.49 -1 0 0
246 1 3026 1723.19 2746.6 0 -1 0
247 1 2408.78 3589.22 2642.15 0 -1 0
248 1 3353.36 2905.98 1883.23 -1 -1 0
249 1 3357.53 2683.77 3212.34 0 0 0
250 1 3599.59 1585.15 3409.59 -1 0 -1
251 1 3221.47 2762.2 1839.96 0 -1 0
252 1 3064.52 1525.05 2738.24 -1 0 0
253 1 1572.38 2703.07 1872.95 1 0 0
254 1 3524.17 2187.9 2631.07 -1 0 -1
255 1 2947.17 1793.89 3438.7 -1 0 -1
256 1 2431.06 2405.44 2950.16 -1 0 0
257 1 2998.36 3226.76 1781.96 -1 -1 0
258 1 2597.46 1906.19 3017.54 0 0 -1
259 1 2671.82 1959.41 3482.7 -1 0 -1
260 1 2680.87 2553.75 3135.85 0 0 0
261 1 1429.89 1906.34 2239.08 0 0 0
262 1 3315.27 2535.78 1945.51 -1 0 -1
263 1 2614.94 2952.28 2933.48 -1 0 -1
264 1 2147.76 2357.45 1636.75 0 0 -1
265 1 3522.38 1811.92 3135.2 -1 0 -1
266 1 3190.93 1561.93 3414.61 -1 0 -1
267 1 1418.74 2235.81 3088.66 0 0 -1
268 1 2081.75 2515.29 2582.86 0 -1 0
269 1 2936.47 1430.91 3009.61 -1 0 0
270 1 2274.58 2064.82 3480.25 0 0 -1
271 1 1870.55 2958.43 2340.39 0 -1 -1
272 1 2599.21 2374.75 3156.47 -1 0 -1
273 1 2016.65 2335.4 3113.19 0 0 -1
274 1 2275.79 2579.44 3172.09 1 -1 0
275 1 3018.18 2427 1647.14 -1 0 1
276 1 2903.61 2719.92 1377.25 -1 -1 0
277 1 2650.92 2670.19 1839.19 0 0 1
278 1 1372.98 1475.25 2882.58 0 0 -1
279 1 2287.79 2808.89 2430.04 0 -1 0
280 1 2432.22 2454.08 3257.11 -1 0 -1
281 1 1748.07 3010 2734.22 0 -1 0
282 1 1825.55 2254.94 3067.67 0 -1 0
283 1 2257.34 3478.33 3574.81 0 -1 -1
284 1 2017.55 2206.86 3421.2 0 0 -1
285 1 3652.29 2817.44 3080.36 -1 0 -1
286 1 3044.91 1922.51 3059.22 -1 1 0
287 1 2899.01 1823.59 1577.62 0 0 0
288 1 2273.71 2282.19 2811.45 1 0 0
289 1 1991.64 2780.57 2757.02 0 -1 0
290 1 3183.39 2477.2 2288.25 -1 -1 0
291 1 2155.84 2762.69 2438.46 -1 -1 0
292 1 3463.22 2149.8 2860.01 -1 0 -1
293 1 2678.9 2578.49 2575.02 0 0 1
294 1 2570.18 2702.52 2710.52 0 -1 -1
295 1 1735.69 3507.09 2561.92 0 -1 0
296 1 3435.17 2477.48 3070.48 0 0 0
297 1 3017.31 2269.25 2605.82 -1 0 0
298 1 2350.66 2426.43 2655.32 0 0 0
299 1 1524.7 2031.91 2565.6 1 0 0
300 1 1881.61 2438.58 3487.64 0 0 0
301 1 2306.52 2468.66 2601.71 -1 0 -1
302 1 3492.82 1761.5 1428.71 -1 0 0
303 1 3167.29 3542.32 1664.98 0 -1 0
304 1 2218.28 2918.34 3372.85 1 -1 -1
305 1 2371.45 1604.34 3402.16 0 0 -1
306 1 1482.99 3504.84 1401.61 0 -1 0
307 1 3315.54 2399.21 1821.65 -1 0 -1
308 1 1471.28 1542.49 1372.25 0 0 0
309 1 2712.36 3127.82 2256.82 0 0 -1
310 1 1592.64 1784.92 2842.24 0 0 -1
311 1 2023.93 2941.67 1413.91 0 -1 -1
312 1 2984.57 2271.4 2648.43 0 -1 1
313 1 1986.64 1881.1 3272.89 0 -1 -1
314 1 1601.13 2274.94 3008.96 1 0 0
315 1 1710.89 1609.98 2739.36 0 0 0
316 1 3040.36 3071.19 1452.93 -1 0 0
317 1 2077.72 2983.72 2648.66 1 0 -1
318 1 3604.78 3320.23 2928.12 0 -1 -1
319 1 3100.6 2044.69 1448.92 -1 0 0
320 1 2411.43 2744.41 2784.86 0 -1 0
321 1 2694.68 2158.86 3500.9 -1 0 0
322 1 2231.06 2460.73 1533.38 0 -1 0
323 1 1822.34 1915.78 3122.14 0 0 -1
324 1 3583.76 2275.51 1421.41 0 0 0
325 1 1940.62 3437.34 3043.98 0 0 0
326 1 2786.85 2902.7 3026.79 0 0 -1
327 1 2633.61 3248.75 2657.91 0 -1 0
328 1 1982.67 2118.14 2573.58 0 0 0
329 1 1961.25 2885.79 1847.94 0 0 0
330 1 2750.81 2529.02 2900.95 0 0 0
331 1 2462.42 2608.4 1843.57 -1 0 0
332 1 2174.16 2973.01 3302.16 0 -1 -1
333 1 3036.53 2514.06 3148.36 0 0 0
334 1 3072.53 3661.31 3447.25 -2 -1 0
335 1 2548.93 3064.41 2369.93 0 0 0
336 1 2443.4 2328.73 3620.76 0 -1 -1
337 1 1472.46 2392.9 2073.09 0 0 0
338 1 2778.29 2808.6 3557.18 0 -1 -1
339 1 3016.75 2765.18 3335.28 0 -1 0
340 1 2404.09 2425.46 2648.65 0 -1 0
341 1 2789.99 3491.31 3356.42 0 -1 -2
342 1 2921.73 3001.89 3134.62 0 -1 0
343 1 2867.24 1875.53 3040.27 1 -1 0
344 1 3134.16 3209.72 3192.65 0 -1 -1
345 1 2565.26 2183.73 1340.2 0 0 0
346 1 2766.87 2383.15 1512.97 0 -1 0
347 1 2478.95 2427.61 2961.89 -1 0 -1
348 1 2046.38 2486.57 2611.6 -1 -1 -1
349 1 2934.93 2693.34 2650.51 -1 0 0
350 1 2138.82 2192.21 1846.93 0 1 0
351 1 1835.02 1374.21 3345.98 0 0 -1
352 1 2297.08 2176.69 3258.67 0 1 0
353 1 3228.41 2667.66 2313.89 0 -1 0
354 1 2046.94 2662.11 2261.48 0 0 0
355 1 2306.35 2882.26 3221.76 0 -1 -1
356 1 2135.06 3332.79 1480.32 0 -1 0
357 1 1990.73 3062.37 2972.85 0 -1 -1
358 1 3216.61 3646.62 2099.6 -1 -1 0
359 1 2686.68 2215.7 3074.44 0 0 0
360 1 2076.95 1397.08 3598.12 0 1 -1
361 1 3532.93 2625.19 2266.88 -1 0 0
362 1 2945.46 2672.49 2926.97 0 -1 0
363 1 2521.44 2326.55 3321.9 0 0 -1
364 1 2958.98 2798.71 3155.18 -1 0 0
365 1 2002.16 3405.17 2867.82 0 -1 0
366 1 1793.99 2635.51 1533.71 0 0 0
367 1 2148.31 2608.83 3017.33 0 -1 -1
368 1 2698.39 1654.94 2624.87 -1 0 0
369 1 3297.37 2830.3 2758.15 0 0 -1
370 1 3395.06 2911.1 2058.3 -2 0 0
371 1 3499.67 2087.83 1763.09 -1 0 0
372 1 3150.3 3167.42 3596.56 -1 -1 -1
373 1 2999.28 2671.65 2930.45 0 1 0
374 1 2538.25 1679.34 2582.65 0 0 0
375 1 3281.54 1426.03 2274.94 0 0 -1
376 1 2792.89 2714.03 2505.88 0 1 0
377 1 3380.25 2486.35 2275.63 0 0 0
378 1 2251.04 1739.55 3078.62 0 1 -1
379 1 3084.42 2574.48 2127.5 -1 -1 0
380 1 2666.34 2021.69 1799.11 -1 0 0
381 1 2159.87 2563.12 3288.61 0 0 -1
382 1 3425.25 3026.56 2900.31 -1 -1 0
383 1 2824.19 2241.61 2284.71 -1 0 0
384 1 2976.81 2907.82 2329.04 0 -1 0
385 1 3211.7 2834.32 2261.94 0 0 0
386 1 2981.82 3178.88 2639.81 -1 0 0
387 1 3223.76 2303.52 2878.51 -1 0 -1
388 1 1339.39 2852.63 3042.01 0 0 -1
389 1 2418.03 2522.34 1510.74 0 0 0
390 1 1403.48 2718.62 1350.87 0 -1 0
391 1 2377.41 1726.54 1525.01 0 0 0
392 1 1676.28 2579.1 3196.1 -1 -1 -1
393 1 2628.93 2393.52 2780.16 0 0 1
394 1 1719.28 2007.64 3397.69 1 0 -1
395 1 2441.13 2434.02 1874.44 0 -1 -1
396 1 1436.6 2933.55 2618.48 1 0 0
397 1 2897.71 2944.61 1412.49 -1 0 0
398 1 2098.37 2406.54 2976.79 0 -1 0
399 1 1944.36 1519.06 2961.31 0 0 0
400 1 2067.54 2281.8 2819.64 -1 0 -1
401 1 2511.27 2447.53 2413.02 0 0 -1
402 1 2105.38 2583.2 3635.85 0 0 -2
403 1 1484.33 1921.23 3274.06 0 0 -1
404 1 2640.07 2738.61 2033.64 0 0 0
405 1 2744.12 3273.41 2931.7 -1 0 0
406 1 1956.34 3025.44 2204.25 0 -1 0
407 1 1647.55 3095.35 3079.14 -1 -1 0
408 1 3581.39 2370.43 3071.78 0 0 -1
409 1 3366.9 2736.95 2591.51 0 -1 -1
410 1 2627.35 2149.47 2410.02 0 0 -1
411 1 1978.54 1877.38 1805.47 0 0 0
412 1 2363.26 3235.84 2964.03 0 0 0
413 1 1468.76 2734.12 3016.46 0 0 -1
414 1 1834.97 2977.31 2945.42 0 -1 -1
415 1 1875.02 2338.68 2892.74 0 0 -1
416 1 2692.75 2738.18 1421.16 0 0 0
417 1 1560.05 1946.08 2387.82 -1 0 -1
418 1 3564.69 3197.29 1852.74 -1 0 1
419 1 2101.09 2605.6 2532.14 0 0 0
420 1 3389.1 2977.24 2293.38 -2 -1 -1
421 1 3006.14 2546.65 1529.52 -1 0 0
422 1 1495.34 3199.39 1700.79 0 -1 0
423 1 3273.88 2814.82 1446.77 0 -1 0
424 1 1820.11 2976.19 3438.85 0 -1 -1
425 1 2329.21 2990.5 3532.57 0 0 -1
426 1 2974.6 2642.79 2892.65 -1 0 -1
427 1 3368.72 2228.6 2153.93 -1 -1 0
428 1 2296.59 3122.32 2607.14 0 -1 -1
429 1 3062.69 2882.62 2137.34 -1 0 0
430 1 1886 1651.71 2153.99 0 -1 0
431 1 2662.1 2351.4 1380.05 0 0 0
432 1 1765.06 2979.94 2182.28 0 -1 0
433 1 2118.14 2751.99 2475.3 -1 -1 -1
434 1 3339.03 2790.87 2402.01 -1 0 0
435 1 2989.09 1876.56 3248.7 -1 0 0
436 1 3074.59 2796.12 1399.71 -1 0 0
437 1 2836.17 2115.82 1810.82 0 1 0
438 1 3613.56 2504.95 2726.68 -1 -1 -1
439 1 2967.37 2348.94 1621.14 0 0 0
440 1 3239.82 1782.71 3314.64 -1 0 -1
441 1 2850.68 1643.96 3374.63 -1 0 -1
442 1 1617.83 2599.21 2904.92 0 0 0
443 1 3278.51 2533.03 3280.39 0 -1 0
444 1 2949.86 2720.46 1839.88 -2 0 0
445 1 2388.68 3138.97 2589.82 0 -1 0
446 1 3135.83 1731.67 3505.48 -1 0 -1
447 1 2700.17 2795.41 2657.67 0 0 0
448 1 1841.21 2797.15 2193.62 -1 -1 0
449 1 2185.47 2447.82 1558.93 -1 0 0
450 1 1766.01 2402.19 3341.33 0 0 -1
451 1 1811.51 2836.45 2823.02 0 -1 -1
452 1 2009.77 2078.62 3291.35 0 0 0
453 1 3338.38 3319.39 2350.61 -1 0 0
454 1 1762.71 2101.13 2139.21 0 0 -1
455 1 2803.37 2642.65 3403.92 -1 0 -1
456 1 3119.09 1497.27 1397.05 0 1 0
457 1 2494.49 2866.26 2398.24 0 -1 -1
458 1 1710.12 2039.76 3167.39 0 1 -1
459 1 1887.81 2427.2 2077.25 0 -1 -1
460 1 3387.7 2477.31 2587.26 -1 -1 0
461 1 2968.99 2821.39 2503.03 0 -1 0
462 1 3162.88 2876.21 2626.2 -1 0 -1
463 1 3526.82 1863.74 3148.79 -1 0 -1
464 1 2755.61 2674.03 2725.64 0 0 0
465 1 1390.82 2820.43 2429.79 1 0 -2
466 1 2889.17 3175.41 2790.7 -1 -1 0
467 1 2771.04 2627.39 1555.54 0 1 0
468 1 3416.12 2942.32 1466.68 0 -1 1
469 1 3050.89 2535.11 2710.71 0 -1 -1
470 1 3042.66 3218.87 1582.41 -1 -1 -1
471 1 3050.23 2725.51 2254.99 0 0 0
472 1 2853.43 3131.32 1459.86 0 -1 0
473 1 1368.75 2352.69 3245.74 1 -1 0
474 1 3144.14 2291.4 2998.08 -2 -1 -1
475 1 2987.62 2527.63 1811.35 0 -1 0
476 1 3043.95 3610.62 1896.7 -1 -1 0
477 1 3402.1 2274.22 1763.29 0 -1 -1
478 1 2664.12 2484.61 1760.93 -1 -1 0
479 1 2663.32 1446.4 2210.76 0 0 -1
480 1 3480.93 2140.58 2443.53 -1 0 0
481 1 3111.34 1511.32 1345.59 0 1 1
482 1 2721.97 1743.34 3027.56 0 -1 -1
483 1 3175.67 2109.23 2964.56 -1 1 0
484 1 2889.46 3098.89 2282.53 -1 -1 0
485 1 2284.25 3334.84 2647.28 -1 -1 -1
486 1 3595.3 3108.95 1518.6 -1 -1 0
487 1 2818.06 2363.23 2849.49 -1 0 -1
488 1 1983.73 1496.63 2503.46 0 0 0
489 1 3348.59 2733.62 1967.86 -1 0 0
490 1 3167.85 2372.09 3208.47 -1 0 -1
491 1 2708.99 2838.35 2816.91 0 0 -1
492 1 2953.61 2553.36 3634.12 0 -1 0
493 1 2824.48 2440.27 2358.77 -1 0 0
494 1 2256.81 2357.38 3331.32 1 -1 0
495 1 3205.53 2934.43 2012.66 0 -1 0
496 1 3028.26 2648.23 2891.43 1 0 0
497 1 2677.41 3581.27 2698.63 -1 -1 0
498 1 2786.32 3149.7 2620.13 0 -1 0
499 1 2240.41 2513.69 1535.79 -1 0 -1
500 1 2796.78 3272.59 2245.61 0 -1 -1
501 1 2466.37 2822.71 2588.19 -1 0 -1
502 1 1509.18 3163.68 3117.51 -1 0 0
503 1 2482.98 2465.44 3000.19 0 0 0
504 1 2145.93 2631.7 2517.25 0 0 0
505 1 1884 2473.64 3530.55 -1 0 -1
506 1 1404.87 1980.03 2072.37 -1 0 0
507 1 3484.1 1835.33 3164.82 -1 0 -1
508 1 1662.58 1527.12 1699.2 0 0 -1
509 1 1676.33 1582.61 2523.9 0 0 0
510 1 2762.43 2284.96 2668.52 -1 -1 -1
511 1 3589.55 3242.85 2451.92 0 0 -1
512 1 1569.91 3272.5 3423.29 0 -1 -1
513 1 3210.85 2507.72 1802.36 0 -1 0
514 1 2899.78 2108.3 2174.23 -2 0 1
515 1 2484.86 2028.78 2413.99 -1 0 -1
516 1 2534.31 3567.19 2777.67 -1 -1 0
517 1 3165.78 3139.9 3428.48 0 -1 -1
518 1 1964.99 2998.77 2803.89 0 0 -1
519 1 2716.08 2629.35 2355.72 0 0 0
520 1 3219.47 2948.85 1447.99 -1 0 0
521 1 2512.55 2347.91 1474.46 -1 0 1
522 1 2475.12 2641.2 2032.11 -1 0 0
523 1 3192.24 3102.83 1576.35 0 0 0
524 1 2684.36 2385.52 2497.31 -1 -1 0
525 1 3243.57 1991.6 3133.04 0 0 -1
526 1 1900.83 2300.4 2699.47 0 0 0
527 1 1337.42 2074.41 3017.19 0 -1 -1
528 1 3369.55 2399.69 2105.89 0 1 0
529 1 2497.84 2645.69 1376.25 -1 -1 0
530 1 1750.38 2798.35 2634.62 0 0 0
531 1 2002.23 3591.98 1658.53 0 -1 0
532 1 3355.76 2635.84 1790.22 -1 0 0
533 1 3242.42 1442.8 2242.07 -1 0 -1
534 1 2283.94 1340.77 2984.54 0 0 -1
535 1 2738.29 3530.68 2481.24 -1 -2 0
536 1 2176.15 2574.84 1954.73 -1 0 0
537 1 2792.53 3156.7 2086.09 -1 -1 0
538 1 1793.51 1851.89 3292.6 0 0 -1
539 1 3261.15 2405.92 2735.62 -2 0 -1
540 1 2873.06 3365.79 2412.72 0 0 0
541 1 2484.75 3095.1 2993.66 0 0 -1
542 1 2312.35 2826.9 2385.71 0 -1 0
543 1 2215.55 2759.67 2679.49 0 0 -1
544 1 3165.59 1725.39 3142.56 -1 1 -1
545 1 2134.95 2944.58 2815.97 -1 0 -1
546 1 3423.84 1619.85 1553.43 -1 0 0
547 1 2479.2 2260.27 2345.09 0 -1 0
548 1 1662.84 1786.67 3151.18 0 0 0
549 1 2759.6 2503.22 3415.13 0 0 0
550 1 1950.12 2127.94 1486.08 0 0 0
551 1 2296.2 2765.24 1573.46 0 -1 0
552 1 2726.17 3551.75 3552.36 0 -1 -1
553 1 3023 2702.61 3556.68 -1 0 -1
554 1 2225.43 2406.85 2665.15 0 0 0
555 1 1907.59 2273 3292.06 0 0 0
556 1 2564.75 3100.34 2545.3 0 0 -1
557 1 2753.38 2680.04 2178.13 -1 0 0
558 1 2556.69 3490.74 2577.25 -1 0 -1
559 1 2552.67 3278.67 2996.18 -1 0 0
560 1 1708.24 2891.63 1341.24 0 0 0
561 1 3440.5 2328.65 2466.22 -1 -1 -1
562 1 1848.19 3458.31 3572.29 0 0 -1
563 1 3576.17 2508.77 2963.49 -1 0 0
564 1 2604.69 2792.2 3466.58 0 1 -1
565 1 3499.28 2695.42 3462.04 0 0 -1
566 1 3505.24 2117.37 2868.82 -1 0 1
567 1 2556.51 1537.48 2947.04 0 0 0
568 1 3172.28 3066.42 2558.36 -1 -1 -1
569 1 2768.39 2117.85 3228.03 0 0 0
570 1 1562.75 3060.37 2701.34 0 -1 0
571 1 3061.75 2924.03 1555.44 -1 -1 0
572 1 2566.19 2839.05 2775.7 -1 -1 0
573 1 2118.58 2245.84 3268.47 1 0 -1
574 1 3100.43 3331.34 3546.73 -1 0 0
575 1 1691.85 2378.57 3126.76 0 0 0
576 1 3485.76 2147.62 2908.83 0 -1 -1
577 1 3388.56 2621.88 2428.85 -1 -1 -1
578 1 1385.97 2662.04 2320.95 1 0 1
579 1 3043.44 3514.54 2564.8 0 0 -1
580 1 2326.37 2779.48 2406.85 0 1 1
581 1 1638.16 2180.36 2436.41 -1 0 0
582 1 3203.3 3280.71 2219.02 0 -1 0
583 1 2532.75 2410.33 2380.6 0 0 0
584 1 3436.01 3148.31 2321.4 0 0 1
585 1 3195.85 3324.3 3362.95 -1 -1 -1
586 1 3115.18 2032.44 3587.19 -1 -1 -2
587 1 1364.37 2073.62 2676.65 1 0 -1
588 1 1790.89 2359.35 1763.15 0 0 0
589 1 2959.9 3209.19 3583.75 1 -1 0
590 1 3477.93 2802.78 1771.14 -1 -1 1
591 1 2055.98 1679.73 3273.85 -1 -1 -1
592 1 1719.25 2251.39 2847.08 0 0 0
593 1 1514.28 2080.71 3117.98 0 0 0
594 1 1977.56 3252.27 3062.59 -1 1 0
595 1 3046.58 1372.64 3126.71 -1 0 -1
596 1 2972.68 2400.63 1635.38 1 0 0
597 1 2752.38 2600.08 3412.84 0 0 0
598 1 3085.11 3402.34 1555.32 0 -1 0
599 1 2208.21 3550.32 2628.41 -1 -1 0
600 1 3078.79 1969.44 2877.45 -1 0 -1
601 2 3634.25 2292.93 1641.03 -1 0 0
602 2 1660.08 1775.18 2176.69 1 0 0
603 2 3178.12 3405.67 1993.82 -1 0 1
604 2 3280.25 3220.07 2970.19 0 -1 0
605 2 1438.08 1395.7 3471.05 0 0 0
606 2 1385.27 2592.64 2064.06 1 0 0
607 2 1974.82 2646.86 1989.92 0 0 0
608 2 2856.78 3356.01 2608.96 0 -1 0
609 2 3075.23 2057.73 2331.86 0 0 0
610 2 2684.59 3106.37 3131.68 0 0 0
611 2 1515.16 3082.5 1469.73 0 0 1
612 2 2467.5 3579.25 2124.23 0 -1 0
613 2 1820.64 2585.22 2740.72 0 0 -1
614 2 2636.87 1869.95 2540.05 0 0 0
615 2 1413.77 2769.57 3403.47 0 0 0
616 2 3548.43 3520.55 1404.47 0 0 0
617 2 1515.23 3033.28 2074.9 0 -1 0
618 2 2453.56 3508.2 3081.57 0 0 0
619 2 2844.84 1890.79 2763.08 0 1 0
620 2 3590.69 3499.9 2439.74 -1 0 0
621 2 1343.95 3530.46 2942.63 0 0 -1
622 2 2192.57 3574.76 1463.51 0 0 0
623 2 2198.97 2573.93 3343.42 0 0 -1
624 2 1355.3 2294.61 2830.94 0 0 -1
625 2 2738.61 1720.23 3556.16 0 0 0
626 2 1537.91 3304.82 2899.08 1 0 -1
627 2 1814.81 1384.34 2658.33 0 1 0
628 2 3389.73 2594.89 2793.43 -1 0 0
629 2 2164.54 1800.34 2185.83 0 0 0
630 2 2541.49 1501.01 1954.3 0 1 0
631 2 3376.41 1594.26 3182.93 0 1 0
632 2 2021.17 3226.21 1787.8 0 -1 0
633 2 1504.77 3235.4 2332.73 0 -1 0
634 2 3243.89 2777.63 2986.35 -1 0 0
635 2 1469.7 1485.33 2145.49 0 0 0
636 2 2912.02 1629.52 3102.92 -1 0 0
637 2 1535.1 2048.26 2830.42 1 0 -1
638 2 1439.6 1735.15 1975.45 0 0 0
639 2 3335.95 3010.9 3508.35 0 0 0
640 2 2706.95 3637 2913.51 0 0 0
641 2 2272.83 1789.5 2682.6 0 0 0
642 2 2554.43 3195.99 1780.65 0 -1 0
643 2 1476.75 1368.64 2410.83 0 0 0
644 2 3586.25 2570.3 1648.35 -1 0 1
645 2 2581.11 3303.98 2102.45 0 -1 0
646 2 2102.81 3212.39 2083.99 0 -1 0
647 2 2000.7 1941.96 3500.46 0 0 0
648 2 2558.9 2704.26 2945.8 0 0 0
649 2 3301.97 1909.08 1367.05 -1 0 0
650 2 3331.34 2222.4 2210.63 0 0 0
651 2 3482.32 1887.31 1923.51 -1 0 0
652 2 1470.24 1459.09 1843.82 0 0 0
653 2 3052.46 2497.42 3379.74 0 0 -1
654 2 2500.07 3465.9 3612.85 0 -1 -1
655 2 2560.56 1736.29 2792.69 0 0 0
656 2 2825.61 1584.63 2816.76 0 0 0
657 2 3269.76 1805.34 2897.85 -1 0 -1
658 2 2636.67 2099.2 2823.01 -1 0 -1
659 2 1373.55 1818.37 2723.35 1 0 0
660 2 2364.93 2209.77 1725.66 0 0 0
661 2 2664.8 1413.48 1697.73 0 0 0
662 2 1688.43 1609.26 1440.85 0 0 0
663 2 1652.49 3023.25 2461.74 0 -1 0
664 2 2626.1 3283.26 3391.3 0 0 -1
665 2 2431.72 2329.09 2074.86 0 0 0
666 2 2598.06 3487.58 1872.79 0 -1 0
667 2 2953.02 1362.6 1651.71 0 0 0
668 2 1672.16 2263.8 1968.6 0 0 0
669 2 3403.53 2286.5 3244.94 -1 0 0
670 2 1998.18 1529.39 3001.9 0 0 -1
671 2 2901.64 1562.04 1429.46 0 0 1
672 2 1673.64 2571.64 2055.33 0 0 0
673 2 2206.74 2246.43 2370.27 0 0 0
674 2 3549.88 1367.28 1994.89 -1 0 0
675 2 3142.46 2949.93 3244.64 -1 0 0
676 2 2616.52 1673.91 1524.91 0 0 0
677 2 1826.42 3147.8 1978.73 0 -1 0
678 2 3408.62 3062.94 1676.91 -1 -1 0
679 2 1804.53 3216.32 3409 0 0 0
680 2 3303.93 1690.78 2038.59 -1 0 0
681 2 2186.81 3380.34 3029.89 0 0 0
682 2 3019.27 2299.81 2145.66 0 0 0
683 2 2354.94 3099.49 2634.05 0 -1 0
684 2 1606.67 3331.48 2075.35 0 -1 0
685 2 1656.79 3468.92 3381.24 0 0 -1
686 2 1649.32 2420.61 1533.32 0 0 0
687 2 2527.71 3010.8 3347.71 -1 -1 0
688 2 3112.6 3273.69 2444.81 -1 -1 0
689 2 1959.25 3458.75 3289.37 0 -1 0
690 2 3506.63 3254.2 3611.66 0 1 -1
691 2 2628.04 2238.92 1877.55 -1 0 0
692 2 1852.19 1347.2 3078.4 0 0 -1
693 2 3407.92 3511.5 2183.42 -1 -1 0
694 2 1546.29 2819.65 2773.06 0 0 0
695 2 2787.18 1933.32 1984.13 0 0 0
696 2 2337.27 1413.49 3200.63 0 1 0
697 2 1647.44 1811.29 2581.9 0 0 0
698 2 1692.95 2391.44 2524.59 1 0 0
699 2 2457.17 1385.44 1466.29 0 0 0
700 2 1373.89 2457 1420.77 0 0 0
701 2 3655.98 3015.28 2747.47 0 -1 -1
702 2 1541.91 2451.75 2300.71 0 0 0
703 2 1770.05 3393.69 1837.15 0 0 0
704 2 2069.1 3311.87 2359.17 0 -1 0
705 2 1819.69 1666.29 2942.52 0 0 -1
706 2 1645.21 2613.02 3645.23 0 0 0
707 2 1634.52 3285.48 2612.56 0 -1 0
708 2 1553.08 2650.06 2515.68 1 0 0
709 2 1544.37 1364.82 3191.5 0 0 0
710 2 2815.8 1441.17 3507.51 0 0 -1
711 2 1755.28 3167.75 1638.48 0 -1 0
712 2 1993.12 2752.58 3298.2 0 0 -1
713 2 2286.31 2437.27 2658.93 0 0 -1
714 2 3045.94 1712.77 2197.98 -1 0 0
715 2 2595.18 2149.1 1576.69 0 0 0
716 2 2211.3 3096.72 1393.19 0 0 0
717 2 3281.61 1359.01 3555.59 -1 0 -1
718 2 2730.5 2402.19 2091.57 -1 0 0
719 2 1712.89 1584.07 1948.28 0 0 0
720 2 1363.91 1737.88 3567.03 0 0 -1
721 2 3541.57 2411.91 1894.53 0 0 0
722 2 3635.5 3243.54 2055.59 -1 -1 0
723 2 2763.38 3344.2 3662.56 0 0 -1
724 2 3279.5 3495.41 2514.42 0 -1 0
725 2 2042.56 3622.53 2851.56 0 -1 -1
726 2 2132.75 2048.73 1623.86 0 0 0
727 2 3430.76 2408.42 1456.14 -1 0 0
728 2 2165.86 1976.74 2430.11 0 0 0
729 2 3109.77 1428.9 2484.26 -1 0 0
730 2 3130.06 3007.55 1773.4 -1 -1 0
731 2 2203.51 2805.88 3632.04 0 0 0
732 2 3530.37 1483.93 3654 -1 0 -1
733 2 2109.29 1457.1 1715.04 0 1 0
734 2 1532.75 2131.39 2183.92 0 0 0
735 2 2318.6 1528.48 2499.74 0 0 0
736 2 2076.19 3529.24 1875.68 0 -1 0
737 2 1996.47 2924.17 1892.02 -1 0 0
738 2 3484.64 2906.12 3274.98 0 0 0
739 2 2116.04 3216.09 3266.9 0 0 0
740 2 3059.28 1526.42 1977.03 0 0 0
741 2 2717.83 1839.38 3227.86 -1 1 0
742 2 2522.84 1930.07 1349.41 0 0 0
743 2 3628.06 1909.92 2444.74 -1 0 0
744 2 2632.08 2121.44 2131.58 0 0 0
745 2 2053.75 3299.92 3536.39 0 0 -1
746 2 2034.19 2673.48 1523.42 0 0 0
747 2 2901.92 3151.88 3314.72 0 0 -1
748 2 2405.06 1567.36 1707.54 0 0 0
749 2 2090.87 1853.34 2872.88 0 0 0
750 2 1454.87 1664.08 2393.94 0 0 0
751 2 3623.01 2755.61 2640.67 0 0 -1
752 2 3265.09 1366.54 2747.33 0 1 0
753 2 1428.42 2188.52 1908.21 0 0 0
754 2 2871.41 2314 3523.69 -1 0 0
755 2 2247.13 1920.75 3198.32 0 0 0
756 2 2637.46 3295.19 2391.97 0 -1 0
757 2 2337.37 2051.43 2224.87 0 0 0
758 2 3411.85 3448.94 2820.1 -1 -1 0
759 2 2813.41 1366.14 1952.69 0 0 0
760 2 2470.74 2704.2 3235.44 0 0 -1
761 2 1859.34 3401.27 1496.16 0 -1 0
762 2 1908.99 1888.51 2059.2 0 0 0
763 2 1546.4 1886.54 1441.3 0 0 0
764 2 2326.45 3058.5 1932.22 0 -1 0
765 2 1782.26 2286.97 2259.18 0 0 0
766 2 3448.53 1837.62 1600.7 -1 0 0
767 2 2349.89 1713.86 1961.04 0 1 0
768 2 1739.75 1491.72 2261.65 0 0 0
769 2 1659.68 3612.02 2015.93 0 -1 0
770 2 1389.09 2227.36 2440.95 1 -1 0
771 2 1471.62 2927.89 3193.97 1 0 -1
772 2 1797 1990.13 2343.37 0 0 0
773 2 3151.87 1554.41 1379.58 -1 0 1
774 2 1633.78 3317.73 3625.64 0 -1 -1
775 2 3558.26 3624.9 1710.89 -1 -1 0
776 2 3024.06 2949.62 3481.88 -1 0 -1
777 2 3476.17 2678.52 1382.43 -1 0 0
778 2 1920.15 2069.32 2872.61 0 0 -1
779 2 3000.24 1845.34 1343.71 -1 0 0
780 2 3185.78 2574.03 1355.32 -1 0 0
781 2 3322.2 1370.32 1526.41 -1 0 0
782 2 2506.97 2023.87 3164.39 0 0 0
783 2 1732.32 3325.26 3132.06 0 -1 -1
784 2 1470.56 1546.52 2650.21 0 0 -1
785 2 3243.39 3288.46 1724.85 -1 -1 0
786 2 1595.48 1751.76 1718.34 1 0 0
787 2 2563.32 2909.92 1828.96 0 0 0
788 2 2356.37 1936.46 2931.88 0 0 0
789 2 1493.28 2014.5 3508.27 0 0 -1
790 2 3553.35 1747.36 2231.08 -1 0 0
791 2 3423.22 1361.97 3001.93 0 0 -1
792 2 1893.07 2489 3597.89 0 0 -1
793 2 1854.27 1535.66 3532.25 0 0 0
794 2 3264.2 1661.6 2656.77 -1 0 0
795 2 1815.36 3198.31 2840.37 0 0 0
796 2 1518.59 2499.55 3345.13 0 0 -1
797 2 3276.81 3640.86 3242.22 -1 -1 -1
798 2 1775.12 3505.64 2840.71 0 0 0
799 2 3355.8 2007.78 3316.75 -1 1 -1
800 2 3369.12 3153.33 3259.81 -1 0 -1
801 2 2177.1 2143.28 3000.7 0 0 0
802 2 1633.78 1432.15 2894.48 0 1 0
803 2 2554.13 3439.58 1576.52 0 -1 0
804 2 2498.27 2897.78 2125.15 0 -1 0
805 2 2126.01 1506.44 2267.59 0 0 0
806 2 3595.13 2962.82 1898.33 -1 -1 0
807 2 3412.79 3435.2 3419.71 -1 0 -1
808 2 3017.9 2259.86 1820.48 -1 0 0
809 2 3497.48 1613.57 2832.93 0 0 0
810 2 2444.12 1641.28 3611.51 0 0 -1
811 2 1522.13 1647.94 3310.39 1 0 0
812 2 2610.59 1568.47 3324.35 0 0 -1
813 2 2317.57 1576.7 2874.55 0 0 0
814 2 1743.62 2839.2 1945.95 0 0 0