ITEM: TIMESTEP
220000
ITEM: NUMBER OF ATOMS
1000
ITEM: BOX BOUNDS pp pp pp
1.3494297968661231e+03 3.6505702031335131e+03
1.3494297968661231e+03 3.6505702031335131e+03
1.3494297968661231e+03 3.6505702031335131e+03
ITEM: ATOMS id type x y z ix iy iz
1 2 3485.48 3304.43 1578.85 0 0 0
2 2 1752.87 1439.6 2655.2 0 1 -1
3 2 2081.14 3602.92 1586.27 0 -1 1
4 2 1730.31 1971.81 3023.46 0 0 -1
5 2 3487.41 1362.22 3017.56 0 0 -1
6 2 1988.2 2437.51 2006.58 -1 0 -1
7 2 2093.88 2326.74 2043.12 0 0 0
8 2 1431.99 3529.7 2563.56 0 0 0
9 2 3468.32 2441.33 2162.58 -1 0 0
10 2 1835.54 3378.4 2975.55 0 0 0
11 2 2896.22 2347.62 3025.74 0 0 0
12 2 1381.25 3319.96 2998.81 0 0 -1
13 2 1463.47 2241.93 1555.09 1 0 1
14 2 1505.09 3337.65 1846.87 0 0 0
15 2 3458.2 1517.58 3293.34 0 0 -1
16 2 1788.67 3603.46 1538.21 0 -1 0
17 2 2436.81 1995.41 3423.43 2 1 0
18 2 2331.8 2261.17 3304.3 0 1 -1
19 2 2244.51 1813.05 3566.09 0 0 0
20 2 3534.99 1493.16 2984.1 0 1 0
21 2 1820.01 2536.86 1580.03 0 1 1
22 2 1514.33 3197.43 1755.62 0 0 1
23 2 2921.78 3137.03 1900.33 -1 1 0
24 2 1385.39 1828.43 3470.54 1 0 -1
25 2 2230.81 1440.04 1366.74 0 1 1
26 2 2897.84 2194.4 2734.31 0 0 1
27 2 1720.95 2958.21 3399.99 0 0 0
28 2 1482.11 2406.3 3611.8 0 0 0
29 2 3528.38 2122.37 2561.12 -1 1 0
30 2 3394.62 1756.35 3578.81 -1 1 0
31 2 1577.36 3187.23 3387.96 0 -1 0
32 2 1486.1 3628.7 2679.03 0 0 0
33 2 2093.75 1996.75 2055.98 0 0 0
34 2 2124.64 1686.15 3531.96 0 1 0
35 2 3248.83 3382.36 3620.47 0 -1 0
36 2 2180.57 1360.38 2946.99 0 1 0
37 2 1594.6 1573.33 2676.55 0 0 0
38 2 1398.38 2661.18 1419.77 0 1 0
39 2 3571.81 2467.91 1652.51 -1 1 0
40 2 2132.37 1960.89 3342.48 0 -1 0
41 2 1619.77 3200.94 1893.34 1 -1 0
42 2 3528.49 2271.54 1417 -1 0 0
43 2 1637.41 2400.1 2111.27 1 0 1
44 2 3130.16 2955.08 3282.97 1 -1 0
45 2 1543.65 2288.19 2050.57 0 0 0
46 2 3155.55 1517.33 2073.14 0 1 0
47 2 3572.04 2733.16 2249.95 -1 0 0
48 2 1375.6 2549.04 1542.28 1 0 0
49 2 3292.36 2344.32 1352.32 0 0 1
50 2 2312.21 3266.34 1852.09 0 0 1
51 2 3013.8 1518.13 3091.85 -1 1 1
52 2 2748.63 2334.27 1917.06 0 0 0
53 2 2033.72 2408.71 1578.38 0 0 1
54 2 1761.9 1576.7 2746.96 0 1 0
55 2 2685.24 1996.31 2765.71 0 0 -1
56 2 1919.52 2031.16 2059.1 0 0 0
57 2 1814.95 2269.56 3106.61 0 0 -1
58 2 1357.03 2010.6 2575.18 0 0 0
59 2 2938.37 2348.9 2004.44 -1 2 0
60 2 2006.6 3410.06 1545.99 0 0 0
61 2 3586.16 2309.36 2507.43 -1 0 0
62 2 3391.12 3303.03 3201.06 0 -1 0
63 2 1423.56 3426.43 3635.84 0 0 0
64 2 3560.42 2421.87 1503.95 0 0 1
65 2 2795.63 2088.3 2845.21 0 -1 0
66 2 3190.69 1558.4 3116.86 0 0 -1
67 2 2762.53 1460.82 2987.01 0 1 1
68 2 1701.69 2205.69 2442.11 0 0 1
69 2 2702.89 1837.27 1740.33 0 0 0
70 2 2242.8 3399.92 3060.78 0 0 0
71 2 1376.24 1509.33 1535.77 0 0 1
72 2 2842.93 2221 2583.67 -1 -1 0
73 2 3163.1 1464.75 1882.75 -2 -1 0
74 2 2073.82 1406.95 3600.59 0 1 -1
75 2 3277.69 1961.68 1520.7 0 0 0
76 2 2796.93 2643.97 2164.79 0 -1 0
77 2 3250.5 1790.69 1655.25 -1 1 1
78 2 1442.25 1716.38 2702.97 0 0 0
79 2 3562.21 2764.54 1398.92 -1 0 0
80 2 2103.4 3300.66 1689.13 0 0 -1
81 2 2275.33 1418.55 3500.37 0 2 0
82 2 2983.39 3194.73 2142.95 -1 0 -1
83 2 2376.85 3319.86 2601 0 0 0
84 2 2588.69 1865.35 1555.07 1 1 1
85 2 3203.19 1625.35 1603.21 0 1 0
86 2 3597.19 2322.04 1739.36 -1 0 1
87 2 1687.48 2064.04 2548.54 1 0 0
88 2 3649.54 3173.14 1476.11 -1 0 1
89 2 1395.66 2613.55 1712.85 1 0 1
90 2 3462.1 2213.12 3436.39 0 1 -1
91 2 2639.78 3092.04 3092.31 0 0 -1
92 2 2208.02 2275.22 1378.23 -1 0 0
93 2 2338.98 1427.09 1525.89 0 0 1
94 2 2327.66 2054.83 3522.47 1 1 -1
95 2 1650.25 2074.84 3120.38 0 0 -1
96 2 2014.01 3334.13 1395.25 1 0 1
97 2 3230.2 3481.56 2975.69 0 -1 0
98 2 3334.4 1546.34 1648.46 0 0 0
99 2 1506.18 1971.99 1429.27 0 0 0
100 2 2098.5 1663.86 3368.31 1 0 0
101 2 2396.47 2311.53 2878.46 0 0 0
102 2 1927.19 3536.03 1615.86 0 -1 0
103 2 3623.5 1786.85 1905.22 -1 0 0
104 2 2324.52 1539.38 1644.37 0 0 0
105 2 2180.08 1796.55 2991.99 0 0 0
106 2 2471.56 1941.02 1626.8 0 0 0
107 2 1687.42 1967.53 2261.4 0 0 0
108 2 3518.45 3432.38 1709.79 -1 0 0
109 2 1997.64 1922.6 1914.07 0 0 0
110 2 1715.73 2350.84 1476.02 0 0 0
111 2 1512.91 3257.06 3156.51 1 -1 -1
112 2 3481.56 1504.19 2257.99 -1 -1 0
113 2 1924.34 3436.77 2116.32 0 -1 0
114 2 3072.81 2450.78 1785.24 0 0 1
115 2 3557 1935.64 3438.67 -1 0 -1
116 2 1820.41 1947.26 2524.85 0 0 0
117 2 2199.67 3432.73 1898.3 0 -1 1
118 2 1482.91 3468.47 2712.09 0 -1 0
119 2 2154.95 1576 1657.6 0 0 0
120 2 3534.04 3604.27 2150.48 -1 -1 0
121 2 3547.74 1879.91 2334.89 -1 0 0
122 2 1611.3 1358.24 3609.52 0 0 -1
123 2 1889.33 1987.93 1459.22 0 0 0
124 2 1754.24 1607.78 1463.55 0 0 0
125 2 1487.61 3435.53 1516.91 0 -1 0
126 2 3643.47 2009.63 1702.48 -1 0 0
127 2 3571.77 2171.65 2318.43 -1 0 0
128 2 1751.25 1423.1 1772.78 0 0 0
129 2 1449.05 2158.25 3453.72 0 0 -1
130 2 1405 1568.81 2445.41 0 0 0
131 2 1588.83 1431.21 2596.14 0 0 -1
132 2 1610.09 2435.72 3494.42 0 0 -1
133 2 2105.95 1738.03 1703.17 0 0 0
134 2 1564.88 3325.43 1420.72 1 -1 1
135 2 1768.94 2039.7 1801.62 0 0 0
136 2 3573.89 2424.31 2637.09 0 -1 -1
137 2 2929.18 2041.25 2724.02 0 1 0
138 2 1582.94 1893.62 2690.25 0 0 0
139 2 3384.24 1899.93 2040.33 -1 0 0
140 2 2958.85 2377.85 1687.21 -1 -1 0
141 2 2771.39 1915.11 3280.01 -1 0 0
142 2 1389.86 2337.35 1435.88 0 0 0
143 2 1984.65 1615.46 1658.34 0 0 0
144 2 1415.47 1867.28 2027.67 0 0 0
145 2 2101.51 1931.29 2933.59 0 0 0
146 2 2155.1 2297.77 1545.25 0 0 0
147 2 1494.7 1761.42 1896.35 0 0 0
148 2 1977.35 1614.83 3563.21 0 0 -1
149 2 2077.87 1599.67 1831.76 0 0 0
150 2 3544.18 2331.06 2763.52 -1 0 0
151 2 2354.72 2083.4 1942.9 0 0 -1
152 2 3561.57 2021.75 2436.67 -1 0 -1
153 2 1922.44 1459.67 2201.97 0 0 0
154 2 1916.16 2144.16 1558.17 0 0 0
155 2 2269.39 1509.47 2374.62 0 0 0
156 2 3469.84 1549.73 1755.06 -1 0 0
157 2 3319.78 1501.64 1830.78 0 0 0
158 2 2578.72 1405.06 1775.76 0 0 0
159 2 1650.32 3418.07 1880.85 0 -1 0
160 2 1719.72 2318.52 3445.36 1 0 0
161 2 3413.46 1936.35 3568.08 -1 0 -1
162 2 2173.47 1564.58 2109.32 0 0 0
163 2 3303.74 3470.27 2063.05 0 0 0
164 2 2898.7 1693.58 2295.83 0 0 0
165 2 1996.32 1744.99 1545.48 0 0 0
166 2 3438.28 2200.74 1547.47 0 0 0
167 2 1884.07 1505.9 2559.48 0 0 0
168 2 1706.19 1766.67 1517 0 0 0
169 2 1506.42 1471.85 1398.56 0 0 0
170 2 3038.58 3210.03 2586.9 -1 0 0
171 2 1729.49 3199.17 2048.5 0 -1 0
172 2 1416.62 1909.66 1570.51 0 0 0
173 2 1874.85 2390.56 1533.13 0 0 0
174 2 3496.7 1788.25 2458.94 -1 0 -1
175 2 1484.16 1801.49 1430.08 0 0 0
176 2 1799.23 2407.17 2457.63 0 0 0
177 2 3511.68 3063.39 2245.93 0 -1 0
178 2 1555.82 2312.8 1424.78 0 0 0
179 2 2021.64 2159.5 1952.08 0 0 0
180 2 1638.66 3511.33 1534.78 0 -1 0
181 2 3375.12 3422.99 2975.19 -1 -1 -1
182 2 2206.82 1413.28 1614.33 0 0 0
183 2 3475.2 1499.72 1917.34 -1 0 0
184 2 1505.03 1999.68 1973.42 0 0 0
185 2 1993.27 1362.46 2308.46 0 0 0
186 2 1738.22 2408.8 1638.22 0 0 0
187 2 3474.52 2030.86 2284.03 -1 0 0
188 2 3598 1659.33 1469.71 -1 0 0
189 2 2467.8 1932.09 2187.8 0 0 -1
190 2 2540.12 1537.9 1689.02 0 0 0
191 2 1687.96 1825.04 3527.62 0 0 -1
192 2 1437.79 2087.25 1821.19 0 0 0
193 2 1843.31 2141.61 2521.83 0 1 0
194 2 1790.74 2487.96 1422.35 0 0 0
195 2 1400.43 2397.83 1596.8 0 0 0
196 2 2411.73 1524.25 1787.25 0 0 0
197 2 1608.58 2048.69 1545.98 0 0 0
198 2 2487.09 1793.62 1861.86 0 0 0
199 2 1750.38 1817.76 2009.46 0 0 0
200 2 1403.46 2451.5 1774.32 0 0 0
201 2 2881.34 3008.66 3024 0 -1 -1
202 2 1363.5 2156.98 2464.14 0 0 0
203 2 1649.5 3463.67 1706 0 -1 0
204 2 2503.09 1798.3 2798.36 0 0 0
205 2 3559.89 1501.45 2410.78 -1 0 0
206 2 1528.57 1992.17 2586.58 0 0 0
207 2 3093.63 2903.85 2735.26 0 0 0
208 2 1498.25 1704.16 2379.87 0 0 0
209 2 3438.98 3335.92 2013.44 1 -2 2
210 2 2188.81 2107.5 1955.78 0 0 0
211 2 2294.7 1404.01 1764.6 0 0 0
212 2 2316.36 2996.69 2986.87 -1 -2 -1
213 2 2149.31 1501.66 1952.02 0 0 0
214 2 2046.62 3364.6 1846.13 0 -1 0
215 2 2547.08 1803.36 1704.62 0 0 0
216 2 1913.78 3585.24 3481.11 0 -1 -1
217 2 3412.08 3648.44 1879.5 -1 -1 0
218 2 2494.3 1888.59 1397.6 1 1 0
219 2 1794.13 3563.14 1722.73 0 -1 0
220 2 3472.78 2021.28 1714.02 -1 0 0
221 2 3100.16 1616.12 2020.02 1 0 -1
222 2 1406.61 1630.28 1962.64 0 0 0
223 2 2673.04 3169.78 2799.41 0 -2 -1
224 2 1745.16 3410.03 2675.62 0 -1 -1
225 2 1957.34 1478.96 1782.03 0 0 1
226 2 2161.18 1706.45 1537.48 0 0 0
227 2 1867.19 2042.13 3474.21 0 0 0
228 2 2386.92 2079.01 1550.45 0 0 0
229 2 1599.03 1557.25 1514.76 0 0 0
230 2 2007.89 1920.01 3443.31 0 0 -1
231 2 1779.1 1482.06 2331.88 0 0 0
232 2 2064.77 2172.9 2333.66 0 0 0
233 2 1804.86 1436.2 1422.91 0 0 0
234 2 2271.85 1698.84 1698.86 0 0 0
235 2 1825.86 2017.68 1631.06 0 0 0
236 2 1613.88 1692 1389.37 0 0 0
237 2 3336.77 1851.63 1394.94 -1 0 0
238 2 1417.58 1717.24 2536.54 0 0 0
239 2 1422.58 2070.74 3612.84 0 0 -1
240 2 2456.47 1941.3 1948.93 0 0 0
241 2 3211.54 2634.26 3628.83 -1 0 -1
242 2 2247.31 1573.35 3533.37 0 0 0
243 2 2813.06 3101.49 2738.82 0 0 0
244 2 1880.03 1760.53 2368.31 0 0 0
245 2 1572.22 2039.49 3412.61 0 0 -1
246 2 2146.71 1415.32 2355.91 0 0 -1
247 2 1791.21 2250.79 1595.24 0 0 0
248 2 3387.39 1952.11 1848.04 -1 0 0
249 2 3599.12 3343.38 2102.18 -1 -1 0
250 2 3139.16 2124.32 3551.42 -1 1 -1
251 2 1991.91 3477.71 3582.82 0 -1 0
252 2 1579.33 1693.58 2223.81 0 0 0
253 2 3441.09 2296.31 3577.16 0 0 -2
254 2 2432.43 1374.71 1853.48 0 0 0
255 2 1470.77 3350.43 2108.02 1 0 0
256 2 3440.03 2131.51 2428.03 0 1 -1
257 2 2026.87 1387.52 1915.02 0 0 0
258 2 1672.17 2606.73 1398.97 0 0 0
259 2 1946.29 1960.65 3599.93 0 0 -1
260 2 1735.15 2167.94 3513.84 0 0 -1
261 2 2189.75 1832.75 1428.05 0 0 0
262 2 1573.47 2432.11 1773.03 0 0 0
263 2 2034.9 1665.69 2312.71 0 0 0
264 2 1596.68 1388.81 3099.4 0 0 -1
265 2 1649.43 1795.36 1686.25 0 0 0
266 2 2243.92 1563.03 1809.92 0 0 0
267 2 1722.65 1583.4 2199.56 0 0 0
268 2 2052.72 2252.82 3634.28 0 0 -1
269 2 2495.59 2622.65 2136.05 0 0 0
270 2 2767.86 1496.76 3061.35 0 -1 -1
271 2 2060.45 3418.51 2006.38 0 -1 0
272 2 3571.68 1639.12 2508.01 -1 0 0
273 2 1549.06 2126.94 2466.92 0 0 0
274 2 1765.21 1423.88 2143.56 0 0 0
275 2 1966.56 2338.62 1873.3 0 0 0
276 2 2730.63 1536.62 2999.2 -1 1 0
277 2 1555.54 1715.26 1562.49 0 0 0
278 2 3131.03 2573.98 1896.19 0 0 0
279 2 1892.67 2437.51 1684.9 0 0 0
280 2 1370.17 3428.8 1795.57 0 -1 0
281 2 1407.71 3577.31 2400.3 0 -1 -1
282 2 3350.14 2128.96 2270.72 0 0 0
283 2 3460.83 1759.88 1433.39 -1 0 0
284 2 3616.99 1839.4 1714.43 -1 0 0
285 2 1665.27 2553.05 1676.77 0 -1 0
286 2 2339.35 2206.04 3585.68 -1 0 -1
287 2 1957.86 1845.64 2494.83 0 0 0
288 2 2033.92 1454.82 1621.13 0 0 0
289 2 2767.69 2108.8 1603.25 0 0 1
290 2 3409.41 2176.67 2011.71 -1 0 0
291 2 1555.31 1446.32 2408.34 0 0 0
292 2 1739.99 1763.25 3234.41 1 0 0
293 2 3546.1 1882.71 2033.96 -1 0 0
294 2 3378.26 1375.76 2203.53 0 0 0
295 2 1734.75 2080.17 3367.6 0 0 -1
296 2 1496.85 3603.6 1469.33 0 -1 0
297 2 1467.35 2302.96 1756.6 0 0 0
298 2 1398.51 1899.35 3617.13 0 0 -1
299 2 1384.25 3475.39 2103.57 0 -1 0
300 2 1594.69 1984.54 2116.95 0 0 0
301 2 1787.93 1658.77 1956.36 0 0 0
302 2 1517.08 1992.79 2273.34 0 0 0
303 2 2203.26 1993.27 1501.2 0 0 0
304 2 2136.97 1902.38 2429.94 0 -1 0
305 2 3288.93 3173.19 2713.49 0 -1 0
306 2 3388.48 2048.17 2131.45 -1 0 0
307 2 2012.96 1827.68 3309.22 -1 0 -1
308 2 3473.32 1447.94 2087.63 -1 0 0
309 2 2253.88 2024.63 1806.53 0 0 0
310 2 2552.64 3484.73 2185.63 -1 -1 0
311 2 2028.1 2943.38 1972.08 0 0 -1
312 2 1840.02 3416.92 3619.03 0 -1 -1
313 2 1937.31 2304.18 2021.91 0 0 0
314 2 1893.48 1527.93 1540.87 0 0 0
315 2 1926.77 2374.88 1381.43 0 0 0
316 2 2227.4 1677.28 1383.3 0 0 0
317 2 2449.56 1563.64 1555.06 0 0 0
318 2 1610.76 2069.35 2683.84 0 0 0
319 2 1422.27 2414.44 2251.05 0 0 0
320 2 1671.81 1827.35 2162.24 0 0 0
321 2 2928.5 1373.52 2738.04 -1 0 -1
322 2 1707.18 1585.92 1825.2 0 0 0
323 2 1525.41 2401.6 2250.25 0 0 0
324 2 1609.03 1418.26 2749.89 0 0 -1
325 2 1515.26 3455.64 1999.41 0 -1 0
326 2 3615.26 1550.48 1844.21 -1 0 0
327 2 1488.09 1562.13 2283.11 0 0 0
328 2 1901.85 1496.53 2710.12 0 0 0
329 2 3358.7 3584.01 2959.49 0 -1 0
330 2 1424.76 2707.49 1589.49 0 0 0
331 2 3461.45 2342.92 1643.2 -1 0 0
332 2 2677.84 2059.39 3513.38 0 -1 0
333 2 1465.15 2337.72 2206.43 0 0 0
334 2 2047.61 1584.33 1500.31 0 0 0
335 2 1852.14 3306.83 2603.3 0 0 -1
336 2 1879.78 1620.21 2252.74 0 0 0
337 2 2258.37 1964.4 3640.69 0 0 -1
338 2 2456.4 2322.11 2440.1 0 -1 -1
339 2 1742.01 3602.51 2544.99 0 -1 -1
340 2 2344.2 1810.88 2234.76 0 0 0
341 2 1514.45 2567.92 3645.7 0 0 -1
342 2 2507.13 2101.66 1996.62 0 0 0
343 2 3568.43 2167.81 2019.83 -1 0 0
344 2 1859.51 2158.17 1724.21 0 0 0
345 2 3501.3 2103.83 1417.14 -1 0 0
346 2 2004.34 2320.66 2381.29 0 -1 0
347 2 2094.73 2014.61 1360.82 -1 0 0
348 2 1639.22 2286.23 1723.03 0 0 0
349 2 1784.49 3435.22 1580.41 0 -1 0
350 2 2120.1 2164.57 2093.92 0 0 0
351 2 1703.05 1717.73 3380.55 0 0 0
352 2 1566.57 1587.29 2516.93 0 0 0
353 2 3593.07 1485.56 2576.88 -1 0 0
354 2 1701.22 1524.05 2018.06 0 0 0
355 2 1635.72 2269.07 2195.98 0 0 0
356 2 1492.82 1719.19 2079.35 0 0 0
357 2 3277.09 2236.12 2517.19 0 0 0
358 2 1931.72 1789.3 3611.96 0 0 -1
359 2 1615.54 1503.31 1709.18 0 0 0
360 2 2898.26 2326.58 1818.55 0 0 0
361 2 1362.37 1556.03 3642.83 0 0 -1
362 2 1986.01 3340.91 2259.73 0 0 0
363 2 1828.71 3629.07 2277.8 0 -1 0
364 2 2165.66 3285.5 1940.4 0 -1 0
365 2 2528.12 2108.31 2136.65 0 0 0
366 2 3413.23 2014.43 3420.68 0 0 -1
367 2 3064.45 1823 3196.08 0 0 0
368 2 1379.58 2528.76 2740.11 0 -1 0
369 2 1893.88 1943.7 2369.56 0 0 0
370 2 3403.45 2034.19 1548.58 -1 0 0
371 2 1944.32 1659.72 2500.14 0 0 0
372 2 2812.06 1931.28 2504.54 0 0 0
373 2 2875.9 2250.85 1656.9 0 0 1
374 2 2338.13 2127.25 1708.87 0 0 0
375 2 2543.49 2419.32 3042.98 -1 0 0
376 2 3533.82 3378.8 1879.49 0 0 0
377 2 3496.83 2192.06 1704.75 -1 0 0
378 2 1872.62 2031.74 2973.23 1 0 -1
379 2 1752.54 2386.16 3241.24 0 0 -1
380 2 2822.17 1634.12 3503.4 -1 0 -1
381 2 2354.93 1796.03 1392.89 0 0 0
382 2 2812.89 1525.9 2997.82 0 0 0
383 2 2998.96 2483.62 1530.65 -1 -1 -1
384 2 1992.93 2000.31 2779.4 0 0 0
385 2 1862.79 1737.72 2789.53 0 -1 0
386 2 2084.76 1856.09 3581.8 0 0 -1
387 2 1876.88 3639.34 1850.87 0 -1 0
388 2 1578.74 1612.74 1934.3 0 0 0
389 2 1620.53 3300.16 2604.92 0 -1 -1
390 2 1893.88 3260.06 1832.99 0 -1 1
391 2 1520.47 1424.74 1592.57 0 0 0
392 2 3353.61 2123.77 1678.52 -1 0 0
393 2 1373.75 2229.6 1887.98 0 0 0
394 2 1494.18 2410.96 2419.14 0 1 0
395 2 1532.23 1369.97 1770.89 0 0 0
396 2 1880.87 3272.59 2063.91 0 -1 0
397 2 1909.39 1637.45 1833.37 0 0 0
398 2 3387.45 3427 1636.27 -1 -1 1
399 2 1443.24 3084.15 1648.39 0 -1 0
400 2 3043.74 3493.64 1546.29 -1 -1 0
401 2 1397.32 3649.41 2058.42 0 -1 0
402 2 1358.39 1387.88 1415.18 0 0 0
403 2 1822 1860.14 2234.02 0 0 0
404 2 1569.01 1667.54 1768.05 0 0 0
405 2 1490.38 2320.4 3453.51 0 0 -1
406 2 3588.39 1779.05 2602.74 0 0 0
407 2 3049.39 1594.05 3163.23 -1 0 0
408 2 2415.92 3414.22 2754.34 0 -1 0
409 2 1399.98 1683.72 1778.69 0 0 0
410 2 1373.54 1728.68 3629.36 1 1 0
411 2 1843.14 2070.64 2809.38 0 0 0
412 2 3195.04 1494.93 1721.31 -1 1 1
413 2 1762.78 2052.13 2389.06 0 0 0
414 2 3443.42 3393.21 3414.44 -1 -1 -1
415 2 1688.55 1639.18 1636 0 0 0
416 2 1481.53 1418.99 2188.45 0 0 0
417 2 3451.67 1807.24 1910.98 -1 0 0
418 2 2229.05 1542.22 3376.31 0 0 0
419 2 1649.73 3377.79 3576.42 1 0 -1
420 2 2532.12 1977.23 3545.36 0 0 0
421 2 2066.56 3529.38 1873.7 0 -1 0
422 2 1372.62 2303.02 2054.87 0 0 0
423 2 1713.91 2265 2044.33 0 0 0
424 2 3352.14 1420.87 3472.76 -1 1 -1
425 2 2277.63 3045.68 3138.08 0 -1 -1
426 2 3433.42 2500.72 1563.66 0 0 0
427 2 1532.8 1879.03 3416.83 0 0 0
428 2 2098.91 1424.39 1461.19 0 0 0
429 2 3522.63 3437.51 1386.89 -2 0 1
430 2 1445.66 2066.61 3315.94 0 0 -1
431 2 1603.2 2065.33 1814.75 0 0 0
432 2 1907.84 3373.92 1943.02 0 -1 0
433 2 2069.61 1718.17 1390.7 0 0 0
434 2 3295.58 1428.52 1972.7 -1 0 0
435 2 3376.85 2268.27 1782.26 -1 0 0
436 2 3570.56 2099.93 1575.47 -1 0 0
437 2 1788.91 1627.91 2426.31 0 0 0
438 2 1468.7 2002.52 2696.13 0 1 0
439 2 1846.02 2201.19 3405.93 0 0 -1
440 2 1751.46 2126.47 3010.14 0 0 -1
441 2 1714.62 1994.47 3514.02 0 0 -1
442 2 1851.81 2174.83 2131.65 0 0 0
443 2 1945.37 1507.57 2369.78 0 0 0
444 2 1661.43 1683.38 2070.49 0 0 0
445 2 1791.68 1906.36 3641.44 0 0 -1
446 2 3058.63 1404.36 1756.69 1 1 0
447 2 1851.5 1563.73 2085.46 0 0 0
448 2 3534.58 1650.67 1962.7 -1 0 0
449 2 3505.63 2594.68 3134.61 -1 0 0
450 2 1552.23 1956.19 3564.61 0 0 -1
451 2 2322 1671.58 1536.28 0 0 0
452 2 1611.64 1975.02 2416.74 0 0 0
453 2 1735.64 1480.99 1582.42 0 0 0
454 2 2214.76 1408.03 2061.88 0 0 0
455 2 1641.92 3303.47 1756.22 0 -1 0
456 2 2006.32 1931.03 2185.31 0 0 0
457 2 1767.76 3402.69 2045.93 0 -1 -1
458 2 2012.58 1567.52 2611.36 0 0 1
459 2 1562.27 1631.86 3419.21 1 0 -1
460 2 2286.86 2838.46 2577.53 0 -1 0
461 2 2227.61 1461.84 2224.71 -1 0 0
462 2 1579.67 1731.07 2608.04 0 0 0
463 2 1636.31 3340.25 1583.58 0 -1 0
464 2 2319.47 1971.9 2186.03 0 0 0
465 2 2478.08 1617.48 2118.55 0 0 0
466 2 2108.73 2295.91 2204.89 0 0 -1
467 2 2576.66 1452.76 3396.35 0 1 0
468 2 3639.81 2013.23 1975.6 -1 0 0
469 2 2408.47 1707.92 2009.5 0 0 0
470 2 1480.09 3461.04 2257.86 0 -1 0
471 2 3544.78 1934.58 1846.29 -1 0 0
472 2 3386.08 1656.88 1869.24 -1 0 0
473 2 2018.63 1877.85 1439.79 0 0 0
474 2 3640.46 3316.92 1642.63 -1 0 1
475 2 1498.12 3388.42 1684.05 0 -1 0
476 2 1413.92 1920.06 1849.19 0 0 0
477 2 2221.97 1789.57 2012.22 0 0 0
478 2 3535.33 1599.17 2133.26 -1 0 0
479 2 1513.09 3554.86 1644.65 0 -1 0
480 2 1725.28 1969.15 3214.3 0 0 0
481 2 2166.54 1889.08 2158.27 0 0 0
482 2 2050.57 3298.41 2110.69 0 0 0
483 2 2955.05 3428.06 1416.15 0 -1 0
484 2 3407.33 1430.02 1349.97 -1 1 0
485 2 3372.43 2326.32 1943.3 0 1 0
486 2 1876.17 2223.64 1886.73 0 0 0
487 2 1575.96 3585.3 2504.53 0 -1 0
488 2 1908.65 2214.07 2629.02 0 0 -2
489 2 3605.54 2468.98 2082.71 -1 1 0
490 2 2993.27 2246.23 2514.55 0 1 0
491 2 1613.79 1391.1 2077.81 0 0 0
492 2 3354.31 3216.66 3397.2 0 0 -1
493 2 3330.21 1952.04 1677.59 -1 0 0
494 2 2073.61 2175.54 1611.9 0 0 0
495 2 1620.66 3321.33 2011.63 0 -1 0
496 2 1760.02 2106.44 1497.15 0 0 0
497 2 1652.33 3479.9 2334.07 0 -1 0
498 2 1705.03 3188.5 3063.41 -1 -1 -1
499 2 2289.06 1915.59 3434.29 0 0 0
500 2 1926.93 2064.21 1848.29 0 0 0
501 2 1911.31 1356.07 2610.56 0 0 -1
502 2 2767.39 1525.95 1692.17 0 0 0
503 2 3315.08 1794.39 1809.58 -1 0 0
504 2 2004.84 1602.39 2137.97 0 0 0
505 2 1426.35 2005.53 2125.7 0 0 0
506 2 1664.74 1873.69 2548.92 0 0 0
507 2 2102.67 1537.86 3482.81 0 0 -1
508 2 1798.07 1847.22 1640.85 0 0 0
509 2 1403.66 1584.98 2135.15 0 0 0
510 2 2136.97 3358.08 3181.28 0 0 0
511 2 1468.6 2411.43 2128.22 0 -1 0
512 2 1663.27 2228.23 3160.95 0 0 -1
513 2 2127.72 1442.03 1768.37 0 0 0
514 2 3552.2 1358.37 2310.82 0 1 -1
515 2 2039.17 2030.6 1525.22 0 0 0
516 2 1871.25 2901.29 1406.64 0 0 1
517 2 2088.54 2044.02 1823.62 0 0 0
518 2 3031.01 1479.4 1994.93 0 1 0
519 2 1427.34 1407.98 2509.71 -1 0 -1
520 2 2555.06 3561.88 2567.41 0 -1 -1
521 2 2359 1934.99 1475.17 -1 0 0
522 2 3334.21 1962.23 2258.11 -1 0 0
523 2 1560.47 1964.02 3274.24 0 0 0
524 2 1468.58 2132.09 2601.91 0 -1 0
525 2 1524.32 3560.72 2140.11 0 -1 0
526 2 3547.68 1405.4 1796.38 -1 0 0
527 2 2056.87 1893.48 1752.69 0 0 0
528 2 3640.09 1870.81 2480.89 -1 0 0
529 2 1993.89 3250.04 1959.81 0 -1 0
530 2 3615.18 3444.88 2243.44 -1 0 0
531 2 1530.43 2152.75 1690.14 0 0 0
532 2 3243.1 1655.09 1763.83 0 0 0
533 2 2441.36 1796.78 1571.39 0 0 0
534 2 2526.71 1638.14 1830.46 0 0 0
535 2 1942.53 3353.46 1691.65 0 -1 0
536 2 3531.77 1641.55 3556.15 -1 0 -1
537 2 1385.18 3538.64 1925.28 0 -1 0
538 2 2823.2 3139.35 2159.05 0 -1 0
539 2 3441.71 1614.28 1530.06 -1 0 0
540 2 3167 1743.83 1891.02 0 0 0
541 2 2877.67 3430.28 3566.95 -1 0 -1
542 2 1739.02 2526.3 3567.08 0 0 -1
543 2 3550.23 1350.12 1971.46 -1 0 0
544 2 1724.33 2241.8 3298.04 0 0 -1
545 2 2283.12 2247.36 2184.61 -1 -1 -1
546 2 2268.28 1962.48 2026.82 0 0 0
547 2 2434.27 1663.81 1690.14 0 0 0
548 2 2124.21 1720.38 2163.76 0 0 0
549 2 2044.24 2011.75 2339.03 0 0 0
550 2 3144.76 3541.06 1740.98 0 -1 0
551 2 1355.8 2157.61 2174.72 0 0 0
552 2 2284.71 1682.89 2128.84 0 0 0
553 2 1582.47 1850.13 2016.63 0 0 0
554 2 3646.84 2013.19 2280.47 -1 0 0
555 2 1804.73 3297.76 2787.14 -1 0 0
556 2 1961.83 1490.26 1381.77 0 0 0
557 2 1451.03 3588.34 3614.95 1 0 -1
558 2 1903.67 3157.22 2830.49 -1 -1 -1
559 2 3254.23 1650.92 2105.69 0 1 0
560 2 1892.1 3492.03 1454.42 0 -1 0
561 2 2225.81 3223.23 1575.24 0 -1 1
562 2 2306.27 1463.34 1925.12 0 0 0
563 2 1958.47 3426.23 3241.21 -1 0 0
564 2 1807.69 1767.21 2524.75 0 0 0
565 2 2085.27 2798.45 2021.78 0 0 0
566 2 2208.39 2118.92 3419.18 0 0 -1
567 2 1698.66 2128.23 1675.94 0 0 0
568 2 3388.99 3326 1396.25 0 0 0
569 2 1808.62 1722.94 2136.49 0 0 0
570 2 3595.96 2310.96 2200.94 -1 0 -1
571 2 3245.57 3645.09 1661.35 -2 -1 0
572 2 3530.04 1501.69 1446.15 -1 0 0
573 2 2607.78 1416.46 3022.34 0 0 -1
574 2 2584.06 3096.1 1917.76 0 0 0
575 2 2119.62 3634.69 2201.08 0 -1 0
576 2 2768.96 2127.7 2706.55 0 0 0
577 2 2156.85 2050.85 2209.66 0 0 0
578 2 2998.05 2797.2 2167.32 0 0 1
579 2 3205.15 2089.05 2532.42 0 0 0
580 2 2031.66 1761.33 1857.55 0 0 0
581 2 1836.84 1681.52 3486.03 0 0 -1
582 2 1900.74 1427.09 3360.09 0 0 0
583 2 2414.09 1982.27 1781.02 0 0 0
584 2 1471.17 2359.66 1912.99 0 0 0
585 2 1578.58 1895.88 1831.11 0 0 0
586 2 1716.94 2333.18 2338.34 0 0 0
587 2 3607.75 1610.5 1657.92 -1 0 0
588 2 1528.61 2143.71 1427.57 0 0 0
589 2 1501.38 1855.38 2174.7 0 0 0
590 2 2180.4 1781.2 2313.49 0 0 0
591 2 3407.22 3483.57 1923.26 -1 -1 0
592 2 1827.91 1560.76 1701.25 0 0 0
593 2 3111.75 1449.62 3186.99 -1 0 -1
594 2 2011.67 1428.46 2495.12 0 0 0
595 2 1785.88 3460.26 2227.62 0 -1 0
596 2 1707.71 2197.77 1853.76 0 0 0
597 2 3564.46 2007.02 3589.96 -1 0 -1
598 2 3309.67 1751.1 1978.42 -1 0 0
599 2 1937.04 3498.66 2280.47 0 0 0
600 2 2189.26 3647.33 1890.15 0 -1 0
601 2 1539.8 3606.37 2304.16 0 -1 0
602 2 2636.48 1974.58 1663 0 0 0
603 2 3425.01 2332.33 2467.14 -1 1 0
604 2 2427.56 2842.98 2645.01 0 -1 -1
605 2 2248.8 2240.72 2011.05 -1 -1 0
606 2 1783.27 1720.02 1752.41 0 0 0
607 2 2154.54 1990.03 3502.02 0 0 -1
608 2 2130.65 2442.71 2145.96 -1 0 -1
609 2 2718.12 2624.78 1756.24 0 -1 -1
610 2 1373.59 3642.52 1578.84 1 -1 0
611 2 2686.73 3530.67 2480.81 0 -1 0
612 2 1933.87 2256.83 2264.47 0 0 0
613 2 2429.72 1417.31 1661 0 0 0
614 2 1585.82 1880.71 1550.7 0 0 0
615 2 1574.77 2128.19 3564.3 0 0 -1
616 2 2012.31 2192.27 1786.46 0 0 0
617 2 1491.11 1479.95 1998.29 0 0 0
618 2 1980.66 2051.83 1690 0 0 0
619 2 1439.82 2150.39 2023.99 0 0 0
620 2 2638.35 1755.97 1879.63 0 1 1
621 2 1860.01 3488.85 2568.64 0 -1 0
622 2 1912.6 1654.24 1419.11 0 0 0
623 2 3622.4 2264.21 3447.59 -1 0 -1
624 2 2320.79 1841.6 1880.65 0 0 0
625 2 1892.19 1927.97 1757.53 0 0 0
626 2 2833.73 3546.51 1862.49 0 0 1
627 2 3400.82 1661.23 2208.61 -1 0 0
628 2 3616.43 2349.16 3593.95 -1 0 0
629 2 2312.13 3608.01 1619.39 0 0 0
630 2 3128.78 3116.8 2695.57 0 0 0
631 2 1419.33 1864.01 2329.24 0 0 0
632 2 2103.44 1669.18 1989.01 0 0 0
633 2 1782.88 2282.15 2557.79 0 0 0
634 2 1495.99 2469.95 1464.51 0 0 0
635 2 1591.9 1836.15 2319.39 0 0 0
636 2 1865.54 2286.17 2422.3 0 0 0
637 2 1845.87 1876.36 3482.53 0 0 -1
638 2 2091.66 3590.65 2031.88 0 -1 0
639 2 2388.11 1905.98 3562.76 0 0 0
640 2 1920.56 2118.3 2361.4 0 0 0
641 2 1944.89 1364.59 1502.87 0 0 0
642 2 1874.81 1397.04 1654.51 0 0 0
643 2 1355.81 3269.65 1808.83 0 0 0
644 2 2265.35 1620.88 1975.9 0 0 0
645 2 3459.64 3196.83 2728.14 -1 -1 0
646 2 1950.7 1587.4 3402.87 0 0 0
647 2 2028.93 1836.16 2337.57 0 0 0
648 2 2111.69 2308.81 1695.5 0 0 0
649 2 1660.04 2509.71 1520.41 0 0 0
650 2 1573.63 1549.99 2131.87 0 0 0
651 2 2278.21 1824.24 1582.68 0 0 0
652 2 1881.55 1845.01 3201.77 0 0 0
653 2 2115.26 1554.39 3646.35 0 0 -1
654 2 1676.52 1639 3537.36 0 0 -1
655 2 2766.75 3069.46 1918.47 0 0 0
656 2 1838.95 2039.7 2231.54 0 0 0
657 2 1615.96 3545.75 2664.6 0 -1 0
658 2 1536.45 2827.76 1611.83 0 0 0
659 2 1634.13 1863.8 1388.79 0 0 0
660 2 1508.48 1850.6 2473.81 0 0 0
661 2 3476.25 1966.38 2561.63 0 0 -1
662 2 1780.41 2190.27 2284.29 0 0 0
663 2 1485.89 1441.38 3543.77 -1 1 -1
664 2 2439.43 1565.15 1956.04 0 0 0
665 2 3398.8 1449.67 1516.21 -1 1 0
666 2 1865.75 1792.16 1886.33 0 0 0
667 2 2060.51 1828.03 2048.15 0 0 0
668 2 2161.33 3276.18 2376.94 -1 -1 1
669 2 2679 3099.5 2051.57 0 0 1
670 2 1695.29 3645.72 2385.48 0 -1 0
671 2 1514.65 3455.32 2432.61 0 -1 -2
672 2 3396.34 1864.51 1556.07 -1 0 0
673 2 1797.51 3518.94 2409.65 0 0 0
674 2 3434.98 2115.91 3565.23 -1 0 -1
675 2 1630.03 3433.2 2149.34 0 -1 0
676 2 2956.35 1494.71 3183.7 0 0 -1
677 2 1678.63 3586.08 2203.85 0 -1 0
678 2 1798.67 1528.16 3439.11 0 0 -1
679 2 1819.15 1558.94 3604.06 0 0 -1
680 2 1390.33 1404.04 1888.28 0 0 0
681 2 2279.93 2112.77 2101.44 0 0 0
682 2 2222.95 1859.59 1742.52 0 0 0
683 2 1610.27 2131.5 2014.92 0 0 0
684 2 3404.67 3119.48 3514 -1 0 -1
685 2 2321.3 2662.84 2359.93 0 0 0
686 2 1938.89 1772.28 1708.78 0 0 0
687 2 2543.14 1802.87 2025.24 0 0 0
688 2 3405.12 3600.24 2046.9 -1 -1 0
689 2 1736.91 2457.85 1805.27 0 0 0
690 2 3334.45 3567.33 3530.39 0 -1 -1
691 2 3500.87 2310.54 2057.01 -1 0 0
692 2 3271.48 1702.08 1354.13 0 0 0
693 2 1722.44 1473.71 2492.66 0 0 0
694 2 3649.41 3525.88 1450.65 -1 0 0
695 2 2234.66 2140.56 1583.47 0 0 0
696 2 2120.97 2077.14 2462.11 -1 -1 0
697 2 1390.41 2295.19 2357.96 1 -1 -1
698 2 3538.44 1737.88 2237.19 -1 0 0
699 2 2464.62 3006.45 2221.5 0 -1 0
700 2 1359.88 2168.13 1440.35 0 0 0
701 2 1734.2 1936.57 1504.67 0 0 0
702 2 1969.24 2022.27 2491.12 0 0 0
703 2 1851.47 1380.09 2442.11 0 0 0
704 2 1534.7 3620.7 1940.35 0 -1 0
705 2 1991.05 2195.06 2483.24 0 0 0
706 2 3591.01 3310.57 3608.79 0 0 -1
707 2 1634.48 1444.47 2255.79 0 0 0
708 2 2029.58 1917.87 2624.13 0 0 0
709 2 1608.53 3175.8 1616.86 1 0 0
710 2 1386.68 1744.11 1586.75 0 0 0
711 2 3231.43 2086.03 2169.81 0 0 0
712 2 2387.91 1828.15 1718.76 0 1 0
713 2 1690.2 2662.38 1554.76 0 0 1
714 2 1435.23 2415.07 2589.01 0 0 0
715 2 1483.18 3269.67 1561.68 1 0 1
716 2 1970.54 3598.06 2150.68 0 -1 0
717 2 1928.16 1457.87 3518.95 0 0 -1
718 2 1899.67 1405.48 2035.41 0 0 0
719 2 1797.24 2320.48 2189.28 0 0 0
720 2 1799.55 3360.51 2365.4 0 0 0
721 2 2165.43 1905.13 1896.21 0 0 0
722 2 3586.83 2272 1577.68 -1 0 0
723 2 1984.04 2385.38 2160.69 0 0 0
724 2 3503.19 3208.7 1393.67 -1 0 0
725 2 3263.2 1487.9 3594.37 0 1 0
726 2 2875.29 2231.04 2901.04 0 0 -1
727 2 3539.11 3539.72 1839.52 0 -1 0
728 2 2006.08 2277.13 1484.26 0 0 0
729 2 3492.16 2178.1 2162.92 -1 0 0
730 2 1557.69 3137.41 2606.99 0 -1 0
731 2 1763.47 1965.6 2094.04 0 0 0
732 2 2416.1 2191.37 2064.57 0 0 0
733 2 2196.22 2428.11 1626.25 0 0 1
734 2 2055.79 1439.75 2095.22 0 0 0
735 2 1537.76 2216.24 1881.13 0 0 0
736 2 1700.13 2111.21 2157.46 0 0 0
737 2 3401.5 1399.67 1713.65 -1 0 0
738 2 1704.34 1900.42 3371.18 0 0 -1
739 2 1748.57 1365.06 1965.52 0 0 0
740 2 3646.47 3354.93 1465.77 -1 0 1
741 2 1948.65 2282.82 1646.23 0 0 0
742 2 1860.56 1775.35 3335.9 0 0 -1
743 2 1622.85 1453.05 1884.94 0 0 0
744 2 3527.93 1711.33 1783.29 -1 0 0
745 2 1778.13 2105.11 1989.59 0 0 0
746 2 1949.72 1904.21 1597.67 0 0 0
747 2 1714.17 3390.66 1430.98 0 -1 0
748 2 3487.14 1647.58 2360.07 -1 0 0
749 2 3522.21 1754.63 1597.4 -1 0 0
750 2 1437.62 2076.44 1567.34 0 0 0
751 2 1554.73 2612.51 2855.12 1 0 0
752 2 3315.39 1718.65 1512.56 0 0 0
753 2 2732.38 2758.12 2271.24 0 0 1
754 2 1730.38 1726.34 2295 0 0 0
755 2 1936.71 1706.08 2022 0 0 0
756 2 1872.18 3335.38 1483.93 0 -1 0
757 2 3637.97 1999.51 1446.35 -1 0 0
758 2 1385.99 3593.75 2233.45 0 -1 0
759 2 1842.56 1687.91 1590.29 0 0 0
760 2 1762.19 3439.64 2836.78 0 -1 0
761 2 1508.23 1985.99 1700.52 0 0 0
762 2 1832.09 1950.87 1939.2 0 0 0
763 2 3325.07 1803.23 2166.71 -1 0 0
764 2 1638 2343.09 1910.17 0 0 0
765 2 1890.83 2043.45 2647.5 -1 1 0
766 2 1981.32 2563.12 1628.1 -1 0 0
767 2 2132.48 1827.75 3427.85 0 0 -1
768 2 3551.94 3589.72 3634.84 -1 -1 0
769 2 1529.76 2134.6 2167.63 0 0 0
770 2 2113.42 1864.97 1583.58 0 0 0
771 2 3569.28 2104.03 1832.39 -1 0 0
772 2 1817.81 2074 3631.82 0 0 -1
773 2 1744.09 1863.86 2394.52 0 0 0
774 2 2424.71 2026.95 3646.48 0 0 -1
775 2 3594.2 3155.12 1654.44 -1 0 0
776 2 1380.92 1461.75 1701.7 0 0 0
777 2 1621.98 2706.68 2973.39 1 0 0
778 2 2126.33 2160.72 1446.43 0 0 0
779 2 3449.48 1854.07 1726.06 0 0 0
780 2 3450.4 3454.07 2128.77 -1 -1 0
781 2 1519.88 1597.48 3589.3 0 0 -1
782 2 1856 1940.96 3331.38 0 0 -1
783 2 1450.84 2143.63 2321.06 0 0 0
784 2 3616.57 1498.07 2014.99 -1 0 0
785 2 3070.5 2900.74 3216.42 0 0 0
786 2 1624 2119.52 2310.17 0 0 0
787 2 3408.42 2124.04 1850.71 -1 0 0
788 2 1698.55 3229.78 1485.27 1 0 1
789 2 1622.89 2205.9 2583.4 0 -1 0
790 2 2771.3 3643.05 2793.41 1 0 0
791 2 3250.19 3634.64 1835.83 0 0 0
792 2 2757.68 3096.56 2300.12 0 -1 0
793 2 1605.31 2300.22 3560.08 0 0 -1
794 2 3002.66 2278.41 1725.45 0 0 0
795 2 3390.67 3380.5 1791.43 -1 -1 0
796 2 1483.02 1815.94 1712.66 0 0 0
797 2 1903.09 1545.33 2879.23 0 0 0
798 2 3336.76 1928.21 3295.37 0 1 -1
799 2 1597.11 1679.48 3268.65 0 0 -1
800 2 1449.6 2241.58 3607.36 0 0 -1
801 2 1432.97 1573.61 2614.62 0 0 0
802 2 1462.67 1632.17 1439.36 0 0 0
803 2 1552.92 2279.15 2351.83 0 0 0
804 2 1805.87 1627.95 3298.14 0 1 -1
805 2 2117.59 1559.57 2408.39 0 0 0
806 2 2363.97 1676.82 1843.9 0 0 0
807 2 3241.47 1607.84 1943.12 -1 0 0
808 2 2401.06 3486.74 2611.83 1 -1 -1
809 2 3572.74 3247.82 1966.95 -1 0 1
810 2 2196.43 3359.59 2075.97 0 0 0
811 2 1895.28 1863.64 2074.52 0 0 0
812 2 3408.44 1855.43 3428.4 -1 0 -1
813 2 3588.43 2103.94 3440 -1 0 -1
814 2 2660.97 2865.41 2380.4 0 -1 0
815 2 1659.48 1551.39 3335.1 0 0 -1
816 2 3480.28 1932.47 1422.03 -1 0 0
817 2 1743.54 1873.92 1805.04 0 0 0
818 2 3626.29 1728.57 2387.11 -1 0 0
819 2 3355.35 2037.65 1399.91 0 0 0
820 2 1793.24 3503.99 1913.34 0 -1 0
821 2 3376.17 1707.09 1685.34 -1 0 0
822 2 1862.88 1816.68 1467.81 0 0 1
823 2 3449.04 1749.82 2080.9 -1 0 0
824 2 1483 2276.99 2496.99 1 0 0
825 2 1642.88 1587.39 2352.63 0 0 0