ITEM: TIMESTEP
385000
ITEM: NUMBER OF ATOMS
1000
ITEM: BOX BOUNDS pp pp pp
1.5866128554756369e+03 3.4133871445238274e+03
1.5866128554756369e+03 3.4133871445238274e+03
1.5866128554756369e+03 3.4133871445238274e+03
ITEM: ATOMS id type x y z ix iy iz
1 1 2720.79 2454.91 1695.84 -1 0 1
2 1 2170.9 1610.63 2599.64 0 0 0
3 1 3114.36 2563.23 2227.3 0 0 0
4 1 2302.07 1861.16 3095.44 0 -1 0
5 1 3219.44 2886.9 2662.81 -1 -1 1
6 1 2054.87 1914.09 3217.3 0 0 0
7 1 1847.43 2922.51 2788.59 0 -1 0
8 1 2245.31 1902.95 2479.29 0 0 1
9 1 2896.75 2932.65 2476.32 0 0 0
10 1 2786.37 2507.78 2613.73 0 0 0
11 1 2661.41 2211.15 2584.67 0 0 0
12 1 1665.73 3054.49 3360.62 0 0 0
13 1 3009.9 3298.41 3261.81 -1 0 -1
14 1 2276.84 2675.03 2802.86 0 0 -1
15 1 3077.75 2278.64 2148.97 0 0 0
16 1 2252.96 3406.79 2463.75 0 0 -1
17 1 2448.11 2823.04 2835.31 1 0 -1
18 1 2987.94 2379.59 2473.6 -1 1 0
19 1 2806.44 2011.63 1920.08 -1 0 0
20 1 1695.29 2934.55 2882.45 0 -1 0
21 1 2119.43 2511.13 2566.48 0 1 0
22 1 2639.21 2896.97 2698.63 2 -1 0
23 1 2805.84 2225.14 2658.73 0 0 1
24 1 2881.82 3185.19 2236.08 0 0 0
25 1 1902.23 2040.29 2745.21 -1 0 0
26 1 2863.86 2933.04 2856.47 0 0 0
27 1 2980.61 2416.59 2769.54 -1 0 1
28 1 2128.04 2461.48 2414.69 0 0 0
29 1 2556.6 2312.92 2626.1 0 0 -1
30 1 2744 3236.04 2814.72 0 0 0
31 1 1681.12 1830.9 2831.84 0 0 0
32 1 1813.85 3002.36 3102.38 0 0 -1
33 1 2254.33 2411.5 3009.93 0 0 0
34 1 2459.65 1606.95 2816.15 0 0 0
35 1 2105.46 2245.67 2411.88 0 0 -1
36 1 1732.86 2771.6 1653.01 0 -1 0
37 1 1952.95 1968.23 2004.5 0 0 0
38 1 2267.56 2897.01 2244.2 0 0 0
39 1 3075.9 2396.55 2812.81 -2 0 -1
40 1 2999.33 2479.7 2087.86 -1 -1 2
41 1 2057.6 2847.4 1984.75 0 0 -1
42 1 2844.79 2665.75 2144.21 0 -1 0
43 1 2452.07 2571.58 2132.97 0 -2 0
44 1 2901.21 3211 1890.1 0 -1 0
45 1 2468.25 2352.12 2749.89 0 0 0
46 1 2838.36 3319.08 2935.01 -1 -1 0
47 1 3204.12 3092.28 2257.42 -1 -1 -1
48 1 3073.22 2150.89 2746.51 0 0 -1
49 1 2829.13 2546.12 2297.27 -1 0 1
50 1 2948.3 1858.16 3148.07 -1 0 0
51 1 3127.44 1669.4 2278.85 -1 -1 1
52 1 3396.5 2532.11 3291.65 -1 0 -1
53 1 2986.26 2044.03 3212.45 -2 0 -1
54 1 3140.56 2303.48 2902.97 0 0 -1
55 1 2922.07 2934.01 2880.2 -2 0 -1
56 1 2997.15 2216.61 1825.97 0 0 0
57 1 2052.5 2513.94 3313.5 0 0 -1
58 1 2471.69 2605.42 3287.49 0 0 -1
59 1 2619.87 3203.61 2735.71 -1 -1 0
60 1 2107.15 3038.63 1751.89 -1 -1 1
61 1 1968.74 2759.45 2462.99 -1 0 0
62 1 2575.32 1639.74 3010.72 0 0 -1
63 1 3061.84 2250.17 3021.99 -1 0 0
64 1 2815.88 2610.72 3083.33 0 -1 -1
65 1 3084.42 2960.63 2706.42 -1 -1 -1
66 1 3123.65 2850.72 2526.01 -1 0 1
67 1 2494.55 2440.15 1841.41 0 0 0
68 1 2280.74 2872.18 3162.79 0 -1 -1
69 1 1676.09 2569.76 2767.37 0 0 0
70 1 1845.77 1691.23 3209.64 0 1 -1
71 1 2042.17 2664.69 2533.34 -1 0 -1
72 1 2707.2 2117.47 3386.2 0 0 -1
73 1 2630.94 1733.73 1600.75 0 1 1
74 1 3034.01 2692.56 2186.1 -1 0 -1
75 1 2057.01 2478.39 1817.13 0 0 1
76 1 1768.27 1826 2950.72 -1 0 0
77 1 2614.38 2501.38 3202.65 -1 -1 -1
78 1 1799.82 3376.58 1917.61 0 -1 0
79 1 2112.05 2361.92 2522.76 0 -1 0
80 1 3055.36 2407.89 2462.21 -1 0 0
81 1 3389.05 1926.92 1934.48 -1 0 0
82 1 1963.94 2257.69 3232.66 1 0 0
83 1 2480.96 2083.28 2685.35 -1 -1 -1
84 1 2043.33 3382.45 3283.26 1 0 -1
85 1 2502.11 2412.85 2444.88 0 -1 0
86 1 3249.55 2391.4 2820.95 -1 0 0
87 1 1850.09 2039.01 2886.04 0 -1 -1
88 1 1691.91 2748.4 2074.98 0 -1 0
89 1 2833.32 2807.41 1872.66 0 0 0
90 1 3297.29 3139.15 2334.15 -2 -1 0
91 1 1787.36 3294.6 2924.33 0 -1 -1
92 1 2031.79 2779.28 2476.31 0 -1 -1
93 1 2243.28 3233.68 2714.79 1 0 0
94 1 2270.78 2163.81 3248.31 0 0 -1
95 1 1870.31 2436.67 2845.73 -1 -1 -1
96 1 2755.93 2462.65 2006.68 -1 0 0
97 1 2309.88 2415.74 2059.9 0 -1 1
98 1 2688.55 2123.61 2952.06 -1 -1 0
99 1 2464.65 2848.38 2978.89 0 -1 -1
100 1 2730.76 2030.67 1685.46 -1 0 0
101 1 1675.97 2891.37 2370.64 0 -1 0
102 1 2278.67 1630.06 2670.22 -1 0 0
103 1 2862.56 2509.47 2105.51 -1 0 0
104 1 3316.19 2694.49 2439.08 0 -1 -1
105 1 3259.22 3046.84 2759.75 -1 0 0
106 1 3309.39 2021.21 2825.32 0 1 -1
107 1 2755.94 2194.79 2447.47 -1 -2 0
108 1 3206.35 3106.76 1748.07 -1 0 -1
109 1 2262.87 2531.87 2413.16 -1 -1 0
110 1 2751.33 2739.86 1740.58 0 -1 0
111 1 3302.82 1587.05 3308.32 -1 0 -1
112 1 2649.11 1766.33 2971.91 0 0 0
113 1 2387.96 2724.87 2942.18 0 0 -1
114 1 2711.48 2417.49 2921.4 -1 0 0
115 1 2268.65 2667.06 3020.14 0 0 -1
116 1 2851.79 2426.49 2885.99 0 0 0
117 1 2363.12 3343.65 2740.28 0 -1 -1
118 1 2131.62 2785.62 2283.98 -1 0 -1
119 1 3250.99 2952.74 2248.59 0 -1 0
120 1 2764.62 2321.47 1859.79 1 0 0
121 1 3076.16 3175.74 3034.75 -1 0 0
122 1 2787.71 3067.48 2464.3 0 0 -1
123 1 1807.2 1776.08 3327.26 -1 1 -1
124 1 2592.96 2518.61 1691.26 0 0 1
125 1 1810.19 3052.68 1999.43 0 -2 0
126 1 2210.47 3408.84 2992.23 0 0 -1
127 1 2766.74 2274.3 2124.42 -1 -1 0
128 1 2091.57 2286.74 3410.58 -1 0 0
129 1 2478 2435.88 2402.48 -1 0 0
130 1 3295.66 2632.1 2030.39 0 -1 0
131 1 2908.23 3128.38 1620.21 -1 -1 0
132 1 2614.24 2797.87 2999.94 0 -1 -1
133 1 2540.1 2413.31 2856.19 0 0 -1
134 1 1970.31 3180.2 2485.11 -1 -1 -1
135 1 2189.81 3343.24 3285.21 0 -1 -1
136 1 2960.23 2130.6 3097.16 -1 0 0
137 1 3127.12 1933.23 1976.53 -1 0 0
138 1 2753.79 2578.64 1920.16 0 -1 0
139 1 2962.54 2587.83 2073.08 -1 -1 -1
140 1 2932.02 2990.29 2760.37 -1 -1 -1
141 1 2865.43 2798.92 2081.82 -1 1 0
142 1 2440.82 2260.4 2864.18 0 1 -1
143 1 3115.98 2969.27 2270.8 -1 0 0
144 1 1667.39 2985.6 2563.45 -1 -1 0
145 1 2316.47 2241.05 2113.56 0 0 0
146 1 3251.98 2575.11 2162.56 -1 -1 0
147 1 1790.3 2481.47 2716.8 0 0 -1
148 1 2736.22 2702.5 2359.97 -1 -1 1
149 1 3004.39 2837.35 2758.09 0 0 0
150 1 2428.57 2593.32 2559.25 0 0 0
151 1 2551.4 3026.9 2757.85 0 -2 -1
152 1 3272.99 2631.14 2929.66 -1 -1 0
153 1 2900.83 2788.93 2866.9 -1 -1 -1
154 1 3184.22 2688.74 2279.82 -1 0 -1
155 1 2957.81 2364.25 2536.27 0 0 0
156 1 2047.9 2512 3135.21 0 0 -2
157 1 3376.38 2973.13 2334.16 0 0 -1
158 1 2731.37 2743.47 2038.76 -1 -1 0
159 1 3037.15 2652.02 2663.49 0 -1 0
160 1 2912.41 1942.71 2841.02 -1 0 0
161 1 2696.56 2730.22 1887.03 0 0 -1
162 1 2805.32 2067.81 2535.44 0 -1 0
163 1 2388.42 2583.87 2872.76 0 0 -1
164 1 3162.4 2442.27 1930.32 0 -1 -1
165 1 2276.45 2159.64 3301.78 0 0 -1
166 1 1628.36 2717.29 1955.94 0 0 -1
167 1 2669.86 2711.02 2351.93 0 -1 0
168 1 1883.97 2166.85 2985.22 0 0 0
169 1 2183 3212.08 1831.94 0 -1 -1
170 1 2966.98 2940.88 2355.69 0 -1 0
171 1 2820.53 2121.65 3041.84 -1 -1 -1
172 1 2615.71 2948.9 2125.49 0 -1 -1
173 1 2808.78 2385 2524.07 -1 0 -1
174 1 2871.93 1834.85 3323.39 -2 0 -1
175 1 3122.2 3012.69 1643.27 -1 -1 -1
176 1 2120.02 2092.13 2980.59 0 0 0
177 1 2822.51 3263.19 1737.43 -1 0 0
178 1 3247.27 2185.17 2808.4 -1 0 0
179 1 1917.06 2168.9 3027.78 -1 0 0
180 1 3195.47 2904.58 2975.35 0 0 -1
181 1 1747.81 2657.69 3068.65 0 -1 1
182 1 2867.28 3303.71 2179.03 0 -1 0
183 1 1651.53 3014.01 2012.29 0 -1 0
184 1 2941.16 2228.1 2691.62 0 -1 1
185 1 1737.83 2290.87 2637.72 0 0 -1
186 1 3068.24 2333.13 1871.44 -1 0 -1
187 1 3384.72 2664.37 2827.25 0 0 -1
188 1 2583.21 1615.26 3358.05 0 1 -1
189 1 3350.13 2087.53 3270.9 -1 0 -1
190 1 2593.33 2670.64 2485.45 -1 0 0
191 1 2880.14 1725.12 3154.55 0 0 0
192 1 3213.89 3253.41 1795.4 -1 -1 0
193 1 3290.86 2802.61 2928.51 -2 -1 0
194 1 2910.94 2135.38 1950.47 0 -1 -1
195 1 2150.2 2606.2 2779.17 -1 0 0
196 1 2392.88 2516.5 3377.04 0 0 -1
197 1 2177.9 2293.22 1693.22 -1 1 1
198 1 2826.24 3197.98 3271.1 -1 -1 0
199 1 2331.53 3165.04 1639.11 0 0 1
200 1 2074.76 1929.86 2993.17 0 0 -1
201 1 3198.81 2181.6 2989.11 -1 0 0
202 1 2587.85 2371.92 3282.71 -1 -1 -1
203 1 3099.76 3088.77 3304.29 -1 -1 0
204 1 2445.9 2343.99 3001.61 0 -1 -2
205 1 2999.75 2629.67 3065.13 -1 -1 0
206 1 3235.66 1694.02 3216.6 -1 0 0
207 1 2417.02 2756.17 3264.36 -1 -1 -1
208 1 2427.06 2208.72 2721.37 0 0 -1
209 1 2722.22 2683.77 2989.81 -1 -1 0
210 1 3080.55 2544.27 1804.75 0 -1 0
211 1 2845.68 2941.42 1811.53 -1 -1 0
212 1 2362.76 1597.34 2361.61 0 0 -1
213 1 3049.74 2696.53 2501.68 0 1 -1
214 1 2406.37 2899.27 2469.04 0 -1 0
215 1 1587.56 2969.09 1885.65 0 0 -1
216 1 2671.76 2335.15 3186.06 -1 0 -1
217 1 2939.97 2154.72 2092.07 -1 0 1
218 1 2154.53 2615.66 1964.57 0 0 0
219 1 3093.58 2956.42 2433.68 0 -1 0
220 1 2171.94 2433.7 3175.25 -1 0 -1
221 1 3002.67 1747.21 3063.44 -1 0 -1
222 1 2871.53 2179.59 1591.07 0 -1 1
223 1 2462.5 2454.67 3242.3 0 -1 -2
224 1 1708.06 3250.57 2495.22 0 -1 0
225 1 2815.03 3345.82 2444.22 0 -1 0
226 1 2788.65 2552.71 2920.42 0 -1 0
227 1 3267.13 2397.3 2673.85 -1 -1 -1
228 1 1633.33 3163.08 1645.69 0 0 1
229 1 2898.14 2072.82 2222.88 -1 -1 0
230 1 1689.04 2425.6 2606.46 0 0 -1
231 1 2074.06 2749.15 2430.01 -1 -1 0
232 1 2097.6 3323.85 3406.47 0 -1 -1
233 1 3268.69 2769.43 2772.11 -1 0 1
234 1 1979.75 1828.93 2577.46 0 -1 -1
235 1 2726.74 2355.02 1720.21 -1 -1 0
236 1 2504.5 2570.59 2120.34 -1 0 0
237 1 3067.05 2530.55 2968.36 0 -1 0
238 1 3003.94 2837.22 2456.73 0 -1 0
239 1 2730.86 2587.57 2067.9 -1 -1 0
240 1 2151.19 2552.92 2553.92 1 0 -1
241 1 2708.62 3311.59 1866.49 0 -1 0
242 1 2641.89 2047.58 1808.43 0 -2 0
243 1 1891.09 3377.44 1774.92 0 -1 0
244 1 2977.3 2592.85 2785.77 0 -1 -1
245 1 3178.07 1661.61 2518.45 -1 0 0
246 1 2913.03 1890.03 2693.64 0 -1 0
247 1 2428.37 3355.29 2611.62 0 -1 0
248 1 3170.09 2818.79 2015.69 -1 -1 0
249 1 3173.36 2644.3 3059.35 0 0 0
250 1 3363.44 1781.63 3214.24 -1 0 -1
251 1 3066.52 2705.89 1981.72 0 -1 0
252 1 2943.28 1734.43 2687.08 -1 0 0
253 1 1771.6 2659.46 2007.62 1 0 0
254 1 3304.21 2254.93 2602.92 -1 0 -1
255 1 2851.13 1945.54 3237.1 -1 0 -1
256 1 2425.09 2414.07 2851.49 -1 0 0
257 1 2891.33 3070.68 1936.17 -1 -1 0
258 1 2576.53 2033.72 2906.39 0 0 -1
259 1 2634.92 2075.51 3271.65 -1 0 -1
260 1 2642.03 2542.2 2999.29 0 0 0
261 1 1659.72 2033.84 2295.11 0 0 0
262 1 3140.18 2528.1 2064.6 -1 0 -1
263 1 2590.25 2855.14 2840.39 -1 0 -1
264 1 2223.41 2388.07 1822.14 0 0 -1
265 1 3302.78 1955.55 2991.38 -1 0 -1
266 1 3042.54 1763.4 3218.18 -1 0 -1
267 1 1650.95 2292.55 2962.24 0 0 -1
268 1 2172.86 2504.78 2565.1 0 -1 0
269 1 2842.73 1660.51 2900.17 -1 0 0
270 1 2313.6 2138.28 3268.98 0 0 -1
271 1 2005.73 2859.97 2374.67 0 -1 -1
272 1 2577.9 2401.65 3015.49 -1 0 -1
273 1 2120.45 2370.75 2981.5 0 0 -1
274 1 2323.94 2562.38 3027.75 1 -1 0
275 1 2914.04 2445.97 1831.92 -1 0 1
276 1 2816.93 2672.69 1618.37 -1 -1 0
277 1 2618.51 2633.64 1981.11 0 0 1
278 1 1615.03 1695.33 2800.42 0 0 -1
279 1 2328.78 2743.38 2449.97 0 -1 0
280 1 2446.78 2463.95 3094.51 -1 0 -1
281 1 1909.56 2900.47 2683.92 0 -1 0
282 1 1970.4 2307.57 2945.75 0 -1 0
283 1 2309.45 3268.22 3343.98 0 -1 -1
284 1 2121.16 2269.82 3223.36 0 0 -1
285 1 3401.66 2741.03 2964.69 -1 0 -1
286 1 2927.88 2046.53 2939.12 -1 1 0
287 1 2813.32 1968.86 1775.71 0 0 0
288 1 2322.31 2328.97 2744.56 1 0 0
289 1 2100.82 2720.32 2701.82 0 -1 0
290 1 3036.62 2482.09 2333.73 -1 -1 0
291 1 2236.74 2708.25 2444.85 -1 -1 0
292 1 3253.16 2229.28 2777.92 -1 0 -1
293 1 2640.48 2561.63 2558.91 0 0 1
294 1 2555.11 2659.03 2665.3 0 -1 -1
295 1 1899.83 3290.8 2548.62 0 -1 0
296 1 3234.33 2482.32 2947.96 0 0 0
297 1 2913.52 2314.68 2572.12 -1 0 0
298 1 2384.47 2429.44 2624.2 0 0 0
299 1 1734.16 2132.44 2551.51 1 0 0
300 1 2016.55 2435.05 3258.8 0 0 0
301 1 2351.78 2479.15 2571.3 -1 0 -1
302 1 3279.59 1920.1 1658.79 -1 0 0
303 1 3023.98 3318.47 1844.31 0 -1 0
304 1 2279.46 2817 3192.42 1 -1 -1
305 1 2399.06 1796.7 3208.41 0 0 -1
306 1 1701.41 3289.04 1637.51 0 -1 0
307 1 3137.71 2418.25 1971.85 -1 0 -1
308 1 1692.21 1748.13 1614.45 0 0 0
309 1 2666.75 2992.99 2309.05 0 0 -1
310 1 1787.51 1938.5 2768.74 0 0 -1
311 1 2126.17 2846.81 1647.17 0 -1 -1
312 1 2870.19 2321.39 2630.05 0 -1 1
313 1 2096.89 2014.02 3106.9 0 -1 -1
314 1 1794.18 2323.28 2899.66 1 0 0
315 1 1880.36 1801.13 2687.96 0 0 0
316 1 2924.31 2948.52 1677.8 -1 0 0
317 1 2168.41 2879.83 2616.73 1 0 -1
318 1 3367.51 3144.08 2836.18 0 -1 -1
319 1 2971.61 2142.48 1674.65 -1 0 0
320 1 2430.45 2691.92 2723.68 0 -1 0
321 1 2652.87 2232.12 3285.94 -1 0 0
322 1 2292.18 2464.28 1735.05 0 -1 0
323 1 1967.87 2041.25 2988.52 0 0 -1
324 1 3351.01 2323.72 1653.05 0 0 0
325 1 2060.76 3236.03 2927.15 0 0 0
326 1 2725.24 2816.22 2913.65 0 0 -1
327 1 2604.92 3087.94 2624 0 -1 0
328 1 2093.77 2200.15 2557.78 0 0 0
329 1 2074.13 2796.06 1983.23 0 0 0
330 1 2696.94 2522.79 2814.84 0 0 0
331 1 2470.49 2585.12 1984.54 -1 0 0
332 1 2234.55 2872.64 3120.48 0 -1 -1
333 1 2921.3 2511.04 3009.12 0 0 0
334 1 2949.57 3411.9 3243.82 -2 -1 0
335 1 2538.42 2943.2 2397.86 0 0 0
336 1 2455.55 2365.52 3380.06 0 -1 -1
337 1 1693.14 2415.9 2164.77 0 0 0
338 1 2718.53 2742.32 3330.14 0 -1 -1
339 1 2905.77 2708.23 3155.89 0 -1 0
340 1 2452.73 2444.89 2612.29 0 -1 0
341 1 2727.71 3278.41 3172.49 0 -1 -2
342 1 2831.16 2894.1 2998.32 0 -1 0
343 1 2788.37 2009.64 2924.24 1 -1 0
344 1 2997.97 3057.3 3043.9 0 -1 -1
345 1 2551.24 2251.65 1589.28 0 0 0
346 1 2700.62 2410.31 1735.58 0 -1 0
347 1 2485.83 2455.97 2846.02 -1 0 -1
348 1 2143.23 2476.03 2599.85 -1 -1 -1
349 1 2841.52 2651.82 2618.18 -1 0 0
350 1 2216.39 2258.31 1987.19 0 1 0
351 1 1977.83 1615.99 3164.3 0 0 -1
352 1 2340.66 2246.13 3095.74 0 1 0
353 1 3071.97 2631.66 2353.86 0 -1 0
354 1 2144.24 2627.3 2312.7 0 0 0
355 1 2347.94 2800.16 3066.75 0 -1 -1
356 1 2213.43 3153.94 1699.31 0 -1 0
357 1 2100.1 2941.6 2871.3 0 -1 -1
358 1 3062.71 3400.37 2185.59 -1 -1 0
359 1 2646.58 2276.76 2951.07 0 0 0
360 1 2167.8 1633.95 3362.28 0 1 -1
361 1 3311.09 2598.3 2316.95 -1 0 0
362 1 2836.37 2641.21 2839.74 0 -1 0
363 1 2516.83 2363.8 3145.39 0 0 -1
364 1 2860.41 2734.56 3014.47 -1 0 0
365 1 2109.08 3210.77 2788.83 0 -1 0
366 1 1945.62 2606.4 1741.24 0 0 0
367 1 2223.84 2585.46 2906.23 0 -1 -1
368 1 2655.79 1836.43 2598.05 -1 0 0
369 1 3126.12 2759.36 2702.71 0 0 -1
370 1 3202.83 2822.81 2153.16 -2 0 0
371 1 3284.98 2176.35 1921.36 -1 0 0
372 1 3010.64 3024.08 3361.06 -1 -1 -1
373 1 2889.55 2635.77 2847.09 0 1 0
374 1 2530.03 1855.59 2564.9 0 0 0
375 1 3115.68 1654.37 2329.32 0 0 -1
376 1 2729.98 2668.06 2504.62 0 1 0
377 1 3191.2 2489.28 2323.81 0 0 0
378 1 2304.51 1902.87 2954.35 0 1 -1
379 1 2958.9 2558.48 2207.5 -1 -1 0
380 1 2630.62 2124.42 1949.63 -1 0 0
381 1 2225.45 2547.5 3108.79 0 0 -1
382 1 3226.54 2913.48 2814.34 -1 -1 0
383 1 2754.57 2297.1 2330.95 -1 0 0
384 1 2874.41 2820.24 2365.75 0 -1 0
385 1 3058.85 2762.52 2313.07 0 0 0
386 1 2878.35 3033.08 2609.79 -1 0 0
387 1 3066.71 2334.86 2793.89 -1 0 -1
388 1 1591.81 2785.13 2916.63 0 0 -1
389 1 2435.63 2517.54 1723.2 0 0 0
390 1 1638.97 2671.67 1597.66 0 -1 0
391 1 2403.73 1892.65 1734.4 0 0 0
392 1 1853.18 2562.11 3046.6 -1 -1 -1
393 1 2601.24 2416.39 2719.99 0 0 1
394 1 1886.95 2113.38 3204.9 1 0 -1
395 1 2453.77 2448.19 2008.79 0 -1 -1
396 1 1664.98 2840.44 2593.04 1 0 0
397 1 2812.29 2849.12 1646.05 -1 0 0
398 1 2184.62 2426.62 2874.39 0 -1 0
399 1 2055.81 1728.22 2856.3 0 0 0
400 1 2160.42 2328.66 2750.99 -1 0 -1
401 1 2509.82 2465.24 2434.64 0 0 -1
402 1 2190.13 2565.33 3391.91 0 0 -2
403 1 1702.46 2045.53 3107.82 0 0 -1
404 1 2609.99 2687.37 2133.8 0 0 0
405 1 2691.69 3107.31 2838.99 -1 0 0
406 1 2073.1 2912.59 2267.77 0 -1 0
407 1 1830.63 2967.49 2954.76 -1 -1 0
408 1 3349.15 2398.25 2948.98 0 0 -1
409 1 3180.72 2686.06 2571.85 0 -1 -1
410 1 2600 2224.75 2429.34 0 0 -1
411 1 2090.53 2011.1 1954.63 0 0 0
412 1 2392.63 3077.81 2864.37 0 0 0
413 1 1690.24 2683.84 2905.55 0 0 -1
414 1 1977.8 2874.8 2849.76 0 -1 -1
415 1 2009.24 2373.32 2808.39 0 0 -1
416 1 2651.36 2687.02 1652.85 0 0 0
417 1 1761.92 2065.04 2411.91 -1 0 -1
418 1 3336.03 3047.54 1991.75 -1 0 1
419 1 2177.98 2602.06 2507.32 0 0 0
420 1 3198.15 2874.75 2337.76 -2 -1 -1
421 1 2896.1 2525.23 1732.69 -1 0 0
422 1 1711.1 3049.19 1872.43 0 -1 0
423 1 3106.74 2746.97 1663.25 0 -1 0
424 1 1966.13 2873.92 3237.22 0 -1 -1
425 1 2365.89 2885.15 3310.81 0 0 -1
426 1 2864.57 2606.75 2809.26 -1 0 -1
427 1 3187.49 2287.78 2220.15 -1 -1 0
428 1 2333.72 2991.57 2580.73 0 -1 -1
429 1 2941.85 2800.45 2215.23 -1 0 0
430 1 2017.86 1833.9 2228.3 0 -1 0
431 1 2627.29 2383.31 1620.58 0 0 0
432 1 1922.9 2876.86 2250.51 0 -1 0
433 1 2193.17 2695.89 2487.43 -1 -1 -1
434 1 3158.84 2728.4 2423.05 -1 0 0
435 1 2884.05 2010.45 3087.91 -1 0 0
436 1 2951.19 2732.52 1636.01 -1 0 0
437 1 2763.97 2198.33 1958.83 0 1 0
438 1 3374.41 2503.89 2678 -1 -1 -1
439 1 2867.03 2371.69 1807.33 0 0 0
440 1 3080.93 1936.76 3139.68 -1 0 -1
441 1 2775.36 1827.81 3186.79 -1 0 -1
442 1 1807.29 2577.9 2817.95 0 0 0
443 1 3111.32 2525.94 3112.79 0 -1 0
444 1 2853.25 2673.11 1981.65 -2 0 0
445 1 2415.87 3006.06 2565.69 0 -1 0
446 1 2999.28 1896.68 3289.54 -1 0 -1
447 1 2657.18 2731.97 2623.81 0 0 0
448 1 1982.69 2733.33 2259.42 -1 -1 0
449 1 2244.84 2454.3 1758.94 -1 0 0
450 1 1923.65 2423.2 3160.64 0 0 -1
451 1 1959.37 2764.19 2753.64 0 -1 -1
452 1 2115.05 2169.11 3121.4 0 0 0
453 1 3158.32 3143.41 2382.69 -1 0 0
454 1 1921.06 2186.79 2216.69 0 0 -1
455 1 2756.26 2625.41 3208.88 -1 0 -1
456 1 2983.06 1705.76 1638.61 0 1 0
457 1 2495.67 2787.6 2420.09 0 -1 -1
458 1 1876.24 2133.65 3027.04 0 1 -1
459 1 2019.28 2442.83 2168.04 0 -1 -1
460 1 3197.05 2482.18 2568.52 -1 -1 0
461 1 2868.27 2752.36 2502.38 0 -1 0
462 1 3020.52 2795.41 2599.1 -1 0 -1
463 1 3307.26 2007.54 3005.04 -1 0 -1
464 1 2700.71 2636.65 2677.18 0 0 0
465 1 1629.04 2751.61 2444.87 1 0 -2
466 1 2805.59 3030.35 2728.27 -1 -1 0
467 1 2712.83 2600.03 1758.38 0 1 0
468 1 3219.37 2847.32 1688.6 0 -1 1
469 1 2932.58 2527.57 2665.46 0 -1 -1
470 1 2926.12 3064.48 1779.48 -1 -1 -1
471 1 2932.06 2677.08 2307.61 0 0 0
472 1 2777.52 2995.73 1683.25 0 -1 0
473 1 1611.7 2384.33 3085.58 1 -1 0
474 1 3005.8 2336.2 2891.11 -2 -1 -1
475 1 2882.9 2521.69 1959.25 0 -1 0
476 1 2927.13 3372.1 2026.26 -1 -1 0
477 1 3208.36 2322.71 1921.51 0 -1 -1
478 1 2628.87 2487.91 1919.65 -1 -1 0
479 1 2628.25 1672.67 2272.88 0 0 -1
480 1 3270.26 2217.77 2455.66 -1 0 0
481 1 2975.33 1719.87 1587.11 0 1 1
482 1 2674.3 1905.85 2914.26 0 -1 -1
483 1 3030.56 2193.16 2864.79 -1 1 0
484 1 2805.82 2970.27 2329.23 -1 -1 0
485 1 2318.55 3156.17 2610.75 -1 -1 -1
486 1 3360.07 2978.17 1729.37 -1 -1 0
487 1 2749.75 2392.6 2774.44 -1 0 -1
488 1 2094.61 1712.12 2502.72 0 0 0
489 1 3166.34 2683.45 2082.15 -1 0 0
490 1 3024.42 2399.56 3056.32 -1 0 -1
491 1 2664.11 2765.68 2748.85 0 0 -1
492 1 2856.19 2541.9 3390.55 0 -1 0
493 1 2754.79 2453.1 2389.1 -1 0 0
494 1 2309.04 2388.01 3152.78 1 -1 0
495 1 3054.01 2841.13 2117.33 0 -1 0
496 1 2914.2 2625.86 2800.11 1 0 0
497 1 2639.31 3349.05 2655.97 -1 -1 0
498 1 2724.83 3010.17 2594.33 0 -1 0
499 1 2297.9 2517.92 1736.6 -1 0 -1
500 1 2733.04 3106.66 2300.25 0 -1 -1
501 1 2473.6 2753.4 2569.25 -1 0 -1
502 1 1721.97 3021.14 2984.89 -1 0 0
503 1 2486.57 2484.31 2911.21 0 0 0
504 1 2249.74 2611.79 2510.58 0 0 0
505 1 2004.67 2489.77 3307.17 -1 0 -1
506 1 1640.07 2091.7 2164.21 -1 0 0
507 1 3264.37 1979.03 3021.09 -1 0 -1
508 1 1842.43 1736.06 1871.19 0 0 -1
509 1 1853.22 1779.63 2518.77 0 0 0
510 1 2706.07 2331.14 2632.33 -1 -1 -1
511 1 3355.55 3083.31 2462.25 0 0 -1
512 1 1769.66 3106.59 3225 0 -1 -1
513 1 3058.18 2506.06 1952.19 0 -1 0
514 1 2813.92 2192.42 2244.19 -2 0 1
515 1 2495.24 2126.02 2426.52 -1 0 -1
516 1 2526.94 3337.99 2718.03 -1 -1 0
517 1 3022.8 3002.48 3229.08 0 -1 -1
518 1 2079.89 2891.65 2738.62 0 0 -1
519 1 2669.67 2601.57 2386.71 0 0 0
520 1 3064.95 2852.46 1673.93 -1 0 0
521 1 2509.86 2380.57 1694.71 -1 0 1
522 1 2479.43 2617.78 2127.77 -1 0 0
523 1 3043.57 2973.36 1774.72 0 0 0
524 1 2644.77 2410.1 2497.89 -1 -1 0
525 1 3083.87 2100.78 2997.09 0 0 -1
526 1 2029.51 2343.27 2656.63 0 0 0
527 1 1587.1 2165.81 2906.12 0 -1 -1
528 1 3182.8 2421.23 2190.53 0 1 0
529 1 2498.31 2614.4 1617.59 -1 -1 0
530 1 1911.38 2734.27 2605.71 0 0 0
531 1 2109.13 3357.46 1839.25 0 -1 0
532 1 3171.97 2606.67 1942.66 -1 0 0
533 1 3076.44 1671.2 2296.35 -1 0 -1
534 1 2330.34 1589.73 2880.48 0 0 -1
535 1 2687.12 3309.32 2485.27 -1 -2 0
536 1 2245.7 2558.76 2071.83 -1 0 0
537 1 2729.7 3015.67 2174.99 -1 -1 0
538 1 1945.24 1991.08 3122.37 0 0 -1
539 1 3097.68 2426.12 2685.01 -2 0 -1
540 1 2792.94 3179.84 2431.47 0 0 0
541 1 2488.03 2967.29 2887.64 0 0 -1
542 1 2353.41 2761.44 2405.5 0 -1 0
543 1 2276.64 2703.9 2640.94 0 0 -1
544 1 3022.64 1891.75 3004.56 -1 1 -1
545 1 2213.35 2849.1 2748.11 -1 0 -1
546 1 3225.43 1808.88 1756.72 -1 0 0
547 1 2483.67 2311.76 2378.36 0 -1 0
548 1 1842.64 1939.87 3011.33 0 0 0
549 1 2710.67 2496.66 3215.91 0 0 0
550 1 2074.22 2198.79 1696.68 0 0 0
551 1 2339.97 2708.28 1772.45 0 -1 0
552 1 2677.6 3325.87 3326.35 0 -1 -1
553 1 2910.67 2659.1 3329.74 -1 0 -1
554 1 2268.86 2416.91 2630.58 0 0 0
555 1 2034.82 2321.75 3121.95 0 0 0
556 1 2550.84 2971.41 2535.57 0 0 -1
557 1 2698.96 2641.38 2247.26 -1 0 0
558 1 2544.51 3277.96 2560.66 -1 0 -1
559 1 2541.35 3111.44 2889.62 -1 0 0
560 1 1878.28 2807.52 1590.1 0 0 0
561 1 3238.52 2365.45 2473.47 -1 -1 -1
562 1 1988.18 3252.5 3342 0 0 -1
563 1 3345.04 2506.89 2863.95 -1 0 0
564 1 2582.21 2729.45 3258.99 0 1 -1
565 1 3284.67 2653.45 3255.43 0 0 -1
566 1 3295.29 2196.77 2786.74 -1 0 1
567 1 2544.37 1744.19 2851.03 0 0 0
568 1 3027.89 2944.77 2545.83 -1 -1 -1
569 1 2710.75 2199.93 3071.68 0 0 0
570 1 1764.04 2940.02 2658.1 0 -1 0
571 1 2941.1 2832.96 1758.3 -1 -1 0
572 1 2551.98 2766.23 2716.49 -1 -1 0
573 1 2200.5 2300.42 3103.43 1 0 -1
574 1 2971.48 3152.79 3321.93 -1 0 0
575 1 1865.41 2404.65 2992.15 0 0 0
576 1 3275.76 2227.1 2826.85 0 -1 -1
577 1 3197.73 2595.71 2444.13 -1 -1 -1
578 1 1625.22 2627.24 2359.4 1 0 1
579 1 2926.73 3296.65 2550.88 0 0 -1
580 1 2367.49 2713.88 2426.7 0 1 1
581 1 1823.26 2249.01 2450.06 -1 0 0
582 1 3052.26 3113.04 2279.37 0 -1 0
583 1 2531.36 2427.96 2402.15 0 0 0
584 1 3234.99 3009.08 2359.75 0 0 1
585 1 3046.41 3147.27 3177.62 -1 -1 -1
586 1 2983.06 2132.85 3353.7 -1 -1 -2
587 1 1608.27 2165.19 2638.71 1 0 -1
588 1 1943.18 2389.56 1921.4 0 0 0
589 1 2861.13 3056.88 3351 1 -1 0
590 1 3267.9 2737.75 1927.67 -1 -1 1
591 1 2151.34 1855.89 3107.66 -1 -1 -1
592 1 1886.93 2304.78 2772.54 0 0 0
593 1 1725.98 2170.76 2985.26 0 0 0
594 1 2089.76 3090.71 2941.77 -1 1 0
595 1 2929.2 1614.76 2992.12 -1 0 -1
596 1 2863.98 2428.37 1822.01 1 0 0
597 1 2692.85 2583.48 3205.81 0 0 0
598 1 2959.45 3208.55 1758.2 0 -1 0
599 1 2270.88 3324.74 2600.83 -1 -1 0
600 1 2954.49 2083.39 2796.39 -1 0 -1
601 2 3390.65 2337.4 1825.51 -1 0 0
602 2 1840.46 1930.84 2246.13 1 0 0
603 2 3032.49 3211.16 2102.53 -1 0 1
604 2 3112.68 3065.42 2869.21 0 -1 0
605 2 1666.14 1632.87 3262.5 0 0 0
606 2 1624.67 2572.74 2157.68 1 0 0
607 2 2087.61 2615.32 2099.47 0 0 0
608 2 2780.15 3172.17 2585.56 0 -1 0
609 2 2951.69 2152.71 2367.97 0 0 0
610 2 2644.95 2976.14 2996.02 0 0 0
611 2 1726.67 2957.4 1691 0 0 1
612 2 2474.48 3347.46 2204.93 0 -1 0
613 2 1966.54 2566.92 2689.02 0 0 -1
614 2 2607.47 2005.26 2531.45 0 0 0
615 2 1647.05 2711.68 3209.44 0 0 0
616 2 3323.26 3301.37 1639.75 0 0 0
617 2 1726.72 2918.75 2166.19 0 -1 0
618 2 2463.53 3291.67 2956.67 0 0 0
619 2 2770.78 2021.63 2706.58 0 1 0
620 2 3356.45 3285.16 2452.68 -1 0 0
621 2 1592.23 3309.15 2847.57 0 0 -1
622 2 2258.6 3343.94 1686.11 0 0 0
623 2 2267.54 2559.14 3167.78 0 0 -1
624 2 1601.14 2338.72 2759.87 0 0 -1
625 2 2687.36 1887.69 3329.33 0 0 0
626 2 1744.53 3131.97 2813.37 1 0 -1
627 2 1961.97 1623.94 2624.33 0 1 0
628 2 3198.65 2574.51 2730.41 -1 0 0
629 2 2236.58 1950.6 2253.31 0 0 0
630 2 2532.58 1715.56 2071.5 0 1 0
631 2 3188.19 1788.78 3036.26 0 1 0
632 2 2124.01 3070.25 1940.76 0 -1 0
633 2 1718.51 3077.47 2368.65 0 -1 0
634 2 3084.13 2718.01 2881.9 -1 0 0
635 2 1690.97 1703.25 2221.62 0 0 0
636 2 2823.53 1816.46 2973.43 -1 0 0
637 2 1742.33 2145.28 2759.45 1 0 -1
638 2 1667.34 1899.41 2088.11 0 0 0
639 2 3156.42 2901.18 3291.79 0 0 0
640 2 2662.51 3392.81 2824.7 0 0 0
641 2 2321.62 1942.09 2643.38 0 0 0
642 2 2542.74 3046.52 1935.14 0 -1 0
643 2 1696.51 1611.62 2429.98 0 0 0
644 2 3352.96 2555.2 1831.26 -1 0 1
645 2 2563.69 3131.31 2187.83 0 -1 0
646 2 2188.11 3059.39 2173.34 0 -1 0
647 2 2107.93 2061.81 3285.59 0 0 0
648 2 2546.25 2660.4 2850.06 0 0 0
649 2 3129.74 2035.99 1610.37 -1 0 0
650 2 3149.99 2281.55 2277.04 0 0 0
651 2 3271.35 2018.9 2047.32 -1 0 0
652 2 1691.4 1682.64 1984.75 0 0 0
653 2 2933.81 2497.97 3190.8 0 0 -1
654 2 2500.05 3258.46 3373.85 0 -1 -1
655 2 2547.55 1900.31 2729.83 0 0 0
656 2 2755.68 1781.22 2748.73 0 0 0
657 2 3104.44 1954.53 2812.41 -1 0 -1
658 2 2607.32 2185.28 2753.63 -1 0 -1
659 2 1615.47 1964.76 2675.38 1 0 0
660 2 2393.94 2272.1 1891.96 0 0 0
661 2 2629.41 1646.83 1870.03 0 0 0
662 2 1862.73 1800.56 1668.31 0 0 0
663 2 1834.5 2910.87 2469.96 0 -1 0
664 2 2599.02 3115.04 3199.88 0 0 -1
665 2 2446.38 2365.79 2166.17 0 0 0
666 2 2577 3275.48 2007.49 0 -1 0
667 2 2855.72 1606.88 1833.89 0 0 0
668 2 1849.95 2314.53 2082.73 0 0 0
669 2 3209.48 2332.35 3084.95 -1 0 0
670 2 2110.1 1738.63 2897.23 0 0 -1
671 2 2815.38 1763.48 1659.38 0 0 1
672 2 1851.11 2556.26 2150.83 0 0 0
673 2 2269.72 2300.89 2398.13 0 0 0
674 2 3324.4 1610.55 2103.37 -1 0 0
675 2 3004.48 2853.3 3084.71 -1 0 0
676 2 2591.5 1851.33 1734.33 0 0 0
677 2 1971.08 3008.68 2090.68 0 -1 0
678 2 3213.48 2942.04 1853.68 -1 -1 0
679 2 1953.9 3062.48 3213.78 0 0 0
680 2 3131.28 1864.57 2137.68 -1 0 0
681 2 2254.08 3191.27 2916.09 0 0 0
682 2 2907.75 2342.8 2221.76 0 0 0
683 2 2387.81 2966.95 2609.59 0 -1 0
684 2 1798.53 3152.91 2166.55 0 -1 0
685 2 1837.88 3260.83 3191.98 0 0 -1
686 2 1832.02 2437.66 1740.93 0 0 0
687 2 2521.76 2901.1 3165.65 -1 -1 0
688 2 2981.03 3107.53 2456.66 -1 -1 0
689 2 2075.38 3252.85 3119.84 0 -1 0
690 2 3290.44 3092.23 3372.91 0 1 -1
691 2 2600.54 2294.99 2011.23 -1 0 0
692 2 1991.32 1594.78 2954.18 0 0 -1
693 2 3212.93 3294.27 2251.41 -1 -1 0
694 2 1751.12 2751 2714.42 0 0 0
695 2 2725.5 2055.03 2094.92 0 0 0
696 2 2372.22 1646.84 3050.16 0 1 0
697 2 1830.54 1959.2 2564.31 0 0 0
698 2 1866.27 2414.75 2519.31 1 0 0
699 2 2466.37 1624.81 1688.3 0 0 0
700 2 1615.74 2466.23 1652.55 0 0 0
701 2 3407.72 2904.61 2694.33 0 -1 -1
702 2 1747.67 2462.11 2343.51 0 0 0
703 2 1926.82 3201.76 1979.51 0 0 0
704 2 2161.64 3137.51 2389.42 0 -1 0
705 2 1965.8 1845.34 2847.49 0 0 -1
706 2 1828.79 2588.75 3399.27 0 0 0
707 2 1820.39 3116.79 2588.38 0 -1 0
708 2 1756.45 2617.83 2512.31 1 0 0
709 2 1749.61 1608.62 3042.99 0 0 0
710 2 2747.98 1668.57 3291.13 0 0 -1
711 2 1915.22 3024.34 1823.51 0 -1 0
712 2 2101.98 2698.34 3126.77 0 0 -1
713 2 2322.77 2458.92 2629.98 0 0 -1
714 2 2928.69 1881.84 2262.85 -1 0 0
715 2 2574.74 2224.46 1774.98 0 0 0
716 2 2273.3 2968.56 1630.9 0 0 0
717 2 3113.75 1604.05 3328.89 -1 0 -1
718 2 2680.99 2423.2 2179.29 -1 0 0
719 2 1881.93 1780.78 2066.77 0 0 0
720 2 1607.9 1901.56 3337.87 0 0 -1
721 2 3317.88 2430.83 2024.56 0 0 0
722 2 3391.64 3083.86 2151.03 -1 -1 0
723 2 2706.82 3162.9 3412.89 0 0 -1
724 2 3112.09 3281.63 2511.33 0 -1 0
725 2 2140.8 3381.45 2776.06 0 -1 -1
726 2 2211.62 2145.65 1812.03 0 0 0
727 2 3230.87 2428.09 1680.32 -1 0 0
728 2 2237.62 2089.12 2445.12 0 0 0
729 2 2978.81 1658.93 2487.64 -1 0 0
730 2 2994.74 2898.55 1929.45 -1 -1 0
731 2 2267.18 2740.19 3388.92 0 0 0
732 2 3309.08 1702.15 3406.16 -1 0 -1
733 2 2193.2 1681.08 1883.62 0 1 0
734 2 1740.48 2210.56 2251.8 0 0 0
735 2 2357.56 1737.13 2499.79 0 0 0
736 2 2167.21 3308.19 2009.76 0 -1 0
737 2 2109.45 2834.49 2027.41 -1 0 0
738 2 3273.17 2818.9 3108.54 0 0 0
739 2 2198.5 3062.3 3102.2 0 0 0
740 2 2939.17 1735.51 2089.35 0 0 0
741 2 2671.05 1981.26 3071.54 -1 1 0
742 2 2517.93 2052.47 1596.52 0 0 0
743 2 3385.79 2036.64 2456.61 -1 0 0
744 2 2603.71 2202.74 2210.7 0 0 0
745 2 2149.59 3128.12 3313.81 0 0 -1
746 2 2134.23 2636.22 1733.16 0 0 0
747 2 2815.6 3011.88 3139.75 0 0 -1
748 2 2425.45 1767.66 1877.73 0 0 0
749 2 2178.73 1992.22 2792.8 0 0 0
750 2 1679.32 1843.6 2416.72 0 0 0
751 2 3381.83 2700.72 2610.46 0 0 -1
752 2 3100.77 1609.97 2694.21 0 1 0
753 2 1658.56 2255.41 2035.3 0 0 0
754 2 2791.64 2353.94 3303.83 -1 0 0
755 2 2301.44 2045.15 3048.35 0 0 0
756 2 2607.94 3124.41 2415.17 0 -1 0
757 2 2372.3 2147.77 2283.96 0 0 0
758 2 3216.01 3245.14 2751.35 -1 -1 0
759 2 2746.1 1609.65 2070.23 0 0 0
760 2 2477.02 2660.34 3077.49 0 0 -1
761 2 1996.93 3207.71 1711.75 0 -1 0
762 2 2035.91 2019.84 2153.87 0 0 0
763 2 1751.2 2018.29 1668.68 0 0 0
764 2 2363.72 2938.55 2054.16 0 -1 0
765 2 1936.41 2332.72 2310.9 0 0 0
766 2 3244.82 1979.87 1793.84 -1 0 0
767 2 2382.13 1882.7 2076.79 0 1 0
768 2 1903.02 1708.27 2312.84 0 0 0
769 2 1840.15 3373.2 2119.89 0 -1 0
770 2 1627.67 2285.91 2453.64 1 -1 0
771 2 1692.48 2835.99 3044.93 1 0 -1
772 2 1947.98 2099.64 2377.01 0 0 0
773 2 3015.96 1763.09 1621.12 -1 0 1
774 2 1819.81 3142.11 3383.89 0 -1 -1
775 2 3330.99 3383.31 1880.36 -1 -1 0
776 2 2911.51 2853.06 3271.01 -1 0 -1
777 2 3266.53 2640.18 1622.45 -1 0 0
778 2 2044.68 2161.82 2792.59 0 0 -1
779 2 2892.81 1985.94 1592.04 -1 0 0
780 2 3038.5 2558.13 1601.16 -1 0 0
781 2 3145.62 1612.93 1735.51 -1 0 0
782 2 2505.47 2126.12 3021.7 0 0 0
783 2 1897.19 3148.03 2996.32 0 -1 -1
784 2 1691.65 1751.29 2617.95 0 0 -1
785 2 3083.74 3119.12 1891.33 -1 -1 0
786 2 1789.74 1912.45 1886.21 1 0 0
787 2 2549.72 2821.88 1973.08 0 0 0
788 2 2387.22 2057.49 2839.13 0 0 0
789 2 1709.49 2118.77 3291.73 0 0 -1
790 2 3327.12 1909 2288.84 -1 0 0
791 2 3224.95 1606.38 2894.13 0 0 -1
792 2 2025.25 2492.33 3372.35 0 0 -1
793 2 1992.95 1742.77 3310.55 0 0 0
794 2 3100.07 1841.66 2623.1 -1 0 0
795 2 1962.4 3048.34 2767.27 0 0 0
796 2 1729.37 2499.65 3163.62 0 0 -1
797 2 3109.98 3395.84 3082.82 -1 -1 -1
798 2 1930.8 3289.66 2767.54 0 0 0
799 2 3172.01 2113.49 3141.34 -1 1 -1
800 2 3182.46 3013.02 3096.63 -1 0 -1
801 2 2246.45 2219.89 2893.17 0 0 0
802 2 1819.81 1661.49 2809.76 0 1 0
803 2 2542.5 3237.79 1774.85 0 -1 0
804 2 2498.65 2812.35 2205.66 0 -1 0
805 2 2206.33 1719.82 2317.5 0 0 0
806 2 3359.94 2863.42 2027.55 -1 -1 0
807 2 3216.76 3234.35 3222.19 -1 0 -1
808 2 2906.68 2311.44 1966.42 -1 0 0
809 2 3283.25 1803.95 2761.43 0 0 0
810 2 2456.12 1825.7 3372.8 0 0 -1
811 2 1732.14 1830.93 3136.35 1 0 0
812 2 2586.84 1768.53 3147.31 0 0 -1
813 2 2356.75 1774.99 2794.11 0 0 0
814 2 1906.06 2766.35 2064.94 0 0 0