ITEM: TIMESTEP
144000
ITEM: NUMBER OF ATOMS
1000
ITEM: BOX BOUNDS pp pp pp
1.5576282145760297e+03 3.4423717854236061e+03
1.5576282145760297e+03 3.4423717854236061e+03
1.5576282145760297e+03 3.4423717854236061e+03
ITEM: ATOMS id type x y z ix iy iz
1 2 3307.16 3158.86 1745.53 0 0 0
2 2 1888.06 1631.48 2627.12 0 1 -1
3 2 2156.94 3403.34 1751.61 0 -1 1
4 2 1869.58 2067.39 2928.74 0 0 -1
5 2 3313.35 1561.49 2929.51 0 0 -1
6 2 2080.9 2449.06 2095.84 -1 0 -1
7 2 2167.36 2358.09 2125.79 0 0 0
8 2 1625.24 3343.38 2552.06 0 0 0
9 2 3293.1 2451.94 2223.64 -1 0 0
10 2 1955.78 3219.45 2889.5 0 0 0
11 2 2824.52 2375.19 2930.61 0 0 0
12 2 1583.69 3171.59 2908.55 0 0 -1
13 2 1651.03 2288.63 1726.07 1 0 1
14 2 1685.12 3186.08 1965.05 0 0 0
15 2 3284.81 1695.35 3149.78 0 0 -1
16 2 1917.39 3403.78 1712.24 0 -1 0
17 2 2448.24 2086.72 3256.33 2 1 0
18 2 2362.24 2304.38 3158.76 0 1 -1
19 2 2290.74 1937.36 3373.18 0 0 0
20 2 3356.45 1679.28 2899.57 0 1 0
21 2 1943.06 2530.19 1746.5 0 1 1
22 2 1692.69 3071.23 1890.32 0 0 1
23 2 2845.46 3021.76 2008.84 -1 1 0
24 2 1587.08 1949.95 3294.92 1 0 -1
25 2 2279.52 1631.84 1571.81 0 1 1
26 2 2825.85 2249.7 2691.91 0 0 1
27 2 1861.92 2875.3 3237.14 0 0 0
28 2 1666.3 2423.25 3410.62 0 0 0
29 2 3342.3 2190.71 2550.06 -1 1 0
30 2 3232.73 1890.91 3383.59 -1 1 0
31 2 1744.32 3062.88 3227.28 0 -1 0
32 2 1669.57 3424.46 2646.64 0 0 0
33 2 2167.26 2087.82 2136.33 0 0 0
34 2 2192.57 1833.42 3345.22 0 1 0
35 2 3113.32 3222.69 3417.72 0 -1 0
36 2 2238.37 1566.6 2866.1 0 1 0
37 2 1758.44 1741.01 2644.61 0 0 0
38 2 1597.72 2632.01 1615.24 0 1 0
39 2 3377.86 2473.72 1805.86 -1 1 0
40 2 2198.89 2058.45 3190.04 0 -1 0
41 2 1779.05 3074.11 2003.11 1 -1 0
42 2 3342.38 2312.88 1612.97 -1 0 0
43 2 1793.49 2418.17 2181.61 1 0 1
44 2 3017.84 2885.44 3153.64 1 -1 0
45 2 1716.7 2326.51 2131.89 0 0 0
46 2 3039.98 1689.7 2153.31 0 1 0
47 2 3378.05 2690.97 2295.19 -1 0 0
48 2 1579.06 2540.16 1715.58 1 0 0
49 2 3148.98 2372.49 1559.99 0 0 1
50 2 2346.19 3127.67 1969.33 0 0 1
51 2 2922.93 1690.74 2969.04 -1 1 1
52 2 2703.64 2364.26 2022.55 0 0 0
53 2 2118.09 2425.23 1745.15 0 0 1
54 2 1895.46 1743.77 2702.27 0 1 0
55 2 2651.72 2087.46 2717.63 0 0 -1
56 2 2024.56 2116 2138.88 0 0 0
57 2 1938.91 2311.26 2996.84 0 0 -1
58 2 1563.85 2099.16 2561.58 0 0 0
59 2 2859.05 2376.24 2094.11 -1 2 0
60 2 2095.88 3245.38 1718.62 0 0 0
61 2 3389.62 2343.86 2506.09 -1 0 0
62 2 3229.87 3157.72 3074.21 0 -1 0
63 2 1618.34 3258.79 3430.31 0 0 0
64 2 3368.53 2436.01 1684.18 0 0 1
65 2 2742.14 2162.79 2782.76 0 -1 0
66 2 3065.71 1728.78 3005.24 0 0 -1
67 2 2710.28 1626.62 2884.94 0 1 1
68 2 1846.15 2258.95 2452.58 0 0 1
69 2 2666.18 1957.19 1877.79 0 0 0
70 2 2289.34 3237.08 2959.3 0 0 0
71 2 1579.58 1688.6 1710.25 0 0 1
72 2 2780.87 2271.49 2568.53 -1 -1 0
73 2 3043.11 1652.08 1994.44 -2 -1 0
74 2 2150.94 1604.74 3401.43 0 1 -1
75 2 3136.96 2059.09 1697.9 0 0 0
76 2 2743.2 2617.92 2225.44 0 -1 0
77 2 3114.7 1919.04 1808.11 -1 1 1
78 2 1633.66 1858.17 2666.24 0 0 0
79 2 3370 2716.67 1598.16 -1 0 0
80 2 2175.16 3155.78 1835.86 0 0 -1
81 2 2315.99 1614.24 3319.35 0 2 0
82 2 2895.92 3069.01 2207.56 -1 0 -1
83 2 2399.13 3171.5 2582.72 0 0 0
84 2 2572.64 1980.19 1726.06 1 1 1
85 2 3075.95 1783.62 1765.49 0 1 0
86 2 3398.65 2354.24 1877 -1 0 1
87 2 1834.51 2142.93 2539.76 1 0 0
88 2 3441.52 3051.33 1661.39 -1 0 1
89 2 1595.49 2593 1855.29 1 0 1
90 2 3288 2265.03 3266.95 0 1 -1
91 2 2614.49 2984.91 2985.13 0 0 -1
92 2 2260.85 2315.9 1581.22 -1 0 0
93 2 2368.12 1621.23 1702.15 0 0 1
94 2 2358.85 2135.38 3337.45 1 1 -1
95 2 1796.23 2146.44 3004.04 0 0 -1
96 2 2101.95 3183.19 1595.16 1 0 1
97 2 3098.07 3303.95 2889.62 0 -1 0
98 2 3183.41 1718.9 1802.54 0 0 0
99 2 1686.01 2067.53 1623.02 0 0 0
100 2 2171.15 1815.16 3211.19 1 0 0
101 2 2415.2 2345.64 2809.98 0 0 0
102 2 2030.84 3348.56 1775.85 0 -1 0
103 2 3420.2 1915.9 2012.85 -1 0 0
104 2 2356.27 1713.21 1799.19 0 0 0
105 2 2237.97 1923.84 2902.96 0 0 0
106 2 2476.71 2042.17 1784.81 0 0 0
107 2 1834.46 2063.88 2304.57 0 0 0
108 2 3334.16 3263.67 1852.78 -1 0 0
109 2 2088.54 2027.08 2020.1 0 0 0
110 2 1857.65 2377.83 1661.31 0 0 0
111 2 1691.53 3120.07 3037.71 1 -1 -1
112 2 3303.95 1684.38 2301.79 -1 -1 0
113 2 2028.5 3267.26 2185.75 0 -1 0
114 2 2969.16 2459.69 1914.58 0 0 1
115 2 3365.73 2037.77 3268.82 -1 0 -1
116 2 1943.38 2047.28 2520.35 0 0 0
117 2 2254.02 3263.95 2007.18 0 -1 1
118 2 1666.95 3293.22 2673.71 0 -1 0
119 2 2217.39 1743.2 1810.04 0 0 0
120 2 3346.93 3404.45 2213.73 -1 -1 0
121 2 3358.15 1992.12 2364.77 -1 0 0
122 2 1772.11 1564.84 3408.75 0 0 -1
123 2 1999.83 2080.59 1647.55 0 0 0
124 2 1889.19 1769.23 1651.1 0 0 0
125 2 1670.81 3266.24 1694.8 0 -1 0
126 2 3436.56 2098.37 1846.8 -1 0 0
127 2 3377.83 2231.07 2351.29 -1 0 0
128 2 1886.73 1617.97 1904.37 0 0 0
129 2 1639.22 2220.09 3281.14 0 0 -1
130 2 1603.14 1737.31 2455.29 0 0 0
131 2 1753.71 1624.61 2578.74 0 0 -1
132 2 1771.12 2447.35 3314.48 0 0 -1
133 2 2177.25 1875.91 1847.36 0 0 0
134 2 1734.09 3176.06 1616.02 1 -1 1
135 2 1901.23 2123 1928 0 0 0
136 2 3379.57 2438.01 2612.29 0 -1 -1
137 2 2851.52 2124.26 2683.48 0 1 0
138 2 1748.88 2003.34 2655.83 0 0 0
139 2 3224.24 2008.52 2123.51 -1 0 0
140 2 2871.97 2408.7 1830.93 -1 -1 0
141 2 2722.28 2020.95 3138.87 -1 0 0
142 2 1590.75 2366.78 1628.43 0 0 0
143 2 2077.91 1775.52 1810.64 0 0 0
144 2 1611.72 1981.77 2113.14 0 0 0
145 2 2173.62 2034.2 2855.13 0 0 0
146 2 2217.51 2334.36 1718.02 0 0 0
147 2 1676.61 1895.07 2005.58 0 0 0
148 2 2071.93 1775 3370.82 0 0 -1
149 2 2154.25 1762.59 1952.68 0 0 0
150 2 3355.23 2361.63 2715.83 -1 0 0
151 2 2381.01 2158.79 2043.71 0 0 -1
152 2 3369.47 2108.29 2448.13 -1 0 -1
153 2 2026.95 1647.92 2255.9 0 0 0
154 2 2021.81 2208.55 1728.6 0 0 0
155 2 2311.12 1688.71 2397.31 0 0 0
156 2 3294.34 1721.68 1889.86 -1 0 0
157 2 3171.44 1682.29 1951.88 0 0 0
158 2 2564.47 1603.19 1906.81 0 0 0
159 2 1804.07 3251.94 1992.89 0 -1 0
160 2 1860.91 2351.36 3274.3 1 0 0
161 2 3248.16 2038.34 3374.81 -1 0 -1
162 2 2232.55 1733.85 2180.01 0 0 0
163 2 3158.3 3294.7 2142.12 0 0 0
164 2 2826.56 1839.51 2332.78 0 0 0
165 2 2087.47 1881.61 1718.2 0 0 0
166 2 3268.5 2254.89 1719.83 0 0 0
167 2 1995.52 1685.78 2548.72 0 0 0
168 2 1849.83 1899.37 1694.88 0 0 0
169 2 1686.21 1657.89 1597.87 0 0 0
170 2 2941.12 3081.55 2571.17 -1 0 0
171 2 1868.91 3072.66 2130.2 0 -1 0
172 2 1612.66 2016.49 1738.7 0 0 0
173 2 1987.97 2410.37 1708.09 0 0 0
174 2 3316.34 1917.04 2466.37 -1 0 -1
175 2 1667.98 1927.88 1623.69 0 0 0
176 2 1926.03 2423.99 2465.31 0 0 0
177 2 3328.62 2961.44 2291.91 0 -1 0
178 2 1726.67 2346.68 1619.34 0 0 0
179 2 2108.2 2221.12 2051.23 0 0 0
180 2 1794.52 3328.33 1709.44 0 -1 0
181 2 3216.77 3255.98 2889.2 -1 -1 -1
182 2 2259.87 1609.93 1774.59 0 0 0
183 2 3298.74 1680.73 2022.78 -1 0 0
184 2 1685.07 2090.21 2068.71 0 0 0
185 2 2084.97 1568.3 2343.12 0 0 0
186 2 1876.07 2425.3 1794.16 0 0 0
187 2 3298.18 2115.75 2323.11 -1 0 0
188 2 3399.31 1811.45 1656.15 -1 0 0
189 2 2478.8 2039.7 2251.46 0 0 -1
190 2 2532.86 1711.99 1835.77 0 0 0
191 2 1834.9 1947.18 3341.67 0 0 -1
192 2 1630 2161.94 1944.02 0 0 0
193 2 1962.11 2206.42 2517.82 0 1 0
194 2 1919.08 2490.14 1617.35 0 0 0
195 2 1599.4 2416.32 1760.24 0 0 0
196 2 2427.7 1700.81 1916.22 0 0 0
197 2 1769.89 2130.36 1718.61 0 0 0
198 2 2489.43 1921.44 1977.33 0 0 0
199 2 1886.02 1941.21 2098.22 0 0 0
200 2 1601.88 2460.27 1905.63 0 0 0
201 2 2812.34 2916.62 2929.18 0 -1 -1
202 2 1569.15 2219.05 2470.63 0 0 0
203 2 1803.4 3289.29 1849.67 0 -1 0
204 2 2502.53 1925.28 2744.37 0 0 0
205 2 3368.1 1682.14 2426.92 -1 0 0
206 2 1707.62 2083.5 2564.93 0 0 0
207 2 2986.21 2830.77 2692.69 0 0 0
208 2 1679.52 1848.17 2401.61 0 0 0
209 2 3269.07 3184.66 2101.49 1 -2 2
210 2 2245.12 2178.52 2054.26 0 0 0
211 2 2331.85 1602.33 1897.67 0 0 0
212 2 2349.59 2906.81 2898.77 -1 -2 -1
213 2 2212.77 1682.31 2051.18 0 0 0
214 2 2128.66 3208.15 1964.45 0 -1 0
215 2 2538.56 1929.42 1848.54 0 0 0
216 2 2019.86 3388.86 3303.58 0 -1 -1
217 2 3247.03 3440.63 1991.78 -1 -1 0
218 2 2495.33 1999.23 1597.08 1 1 0
219 2 1921.86 3370.76 1863.38 0 -1 0
220 2 3296.75 2107.9 1856.25 -1 0 0
221 2 2988.5 1781.51 2103.95 1 0 -1
222 2 1604.46 1787.66 2059.87 0 0 0
223 2 2641.73 3048.58 2745.23 0 -2 -1
224 2 1881.75 3245.36 2643.84 0 -1 -1
225 2 2055.54 1663.72 1911.95 0 0 1
226 2 2222.49 1850.05 1711.65 0 0 0
227 2 1981.7 2124.98 3297.93 0 0 0
228 2 2407.38 2155.19 1722.27 0 0 0
229 2 1762.06 1727.84 1693.04 0 0 0
230 2 2096.94 2024.96 3272.62 0 0 -1
231 2 1909.55 1666.26 2362.3 0 0 0
232 2 2143.53 2232.09 2363.76 0 0 0
233 2 1930.65 1628.7 1617.81 0 0 0
234 2 2313.14 1843.81 1843.83 0 0 0
235 2 1947.85 2104.95 1788.3 0 0 0
236 2 1774.23 1838.21 1590.34 0 0 0
237 2 3185.36 1968.96 1594.9 -1 0 0
238 2 1613.45 1858.88 2529.93 0 0 0
239 2 1617.54 2148.41 3411.47 0 0 -1
240 2 2464.34 2042.4 2048.65 0 0 0
241 2 3082.79 2609.97 3424.57 -1 0 -1
242 2 2293.03 1741.03 3346.38 0 0 0
243 2 2756.41 2992.65 2695.6 0 0 0
244 2 1992.21 1894.34 2392.14 0 0 0
245 2 1740.1 2122.82 3247.47 0 0 -1
246 2 2210.92 1611.23 2382.37 0 0 -1
247 2 1919.47 2295.89 1758.96 0 0 0
248 2 3226.81 2051.25 1966.01 -1 0 0
249 2 3400.23 3190.77 2174.17 -1 -1 0
250 2 3023.5 2192.3 3361.16 -1 1 -1
251 2 2083.85 3300.79 3386.88 0 -1 0
252 2 1745.93 1839.5 2273.79 0 0 0
253 2 3270.8 2333.17 3382.25 0 0 -2
254 2 2444.65 1578.34 1970.47 0 0 0
255 2 1657.01 3196.55 2178.95 1 0 0
256 2 3269.93 2198.19 2441.06 0 1 -1
257 2 2112.48 1588.83 2020.88 0 0 0
258 2 1821.97 2587.42 1598.21 0 0 0
259 2 2046.48 2058.25 3400.9 0 0 -1
260 2 1873.55 2228.03 3330.38 0 0 -1
261 2 2245.89 1953.49 1622.02 0 0 0
262 2 1741.13 2444.4 1904.58 0 0 0
263 2 2119.06 1816.66 2346.6 0 0 0
264 2 1760.14 1589.88 2990.94 0 0 -1
265 2 1803.34 1922.87 1833.5 0 0 0
266 2 2290.26 1732.57 1934.8 0 0 0
267 2 1863.32 1749.26 2253.92 0 0 0
268 2 2133.66 2297.55 3429.03 0 0 -1
269 2 2496.39 2600.45 2201.91 0 0 0
270 2 2719.5 1676.52 2983.76 0 -1 -1
271 2 2139.99 3252.3 2095.71 0 -1 0
272 2 3377.75 1794.9 2506.56 -1 0 0
273 2 1721.13 2194.45 2472.91 0 0 0
274 2 1898.17 1618.6 2208.06 0 0 0
275 2 2063.1 2367.83 1986.7 0 0 0
276 2 2669.34 1724.52 2903.83 -1 1 0
277 2 1726.44 1857.26 1732.14 0 0 0
278 2 3016.85 2560.59 2005.45 0 0 0
279 2 2002.57 2448.82 1832.39 0 0 0
280 2 1574.61 3260.73 1923.04 0 -1 0
281 2 1605.37 3382.37 2418.34 0 -1 -1
282 2 3196.31 2196.1 2312.21 0 0 0
283 2 3286.97 1893.81 1626.4 -1 0 0
284 2 3414.87 1958.94 1856.58 -1 0 0
285 2 1816.31 2543.45 1825.74 0 -1 0
286 2 2368.42 2259.23 3389.22 -1 0 -1
287 2 2055.96 1964.05 2495.76 0 0 0
288 2 2118.26 1643.95 1780.16 0 0 0
289 2 2719.25 2179.59 1765.52 0 0 1
290 2 3244.85 2235.17 2100.07 -1 0 0
291 2 1726.25 1636.98 2424.92 0 0 0
292 2 1877.51 1896.57 3101.51 1 0 0
293 2 3356.81 1994.41 2118.29 -1 0 0
294 2 3219.33 1579.19 2257.18 0 0 0
295 2 1873.22 2156.14 3210.6 0 0 -1
296 2 1678.37 3403.9 1655.83 0 -1 0
297 2 1654.21 2338.62 1891.12 0 0 0
298 2 1597.83 2008.04 3414.98 0 0 -1
299 2 1586.14 3298.89 2175.31 0 -1 0
300 2 1758.51 2077.82 2186.27 0 0 0
301 2 1916.78 1810.99 2054.73 0 0 0
302 2 1694.95 2084.57 2314.36 0 0 0
303 2 2256.96 2084.96 1681.94 0 0 0
304 2 2202.67 2010.52 2442.61 0 -1 0
305 2 3146.17 3051.37 2674.86 0 -1 0
306 2 3227.71 2129.93 2198.14 -1 0 0
307 2 2101.09 1949.33 3162.79 -1 0 -1
308 2 3297.2 1638.32 2162.25 -1 0 0
309 2 2298.41 2110.65 1932.02 0 0 0
310 2 2543.11 3306.54 2242.52 -1 -1 0
311 2 2113.49 2863.15 2067.61 0 0 -1
312 2 1959.44 3251 3416.54 0 -1 -1
313 2 2039.04 2339.38 2108.45 0 0 0
314 2 2003.23 1703.83 1714.43 0 0 0
315 2 2030.5 2397.52 1583.84 0 0 0
316 2 2276.73 1826.16 1585.37 0 0 0
317 2 2458.68 1733.08 1726.05 0 0 0
318 2 1771.67 2147.28 2650.57 0 0 0
319 2 1602.6 2439.78 2300.49 0 0 0
320 2 1821.67 1949.07 2223.36 0 0 0
321 2 2850.96 1577.36 2694.97 -1 0 -1
322 2 1850.65 1751.32 1947.31 0 0 0
323 2 1718.43 2425.47 2299.64 0 0 0
324 2 1770.25 1614 2704.67 0 0 -1
325 2 1693.45 3282.71 2089.99 0 -1 0
326 2 3413.45 1722.3 1962.88 -1 0 0
327 2 1671.2 1731.84 2322.36 0 0 0
328 2 2010.08 1678.11 2672.09 0 0 0
329 2 3203.31 3387.85 2876.35 0 -1 0
330 2 1618.86 2670.07 1753.91 0 0 0
331 2 3287.48 2371.34 1798.24 -1 0 0
332 2 2645.66 2139.12 3330.01 0 -1 0
333 2 1650 2343.41 2257.71 0 0 0
334 2 2129.47 1750.02 1681.21 0 0 0
335 2 1969.37 3160.83 2584.6 0 0 -1
336 2 1992.01 1779.41 2297.49 0 0 0
337 2 2302.09 2061.32 3434.28 0 0 -1
338 2 2464.29 2354.3 2450.94 0 -1 -1
339 2 1879.17 3403.01 2536.85 0 -1 -1
340 2 2372.39 1935.58 2282.76 0 0 0
341 2 1692.78 2555.63 3438.38 0 0 -1
342 2 2510.72 2178.6 2080.33 0 0 0
343 2 3375.1 2227.92 2106.72 -1 0 0
344 2 1975.41 2220.03 1864.59 0 0 0
345 2 3320.12 2175.52 1613.09 -1 0 0
346 2 2094.03 2353.12 2402.77 0 -1 0
347 2 2168.06 2102.44 1566.96 -1 0 0
348 2 1794.98 2324.91 1863.63 0 0 0
349 2 1913.96 3265.99 1746.81 0 -1 0
350 2 2188.85 2225.27 2167.4 0 0 0
351 2 1847.26 1859.29 3221.22 0 0 0
352 2 1735.48 1752.45 2513.87 0 0 0
353 2 3395.27 1669.13 2562.97 -1 0 0
354 2 1845.76 1700.65 2105.27 0 0 0
355 2 1792.11 2310.86 2251 0 0 0
356 2 1675.07 1860.48 2155.46 0 0 0
357 2 3136.47 2283.87 2514.08 0 0 0
358 2 2034.55 1917.9 3410.75 0 0 -1
359 2 1775.59 1683.66 1852.28 0 0 0
360 2 2826.19 2357.96 1941.86 0 0 0
361 2 1568.23 1726.84 3436.03 0 0 -1
362 2 2079.02 3188.74 2303.21 0 0 0
363 2 1950.18 3424.76 2318.01 0 -1 0
364 2 2226.16 3143.36 2041.66 0 -1 0
365 2 2530.22 2185.06 2207.13 0 0 0
366 2 3247.98 2102.29 3254.08 0 0 -1
367 2 2962.31 1945.51 3070.12 0 0 0
368 2 1582.32 2523.56 2696.66 0 -1 0
369 2 2003.56 2044.36 2393.17 0 0 0
370 2 3240.75 2117.85 1720.95 -1 0 0
371 2 2044.87 1811.77 2500.11 0 0 0
372 2 2755.59 2034.19 2503.72 0 0 0
373 2 2807.88 2295.94 1809.46 0 0 1
374 2 2367.42 2194.7 1852.02 0 0 0
375 2 2535.62 2433.92 2944.73 -1 0 0
376 2 3346.75 3219.78 1991.77 0 0 0
377 2 3316.45 2247.78 1848.65 -1 0 0
378 2 1986.14 2116.47 2887.6 1 0 -1
379 2 1887.8 2406.76 3107.11 0 0 -1
380 2 2763.87 1790.8 3321.83 -1 0 -1
381 2 2381.18 1923.41 1593.22 0 0 0
382 2 2780.47 1712.61 2902.74 0 0 0
383 2 2908.67 2486.59 1706.06 -1 -1 -1
384 2 2084.68 2090.73 2728.84 0 0 0
385 2 1978.09 1875.66 2737.14 0 -1 0
386 2 2159.9 1972.61 3386.05 0 0 -1
387 2 1989.63 3433.18 1968.33 0 -1 0
388 2 1745.44 1773.29 2036.67 0 0 0
389 2 1779.67 3155.37 2585.94 0 -1 -1
390 2 2003.56 3122.52 1953.69 0 -1 1
391 2 1697.72 1619.31 1756.77 0 0 0
392 2 3199.15 2191.85 1827.17 -1 0 0
393 2 1577.55 2278.53 1998.72 0 0 0
394 2 1676.19 2427.07 2433.77 0 1 0
395 2 1707.35 1574.45 1902.82 0 0 0
396 2 1992.91 3132.79 2142.82 0 -1 0
397 2 2016.26 1793.53 1954 0 0 0
398 2 3226.86 3259.26 1792.56 -1 -1 1
399 2 1634.46 2978.44 1802.49 0 -1 0
400 2 2945.35 3313.84 1718.87 -1 -1 0
401 2 1596.85 3441.42 2138.33 0 -1 0
402 2 1564.97 1589.12 1611.48 0 0 0
403 2 1944.68 1975.92 2282.15 0 0 0
404 2 1737.47 1818.18 1900.5 0 0 0
405 2 1673.07 2352.9 3280.97 0 0 -1
406 2 3391.44 1909.5 2584.15 0 0 0
407 2 2952.93 1764.79 3050.2 -1 0 0
408 2 2431.14 3248.79 2708.32 0 -1 0
409 2 1599.03 1831.43 1909.21 0 0 0
410 2 1577.37 1868.25 3425 1 1 0
411 2 1962 2148.34 2753.39 0 0 0
412 2 3069.27 1676.8 1862.22 -1 1 1
413 2 1896.19 2133.17 2409.14 0 0 0
414 2 3272.71 3231.58 3248.97 -1 -1 -1
415 2 1835.38 1794.95 1792.34 0 0 0
416 2 1665.82 1614.6 2244.83 0 0 0
417 2 3279.46 1932.6 2017.57 -1 0 0
418 2 2278.08 1715.53 3217.74 0 0 0
419 2 1803.59 3218.95 3381.64 1 0 -1
420 2 2526.52 2071.3 3356.3 0 0 0
421 2 2144.99 3343.11 1987.03 0 -1 0
422 2 1576.62 2338.67 2135.42 0 0 0
423 2 1856.15 2307.52 2126.78 0 0 0
424 2 3197.94 1616.14 3296.74 -1 1 -1
425 2 2317.87 2946.94 3022.62 0 -1 -1
426 2 3264.52 2500.59 1733.09 0 0 0
427 2 1707.82 1991.4 3250.92 0 0 0
428 2 2171.48 1619.02 1649.16 0 0 0
429 2 3337.58 3267.86 1588.31 -2 0 1
430 2 1636.44 2145.03 3168.29 0 0 -1
431 2 1765.48 2143.99 1938.75 0 0 0
432 2 2014.99 3215.79 2043.81 0 -1 0
433 2 2147.49 1859.65 1591.43 0 0 0
434 2 3151.62 1622.4 2068.11 -1 0 0
435 2 3218.18 2310.21 1912.13 -1 0 0
436 2 3376.84 2172.32 1742.77 -1 0 0
437 2 1917.58 1785.72 2439.64 0 0 0
438 2 1652.05 2093.1 2666.62 0 1 0
439 2 1964.36 2255.26 3242 0 0 -1
440 2 1886.91 2194.06 2917.83 0 0 -1
441 2 1856.74 2085.95 3330.53 0 0 -1
442 2 1969.1 2233.67 2198.3 0 0 0
443 2 2045.73 1687.15 2393.34 0 0 0
444 2 1813.17 1831.15 2148.21 0 0 0
445 2 1919.85 2013.78 3434.89 0 0 -1
446 2 2957.54 1602.62 1891.19 1 1 0
447 2 1968.85 1733.15 2160.47 0 0 0
448 2 3347.37 1804.36 2059.92 -1 0 0
449 2 3323.66 2577.55 3019.78 -1 0 0
450 2 1723.73 2054.59 3371.97 0 0 -1
451 2 2354.21 1821.49 1710.67 0 0 0
452 2 1772.39 2070.01 2431.8 0 0 0
453 2 1873.95 1665.38 1748.46 0 0 0
454 2 2266.37 1605.63 2141.16 0 0 0
455 2 1797.19 3158.08 1890.81 0 -1 0
456 2 2095.66 2033.98 2242.25 0 0 0
457 2 1900.26 3239.35 2128.09 0 -1 -1
458 2 2100.78 1736.25 2591.21 0 0 1
459 2 1731.96 1788.95 3252.88 1 0 -1
460 2 2325.43 2777.21 2563.5 0 -1 0
461 2 2276.9 1649.7 2274.53 -1 0 0
462 2 1746.21 1870.21 2588.49 0 0 0
463 2 1792.6 3188.21 1749.41 0 -1 0
464 2 2352.14 2067.46 2242.84 0 0 0
465 2 2482.05 1777.18 2187.58 0 0 0
466 2 2179.53 2332.84 2258.29 0 0 -1
467 2 2562.79 1642.26 3234.15 0 1 0
468 2 3433.56 2101.31 2070.49 -1 0 0
469 2 2425.03 1851.25 2098.26 0 0 0
470 2 1664.64 3287.14 2301.67 0 -1 0
471 2 3355.72 2036.89 1964.58 -1 0 0
472 2 3225.75 1809.44 1983.38 -1 0 0
473 2 2105.74 1990.43 1631.64 0 0 0
474 2 3434.09 3169.1 1797.77 -1 0 1
475 2 1679.41 3227.65 1831.7 0 -1 0
476 2 1610.45 2025 1966.96 0 0 0
477 2 2272.28 1918.12 2100.48 0 0 0
478 2 3347.98 1762.17 2199.62 -1 0 0
479 2 1691.68 3363.98 1799.42 0 -1 0
480 2 1865.46 2065.21 3085.05 0 0 0
481 2 2226.88 1999.63 2220.11 0 0 0
482 2 2131.9 3153.93 2181.14 0 0 0
483 2 2872.71 3260.13 1612.27 0 -1 0
484 2 3243.15 1623.64 1558.07 -1 1 0
485 2 3214.56 2357.74 2044.04 0 1 0
486 2 1989.05 2273.63 1997.7 0 0 0
487 2 1743.17 3388.91 2503.71 0 -1 0
488 2 2015.69 2265.85 2605.73 0 0 -2
489 2 3405.49 2474.59 2158.22 -1 1 0
490 2 2904.01 2292.15 2511.92 0 1 0
491 2 1774.15 1591.76 2154.21 0 0 0
492 2 3199.72 3086.98 3234.85 0 0 -1
493 2 3179.98 2051.19 1826.41 -1 0 0
494 2 2150.77 2234.25 1772.61 0 0 0
495 2 1779.78 3172.71 2100 0 -1 0
496 2 1893.92 2177.66 1678.62 0 0 0
497 2 1805.72 3302.59 2364.1 0 -1 0
498 2 1848.88 3063.91 2961.46 -1 -1 -1
499 2 2327.23 2021.34 3265.23 0 0 0
500 2 2030.63 2143.07 1966.22 0 0 0
501 2 2017.84 1563.07 2590.55 0 0 -1
502 2 2719.01 1702.21 1838.35 0 0 0
503 2 3167.59 1922.07 1934.52 -1 0 0
504 2 2094.44 1764.81 2203.48 0 0 0
505 2 1620.63 2095.01 2193.43 0 0 0
506 2 1815.88 1987.02 2540.06 0 0 0
507 2 2174.57 1711.96 3304.97 0 0 -1
508 2 1925.09 1965.34 1796.32 0 0 0
509 2 1602.05 1750.55 2201.17 0 0 0
510 2 2202.66 3202.81 3058 0 0 0
511 2 1655.67 2435.19 2188.75 0 -1 0
512 2 1808.03 2285.24 3040.77 0 0 -1
513 2 2195.09 1633.47 1900.76 0 0 0
514 2 3361.8 1564.95 2345.06 0 1 -1
515 2 2122.56 2115.54 1701.61 0 0 0
516 2 1985.02 2828.68 1604.48 0 0 1
517 2 2162.99 2126.53 1946.01 0 0 0
518 2 2934.92 1664.08 2086.32 0 1 0
519 2 1621.44 1605.58 2507.95 -1 0 -1
520 2 2545.1 3369.73 2555.21 0 -1 -1
521 2 2384.52 2037.23 1660.62 -1 0 0
522 2 3183.26 2059.54 2301.88 -1 0 0
523 2 1730.48 2061 3134.14 0 0 0
524 2 1655.22 2198.67 2583.47 0 -1 0
525 2 1700.87 3368.78 2205.23 0 -1 0
526 2 3358.1 1603.47 1923.7 -1 0 0
527 2 2137.06 2003.23 1887.92 0 0 0
528 2 3433.79 1984.66 2484.35 -1 0 0
529 2 2085.47 3114.32 2057.56 0 -1 0
530 2 3413.39 3273.91 2289.86 -1 0 0
531 2 1705.88 2215.58 1836.69 0 0 0
532 2 3108.63 1807.98 1897.04 0 0 0
533 2 2451.97 1924.03 1739.43 0 0 0
534 2 2521.88 1794.1 1951.61 0 0 0
535 2 2043.41 3199.02 1837.92 0 -1 0
536 2 3345.07 1796.89 3365.04 -1 0 -1
537 2 1586.91 3350.69 2029.28 0 -1 0
538 2 2764.72 3023.66 2220.74 0 -1 0
539 2 3271.31 1774.55 1705.57 -1 0 0
540 2 3046.3 1880.66 2001.21 0 0 0
541 2 2809.33 3261.94 3373.89 -1 0 -1
542 2 1876.72 2521.54 3373.99 0 0 -1
543 2 3360.19 1558.19 2067.1 -1 0 0
544 2 1864.69 2288.52 3153.64 0 0 -1
545 2 2322.36 2293.07 2241.68 -1 -1 -1
546 2 2310.21 2059.74 2112.44 0 0 0
547 2 2446.16 1815.12 1836.69 0 0 0
548 2 2192.21 1861.46 2224.61 0 0 0
549 2 2126.71 2100.1 2368.16 0 0 0
550 2 3028.09 3352.68 1878.33 0 -1 0
551 2 1562.84 2219.56 2233.58 0 0 0
552 2 2323.67 1830.75 2196 0 0 0
553 2 1748.5 1967.73 2104.09 0 0 0
554 2 3439.31 2101.28 2320.19 -1 0 0
555 2 1930.54 3153.41 2735.18 -1 0 0
556 2 2059.21 1672.97 1584.12 0 0 0
557 2 1640.84 3391.4 3413.19 1 0 -1
558 2 2011.58 3038.29 2770.69 -1 -1 -1
559 2 3117.75 1804.56 2177.04 0 1 0
560 2 2002.1 3312.52 1643.62 0 -1 0
561 2 2275.43 3092.36 1742.58 0 -1 1
562 2 2341.33 1650.92 2029.15 0 0 0
563 2 2056.46 3258.62 3107.09 -1 0 0
564 2 1932.96 1899.81 2520.27 0 0 0
565 2 2160.32 2744.45 2108.31 0 0 0
566 2 2261.16 2187.88 3252.85 0 0 -1
567 2 1843.66 2195.5 1825.05 0 0 0
568 2 3228.12 3176.53 1595.98 0 0 0
569 2 1933.73 1863.55 2202.27 0 0 0
570 2 3397.64 2345.17 2255.06 -1 0 -1
571 2 3110.66 3437.88 1813.11 -2 -1 0
572 2 3343.65 1682.33 1636.84 -1 0 0
573 2 2588.27 1612.53 2927.82 0 0 -1
574 2 2568.85 2988.24 2023.12 0 0 0
575 2 2188.45 3429.37 2255.17 0 -1 0
576 2 2720.28 2195.07 2669.15 0 0 0
577 2 2218.95 2132.13 2262.2 0 0 0
578 2 2907.93 2743.42 2227.52 0 0 1
579 2 3077.55 2163.41 2526.55 0 0 0
580 2 2116.41 1894.99 1973.8 0 0 0
581 2 1956.84 1829.63 3307.6 0 0 -1
582 2 2009.18 1621.23 3204.45 0 0 0
583 2 2429.63 2075.95 1911.12 0 0 0
584 2 1657.34 2385.06 2019.21 0 0 0
585 2 1745.31 2005.2 1952.15 0 0 0
586 2 1858.64 2363.37 2367.59 0 0 0
587 2 3407.3 1771.46 1810.3 -1 0 0
588 2 1704.39 2208.18 1621.63 0 0 0
589 2 1682.08 1972.03 2233.56 0 0 0
590 2 2238.23 1911.27 2347.24 0 0 0
591 2 3243.06 3305.59 2027.62 -1 -1 0
592 2 1949.53 1730.72 1845.79 0 0 0
593 2 3001.05 1639.69 3062.68 -1 0 -1
594 2 2100.04 1622.36 2496 0 0 0
595 2 1915.11 3286.5 2276.91 0 -1 0
596 2 1851.08 2252.46 1970.7 0 0 0
597 2 3371.84 2096.22 3392.73 -1 0 -1
598 2 3163.16 1886.61 2072.8 -1 0 0
599 2 2038.91 3317.95 2320.2 0 0 0
600 2 2245.49 3439.72 2000.5 0 -1 0
601 2 1713.55 3406.17 2339.6 0 -1 0
602 2 2611.78 2069.66 1814.46 0 0 0
603 2 3257.63 2362.67 2473.08 -1 1 0
604 2 2440.67 2780.92 2618.77 0 -1 -1
605 2 2294.26 2287.64 2099.52 -1 -1 0
606 2 1912.96 1861.16 1887.69 0 0 0
607 2 2217.05 2082.31 3320.7 0 0 -1
608 2 2197.48 2453.07 2210.03 -1 0 -1
609 2 2678.65 2602.2 1890.83 0 -1 -1
610 2 1577.42 3435.78 1745.53 1 -1 0
611 2 2652.94 3344.17 2484.28 0 -1 0
612 2 2036.31 2300.83 2307.09 0 0 0
613 2 2442.43 1613.23 1812.82 0 0 0
614 2 1751.25 1992.77 1722.48 0 0 0
615 2 1742.19 2195.47 3371.71 0 0 -1
616 2 2100.56 2247.95 1915.58 0 0 0
617 2 1673.67 1664.53 2089.08 0 0 0
618 2 2074.64 2132.93 1836.57 0 0 0
619 2 1631.66 2213.65 2110.13 0 0 0
620 2 2613.32 1890.6 1991.88 0 1 1
621 2 1975.82 3309.92 2556.22 0 -1 0
622 2 2018.89 1807.28 1614.7 0 0 0
623 2 3419.3 2306.88 3276.12 -1 0 -1
624 2 2353.22 1960.74 1992.72 0 0 0
625 2 2002.17 2031.48 1891.89 0 0 0
626 2 2773.34 3357.14 1977.85 0 0 1
627 2 3237.82 1813.01 2261.33 -1 0 0
628 2 3414.41 2376.46 3396 -1 0 0
629 2 2346.13 3407.51 1778.73 0 0 0
630 2 3015 3005.19 2660.18 0 0 0
631 2 1614.88 1979.1 2360.14 0 0 0
632 2 2175.2 1819.52 2081.48 0 0 0
633 2 1912.64 2321.57 2547.33 0 0 0
634 2 1677.67 2475.39 1651.89 0 0 0
635 2 1756.22 1956.28 2352.07 0 0 0
636 2 1976.9 2321.76 2430.7 0 0 0
637 2 1964.23 1989.21 3304.74 0 0 -1
638 2 2165.55 3393.3 2116.59 0 -1 0
639 2 2408.36 2013.47 3370.45 0 0 0
640 2 2025.41 2187.37 2386.48 0 0 0
641 2 2045.34 1570.05 1683.3 0 0 0
642 2 1987.94 1596.62 1807.5 0 0 0
643 2 1562.85 3130.38 1933.9 0 0 0
644 2 2307.81 1779.96 2070.74 0 0 0
645 2 3285.99 3070.74 2686.86 -1 -1 0
646 2 2050.1 1752.53 3239.49 0 0 0
647 2 2114.17 1956.29 2366.96 0 0 0
648 2 2181.95 2343.41 1841.07 0 0 0
649 2 1812.03 2507.95 1697.67 0 0 0
650 2 1741.26 1721.89 2198.48 0 0 0
651 2 2318.34 1946.52 1748.67 0 0 0
652 2 1993.46 1963.54 3074.79 0 0 0
653 2 2184.88 1725.5 3438.91 0 0 -1
654 2 1825.53 1794.8 3349.65 0 0 -1
655 2 2718.48 2966.42 2023.7 0 0 0
656 2 1958.57 2122.99 2280.12 0 0 0
657 2 1775.93 3356.52 2634.82 0 -1 0
658 2 1710.8 2768.45 1772.55 0 0 0
659 2 1790.81 1978.92 1589.87 0 0 0
660 2 1687.9 1968.11 2478.55 0 0 0
661 2 3299.6 2062.94 2550.48 0 0 -1
662 2 1910.62 2246.32 2323.32 0 0 0
663 2 1669.39 1632.94 3354.9 -1 1 -1
664 2 2450.39 1734.31 2054.47 0 0 0
665 2 3236.16 1639.73 1694.23 -1 1 0
666 2 1980.52 1920.25 1997.37 0 0 0
667 2 2140.04 1949.63 2129.91 0 0 0
668 2 2222.61 3135.73 2399.21 -1 -1 1
669 2 2646.61 2991.02 2132.71 0 0 1
670 2 1840.91 3438.4 2406.21 0 -1 0
671 2 1692.95 3282.46 2444.8 0 -1 -2
672 2 3234.15 1979.5 1726.87 -1 0 0
673 2 1924.63 3334.56 2426 0 0 0
674 2 3265.79 2185.41 3372.48 -1 0 -1
675 2 1787.46 3264.33 2212.79 0 -1 0
676 2 2868.71 1674.87 3068.72 0 0 -1
677 2 1827.26 3389.55 2257.44 0 -1 0
678 2 1925.57 1704.02 3269.17 0 0 -1
679 2 1942.35 1729.23 3404.28 0 0 -1
680 2 1591.13 1602.36 1998.97 0 0 0
681 2 2319.75 2182.84 2173.56 0 0 0
682 2 2273.08 1975.48 1879.59 0 0 0
683 2 1771.27 2198.18 2102.7 0 0 0
684 2 3240.97 3007.38 3330.52 -1 0 -1
685 2 2353.64 2633.37 2385.28 0 0 0
686 2 2040.42 1903.97 1851.95 0 0 0
687 2 2535.33 1929.01 2111.15 0 0 0
688 2 3241.34 3401.15 2128.89 -1 -1 0
689 2 1874.99 2465.48 1930.99 0 0 0
690 2 3183.46 3374.2 3343.94 0 -1 -1
691 2 3319.76 2344.83 2137.17 -1 0 0
692 2 3131.88 1846.47 1561.48 0 0 0
693 2 1863.14 1659.42 2493.99 0 0 0
694 2 3441.42 3340.25 1640.54 -1 0 0
695 2 2282.67 2205.6 1749.32 0 0 0
696 2 2189.55 2153.66 2468.96 -1 -1 0
697 2 1591.2 2332.25 2383.67 1 -1 -1
698 2 3350.53 1875.79 2284.75 -1 0 0
699 2 2471.02 2914.8 2271.9 0 -1 0
700 2 1566.19 2228.18 1632.09 0 0 0
701 2 1872.77 2038.52 1684.78 0 0 0
702 2 2065.28 2108.71 2492.73 0 0 0
703 2 1968.82 1582.74 2452.58 0 0 0
704 2 1709.38 3417.91 2041.62 0 -1 0
705 2 2083.14 2250.24 2486.28 0 0 0
706 2 3393.59 3163.9 3408.15 0 0 -1
707 2 1791.1 1635.47 2299.98 0 0 0
708 2 2114.7 2023.2 2601.67 0 0 0
709 2 1769.84 3053.51 1776.67 1 0 0
710 2 1588.14 1880.89 1752.01 0 0 0
711 2 3099.08 2160.94 2229.56 0 0 0
712 2 2408.19 1949.72 1860.12 0 1 0
713 2 1836.73 2632.99 1725.8 0 0 1
714 2 1627.9 2430.44 2572.9 0 0 0
715 2 1667.17 3130.39 1731.47 1 0 1
716 2 2066.35 3399.36 2213.89 0 -1 0
717 2 2031.64 1646.44 3334.57 0 0 -1
718 2 2008.3 1603.54 2119.48 0 0 0
719 2 1924.41 2352.96 2245.51 0 0 0
720 2 1926.3 3204.8 2389.76 0 0 0
721 2 2225.97 2012.77 2005.47 0 0 0
722 2 3390.16 2313.26 1744.57 -1 0 0
723 2 2077.4 2406.12 2222.09 0 0 0
724 2 3321.66 3080.46 1593.87 -1 0 0
725 2 3125.1 1671.04 3396.34 0 1 0
726 2 2807.38 2279.71 2828.47 0 0 -1
727 2 3351.08 3351.58 1959.03 0 -1 0
728 2 2095.45 2317.45 1668.06 0 0 0
729 2 3312.63 2236.35 2223.91 -1 0 0
730 2 1728.2 3022.07 2587.63 0 -1 0
731 2 1896.74 2062.3 2167.5 0 0 0
732 2 2431.28 2247.22 2143.36 0 0 0
733 2 2251.19 2441.12 1784.36 0 0 1
734 2 2136.17 1631.6 2168.47 0 0 0
735 2 1711.88 2267.59 1993.12 0 0 0
736 2 1844.87 2181.57 2219.45 0 0 0
737 2 3238.37 1598.77 1855.94 -1 0 0
738 2 1848.32 2008.91 3213.54 0 0 -1
739 2 1884.54 1570.43 2062.24 0 0 0
740 2 3439.01 3200.23 1652.92 -1 0 1
741 2 2048.42 2322.12 1800.72 0 0 0
742 2 1976.26 1906.48 3184.64 0 0 -1
743 2 1781.57 1642.5 1996.24 0 0 0
744 2 3341.92 1854.04 1912.98 -1 0 0
745 2 1908.75 2176.57 2081.95 0 0 0
746 2 2049.29 2012.02 1760.95 0 0 0
747 2 1856.37 3229.49 1624.42 0 -1 0
748 2 3308.51 1801.83 2385.39 -1 0 0
749 2 3337.24 1889.51 1760.73 -1 0 0
750 2 1629.86 2153.08 1736.11 0 0 0
751 2 1725.78 2592.15 2790.86 1 0 0
752 2 3167.85 1860.04 1691.24 0 0 0
753 2 2690.33 2711.41 2312.64 0 0 1
754 2 1869.64 1866.34 2332.1 0 0 0
755 2 2038.64 1849.74 2108.5 0 0 0
756 2 1985.79 3184.22 1667.79 0 -1 0
757 2 3432.05 2090.08 1637.01 -1 0 0
758 2 1587.57 3395.84 2281.68 0 -1 0
759 2 1961.52 1834.86 1754.9 0 0 0
760 2 1895.7 3269.61 2775.84 0 -1 0
761 2 1687.69 2079 1845.19 0 0 0
762 2 1952.95 2050.24 2040.67 0 0 0
763 2 3175.77 1929.31 2227.02 -1 0 0
764 2 1793.98 2371.48 2016.9 0 0 0
765 2 2001.06 2126.06 2620.81 -1 1 0
766 2 2075.17 2551.69 1785.87 -1 0 0
767 2 2198.99 1949.39 3259.95 0 0 -1
768 2 3361.59 3392.53 3429.49 -1 -1 0
769 2 1705.33 2200.72 2227.77 0 0 0
770 2 2183.37 1979.88 1749.41 0 0 0
771 2 3375.79 2175.68 1953.2 -1 0 0
772 2 1941.25 2151.08 3427.01 0 0 -1
773 2 1880.87 1978.97 2413.61 0 0 0
774 2 2438.34 2112.55 3439.02 0 0 -1
775 2 3396.21 3036.58 1807.45 -1 0 0
776 2 1583.42 1649.62 1846.15 0 0 0
777 2 1780.86 2669.28 2887.73 1 0 0
778 2 2193.95 2222.11 1637.08 0 0 0
779 2 3277.67 1970.95 1866.1 0 0 0
780 2 3278.42 3281.43 2195.95 -1 -1 0
781 2 1697.24 1760.79 3392.19 0 0 -1
782 2 1972.53 2042.12 3180.94 0 0 -1
783 2 1640.69 2208.11 2353.44 0 0 0
784 2 3414.53 1679.37 2102.75 -1 0 0
785 2 2951.35 2824.94 3079.53 0 0 0
786 2 1782.51 2188.37 2344.52 0 0 0
787 2 3244.04 2192.07 1968.2 -1 0 0
788 2 1843.57 3097.73 1668.89 1 0 1
789 2 1781.61 2259.12 2568.31 0 -1 0
790 2 2722.21 3436.22 2740.32 1 0 0
791 2 3114.44 3429.32 1956.01 0 0 0
792 2 2711.06 2988.61 2336.29 0 -1 0
793 2 1767.2 2336.37 3368.26 0 0 -1
794 2 2915.56 2309.76 1868.97 0 0 0
795 2 3229.5 3221.17 1919.65 -1 -1 0
796 2 1667.04 1939.72 1855.13 0 0 0
797 2 2011.1 1718.08 2810.61 0 0 0
798 2 3185.35 2031.67 3151.45 0 1 -1
799 2 1760.49 1827.95 3129.56 0 0 -1
800 2 1639.67 2288.34 3406.98 0 0 -1
801 2 1626.05 1741.24 2593.88 0 0 0
802 2 1650.38 1789.2 1631.29 0 0 0
803 2 1724.3 2319.12 2378.64 0 0 0
804 2 1931.48 1785.75 3153.71 0 1 -1
805 2 2186.79 1729.74 2424.97 0 0 0
806 2 2388.59 1825.78 1962.62 0 0 0
807 2 3107.3 1769.28 2043.89 -1 0 0
808 2 2418.96 3308.19 2591.6 1 -1 -1
809 2 3378.62 3112.5 2063.41 -1 0 1
810 2 2251.36 3204.05 2152.7 0 0 0
811 2 2004.71 1978.79 2151.51 0 0 0
812 2 3244.06 1972.06 3260.4 -1 0 -1
813 2 3391.48 2175.61 3269.9 -1 0 -1
814 2 2631.85 2799.29 2402.04 0 -1 0
815 2 1811.58 1723.04 3183.99 0 0 -1
816 2 3302.9 2035.16 1617.09 -1 0 0
817 2 1880.43 1987.21 1930.79 0 0 0
818 2 3422.48 1868.16 2407.54 -1 0 0
819 2 3200.57 2121.31 1598.98 0 0 0
820 2 1921.13 3322.32 2019.5 0 -1 0
821 2 3217.62 1850.57 1832.76 -1 0 0
822 2 1978.17 1940.33 1654.58 0 0 1
823 2 3277.31 1885.56 2156.73 -1 0 0
824 2 1667.03 2317.34 2497.53 1 0 0