ITEM: TIMESTEP
645000
ITEM: NUMBER OF ATOMS
1000
ITEM: BOX BOUNDS pp pp pp
1.1806630134649281e+03 3.8193369865345367e+03
1.1806630134649281e+03 3.8193369865345367e+03
1.1806630134649281e+03 3.8193369865345367e+03
ITEM: ATOMS id type x y z ix iy iz
1 1 2812.48 2414.31 1353.15 -1 0 1
2 1 2024.63 1215.35 2643.93 0 0 0
3 1 3387.41 2591.34 2106.11 0 0 0
4 1 2214.1 1577.24 3360.09 0 -1 0
5 1 3539.19 3058.85 2735.17 -1 -1 1
6 1 1857.03 1653.68 3536.1 0 0 0
7 1 1557.4 3110.29 2916.86 0 -1 0
8 1 2132.12 1637.6 2470.08 0 0 1
9 1 3073.08 3124.94 2465.79 0 0 0
10 1 2913.65 2511.24 2664.28 0 0 0
11 1 2733.15 2082.77 2622.3 0 0 0
12 1 1294.94 3300.93 3743.12 0 0 0
13 1 3236.53 3653.26 3600.39 -1 0 -1
14 1 2177.65 2752.83 2937.46 0 0 -1
15 1 3334.53 2180.26 1992.95 0 0 0
16 1 2143.17 3809.81 2447.63 0 0 -1
17 1 2425.05 2966.61 2984.34 1 0 -1
18 1 3219.36 2330.21 2484.84 -1 1 0
19 1 2942.63 1794.58 1662.33 -1 0 0
20 1 1337.64 3127.68 3052.43 0 -1 0
21 1 1975.29 2539.81 2589.52 0 1 0
22 1 2701.08 3073.4 2786.91 2 -1 0
23 1 2941.77 2102.98 2729.28 0 0 1
24 1 3051.51 3489.72 2118.78 0 0 0
25 1 1636.56 1835.98 2854.2 -1 0 0
26 1 3042.54 3125.78 3021.82 0 0 0
27 1 3194.22 2379.52 2889.33 -1 0 1
28 1 1962.73 2444.36 2376.78 0 0 0
29 1 2581.75 2229.77 2682.14 0 0 -1
30 1 2852.44 3563.17 2954.6 0 0 0
31 1 1317.18 1533.52 2979.32 0 0 0
32 1 1508.9 3225.63 3370.11 0 0 -1
33 1 2145.15 2372.17 3236.57 0 0 0
34 1 2441.72 1210.04 2956.66 0 0 0
35 1 1930.12 2132.63 2372.71 0 0 -1
36 1 1391.9 2892.31 1276.56 0 -1 0
37 1 1709.81 1731.89 1784.27 0 0 0
38 1 2164.25 3073.46 2130.51 0 0 0
39 1 3329.04 2331.65 2946.04 -2 0 -1
40 1 3221.26 2470.68 1904.69 -1 -1 2
41 1 1874.22 2993.42 1765.02 0 0 -1
42 1 2998.03 2739.42 1986.09 0 -1 0
43 1 2445.17 2609.87 1977.34 0 -2 0
44 1 3079.53 3527 1619.04 0 -1 0
45 1 2454.14 2286.4 2860.96 0 0 0
46 1 2988.74 3683.11 3128.35 -1 -1 0
47 1 3517.07 3355.52 2149.61 -1 -1 -1
48 1 3327.99 1995.73 2856.07 0 0 -1
49 1 2975.41 2566.62 2207.17 -1 0 1
50 1 3147.55 1572.9 3436.1 -1 0 0
51 1 3396.99 1298.28 2190.65 -1 -1 1
52 1 3794.94 2546.38 3643.49 -1 0 -1
53 1 3202.37 1841.38 3529.09 -2 0 -1
54 1 3425.25 2216.13 3082.07 0 0 -1
55 1 3092.68 3126.62 3042.26 -2 0 -1
56 1 3218.11 2090.66 1526.4 0 0 0
57 1 1840.13 2509.31 3678.85 0 0 -1
58 1 2459.11 2652.28 3637.48 0 0 -1
59 1 2673.14 3516.33 2840.47 -1 -1 0
60 1 1932.55 3278.03 1419.4 -1 -1 1
61 1 1763.09 2881.25 2449.04 -1 0 0
62 1 2608.8 1257.4 3237.7 0 0 -1
63 1 3311.55 2139.13 3253.98 -1 0 0
64 1 2956.27 2659.93 3342.58 0 -1 -1
65 1 3344.16 3165.35 2798.16 -1 -1 -1
66 1 3400.83 3006.6 2537.57 -1 0 1
67 1 2492.13 2413.55 1548.71 0 0 0
68 1 2167.62 3019.53 3453.18 0 -1 -1
69 1 1309.91 2600.77 2886.19 0 0 0
70 1 1555.01 1331.78 3525.04 0 1 -1
71 1 1838.69 2737.88 2548.15 -1 0 -1
72 1 2799.3 1947.45 3780.06 0 0 -1
73 1 2689.14 1393.16 1201.08 0 1 1
74 1 3271.34 2778.14 2046.58 -1 0 -1
75 1 1860.13 2468.79 1513.64 0 0 1
76 1 1443.06 1526.45 3151.05 -1 0 0
77 1 2694.43 2523.89 3531.31 -1 -1 -1
78 1 1488.64 3766.17 1658.78 0 -1 0
79 1 1939.63 2300.55 2532.88 0 -1 0
80 1 3262.33 2349.71 2459 -1 0 0
81 1 3784.19 1672.22 1683.14 -1 0 0
82 1 1725.69 2150 3558.29 1 0 0
83 1 2472.49 1898.08 2767.73 -1 -1 -1
84 1 1840.36 3774.65 3631.38 1 0 -1
85 1 2504.48 2384.2 2409.76 0 -1 0
86 1 3582.69 2343.14 2963.6 -1 0 0
87 1 1561.25 1834.13 3057.61 0 -1 -1
88 1 1332.76 2858.8 1886.08 0 -1 0
89 1 2981.47 2944.04 1593.84 0 0 0
90 1 3651.64 3423.21 2260.44 -2 -1 0
91 1 1470.63 3647.76 3112.92 0 -1 -1
92 1 1816.44 2885.22 2444.02 0 -1 -1
93 1 2129.19 3559.75 2810.25 1 0 0
94 1 2196.41 2008.78 3589.6 0 0 -1
95 1 1590.45 2408.52 2999.39 -1 -1 -1
96 1 2869.68 2446.05 1787.43 -1 0 0
97 1 2225.38 2378.29 1864.3 0 -1 1
98 1 2772.34 1956.32 3152.97 -1 -1 0
99 1 2448.94 3003.21 3191.73 0 -1 -1
100 1 2833.33 1822.08 1323.44 -1 0 0
101 1 1309.73 3065.31 2313.15 0 -1 0
102 1 2180.3 1243.42 2745.87 -1 0 0
103 1 3023.7 2513.68 1930.19 -1 0 0
104 1 3678.94 2780.93 2412 0 -1 -1
105 1 3596.65 3289.88 2875.2 -1 0 0
106 1 3669.11 1808.41 2969.91 0 1 -1
107 1 2869.7 2059.14 2424.12 -1 -2 0
108 1 3520.28 3376.43 1413.88 -1 0 -1
109 1 2157.49 2546.04 2374.56 -1 -1 0
110 1 2863.04 2846.46 1403.06 0 -1 0
111 1 3659.63 1181.3 3667.57 -1 0 -1
112 1 2715.38 1440.25 3181.65 0 0 0
113 1 2338.17 2824.81 3138.71 0 0 -1
114 1 2805.47 2380.82 3108.69 -1 0 0
115 1 2165.83 2741.3 3251.32 0 0 -1
116 1 3008.14 2393.82 3057.53 0 0 0
117 1 2302.28 3718.61 2847.07 0 -1 -1
118 1 1967.89 2912.56 2187.98 -1 0 -1
119 1 3584.77 3153.95 2136.85 0 -1 0
120 1 2882.22 2242.13 1575.26 1 0 0
121 1 3332.24 3476.06 3272.41 -1 0 0
122 1 2915.58 3319.7 2448.43 0 0 -1
123 1 1499.29 1454.34 3694.93 -1 1 -1
124 1 2634.27 2526.89 1331.81 0 0 1
125 1 1503.61 3298.32 1776.96 0 -2 0
126 1 2081.8 3812.77 3211 0 0 -1
127 1 2885.29 2173.99 1957.49 -1 -1 0
128 1 1910.05 2191.96 3815.28 -1 0 0
129 1 2480.39 2407.2 2367.41 -1 0 0
130 1 3649.29 2690.81 1821.68 0 -1 0
131 1 3089.67 3407.66 1229.19 -1 -1 0
132 1 2665.01 2930.26 3222.13 0 -1 -1
133 1 2524.79 2395.88 3015.34 0 0 -1
134 1 1734.89 3482.51 2478.49 -1 -1 -1
135 1 2051.95 3718.02 3634.19 0 -1 -1
136 1 3164.77 1966.42 3362.56 -1 0 0
137 1 3405.84 1681.34 1743.87 -1 0 0
138 1 2866.59 2613.59 1662.46 0 -1 0
139 1 3168.12 2626.87 1883.33 -1 -1 -1
140 1 3124.02 3208.2 2876.1 -1 -1 -1
141 1 3027.85 2931.77 1895.96 -1 1 0
142 1 2414.52 2153.91 3026.04 0 1 -1
143 1 3389.74 3177.83 2168.94 -1 0 0
144 1 1297.34 3201.42 2591.66 -1 -1 0
145 1 2234.9 2125.96 1941.8 0 0 0
146 1 3586.2 2608.49 2012.58 -1 -1 0
147 1 1474.88 2473.23 2813.15 0 0 -1
148 1 2819.95 2795.22 2295.15 -1 -1 1
149 1 3228.57 2987.29 2872.8 0 0 0
150 1 2396.83 2634.8 2585.59 0 0 0
151 1 2574.25 3261.08 2872.45 0 -2 -1
152 1 3616.53 2689.42 3120.62 -1 -1 0
153 1 3078.97 2917.35 3029.96 -1 -1 -1
154 1 3488.32 2772.63 2181.97 -1 0 -1
155 1 3182.26 2312.34 2519.47 0 0 0
156 1 1846.97 2517.34 3417.53 0 0 -2
157 1 3765.89 3183.41 2260.46 0 0 -1
158 1 2834.21 2851.68 1833.77 -1 -1 0
159 1 3275.88 2719.58 2736.15 0 -1 0
160 1 3095.71 1695.03 2992.59 -1 0 0
161 1 2783.92 2832.54 1614.59 0 0 -1
162 1 2941.02 1875.73 2551.19 0 -1 0
163 1 2338.82 2621.14 3038.44 0 0 -1
164 1 3451.35 2411.32 1686.28 0 -1 -1
165 1 2201.9 2004.64 3643.42 0 0 -1
166 1 1240.96 2813.87 1714.13 0 0 -1
167 1 2766.62 2802.07 2288.69 0 -1 0
168 1 1613.91 2014.17 3213.34 0 0 0
169 1 2042.11 3528.56 1535.03 0 -1 -1
170 1 3174.52 3136.83 2291.55 0 -1 0
171 1 2962.99 1953.49 3282.66 -1 -1 -1
172 1 2667.13 3148.41 1959.04 0 -1 -1
173 1 2946.02 2333.89 2534.76 -1 0 -1
174 1 3037.23 1539.23 3689.34 -2 0 -1
175 1 3398.73 3240.56 1262.5 -1 -1 -1
176 1 1951.14 1910.86 3194.18 0 0 0
177 1 2965.85 3602.38 1398.51 -1 0 0
178 1 3588.57 2056.12 2941.71 -1 0 0
179 1 1647.03 2016.2 3255.96 -1 0 0
180 1 3504.57 3084.4 3186.62 0 0 -1
181 1 1413.5 2727.77 3321.38 0 -1 1
182 1 3030.51 3660.92 2036.37 0 -1 0
183 1 1274.43 3242.46 1795.53 0 -1 0
184 1 3137.22 2107.25 2776.78 0 -1 1
185 1 1399.09 2197.92 2698.93 0 0 -1
186 1 3320.8 2258.96 1592.08 -1 0 -1
187 1 3777.93 2737.43 2972.7 0 0 -1
188 1 2620.19 1222.04 3739.4 0 1 -1
189 1 3727.97 1904.21 3613.52 -1 0 -1
190 1 2634.8 2746.48 2478.99 -1 0 0
191 1 3049.09 1380.73 3445.46 0 0 0
192 1 3531.17 3588.26 1482.24 -1 -1 0
193 1 3642.36 2937.11 3118.96 -2 -1 0
194 1 3093.58 1973.32 1706.24 0 -1 -1
195 1 1994.73 2653.4 2903.24 -1 0 0
196 1 2345.27 2523.83 3766.84 0 0 -1
197 1 2034.75 2201.32 1334.65 -1 1 1
198 1 2971.24 3508.19 3613.81 -1 -1 0
199 1 2256.65 3460.62 1256.49 0 0 1
200 1 1885.76 1676.47 3212.35 0 0 -1
201 1 3509.39 2040.09 3206.49 -1 0 0
202 1 2626.89 2314.99 3630.58 -1 -1 -1
203 1 3366.32 3350.44 3661.76 -1 -1 0
204 1 2421.86 2274.66 3224.54 0 -1 -2
205 1 3221.85 2687.29 3316.3 -1 -1 0
206 1 3562.63 1335.81 3535.09 -1 0 0
207 1 2380.14 2870.03 3604.07 -1 -1 -1
208 1 2394.64 2079.26 2819.76 0 0 -1
209 1 2820.98 2765.45 3207.51 -1 -1 0
210 1 3338.58 2563.95 1495.75 0 -1 0
211 1 2999.31 3137.61 1505.54 -1 -1 0
212 1 2301.77 1196.15 2300.11 0 0 -1
213 1 3294.07 2783.87 2502.43 0 1 -1
214 1 2364.75 3076.72 2455.28 0 -1 0
215 1 1182.04 3177.57 1612.61 0 0 -1
216 1 2748.09 2261.88 3490.98 -1 0 -1
217 1 3135.51 2001.26 1910.77 -1 0 1
218 1 2000.99 2667.06 1726.6 0 0 0
219 1 3357.39 3159.28 2404.2 0 -1 0
220 1 2026.14 2404.23 3475.36 -1 0 -1
221 1 3226.08 1412.64 3313.86 -1 0 -1
222 1 3036.66 2037.19 1187.1 0 -1 1
223 1 2445.84 2434.52 3572.21 0 -1 -2
224 1 1356.09 3584.16 2493.1 0 -1 0
225 1 2955.04 3721.73 2419.42 0 -1 0
226 1 2916.95 2576.14 3107.27 0 -1 0
227 1 3608.07 2351.66 2751.12 -1 -1 -1
228 1 1248.14 3457.78 1265.99 0 0 1
229 1 3075.09 1882.96 2099.72 -1 -1 0
230 1 1328.62 2392.53 2653.78 0 0 -1
231 1 1861.53 2871.59 2418.17 -1 -1 0
232 1 1918.75 3690.01 3809.34 0 -1 -1
233 1 3610.33 2889.18 2893.05 -1 0 1
234 1 1748.53 1530.67 2611.88 0 -1 -1
235 1 2818.41 2314.74 1377.45 -1 -1 0
236 1 2497.33 2608.89 1964.78 -1 0 0
237 1 3319.08 2544.13 3176.52 0 -1 0
238 1 3227.91 2987.1 2437.5 0 -1 0
239 1 2833.46 2626.5 1875.86 -1 -1 0
240 1 2014.89 2569.25 2568.08 1 0 -1
241 1 2801.35 3672.29 1584.92 0 -1 0
242 1 2704.96 1846.51 1501.07 0 -2 0
243 1 1620.47 3767.42 1452.66 0 -1 0
244 1 3143.82 2653.04 2927.13 0 -1 -1
245 1 3479.44 1289 2526.65 -1 0 0
246 1 3096.6 1618.93 2779.71 0 -1 0
247 1 2396.53 3735.42 2661.23 0 -1 0
248 1 3467.9 2960.48 1800.45 -1 -1 0
249 1 3472.63 2708.44 3307.95 0 0 0
250 1 3747.19 1462.36 3531.68 -1 0 -1
251 1 3318.31 2797.4 1751.37 0 -1 0
252 1 3140.29 1394.18 2770.22 -1 0 0
253 1 1447.87 2730.33 1788.78 1 0 0
254 1 3661.64 2146.01 2648.66 -1 0 -1
255 1 3007.19 1699.11 3564.7 -1 0 -1
256 1 2428.62 2395.89 3012.28 -1 0 0
257 1 3065.25 3324.31 1685.58 -1 -1 0
258 1 2610.55 1826.48 3087.01 0 0 -1
259 1 2694.88 1886.84 3614.6 -1 0 -1
260 1 2705.15 2560.96 3221.2 0 0 0
261 1 1286.26 1826.66 2204.05 0 0 0
262 1 3424.71 2540.58 1871.09 -1 0 -1
263 1 2630.37 3012.99 2991.67 -1 0 -1
264 1 2100.48 2338.32 1520.87 0 0 -1
265 1 3659.6 1722.1 3224.97 -1 0 -1
266 1 3283.67 1436.02 3537.38 -1 0 -1
267 1 1273.6 2200.35 3167.68 0 0 -1
268 1 2026.48 2522.62 2592 0 -1 0
269 1 2995.05 1287.4 3078.02 -1 0 0
270 1 2245.08 2009.34 3612.02 0 0 -1
271 1 1786.06 3019.96 2318.97 0 -1 -1
272 1 2612.53 2357.93 3244.59 -1 0 -1
273 1 1951.77 2313.31 3195.5 0 0 -1
274 1 2245.7 2590.1 3262.31 1 -1 0
275 1 3083.13 2414.42 1531.44 -1 0 1
276 1 2957.78 2749.44 1226.54 -1 -1 0
277 1 2671.18 2693.03 1750.49 0 0 1
278 1 1221.7 1337.7 2933.93 0 0 -1
279 1 2262.08 2849.85 2417.68 0 -1 0
280 1 2423.13 2447.92 3358.74 -1 0 -1
281 1 1647.14 3078.46 2765.66 0 -1 0
282 1 1735.02 2222.05 3143.86 0 -1 0
283 1 2224.76 3609.65 3719.08 0 -1 -1
284 1 1952.79 2167.52 3544.85 0 0 -1
285 1 3807.82 2862.28 3155.82 -1 0 -1
286 1 3118.05 1844.99 3134.28 -1 1 0
287 1 2952.57 1732.79 1453.81 0 0 0
288 1 2243.34 2252.96 2853.25 1 0 0
289 1 1923.4 2818.24 2791.52 0 -1 0
290 1 3275.12 2474.14 2259.83 -1 -1 0
291 1 2107.25 2797.27 2432.54 -1 -1 0
292 1 3594.46 2100.18 2911.26 -1 0 -1
293 1 2702.91 2589.03 2585.1 0 0 1
294 1 2579.6 2729.71 2738.77 0 -1 -1
295 1 1633.09 3642.27 2570.23 0 -1 0
296 1 3560.7 2474.46 3147.05 0 0 0
297 1 3084.66 2238.41 2622.74 -1 0 0
298 1 2319.43 2419.94 2675.6 0 0 0
299 1 1393.79 1969.08 2574.4 1 0 0
300 1 1799.04 2437.77 3628.81 0 0 0
301 1 2278.57 2459.91 2622.87 -1 0 -1
302 1 3626.08 1662.37 1284.92 -1 0 0
303 1 3256.86 3682.23 1552.89 0 -1 0
304 1 2179.43 2979.13 3486.47 1 -1 -1
305 1 2354.2 1484.12 3523.25 0 0 -1
306 1 1346.48 3639.72 1254.18 0 -1 0
307 1 3426.58 2387.21 1727.96 -1 0 -1
308 1 1333.19 1413.96 1220.87 0 0 0
309 1 2740.86 3212.09 2224.18 0 0 -1
310 1 1470.85 1688.94 2888.18 0 0 -1
311 1 1960.02 3000.95 1268.13 0 -1 -1
312 1 3051.69 2240.58 2665.65 0 -1 1
313 1 1917.73 1798.02 3376.63 0 -1 -1
314 1 1480.48 2244.73 3077.28 1 0 0
315 1 1604.97 1490.51 2771.49 0 0 0
316 1 3112.9 3147.86 1312.38 -1 0 0
317 1 2021.03 3048.65 2668.61 1 0 -1
318 1 3753.07 3430.33 2985.59 0 -1 -1
319 1 3181.22 1983.58 1307.83 -1 0 0
320 1 2399.54 2777.21 2823.1 0 -1 0
321 1 2720.81 2113.07 3635.24 -1 0 0
322 1 2193.09 2458.25 1407.15 0 -1 0
323 1 1731.37 1837.36 3205.64 0 0 -1
324 1 3729.24 2245.38 1276.63 0 0 0
325 1 1865.54 3563.16 3116.99 0 0 0
326 1 2825.35 2956.76 3097.49 0 0 -1
327 1 2651.55 3349.25 2679.11 0 -1 0
328 1 1913.23 2066.88 2583.46 0 0 0
329 1 1890.76 2941.5 1763.32 0 0 0
330 1 2784.47 2532.92 2954.76 0 0 0
331 1 2457.38 2622.95 1755.45 -1 0 0
332 1 2134.26 3035.09 3414.12 0 -1 -1
333 1 3108.54 2515.95 3235.39 0 0 0
334 1 3149.38 3817.19 3574.4 -2 -1 0
335 1 2555.49 3140.17 2352.47 0 0 0
336 1 2435.8 2305.75 3771.2 0 -1 -1
337 1 1334.54 2378.52 2015.78 0 0 0
338 1 2815.65 2850.02 3699.09 0 -1 -1
339 1 3086.12 2800.77 3447.39 0 -1 0
340 1 2372.84 2416.24 2670.66 0 -1 0
341 1 2828.92 3624.37 3471.37 0 -1 -2
342 1 2978.34 3069.25 3219.8 0 -1 0
343 1 2916.53 1791.71 3112.79 1 -1 0
344 1 3219.29 3304.98 3285.63 0 -1 -1
345 1 2574.02 2141.27 1184.52 0 0 0
346 1 2805.35 2366.86 1377.32 0 -1 0
347 1 2476.27 2416.69 3025.89 -1 0 -1
348 1 1987.56 2495.84 2618 -1 -1 -1
349 1 2993.31 2719.29 2670.71 -1 0 0
350 1 2090.34 2150.9 1759.27 0 1 0
351 1 1745.76 1223.1 3459.54 0 0 -1
352 1 2269.84 2133.29 3360.51 0 1 0
353 1 3326.18 2690.17 2288.91 0 -1 0
354 1 1986.12 2683.87 2229.46 0 0 0
355 1 2280.36 2933.57 3318.64 0 -1 -1
356 1 2086.07 3444.57 1343.45 0 -1 0
357 1 1922.37 3137.86 3036.32 0 -1 -1
358 1 3312.8 3800.53 2045.86 -1 -1 0
359 1 2711.73 2177.54 3151.55 0 0 0
360 1 2020.16 1249.03 3745.52 0 1 -1
361 1 3671.57 2641.99 2235.59 -1 0 0
362 1 3013.51 2692.6 2981.07 0 -1 0
363 1 2524.31 2303.27 3432.23 0 0 -1
364 1 3020.59 2838.81 3243.12 -1 0 0
365 1 1935.33 3526.67 2917.2 0 -1 0
366 1 1699.22 2653.69 1404.01 0 0 0
367 1 2101.1 2623.44 3086.78 0 -1 -1
368 1 2725.02 1541.51 2641.63 -1 0 0
369 1 3404.4 2874.63 2792.81 0 0 -1
370 1 3515.2 2966.28 1999.01 -2 0 0
371 1 3633.86 2032.5 1664.18 -1 0 0
372 1 3237.59 3257 3743.75 -1 -1 -1
373 1 3067.32 2692.84 2984.29 0 1 0
374 1 2543.38 1569.18 2593.75 0 0 0
375 1 3385.24 1283.26 2241.08 0 0 -1
376 1 2832.2 2742.76 2506.67 0 1 0
377 1 3498.4 2484.52 2245.51 0 0 0
378 1 2217.63 1637.48 3156.28 0 1 -1
379 1 3162.86 2584.47 2077.5 -1 -1 0
380 1 2688.67 1957.49 1705.03 -1 0 0
381 1 2117.54 2572.51 3399.13 0 0 -1
382 1 3549.44 3097.24 2954.04 -1 -1 0
383 1 2867.71 2206.92 2255.81 -1 0 0
384 1 3040.81 2962.56 2306.09 0 -1 0
385 1 3307.23 2879.2 2229.98 0 0 0
386 1 3046.5 3270 2658.58 -1 0 0
387 1 3321.4 2280.39 2930.31 -1 0 -1
388 1 1182.74 2897.73 3117.2 0 0 -1
389 1 2407.02 2525.34 1377.95 0 0 0
390 1 1256.29 2747.96 1196.63 0 -1 0
391 1 2360.95 1622.71 1394.13 0 0 0
392 1 1565.71 2589.72 3289.54 -1 -1 -1
393 1 2646.24 2379.23 2817.76 0 0 1
394 1 1614.48 1941.55 3518.19 1 0 -1
395 1 2433.23 2425.16 1790.47 0 -1 -1
396 1 1293.86 2991.75 2634.39 1 0 0
397 1 2951.09 3004.28 1266.51 -1 0 0
398 1 2044.46 2394 3040.79 0 -1 0
399 1 1874.36 1388.27 3026.69 0 0 0
400 1 2009.49 2252.51 2862.54 -1 0 -1
401 1 2512.18 2436.53 2399.53 0 0 -1
402 1 2052.41 2594.37 3788.31 0 0 -2
403 1 1348 1843.55 3377.96 0 0 -1
404 1 2658.87 2770.64 1971.04 0 0 0
405 1 2776.88 3377.22 2989.65 -1 0 0
406 1 1883.36 3095.97 2164.55 0 -1 0
407 1 1533.13 3175.26 3156.88 -1 -1 0
408 1 3726.54 2353.03 3148.53 0 0 -1
409 1 3483.26 2768.76 2603.79 0 -1 -1
410 1 2644.45 2102.42 2397.94 0 0 -1
411 1 1908.54 1793.8 1712.24 0 0 0
412 1 2344.91 3334.61 3026.31 0 0 0
413 1 1330.34 2765.55 3085.79 0 0 -1
414 1 1745.71 3041.38 3005.21 0 -1 -1
415 1 1791.13 2317.02 2945.46 0 0 -1
416 1 2718.63 2770.14 1276.34 0 0 0
417 1 1433.88 1871.73 2372.76 -1 0 -1
418 1 3707.6 3290.89 1765.86 -1 0 1
419 1 2044.53 2607.16 2544.77 0 0 0
420 1 3508.44 3041.3 2265.65 -2 -1 -1
421 1 3074.7 2558.15 1401.67 -1 0 0
422 1 1360.48 3293.27 1593.51 0 -1 0
423 1 3378.32 2857.22 1311.17 0 -1 0
424 1 1728.85 3040.11 3564.87 0 -1 -1
425 1 2306.28 3056.33 3671.17 0 0 -1
426 1 3042.35 2663.78 2946.2 -1 0 -1
427 1 3482.15 2191.65 2112.31 -1 -1 0
428 1 2274.42 3203.85 2623.89 0 -1 -1
429 1 3138.22 2933.98 2088.66 -1 0 0
430 1 1803.58 1537.85 2107.54 0 -1 0
431 1 2683.86 2331.45 1229.72 0 0 0
432 1 1666.41 3044.36 2139.63 0 -1 0
433 1 2069.29 2786.5 2469.64 -1 -1 -1
434 1 3451.66 2829.91 2388.85 -1 0 0
435 1 3054.73 1792.87 3349.2 -1 0 0
436 1 3151.72 2835.86 1252.02 -1 0 0
437 1 2881.29 2064.25 1718.31 0 1 0
438 1 3763.04 2505.61 2757.11 -1 -1 -1
439 1 3030.76 2333.94 1504.64 0 0 0
440 1 3339.13 1686.43 3423.98 -1 0 -1
441 1 2897.75 1529.06 3492.03 -1 0 -1
442 1 1499.41 2612.52 2959.27 0 0 0
443 1 3383.01 2537.47 3385.14 0 -1 0
444 1 3010.24 2750.05 1751.27 -2 0 0
445 1 2374.87 3225.92 2600.56 0 -1 0
446 1 3221.18 1628.54 3640.44 -1 0 -1
447 1 2727.04 2835.06 2678.84 0 0 0
448 1 1752.78 2837.03 2152.5 -1 -1 0
449 1 2148.28 2443.99 1433.81 -1 0 0
450 1 1667.49 2389.07 3454.26 0 0 -1
451 1 1719.1 2881.61 2866.37 0 -1 -1
452 1 1943.96 2022.05 3397.57 0 0 0
453 1 3450.91 3429.37 2330.56 -1 0 0
454 1 1663.75 2047.59 2090.78 0 0 -1
455 1 2820.13 2640.48 3530.12 -1 0 -1
456 1 3209.49 1375.43 1245.06 0 1 0
457 1 2493.75 2915.43 2384.58 0 -1 -1
458 1 1606.23 1980.98 3255.19 0 1 -1
459 1 1805.63 2417.42 2020.5 0 -1 -1
460 1 3506.86 2474.27 2598.98 -1 -1 0
461 1 3031.95 2864.52 2503.43 0 -1 0
462 1 3251.86 2926.71 2643.14 -1 0 -1
463 1 3664.09 1773.85 3238.7 -1 0 -1
464 1 2789.92 2697.39 2755.92 0 0 0
465 1 1241.94 2863.44 2420.36 1 0 -2
466 1 2941.4 3266.07 2829.72 -1 -1 0
467 1 2807.42 2644.49 1428.76 0 1 0
468 1 3539.09 3001.69 1327.98 0 -1 1
469 1 3124.83 2539.82 2739 0 -1 -1
470 1 3115.5 3315.36 1459.24 -1 -1 -1
471 1 3124.09 2755.79 2222.1 0 0 0
472 1 2900.87 3216.06 1320.24 0 -1 0
473 1 1216.9 2332.91 3345.83 1 -1 0
474 1 3230.61 2263.4 3064.93 -2 -1 -1
475 1 3053.07 2531.33 1718.91 0 -1 0
476 1 3116.96 3759.7 1815.72 -1 -1 0
477 1 3523.19 2243.92 1664.41 0 -1 -1
478 1 2686.15 2482.54 1661.72 -1 -1 0
479 1 2685.24 1304.97 2171.94 0 0 -1
480 1 3612.6 2092.33 2435.95 -1 0 0
481 1 3194.7 1379.97 1191.79 0 1 1
482 1 2751.76 1641.78 3098.37 0 -1 -1
483 1 3266.36 2056.78 3026.92 -1 1 0
484 1 2941.73 3179.27 2253.33 -1 -1 0
485 1 2260.66 3446.63 2669.24 -1 -1 -1
486 1 3742.32 3190.69 1386.86 -1 -1 0
487 1 2860.75 2344.87 2896.41 -1 0 -1
488 1 1914.43 1361.95 2503.93 0 0 0
489 1 3462.49 2764.98 1896.44 -1 0 0
490 1 3257.49 2354.92 3303.57 -1 0 -1
491 1 2737.04 2883.76 2859.45 0 0 -1
492 1 3014.5 2560.53 3786.35 0 -1 0
493 1 2868.03 2432.25 2339.81 -1 0 0
494 1 2224.17 2338.24 3442.9 1 -1 0
495 1 3300.23 2992.74 1947.25 0 -1 0
496 1 3095.87 2667.93 2946.37 1 0 0
497 1 2701.23 3726.4 2725.3 -1 -1 0
498 1 2824.75 3236.91 2636.25 0 -1 0
499 1 2204.22 2511.06 1410.25 -1 0 -1
500 1 2836.61 3376.29 2211.47 0 -1 -1
501 1 2461.86 2866.03 2600.02 -1 0 -1
502 1 1376.18 3252.76 3200.39 -1 0 0
503 1 2480.19 2455.95 3062.46 0 0 0
504 1 2083.21 2639.01 2525.65 0 0 0
505 1 1805.71 2468.3 3672.54 -1 0 -1
506 1 1257.88 1910.24 2014.97 -1 0 0
507 1 3621.3 1745.52 3254.6 -1 0 -1
508 1 1550.17 1396.54 1591.72 0 0 -1
509 1 1565.77 1459.47 2527.11 0 0 0
510 1 2797.66 2256.09 2691.14 -1 -1 -1
511 1 3735.8 3342.56 2445.47 0 0 -1
512 1 1445.06 3376.19 3547.22 0 -1 -1
513 1 3306.27 2508.75 1708.71 0 -1 0
514 1 2953.45 2055.72 2130.5 -2 0 1
515 1 2479.31 1967.49 2405.38 -1 0 -1
516 1 2538.91 3710.43 2814.94 -1 -1 0
517 1 3255.15 3225.8 3553.11 0 -1 -1
518 1 1893.18 3065.72 2844.68 0 0 -1
519 1 2745.08 2646.72 2336.36 0 0 0
520 1 3316.04 3009.1 1306.78 -1 0 0
521 1 2514.24 2327.5 1336.81 -1 0 1
522 1 2472.39 2655.82 1972.17 -1 0 0
523 1 3285.16 3183.74 1452.37 0 0 0
524 1 2709.11 2370.15 2496.95 -1 -1 0
525 1 3343.37 1923.36 3218.02 0 0 -1
526 1 1820.4 2273.61 2726.24 0 0 0
527 1 1181.37 2017.29 3086.61 0 -1 -1
528 1 3486.27 2386.22 2052.99 0 1 0
529 1 2497.55 2665.25 1225.41 -1 -1 0
530 1 1649.76 2838.4 2652.69 0 0 0
531 1 1935.41 3738.56 1545.59 0 -1 0
532 1 3470.62 2654.07 1694.95 -1 0 0
533 1 3346.02 1300.08 2208.13 -1 0 -1
534 1 2254.94 1185.17 3049.58 0 0 -1
535 1 2770.28 3669.02 2478.72 -1 -2 0
536 1 2132.67 2584.88 1881.54 -1 0 0
537 1 2831.8 3244.85 2030.53 -1 -1 0
538 1 1698.68 1764.9 3398.99 0 0 -1
539 1 3363.32 2393.29 2767.24 -2 0 -1
540 1 2923.14 3482 2401.01 0 0 0
541 1 2482.71 3174.98 3059.92 0 0 -1
542 1 2286.7 2867.9 2373.25 0 -1 0
543 1 2177.37 2794.52 2703.58 0 0 -1
544 1 3254.93 1621.42 3228.81 -1 1 -1
545 1 2085.95 3004.26 2858.38 -1 0 -1
546 1 3547.84 1501.71 1426.37 -1 0 0
547 1 2476.41 2228.1 2324.29 0 -1 0
548 1 1550.47 1690.92 3238.59 0 0 0
549 1 2788.62 2510.21 3539.26 0 0 0
550 1 1873.63 2082.04 1353.18 0 0 0
551 1 2268.85 2800.85 1449.09 0 -1 0
552 1 2756.53 3692.93 3693.61 0 -1 -1
553 1 3093.2 2729.81 3698.52 -1 0 -1
554 1 2204.08 2401.17 2685.6 0 0 0
555 1 1828.07 2242.53 3398.37 0 0 0
556 1 2573.44 3180.92 2551.39 0 0 -1
557 1 2787.39 2704.21 2134.93 -1 0 0
558 1 2564.3 3623.72 2587.62 -1 0 -1
559 1 2559.73 3383.19 3062.78 -1 0 0
560 1 1601.96 2944.19 1185.7 0 0 0
561 1 3566.75 2305.65 2461.68 -1 -1 -1
562 1 1760.7 3586.95 3716.22 0 0 -1
563 1 3720.62 2509.95 3025.7 -1 0 0
564 1 2618.74 2831.42 3596.32 0 1 -1
565 1 3633.41 2721.66 3591.17 0 0 -1
566 1 3636.54 2067.71 2920.08 -1 0 1
567 1 2564.09 1408.28 3007.04 0 0 0
568 1 3262.51 3142.45 2566.19 -1 -1 -1
569 1 2804.42 2066.56 3325.76 0 0 0
570 1 1436.95 3135.59 2728.36 0 -1 0
571 1 3137.15 2980.95 1428.65 -1 -1 0
572 1 2575.08 2884.56 2812.71 -1 -1 0
573 1 2067.39 2211.72 3371.63 1 0 -1
574 1 3181.03 3442.93 3687.23 -1 0 0
575 1 1583.37 2362.27 3210.89 0 0 0
576 1 3617.03 2098 2960.14 0 -1 -1
577 1 3507.83 2638.25 2419.3 -1 -1 -1
578 1 1236.43 2683.79 2296.91 1 0 1
579 1 3116.38 3650.72 2573.5 0 0 -1
580 1 2300.76 2820.37 2394.43 0 1 1
581 1 1522.48 2137.46 2427.87 -1 0 0
582 1 3297.7 3385.51 2181.31 0 -1 0
583 1 2533.69 2399.29 2367.08 0 0 0
584 1 3561.65 3235.33 2297.42 0 0 1
585 1 3289.26 3434.95 3478.79 -1 -1 -1
586 1 3197.75 1969.68 3733.12 -1 -1 -2
587 1 1211.94 2016.39 2700.36 1 0 -1
588 1 1695.7 2340.47 1664.25 0 0 0
589 1 3021.63 3304.38 3729.22 1 -1 0
590 1 3609.19 2843.42 1673.31 -1 -1 1
591 1 1996.38 1569.62 3377.73 -1 -1 -1
592 1 1614.45 2218.02 2893.67 0 0 0
593 1 1381.97 2024.43 3200.93 0 0 0
594 1 1907.44 3353.25 3138.11 -1 1 0
595 1 3119.95 1221.32 3210.83 -1 0 -1
596 1 3040.08 2384.8 1519.08 1 0 0
597 1 2782.07 2603.22 3539.04 0 0 0
598 1 3163.64 3523.46 1428.52 0 -1 0
599 1 2169.04 3691.3 2645.65 -1 -1 0
600 1 3156.48 1898.23 2928.11 -1 0 -1
601 2 3786.5 2265.14 1525.73 -1 0 0
602 2 1547.34 1677.88 2133.3 1 0 0
603 2 3269.15 3527.24 1925.88 -1 0 1
604 2 3384.98 3316.72 3033.3 0 -1 0
605 2 1295.54 1247.48 3601.39 0 0 0
606 2 1235.64 2605.07 2005.54 1 0 0
607 2 1904.33 2666.57 1921.46 0 0 0
608 2 2904.67 3470.91 2623.58 0 -1 0
609 2 3152.44 1998.36 2309.29 0 0 0
610 2 2709.37 3187.76 3216.47 0 0 0
611 2 1382.97 3160.69 1331.44 0 0 1
612 2 2463.14 3724.11 2073.79 0 -1 0
613 2 1729.45 2596.66 2773.03 0 0 -1
614 2 2655.24 1785.38 2545.43 0 0 0
615 2 1267.96 2805.76 3524.74 0 0 0
616 2 3689.15 3657.54 1257.42 0 0 0
617 2 1383.04 3104.87 2017.84 0 -1 0
618 2 2447.33 3643.53 3159.63 0 0 0
619 2 2891.13 1809.02 2798.39 0 1 0
620 2 3737.09 3634.12 2431.65 -1 0 0
621 2 1188.78 3668.77 3002.05 0 0 -1
622 2 2151.31 3719.03 1324.38 0 0 0
623 2 2156.81 2583.37 3454.18 0 0 -1
624 2 1201.65 2267.04 2875.37 0 0 -1
625 2 2770.63 1615.56 3697.93 0 0 0
626 2 1408.77 3412.85 2952.64 1 0 -1
627 2 1722.84 1234.58 2679.59 0 1 0
628 2 3509.15 2607.63 2832.82 -1 0 0
629 2 2119.51 1706.42 2143.67 0 0 0
630 2 2547.06 1366.92 1881.05 0 1 0
631 2 3494.05 1472.68 3274.6 0 1 0
632 2 1956.9 3323.69 1692.21 0 -1 0
633 2 1371.19 3334.12 2310.27 0 -1 0
634 2 3343.74 2814.9 3051.64 -1 0 0
635 2 1331.41 1349.13 2097.9 0 0 0
636 2 2967.32 1512.67 3183.85 -1 0 0
637 2 1405.58 1987.63 2874.77 1 0 -1
638 2 1297.26 1632.49 1905.04 0 0 0
639 2 3448.16 3079.48 3643.7 0 0 0
640 2 2734.73 3789.62 2969.01 0 0 0
641 2 2242.34 1694.13 2707.11 0 0 0
642 2 2561.74 3289.41 1684.1 0 -1 0
643 2 1339.4 1216.78 2398.86 0 0 0
644 2 3732.05 2579.73 1534.04 -1 0 1
645 2 2592 3411.9 2049.08 0 -1 0
646 2 2049.49 3308.01 2028.15 0 -1 0
647 2 1933.68 1867.06 3634.75 0 0 0
648 2 2566.81 2731.68 3005.64 0 0 0
649 2 3409.62 1829.76 1214.98 -1 0 0
650 2 3444.6 2185.42 2169.25 0 0 0
651 2 3614.17 1805.07 1846.13 -1 0 0
652 2 1332.02 1319.37 1755.74 0 0 0
653 2 3126.62 2497.07 3497.83 0 0 -1
654 2 2500.08 3595.55 3762.22 0 -1 -1
655 2 2568.69 1633.78 2831.98 0 0 0
656 2 2869.32 1461.76 2859.27 0 0 0
657 2 3373.08 1712.09 2951.25 -1 0 -1
658 2 2655.01 2045.4 2866.36 -1 0 -1
659 2 1222.35 1726.87 2753.33 1 0 0
660 2 2346.8 2170.82 1621.72 0 0 0
661 2 2686.92 1267.64 1590.05 0 0 0
662 2 1579.5 1489.69 1298.68 0 0 0
663 2 1538.73 3093.48 2456.61 0 -1 0
664 2 2643.03 3388.39 3510.94 0 0 -1
665 2 2422.55 2306.14 2017.79 0 0 0
666 2 2611.22 3620.14 1788.6 0 -1 0
667 2 3013.82 1209.93 1537.84 0 0 0
668 2 1561.04 2232.1 1897.27 0 0 0
669 2 3524.81 2257.84 3344.93 -1 0 0
670 2 1928.41 1398.64 3067.45 0 0 -1
671 2 2955.55 1436.14 1285.76 0 0 1
672 2 1562.72 2581.26 1995.64 0 0 0
673 2 2167.37 2212.4 2352.86 0 0 0
674 2 3690.81 1215.24 1927.09 -1 0 0
675 2 3228.69 3010.32 3344.59 -1 0 0
676 2 2632.16 1563.03 1394.03 0 0 0
677 2 1736.01 3234.76 1908.76 0 -1 0
678 2 3530.58 3138.5 1566.42 -1 -1 0
679 2 1711.18 3312.47 3531.01 0 0 0
680 2 3411.84 1582.16 1976.65 -1 0 0
681 2 2144.78 3498.5 3101.01 0 0 0
682 2 3088.97 2272.93 2098.09 0 0 0
683 2 2332.17 3180.4 2651.49 0 -1 0
684 2 1486.76 3443.09 2018.35 0 -1 0
685 2 1543.61 3598.97 3499.52 0 0 -1
686 2 1535.14 2409.96 1403.57 0 0 0
687 2 2531.43 3079.36 3461.5 -1 -1 0
688 2 3194.83 3377.54 2437.4 -1 -1 0
689 2 1886.67 3587.44 3395.32 0 -1 0
690 2 3641.75 3355.44 3760.88 0 1 -1
691 2 2645.22 2203.87 1794 -1 0 0
692 2 1765.23 1192.46 3156.04 0 0 -1
693 2 3529.79 3647.28 2140.93 -1 -1 0
694 2 1418.28 2862.56 2809.72 0 0 0
695 2 2825.73 1857.26 1914.88 0 0 0
696 2 2315.42 1267.65 3294.68 0 1 0
697 2 1533 1718.85 2592.9 0 0 0
698 2 1584.62 2376.87 2527.89 1 0 0
699 2 2451.42 1235.83 1327.54 0 0 0
700 2 1222.74 2451.22 1275.91 0 0 0
701 2 3811.15 3084.44 2780.69 0 -1 -1
702 2 1413.31 2445.27 2273.96 0 0 0
703 2 1672.07 3513.65 1748.18 0 0 0
704 2 2011.26 3420.84 2340.27 0 -1 0
705 2 1728.37 1554.38 3001.92 0 0 -1
706 2 1530.47 2628.19 3798.95 0 0 0
707 2 1518.35 3390.92 2627.67 0 -1 0
708 2 1425.98 2670.2 2517.79 1 0 0
709 2 1416.1 1212.45 3284.32 0 0 0
710 2 2858.19 1299.05 3642.75 0 0 -1
711 2 1655.32 3257.38 1522.84 0 -1 0
712 2 1925.08 2786.49 3405.34 0 0 -1
713 2 2266.05 2425.46 2676.44 0 0 -1
714 2 3119.22 1607.1 2157.45 -1 0 0
715 2 2607.95 2101.99 1452.76 0 0 0
716 2 2172.55 3176.81 1244.63 0 0 0
717 2 3386.53 1205.86 3697.28 -1 0 -1
718 2 2761.44 2389.07 2036.75 -1 0 0
719 2 1607.24 1461.13 1874.22 0 0 0
720 2 1211.41 1635.58 3710.26 0 0 -1
721 2 3681.38 2400.09 1813.26 0 0 0
722 2 3787.92 3343.35 1995.93 -1 -1 0
723 2 2798.74 3457.52 3818.61 0 0 -1
724 2 3384.14 3629.03 2516.36 0 -1 0
725 2 1981.16 3773.2 2898.75 0 -1 -1
726 2 2083.45 1988.16 1506.26 0 0 0
727 2 3555.7 2396.13 1316.02 -1 0 0
728 2 2121.01 1906.5 2420.73 0 0 0
729 2 3191.62 1285.12 2482.15 -1 0 0
730 2 3214.63 3075.68 1675.87 -1 -1 0
731 2 2163.71 2846.94 3783.99 0 0 0
732 2 3668.67 1347.54 3808.9 -1 0 -1
733 2 2056.84 1317.12 1609.68 0 1 0
734 2 1402.91 2081.92 2141.49 0 0 0
735 2 2294.25 1398.08 2499.7 0 0 0
736 2 2019.31 3667.39 1791.88 0 -1 0
737 2 1925.81 2980.27 1807.37 -1 0 0
738 2 3616.8 2960.63 3379 0 0 0
739 2 2064.5 3312.21 3369.84 0 0 0
740 2 3134.35 1395.74 1906.83 0 0 0
741 2 2747.07 1750.7 3325.56 -1 1 0
742 2 2525.9 1853.57 1194.97 0 0 0
743 2 3779.48 1830.71 2437.33 -1 0 0
744 2 2649.8 2070.62 2082.13 0 0 0
745 2 1993.85 3407.29 3675.5 0 0 -1
746 2 1971.66 2696.76 1392.34 0 0 0
747 2 2955.87 3239.38 3424.08 0 0 -1
748 2 2392.31 1442.17 1601.17 0 0 0
749 2 2035.95 1766.54 2922.93 0 0 0
750 2 1314.58 1551.87 2379.7 0 0 0
751 2 3773.75 2789.92 2659.55 0 0 -1
752 2 3367.78 1214.4 2780.53 0 1 0
753 2 1284.59 2146.71 1828.77 0 0 0
754 2 2921.26 2289.03 3661.09 -1 0 0
755 2 2213.19 1843 3292.06 0 0 0
756 2 2655.91 3401.93 2377.47 0 -1 0
757 2 2315.54 1991.22 2187.94 0 0 0
758 2 3534.24 3576.32 2863.07 -1 -1 0
759 2 2855.48 1213.95 1879.22 0 0 0
760 2 2466.81 2731.61 3334.16 0 0 -1
761 2 1773.34 3522.25 1361.42 0 -1 0
762 2 1829.65 1806.43 2000.03 0 0 0
763 2 1418.4 1804.2 1299.2 0 0 0
764 2 2303.15 3133.47 1856.01 0 -1 0
765 2 1685.92 2258.37 2226.85 0 0 0
766 2 3575.85 1748.71 1479.99 -1 0 0
767 2 2329.75 1608.34 1888.69 0 1 0
768 2 1637.7 1356.38 2229.65 0 0 0
769 2 1546.89 3761.28 1950.96 0 -1 0
770 2 1239.97 2190.76 2433.03 1 -1 0
771 2 1333.58 2985.33 3287.12 1 0 -1
772 2 1702.63 1921.7 2322.35 0 0 0
773 2 3234.85 1420.07 1230.65 -1 0 1
774 2 1517.51 3427.49 3776.74 0 -1 -1
775 2 3700.31 3775.89 1604.97 -1 -1 0
776 2 3094.41 3009.97 3613.68 -1 0 -1
777 2 3607.2 2702.48 1232.42 -1 0 0
778 2 1842.32 2011.51 2922.63 0 0 -1
779 2 3067.39 1757.46 1188.5 -1 0 0
780 2 3277.83 2583.97 1201.68 -1 0 0
781 2 3432.57 1218.68 1395.73 -1 0 0
782 2 2507.9 1959.96 3253.57 0 0 0
783 2 1629.28 3436.04 3216.9 0 -1 -1
784 2 1332.38 1418.53 2670.38 0 0 -1
785 2 3343.18 3394.29 1620.81 -1 -1 0
786 2 1474.07 1651.32 1613.42 1 0 0
787 2 2571.82 2964.94 1738.89 0 0 0
788 2 2337.1 1860.82 2989.85 0 0 0
789 2 1358.15 1949.33 3643.61 0 0 -1
790 2 3694.74 1646.34 2194.99 -1 0 0
791 2 3547.15 1209.21 3069.3 0 0 -1
792 2 1811.6 2486.91 3737.36 0 0 -1
793 2 1767.59 1406.22 3670.8 0 0 0
794 2 3366.77 1549.06 2677.81 -1 0 0
795 2 1723.46 3292.05 2886.06 0 0 0
796 2 1386.86 2499.49 3458.57 0 0 -1
797 2 3381.08 3793.99 3341.84 -1 -1 -1
798 2 1677.82 3640.62 2886.44 0 0 0
799 2 3470.67 1941.71 3426.38 -1 1 -1
800 2 3485.78 3241.03 3361.8 -1 0 -1
801 2 2133.76 2095.4 3067.91 0 0 0
802 2 1517.51 1288.82 2947.43 0 1 0
803 2 2561.39 3565.7 1452.56 0 -1 0
804 2 2498.04 2951.17 2074.84 0 -1 0
805 2 2075.81 1373.08 2236.39 0 0 0
806 2 3742.13 3024.95 1817.57 -1 -1 0
807 2 3535.31 3560.73 3543.16 -1 0 -1
808 2 3087.42 2227.63 1729.27 -1 0 0
809 2 3631.37 1494.59 2877.62 0 0 0
810 2 2436.62 1526.01 3760.71 0 0 -1
811 2 1390.87 1533.57 3419.17 1 0 0
812 2 2625.43 1443.43 3435 0 0 -1
813 2 2293.08 1452.76 2924.83 0 0 0