ITEM: TIMESTEP
307000
ITEM: NUMBER OF ATOMS
1000
ITEM: BOX BOUNDS pp pp pp
1.7083978080788497e+03 3.2916021919206146e+03
1.7083978080788497e+03 3.2916021919206146e+03
1.7083978080788497e+03 3.2916021919206146e+03
ITEM: ATOMS id type x y z ix iy iz
1 1 2695.15 2467.51 1796.16 -1 0 1
2 1 2214.78 1729.21 2586.36 0 0 0
3 1 3032.45 2554.8 2263.66 0 0 0
4 1 2328.46 1946.34 3016.05 0 -1 0
5 1 3123.51 2835.31 2641.1 -1 -1 1
6 1 2114.22 1992.21 3121.66 0 0 0
7 1 1934.44 2866.17 2750.11 0 -1 0
8 1 2279.27 1982.56 2482.05 0 0 1
9 1 2843.85 2874.96 2479.48 0 0 0
10 1 2748.19 2506.74 2598.57 0 0 0
11 1 2639.89 2249.66 2573.38 0 0 0
12 1 1776.96 2980.56 3245.87 0 0 0
13 1 2941.92 3191.96 3160.24 -1 0 -1
14 1 2306.59 2651.7 2762.48 0 0 -1
15 1 3000.72 2308.16 2195.77 0 0 0
16 1 2285.9 3285.89 2468.58 0 0 -1
17 1 2455.03 2779.96 2790.6 1 0 -1
18 1 2919.74 2394.31 2468.56 -1 1 0
19 1 2765.58 2076.75 1997.4 -1 0 0
20 1 1802.58 2876.61 2831.46 0 -1 0
21 1 2164.57 2507.18 2553.97 0 1 0
22 1 2620.65 2844.04 2672.14 2 -1 0
23 1 2765.06 2261.79 2637.57 0 0 1
24 1 2830.91 3093.83 2271.27 0 0 0
25 1 1981.93 2101.59 2712.52 -1 0 0
26 1 2807.32 2875.16 2805.67 0 0 0
27 1 2916.53 2427.71 2733.6 -1 0 1
28 1 2177.64 2466.62 2426.07 0 0 0
29 1 2549.05 2337.86 2609.28 0 0 -1
30 1 2711.46 3137.9 2772.76 0 0 0
31 1 1790.31 1920.11 2787.59 0 0 0
32 1 1905.34 2935.38 3022.07 0 0 -1
33 1 2287.09 2423.3 2941.94 0 0 0
34 1 2465.03 1726.02 2774 0 0 0
35 1 2158.07 2279.58 2423.63 0 0 -1
36 1 1835.14 2735.39 1765.94 0 -1 0
37 1 2025.89 2039.13 2070.56 0 0 0
38 1 2298.55 2844.08 2278.31 0 0 0
39 1 3000.43 2419.14 2773.81 -2 0 -1
40 1 2932.75 2482.41 2142.81 -1 -1 2
41 1 2113.02 2803.49 2051 0 0 -1
42 1 2798.82 2643.65 2191.65 0 -1 0
43 1 2455.38 2560.99 2178.16 0 -2 0
44 1 2847.72 3116.2 1971.42 0 -1 0
45 1 2472.49 2371.84 2716.57 0 0 0
46 1 2793.25 3209.87 2877.01 -1 -1 0
47 1 3110.24 3013.31 2289.77 -1 -1 -1
48 1 2996.79 2197.44 2713.64 0 0 -1
49 1 2785.25 2539.97 2324.3 -1 0 1
50 1 2888.53 1943.74 3061.66 -1 0 0
51 1 3048.74 1781.75 2301.29 -1 -1 1
52 1 3276.97 2527.83 3186.1 -1 0 -1
53 1 2921.42 2104.83 3117.45 -2 0 -1
54 1 3055.15 2329.68 2849.24 0 0 -1
55 1 2873.81 2876.28 2832.78 -2 0 -1
56 1 2930.87 2254.39 1915.84 0 0 0
57 1 2116.6 2515.66 3195.65 0 0 -1
58 1 2475.47 2591.37 3182.49 0 0 -1
59 1 2603.88 3109.8 2704.28 -1 -1 0
60 1 2159.53 2966.82 1851.64 -1 -1 1
61 1 2032.81 2722.42 2466.1 -1 0 0
62 1 2565.28 1754.44 2942.62 0 0 -1
63 1 2986.93 2283.48 2952.39 -1 0 0
64 1 2773.76 2595.96 3005.55 0 -1 -1
65 1 3006.5 2899.21 2678.9 -1 -1 -1
66 1 3040.5 2803.96 2522.54 -1 0 1
67 1 2495.28 2448.13 1929.22 0 0 0
68 1 2318.67 2832.58 3076.74 0 -1 -1
69 1 1785.95 2560.46 2731.72 0 0 0
70 1 1933 1799.07 3115.02 0 1 -1
71 1 2103.22 2642.73 2528.89 -1 0 -1
72 1 2679.58 2168.47 3268.04 0 0 -1
73 1 2613.48 1835.9 1720.65 0 1 1
74 1 2962.81 2666.88 2227.95 -1 0 -1
75 1 2116.08 2481.27 1908.18 0 0 1
76 1 1865.84 1915.87 2890.63 -1 0 0
77 1 2586.02 2491.95 3095.82 -1 -1 -1
78 1 1893.18 3259.7 1995.27 0 -1 0
79 1 2163.78 2380.33 2519.73 0 -1 0
80 1 2987.94 2422.95 2466.65 -1 0 0
81 1 3270.51 2003.33 2009.88 -1 0 0
82 1 2035.41 2290 3134.98 1 0 0
83 1 2483.5 2138.85 2660.64 -1 -1 -1
84 1 2104.22 3264.79 3178.83 1 0 -1
85 1 2501.4 2421.45 2455.41 0 -1 0
86 1 3149.61 2405.88 2778.16 -1 0 0
87 1 1936.75 2100.48 2834.56 0 -1 -1
88 1 1799.66 2715.28 2131.65 0 -1 0
89 1 2788.88 2766.42 1956.3 0 0 0
90 1 3190.98 3053.93 2356.26 -2 -1 0
91 1 1882.38 3188.65 2867.75 0 -1 -1
92 1 2096.66 2748.07 2486.68 0 -1 -1
93 1 2277.51 3135.85 2686.15 1 0 0
94 1 2293.08 2215.91 3137.66 0 0 -1
95 1 1954.27 2445.11 2799.63 -1 -1 -1
96 1 2721.81 2467.63 2072.46 -1 0 0
97 1 2335.23 2426.97 2118.58 0 -1 1
98 1 2663.41 2173.79 2891.78 -1 -1 0
99 1 2469.36 2801.93 2915.04 0 -1 -1
100 1 2700 2093.25 1794.06 -1 0 0
101 1 1785.84 2839.19 2387.89 0 -1 0
102 1 2308.18 1746.05 2647.52 -1 0 0
103 1 2814.22 2508.21 2158.11 -1 0 0
104 1 3207.36 2668.56 2447.2 0 -1 -1
105 1 3157.99 2973.93 2725.12 -1 0 0
106 1 3201.47 2085.05 2781.95 0 1 -1
107 1 2721.82 2235.49 2454.47 -1 -2 0
108 1 3112.17 3025.86 1848.33 -1 0 -1
109 1 2294.49 2527.62 2424.74 -1 -1 0
110 1 2717.82 2707.88 1841.83 0 -1 0
111 1 3195.78 1708.78 3200.54 -1 0 -1
112 1 2629.23 1864.15 2908.99 0 0 0
113 1 2402.9 2694.89 2883.23 0 0 -1
114 1 2683.28 2428.49 2865.21 -1 0 0
115 1 2299.5 2644.78 2950.79 0 0 -1
116 1 2804.89 2436.29 2834.52 0 0 0
117 1 2381.37 3231.17 2708.24 0 -1 -1
118 1 2180.74 2747.54 2312.79 -1 0 -1
119 1 3150.86 2892.37 2282.11 0 -1 0
120 1 2729.33 2345.28 1945.15 1 0 0
121 1 2999.34 3085.64 2963.45 -1 0 0
122 1 2749.35 2991.82 2469.06 0 0 -1
123 1 1899.58 1872.6 3216.96 -1 1 -1
124 1 2580.56 2516.13 1799.09 0 0 1
125 1 1902.17 2978.99 2066.18 0 -2 0
126 1 2249.08 3287.66 2926.6 0 0 -1
127 1 2731.17 2304.39 2174.5 -1 -1 0
128 1 2146.03 2315.18 3289.17 -1 0 0
129 1 2477.29 2444.48 2413.01 -1 0 0
130 1 3189.58 2614.49 2093.01 0 -1 0
131 1 2853.8 3044.59 1737.52 -1 -1 0
132 1 2599.01 2758.16 2933.28 0 -1 -1
133 1 2540.23 2420.33 2810.25 0 0 -1
134 1 2040.93 3089.5 2487.09 -1 -1 -1
135 1 2231.17 3230.81 3180.51 0 -1 -1
136 1 2898.86 2179.85 3017.54 -1 0 0
137 1 3043.51 2008.8 2046.32 -1 0 0
138 1 2719.95 2568.16 1997.47 0 -1 0
139 1 2900.87 2576.12 2130 -1 -1 -1
140 1 2874.41 2924.92 2725.66 -1 -1 -1
141 1 2816.71 2759.06 2137.58 -1 1 0
142 1 2448.71 2292.34 2815.62 0 1 -1
143 1 3033.85 2906.7 2301.36 -1 0 0
144 1 1778.4 2920.85 2554.99 -1 -1 0
145 1 2340.94 2275.58 2165.08 0 0 0
146 1 3151.72 2565.1 2207.55 -1 -1 0
147 1 1884.93 2483.94 2687.89 0 0 -1
148 1 2712.61 2674.48 2379.59 -1 -1 1
149 1 2937.14 2792.37 2723.68 0 0 0
150 1 2438.1 2580.88 2551.35 0 0 0
151 1 2544.55 2956.65 2723.47 0 -2 -1
152 1 3169.92 2613.65 2872.37 -1 -1 0
153 1 2847.38 2750.41 2817.98 -1 -1 -1
154 1 3092.99 2663.58 2309.18 -1 0 -1
155 1 2899.26 2388.36 2536.51 0 0 0
156 1 2108.18 2510.4 3050.52 0 0 -2
157 1 3259.53 2910.04 2356.27 0 0 -1
158 1 2700.52 2711.01 2100.26 -1 -1 0
159 1 2965.53 2631.75 2641.69 0 -1 0
160 1 2857.43 2017.02 2795.55 -1 0 0
161 1 2670.35 2699.53 1968.76 0 0 -1
162 1 2764.61 2125.44 2530.72 0 -1 0
163 1 2403.29 2572.68 2823.06 0 0 -1
164 1 3076.99 2452.81 2001.37 0 -1 -1
165 1 2306.08 2205.02 3202.62 0 0 -1
166 1 1744.58 2688.32 2028.48 0 0 -1
167 1 2639.33 2683.89 2370.72 0 -1 0
168 1 1962.5 2214.51 2910.4 0 0 0
169 1 2225.27 3117.14 1921.02 0 -1 -1
170 1 2904.71 2882.1 2374.93 0 -1 0
171 1 2777.79 2172.1 2969.6 -1 -1 -1
172 1 2600.28 2889.04 2175.43 0 -1 -1
173 1 2767.61 2400.33 2520.86 -1 0 -1
174 1 2822.34 1923.54 3213.6 -2 0 -1
175 1 3039.24 2944.33 1757.5 -1 -1 -1
176 1 2170.68 2146.51 2916.51 0 0 0
177 1 2779.51 3161.43 1839.11 -1 0 0
178 1 3144.88 2223.89 2768.4 -1 0 0
179 1 2005.22 2218.58 2963.1 -1 0 0
180 1 3102.74 2850.64 2911.97 0 0 -1
181 1 1848.1 2636.66 2992.83 0 -1 1
182 1 2818.31 3196.55 2221.82 0 -1 0
183 1 1764.66 2945.48 2077.32 0 -1 0
184 1 2882.33 2264.35 2666.07 0 -1 1
185 1 1839.45 2318.75 2619.36 0 0 -1
186 1 2992.48 2355.38 1955.25 -1 0 -1
187 1 3266.76 2642.46 2783.62 0 0 -1
188 1 2572.11 1733.23 3243.64 0 1 -1
189 1 3236.78 2142.53 3168.11 -1 0 -1
190 1 2580.88 2647.89 2487.39 -1 0 0
191 1 2829.45 1828.44 3067.27 0 0 0
192 1 3118.7 3152.96 1889.34 -1 -1 0
193 1 3185.42 2762.26 2871.38 -2 -1 0
194 1 2856.15 2183.99 2023.74 0 -1 -1
195 1 2196.84 2592.04 2741.94 -1 0 0
196 1 2407.16 2514.3 3260.1 0 0 -1
197 1 2220.85 2320.79 1800.79 -1 1 1
198 1 2782.74 3104.91 3168.29 -1 -1 0
199 1 2353.99 3076.37 1753.9 0 0 1
200 1 2131.46 2005.88 2927.41 0 0 -1
201 1 3105.63 2224.05 2923.89 -1 0 0
202 1 2576.13 2389 3178.35 -1 -1 -1
203 1 3019.79 3010.27 3197.05 -1 -1 0
204 1 2453.11 2364.79 2934.72 0 -1 -2
205 1 2933.11 2612.38 2989.78 -1 -1 0
206 1 3137.58 1801.48 3121.05 -1 0 0
207 1 2428.08 2722.02 3162.44 -1 -1 -1
208 1 2436.79 2247.56 2691.86 0 0 -1
209 1 2692.59 2659.27 2924.5 -1 -1 0
210 1 3003.15 2538.37 1897.45 0 -1 0
211 1 2799.59 2882.57 1903.32 -1 -1 0
212 1 2381.06 1717.69 2380.07 0 0 -1
213 1 2976.44 2670.32 2501.46 0 1 -1
214 1 2418.85 2846.03 2473.17 0 -1 0
215 1 1709.22 2906.54 1967.57 0 0 -1
216 1 2648.85 2357.13 3094.59 -1 0 -1
217 1 2881.3 2200.75 2146.46 -1 0 1
218 1 2200.6 2600.24 2035.96 0 0 0
219 1 3014.43 2895.57 2442.52 0 -1 0
220 1 2215.68 2442.54 3085.22 -1 0 -1
221 1 2935.65 1847.58 2988.32 -1 0 -1
222 1 2821.99 2222.31 1712.26 0 -1 1
223 1 2467.5 2460.71 3143.32 0 -1 -2
224 1 1813.65 3150.49 2495.86 0 -1 0
225 1 2773.02 3233.04 2451.65 0 -1 0
226 1 2750.17 2545.68 2864.36 0 -1 0
227 1 3164.84 2411 2650.67 -1 -1 -1
228 1 1748.89 3074.67 1759.6 0 0 1
229 1 2845.05 2129.78 2259.83 -1 -1 0
230 1 1797.17 2435.52 2592.27 0 0 -1
231 1 2135.17 2712.35 2433.97 -1 -1 0
232 1 2151.25 3214.01 3285.61 0 -1 -1
233 1 3166.2 2733.51 2735.83 -1 0 1
234 1 2049.12 1918.4 2567.13 0 -1 -1
235 1 2701.21 2365.8 1820.97 -1 -1 0
236 1 2507.76 2554.37 2167.79 -1 0 0
237 1 2991.45 2526.48 2905.91 0 -1 0
238 1 2936.74 2792.26 2462.5 0 -1 0
239 1 2700.08 2575.9 2125.51 -1 -1 0
240 1 2196.76 2550.66 2552.27 1 0 -1
241 1 2680.81 3203.38 1950.95 0 -1 0
242 1 2622.97 2107.91 1900.64 0 -2 0
243 1 1972.28 3260.45 1871.59 0 -1 0
244 1 2920.36 2576.62 2746.42 0 -1 -1
245 1 3087.66 1773.4 2515.99 -1 0 0
246 1 2857.96 1971.36 2667.82 0 -1 0
247 1 2437.92 3241.25 2596.74 0 -1 0
248 1 3080.74 2776.29 2080.27 -1 -1 0
249 1 3083.58 2625.06 2984.77 0 0 0
250 1 3248.31 1877.41 3119.01 -1 0 -1
251 1 2990.98 2678.44 2050.82 0 -1 0
252 1 2884.17 1836.51 2662.13 -1 0 0
253 1 1868.72 2638.2 2073.27 1 0 0
254 1 3196.98 2287.61 2589.2 -1 0 -1
255 1 2804.31 2019.47 3138.82 -1 0 -1
256 1 2430.38 2421.96 2805.54 -1 0 0
257 1 2839.15 2994.59 2011.35 -1 -1 0
258 1 2566.33 2095.89 2852.21 0 0 -1
259 1 2616.93 2132.11 3168.76 -1 0 -1
260 1 2623.09 2536.58 2932.72 0 0 0
261 1 1771.75 2095.99 2322.43 0 0 0
262 1 3054.82 2524.35 2122.65 -1 0 -1
263 1 2578.22 2807.79 2795 -1 0 -1
264 1 2260.28 2402.97 1912.54 0 0 -1
265 1 3199.89 2024.53 2919.77 -1 0 -1
266 1 2970.2 1861.61 3122.43 -1 0 -1
267 1 1764.16 2320.21 2900.61 0 0 -1
268 1 2217.94 2501.1 2554.97 0 -1 0
269 1 2797.03 1772.44 2846.81 -1 0 0
270 1 2334.41 2172.28 3170.47 0 0 -1
271 1 2071.63 2811.98 2391.38 0 -1 -1
272 1 2567.52 2414.76 2946.75 -1 0 -1
273 1 2171.06 2387.98 2917.3 0 0 -1
274 1 2347.42 2554.06 2957.38 1 -1 0
275 1 2868.11 2454.83 1922.41 -1 0 1
276 1 2774.67 2649.67 1735.92 -1 -1 0
277 1 2602.71 2615.82 2050.29 0 0 1
278 1 1733.02 1802.62 2760.36 0 0 -1
279 1 2348.98 2711.55 2459.77 0 -1 0
280 1 2453.88 2468.75 3015.24 -1 0 -1
281 1 1988.29 2847.07 2659.4 0 -1 0
282 1 2041.01 2333.23 2886.32 0 -1 0
283 1 2334.86 3165.79 3231.45 0 -1 -1
284 1 2171.68 2300.51 3126.91 0 0 -1
285 1 3279.43 2703.65 2908.44 -1 0 -1
286 1 2870.83 2107 2880.57 -1 1 0
287 1 2771.54 2039.68 1872.28 0 0 0
288 1 2346 2351.78 2711.95 1 0 0
289 1 2154.04 2690.94 2674.91 0 -1 0
290 1 2965.07 2484.48 2355.9 -1 -1 0
291 1 2278.44 2682.3 2445.46 -1 -1 0
292 1 3150.78 2268.01 2737.92 -1 0 -1
293 1 2621.75 2553.42 2551.06 0 0 1
294 1 2547.76 2637.83 2643.26 0 -1 -1
295 1 1979.86 3185.36 2542.14 0 -1 0
296 1 3136.42 2484.68 2888.23 0 0 0
297 1 2856.79 2330.71 2560.47 -1 0 0
298 1 2403.78 2426.46 2607.49 0 0 0
299 1 1836.27 2181.45 2544.64 1 0 0
300 1 2082.47 2438.08 3153.06 0 0 0
301 1 2374.42 2483.4 2555.65 -1 0 -1
302 1 3175.65 1997.42 1770.95 -1 0 0
303 1 2954.12 3209.34 1931.73 0 -1 0
304 1 2307.92 2765.51 3104.38 1 -1 -1
305 1 2412.52 1890.47 3113.95 0 0 -1
306 1 1807.89 3183.83 1752.51 0 -1 0
307 1 3049.76 2426.31 2047.18 -1 0 -1
308 1 1799.92 1848.38 1732.52 0 0 0
309 1 2644.52 2927.25 2334.51 0 0 -1
310 1 1882.51 2013.36 2732.91 0 0 -1
311 1 2176.01 2800.57 1760.88 0 -1 -1
312 1 2816.45 2346.43 2618.82 0 -1 1
313 1 2150.64 2078.81 3025.98 0 -1 -1
314 1 1888.29 2346.84 2846.37 1 0 0
315 1 1962.98 1894.31 2662.9 0 0 0
316 1 2867.74 2888.71 1787.43 -1 0 0
317 1 2212.62 2829.19 2601.17 1 0 -1
318 1 3251.84 3058.2 2791.35 0 -1 -1
319 1 2908.73 2190.15 1784.7 -1 0 0
320 1 2439.72 2666.33 2693.86 0 -1 0
321 1 2632.49 2267.84 3181.15 -1 0 0
322 1 2322.36 2465.88 1833.49 0 -1 0
323 1 2038.82 2102.42 2923.39 0 0 -1
324 1 3237.54 2347.23 1765.98 0 0 0
325 1 2119.32 3137.89 2870.2 0 0 0
326 1 2695.21 2774.05 2858.5 0 0 -1
327 1 2590.93 3009.55 2607.46 0 -1 0
328 1 2147.94 2240.13 2550.08 0 0 0
329 1 2129.03 2752.29 2049.05 0 0 0
330 1 2670.68 2519.75 2772.86 0 0 0
331 1 2474.43 2573.77 2053.27 -1 0 0
332 1 2262.19 2822.16 3031.14 0 -1 -1
333 1 2865.13 2509.57 2941.24 0 0 0
334 1 2889.63 3290.31 3144.64 -2 -1 0
335 1 2533.3 2884.1 2411.48 0 0 0
336 1 2461.48 2383.45 3262.72 0 -1 -1
337 1 1800.72 2427.11 2209.47 0 0 0
338 1 2689.39 2710.01 3219.45 0 -1 -1
339 1 2851.67 2680.46 3068.44 0 -1 0
340 1 2468.52 2455.31 2595.61 0 -1 0
341 1 2697.35 3174.62 3082.82 0 -1 -2
342 1 2787 2841.55 2931.88 0 -1 0
343 1 2749.92 2075.02 2867.68 1 -1 0
344 1 2931.57 2982.99 2971.38 0 -1 -1
345 1 2544.41 2284.76 1710.71 0 0 0
346 1 2665.38 2424.23 1847.62 0 -1 0
347 1 2486.77 2467.42 2790.33 -1 0 -1
348 1 2192.42 2473.21 2593.44 -1 -1 -1
349 1 2795.99 2631.57 2602.43 -1 0 0
350 1 2254.21 2290.54 2055.56 0 1 0
351 1 2047.46 1733.86 3075.72 0 0 -1
352 1 2361.9 2279.98 3016.3 0 1 0
353 1 2995.71 2614.1 2373.35 0 -1 0
354 1 2191.67 2610.32 2337.68 0 0 0
355 1 2368.21 2760.14 2991.19 0 -1 -1
356 1 2251.64 3066.74 1806.07 0 -1 0
357 1 2153.42 2882.72 2821.79 0 -1 -1
358 1 2987.68 3280.32 2227.51 -1 -1 0
359 1 2627.04 2306.52 2890.93 0 0 0
360 1 2212.1 1749.42 3247.31 0 1 -1
361 1 3202.94 2585.2 2341.35 -1 0 0
362 1 2786.11 2625.25 2795.83 0 -1 0
363 1 2514.59 2381.96 3059.34 0 0 -1
364 1 2812.36 2703.29 2945.87 -1 0 0
365 1 2161.2 3116 2750.32 0 -1 0
366 1 2019.53 2592.22 1842.41 0 0 0
367 1 2260.66 2574.06 2852.07 0 -1 -1
368 1 2635.01 1924.9 2584.98 -1 0 0
369 1 3042.64 2724.78 2675.68 0 0 -1
370 1 3109.12 2779.77 2199.4 -2 0 0
371 1 3180.31 2219.5 1998.51 -1 0 0
372 1 2942.55 2954.2 3246.25 -1 -1 -1
373 1 2838.6 2617.34 2805.45 0 1 0
374 1 2526.03 1941.51 2556.25 0 0 0
375 1 3035.01 1764.2 2360.22 0 0 -1
376 1 2699.32 2645.65 2504 0 1 0
377 1 3099.04 2490.71 2347.31 0 0 0
378 1 2330.58 1982.49 2893.77 0 1 -1
379 1 2897.72 2550.68 2246.5 -1 -1 0
380 1 2613.2 2174.5 2023.02 -1 0 0
381 1 2251.45 2538.23 3012.74 0 0 -1
382 1 3129.67 2858.35 2772.42 -1 -1 0
383 1 2720.63 2324.15 2353.49 -1 0 0
384 1 2824.49 2777.54 2383.65 0 -1 0
385 1 2984.34 2727.52 2337.99 0 0 0
386 1 2827.9 2962 2595.15 -1 0 0
387 1 2989.83 2348.08 2752 -1 0 -1
388 1 1714.91 2752.36 2855.37 0 0 -1
389 1 2444.21 2515.2 1826.77 0 0 0
390 1 1753.77 2648.78 1717.98 0 -1 0
391 1 2416.57 1973.63 1836.48 0 0 0
392 1 1939.43 2553.83 2973.72 -1 -1 -1
393 1 2587.74 2427.54 2690.66 0 0 1
394 1 1968.69 2164.93 3110.91 1 0 -1
395 1 2459.94 2455.1 2074.28 0 -1 -1
396 1 1776.32 2795.05 2580.63 1 0 0
397 1 2770.65 2802.57 1759.91 -1 0 0
398 1 2226.67 2436.4 2824.47 0 -1 0
399 1 2100.15 1828.27 2797.57 0 0 0
400 1 2205.69 2351.5 2717.52 -1 0 -1
401 1 2509.11 2473.85 2445.17 0 0 -1
402 1 2231.45 2556.62 3272.98 0 0 -2
403 1 1808.8 2106.13 3026.78 0 0 -1
404 1 2595.32 2662.38 2182.62 0 0 0
405 1 2666.13 3026.33 2793.79 -1 0 0
406 1 2130.02 2857.58 2298.73 0 -1 0
407 1 1919.88 2905.16 2894.13 -1 -1 0
408 1 3235.93 2411.82 2889.12 0 0 -1
409 1 3089.96 2661.25 2562.27 0 -1 -1
410 1 2586.67 2261.45 2438.76 0 0 -1
411 1 2145.12 2076.28 2027.34 0 0 0
412 1 2406.94 3000.77 2815.79 0 0 0
413 1 1798.2 2659.33 2851.47 0 0 -1
414 1 2047.42 2824.83 2803.13 0 -1 -1
415 1 2074.68 2390.21 2767.27 0 0 -1
416 1 2631.18 2662.09 1765.81 0 0 0
417 1 1860.33 2123.04 2423.66 -1 0 -1
418 1 3224.56 2974.53 2059.52 -1 0 1
419 1 2217.94 2593.27 2498.4 0 0 0
420 1 3105.07 2824.78 2359.39 -2 -1 -1
421 1 2841.29 2504.95 1827.21 -1 0 0
422 1 1816.29 2975.96 1956.11 0 -1 0
423 1 3024.2 2713.62 1757.83 0 -1 0
424 1 2037.31 2824.07 3138.92 0 -1 -1
425 1 2383.77 2833.8 3202.7 0 0 -1
426 1 2813.53 2588.28 2767.71 -1 0 -1
427 1 3106.62 2317.86 2241.1 -1 -1 0
428 1 2343.39 2932.63 2562.25 0 -1 -1
429 1 2882.93 2760.39 2253.2 -1 0 0
430 1 2082.15 1922.71 2264.53 0 -1 0
431 1 2610.32 2398.87 1737.83 0 0 0
432 1 1999.85 2826.61 2283.78 0 -1 0
433 1 2227.41 2669.23 2495.73 -1 -1 -1
434 1 3070.99 2697.95 2433.31 -1 0 0
435 1 2832.84 2075.72 3009.52 -1 0 0
436 1 2891.03 2701.52 1751.21 -1 0 0
437 1 2728.77 2238.55 2030.98 0 1 0
438 1 3257.82 2503.37 2654.26 -1 -1 -1
439 1 2819.31 2378.02 1896.96 0 0 0
440 1 3003.48 2011.86 3054.39 -1 0 -1
441 1 2738.65 1917.43 3095.22 -1 0 -1
442 1 1899.65 2567.51 2775.56 0 0 0
443 1 3029.81 2522.48 3031.08 0 -1 0
444 1 2806.15 2650.03 2050.76 -2 0 0
445 1 2433.26 2949.22 2544.96 0 -1 0
446 1 2932.71 1977.12 3184.27 -1 0 -1
447 1 2636.22 2701.04 2607.3 0 0 0
448 1 2051.67 2702.22 2291.5 -1 -1 0
449 1 2273.62 2457.75 1856.46 -1 0 0
450 1 2000.5 2433.44 3072.55 0 0 -1
451 1 2031.46 2728.97 2719.82 0 -1 -1
452 1 2166.38 2213.23 3038.54 0 0 0
453 1 3070.55 3057.62 2398.33 -1 0 0
454 1 1998.25 2228.55 2254.47 0 0 -1
455 1 2730.61 2613.47 3116.1 -1 0 -1
456 1 2913.33 1802.56 1755.94 0 1 0
457 1 2496.25 2749.26 2430.75 0 -1 -1
458 1 1952.59 2173.72 2961.2 0 1 -1
459 1 2083.38 2450.45 2212.3 0 -1 -1
460 1 3104.11 2484.56 2559.39 -1 -1 0
461 1 2819.17 2718.71 2502.06 0 -1 0
462 1 2951.11 2756.02 2585.88 -1 0 -1
463 1 3199.07 2076.19 2934.7 -1 0 -1
464 1 2673.95 2618.43 2653.55 0 0 0
465 1 1745.16 2718.06 2452.22 1 0 -2
466 1 2764.84 2959.64 2697.83 -1 -1 0
467 1 2684.45 2586.7 1857.26 0 1 0
468 1 3123.45 2801.01 1796.79 0 -1 1
469 1 2874.9 2523.89 2643.4 0 -1 -1
470 1 2869.3 2989.22 1875.55 -1 -1 -1
471 1 2874.45 2653.47 2333.26 0 0 0
472 1 2740.52 2929.63 1792.15 0 -1 0
473 1 1730.14 2399.75 3007.5 1 -1 0
474 1 2938.36 2358.04 2838.96 -2 -1 -1
475 1 2831.84 2518.8 2031.35 0 -1 0
476 1 2870.18 3255.82 2089.43 -1 -1 0
477 1 3113.91 2346.35 1998.64 0 -1 -1
478 1 2611.69 2489.52 1997.03 -1 -1 0
479 1 2611.15 1782.98 2303.16 0 0 -1
480 1 3167.56 2255.4 2461.57 -1 0 0
481 1 2906.85 1818.23 3288.23 0 1 0
482 1 2651.06 1985.07 2859.02 0 -1 -1
483 1 2959.82 2234.07 2816.15 -1 1 0
484 1 2765.04 2907.56 2352 -1 -1 0
485 1 2325.62 3069.56 2589.02 -1 -1 -1
486 1 3245.39 2914.41 1832.12 -1 -1 0
487 1 2716.45 2406.92 2737.84 -1 0 -1
488 1 2148.66 1817.17 2502.36 0 0 0
489 1 3077.49 2658.99 2137.86 -1 0 0
490 1 2954.5 2412.95 2982.14 -1 0 -1
491 1 2642.23 2730.26 2715.67 0 0 -1
492 1 2808.7 2536.32 3271.81 0 -1 0
493 1 2720.82 2459.35 2403.89 -1 0 0
494 1 2334.5 2402.94 3065.74 1 -1 0
495 1 2980.14 2795.64 2168.35 0 -1 0
496 1 2859.12 2614.62 2755.62 1 0 0
497 1 2620.74 3235.84 2635.18 -1 -1 0
498 1 2694.85 2942.14 2581.75 0 -1 0
499 1 2325.6 2519.84 1834.84 -1 0 -1
500 1 2701.97 3025.77 2326.88 0 -1 -1
501 1 2477.12 2719.62 2560.01 -1 0 -1
502 1 1825.71 2951.66 2920.24 -1 0 0
503 1 2488.53 2488.93 2863.46 0 0 0
504 1 2289.38 2597.41 2509.84 0 0 0
505 1 2066.21 2496.9 3195.29 -1 0 -1
506 1 1754.73 2146.14 2208.98 -1 0 0
507 1 3155.35 2051.81 2954.12 -1 0 -1
508 1 1930.1 1837.92 1955.03 0 0 -1
509 1 1939.46 1875.68 2516.26 0 0 0
510 1 2678.6 2353.66 2614.69 -1 -1 -1
511 1 3241.48 3005.54 2467.28 0 0 -1
512 1 1867.04 3025.71 3128.33 0 -1 -1
513 1 2983.76 2505.25 2025.23 0 -1 0
514 1 2772.07 2233.43 2278.3 -2 0 1
515 1 2509.2 2168.49 2425.22 -1 0 -1
516 1 2523.35 3226.26 2688.96 -1 -1 0
517 1 2953.09 2935.48 3131.87 0 -1 -1
518 1 2135.91 2839.43 2706.81 0 0 -1
519 1 2647.05 2588.03 2401.81 0 0 0
520 1 2989.63 2805.46 1784.07 -1 0 0
521 1 2508.54 2396.5 1802.08 -1 0 1
522 1 2478.42 2609.59 2176.49 -1 0 0
523 1 2971.09 2910.25 1871.42 0 0 0
524 1 2625.46 2422.09 2498.17 -1 -1 0
525 1 3006.02 2154.01 2930.81 0 0 -1
526 1 2092.24 2364.17 2635.75 0 0 0
527 1 1708.82 2210.37 2851.97 0 -1 -1
528 1 3091.76 2431.73 2231.79 0 1 0
529 1 2498.53 2599.15 1735.25 -1 -1 0
530 1 1989.86 2703.04 2591.61 0 0 0
531 1 2161.25 3243.13 1927.35 0 -1 0
532 1 3082.37 2592.44 2016.97 -1 0 0
533 1 2993.2 1783.03 2322.41 -1 0 -1
534 1 2352.96 1711.1 2829.75 0 0 -1
535 1 2662.17 3201.41 2487.23 -1 -2 0
536 1 2279.6 2550.93 2128.92 -1 0 0
537 1 2699.08 2946.91 2218.32 -1 -1 0
538 1 2019.21 2058.94 3039.39 0 0 -1
539 1 3017.99 2435.97 2660.35 -2 0 -1
540 1 2753.88 3089.2 2440.61 0 0 0
541 1 2489.62 2904.99 2835.95 0 0 -1
542 1 2373.45 2729.5 2415.15 0 -1 0
543 1 2306.42 2676.71 2622.15 0 0 -1
544 1 2952.96 1972.85 2937.29 -1 1 -1
545 1 2251.57 2802.55 2715.03 -1 0 -1
546 1 3128.71 1901.03 1855.82 -1 0 0
547 1 2485.84 2336.86 2394.58 0 -1 0
548 1 1930.28 2014.55 2943.15 0 0 0
549 1 2684.95 2495.32 3118.72 0 0 0
550 1 2139.52 2226.08 1793.6 0 0 0
551 1 2361.31 2680.51 1869.46 0 -1 0
552 1 2653.92 3215.76 3216.17 0 -1 -1
553 1 2855.92 2637.88 3219.11 -1 0 -1
554 1 2284.81 2414.99 2612.66 0 0 0
555 1 2096.84 2345.52 3039.02 0 0 0
556 1 2544.06 2908.55 2530.83 0 0 -1
557 1 2672.43 2622.53 2280.96 -1 0 0
558 1 2538.58 3174.23 2552.57 -1 0 -1
559 1 2535.84 3029.91 2837.67 -1 0 0
560 1 1961.18 2766.52 1711.42 0 0 0
561 1 3140.05 2383.39 2477.01 -1 -1 -1
562 1 2056.42 3152.17 3229.73 0 0 -1
563 1 3232.37 2505.97 2815.42 -1 0 0
564 1 2571.25 2698.85 3157.79 0 1 -1
565 1 3180.04 2632.99 3154.7 0 0 -1
566 1 3192.91 2235.49 2746.74 -1 0 1
567 1 2538.45 1844.97 2804.23 0 0 0
568 1 2957.51 2885.47 2539.72 -1 -1 -1
569 1 2682.65 2239.94 2995.45 0 0 0
570 1 1862.17 2881.35 2637.02 0 -1 0
571 1 2882.29 2788.57 1857.19 -1 -1 0
572 1 2545.05 2730.74 2687.63 -1 -1 0
573 1 2240.43 2327.03 3022.98 1 0 -1
574 1 2908.62 3065.76 3212.34 -1 0 0
575 1 1950.02 2417.36 2926.53 0 0 0
576 1 3173.38 2265.82 2786.85 0 -1 -1
577 1 3104.7 2582.95 2451.58 -1 -1 -1
578 1 1741.86 2610.28 2378.15 1 0 1
579 1 2869.83 3190.43 2544.1 0 0 -1
580 1 2387.53 2681.92 2436.36 0 1 1
581 1 1913.49 2282.47 2456.72 -1 0 0
582 1 2978.62 3031.3 2308.78 0 -1 0
583 1 2530.65 2436.56 2412.68 0 0 0
584 1 3136.99 2941.2 2378.45 0 0 1
585 1 2973.55 3060.97 3087.27 -1 -1 -1
586 1 2918.65 2181.81 3239.87 -1 -1 -2
587 1 1727.16 2209.83 2620.22 1 0 -1
588 1 2017.42 2404.28 1998.55 0 0 0
589 1 2812.98 2982.63 3237.53 1 -1 0
590 1 3165.51 2706.05 2003.98 -1 -1 1
591 1 2197.83 1941.77 3026.64 -1 -1 -1
592 1 1968.67 2330.81 2736.2 0 0 0
593 1 1829.18 2214.66 2920.56 0 0 0
594 1 2144.46 3011.95 2882.86 -1 1 0
595 1 2871.97 1732.79 2926.5 -1 0 -1
596 1 2804.96 2447.05 1913.73 1 0 0
597 1 2667.19 2582.23 3095.88 0 0 0
598 1 2898.19 3114.08 1857.11 0 -1 0
599 1 2301.43 3214.78 2587.39 -1 -1 0
600 1 2893.89 2138.94 2756.87 -1 0 -1
601 2 3271.9 2359.08 1915.44 -1 0 0
602 2 1928.4 2006.73 2279.98 1 0 0
603 2 2961.49 3116.34 2155.53 -1 0 1
604 2 3030.99 2990.03 2819.98 0 -1 0
605 2 1777.33 1748.49 3160.83 0 0 0
606 2 1741.38 2563.04 2203.32 1 0 0
607 2 2142.6 2599.94 2152.87 0 0 0
608 2 2742.8 3082.55 2574.15 0 -1 0
609 2 2891.47 2199.02 2385.58 0 0 0
610 2 2625.62 2912.65 2929.88 0 0 0
611 2 1829.78 2896.41 1798.86 0 0 1
612 2 2477.88 3234.47 2244.28 0 -1 0
613 2 2037.67 2557.99 2663.82 0 0 -1
614 2 2593.14 2071.23 2527.26 0 0 0
615 2 1760.78 2683.45 3114.85 0 0 0
616 2 3213.49 3194.52 1754.45 0 0 0
617 2 1829.82 2862.92 2210.7 0 -1 0
618 2 2468.4 3186.12 2895.78 0 0 0
619 2 2734.68 2085.41 2679.03 0 1 0
620 2 3242.26 3180.47 2458.99 -1 0 0
621 2 1713.27 3201.26 2801.23 0 0 -1
622 2 2290.79 3231.42 1794.63 0 0 0
623 2 2304.12 2552.8 3086.56 0 0 -1
624 2 1720.99 2360.22 2725.22 0 0 -1
625 2 2662.38 1969.33 3218.76 0 0 0
626 2 1845.26 3047.71 2771.59 1 0 -1
627 2 2033.71 1740.75 2607.75 0 1 0
628 2 3105.49 2564.58 2699.69 -1 0 0
629 2 2271.71 2023.85 2286.2 0 0 0
630 2 2528.24 1820.15 2128.63 0 1 0
631 2 3096.43 1883.61 2964.76 0 1 0
632 2 2174.14 2994.21 2015.32 0 -1 0
633 2 1822.71 3000.47 2386.16 0 -1 0
634 2 3006.24 2688.94 2830.98 -1 0 0
635 2 1798.84 1809.48 2258.74 0 0 0
636 2 2780.39 1907.6 2910.31 -1 0 0
637 2 1843.35 2192.58 2724.86 1 0 -1
638 2 1778.36 1979.49 2143.03 0 0 0
639 2 3068.9 2847.69 3186.22 0 0 0
640 2 2640.84 3273.77 2781.41 0 0 0
641 2 2345.4 2016.48 2624.27 0 0 0
642 2 2537.04 2973.65 2010.46 0 -1 0
643 2 1803.64 1730.07 2439.32 0 0 0
644 2 3239.23 2547.84 1920.42 -1 0 1
645 2 2555.2 3047.14 2229.45 0 -1 0
646 2 2229.69 2984.81 2216.89 0 -1 0
647 2 2160.21 2120.23 3180.85 0 0 0
648 2 2540.09 2639.01 2803.38 0 0 0
649 2 3045.77 2097.86 1728.99 -1 0 0
650 2 3057.65 2309.74 2315.37 0 0 0
651 2 3168.5 2083.04 2107.68 -1 0 0
652 2 1799.21 1791.62 2053.45 0 0 0
653 2 2875.97 2498.24 3098.7 0 0 -1
654 2 2500.05 3157.33 3257.33 0 -1 -1
655 2 2541.21 1980.27 2699.19 0 0 0
656 2 2721.59 1877.06 2715.56 0 0 0
657 2 3023.85 2027.26 2770.75 -1 0 -1
658 2 2593.01 2227.24 2719.82 -1 0 -1
659 2 1733.41 2036.12 2652 1 0 0
660 2 2408.08 2302.49 1973.03 0 0 0
661 2 2612.15 1760.59 1954.03 0 0 0
662 2 1947.7 1893.82 1779.21 0 0 0
663 2 1923.24 2856.09 2473.96 0 -1 0
664 2 2585.82 3033.04 3106.56 0 0 -1
665 2 2453.53 2383.69 2210.68 0 0 0
666 2 2566.73 3172.08 2073.16 0 -1 0
667 2 2808.29 1725.96 1922.7 0 0 0
668 2 1936.62 2339.26 2138.36 0 0 0
669 2 3114.88 2354.7 3006.96 -1 0 0
670 2 2169.91 1841.65 2850.16 0 0 -1
671 2 2773.33 1861.69 1771.46 0 0 1
672 2 1937.63 2548.76 2197.39 0 0 0
673 2 2300.42 2327.44 2411.71 0 0 0
674 2 3214.48 1729.14 2156.26 -1 0 0
675 2 2937.22 2806.19 3006.75 -1 0 0
676 2 2579.3 1937.82 1836.42 0 0 0
677 2 2041.61 2940.86 2145.26 0 -1 0
678 2 3118.35 2883.1 1939.85 -1 -1 0
679 2 2026.71 2987.48 3118.61 0 0 0
680 2 3047.11 1949.3 2185.99 -1 0 0
681 2 2286.87 3099.1 2860.61 0 0 0
682 2 2853.38 2363.76 2258.86 0 0 0
683 2 2406.1 2895.63 2605.32 0 -1 0
684 2 1892.06 3065.85 2211.01 0 -1 0
685 2 1926.17 3159.38 3099.71 0 0 -1
686 2 1921.08 2445.97 1842.14 0 0 0
687 2 2518.86 2847.62 3076.9 -1 -1 0
688 2 2916.9 3026.52 2462.44 -1 -1 0
689 2 2132 3152.47 3037.19 0 -1 0
690 2 3185.05 3013.26 3256.53 0 1 -1
691 2 2587.13 2322.32 2076.4 -1 0 0
692 2 2059.14 1715.48 2893.62 0 0 -1
693 2 3117.87 3188.37 2284.56 -1 -1 0
694 2 1850.97 2717.54 2685.83 0 0 0
695 2 2695.44 2114.36 2148.93 0 0 0
696 2 2389.25 1760.59 2976.81 0 1 0
697 2 1919.8 2031.31 2555.74 0 0 0
698 2 1950.77 2426.12 2516.74 1 0 0
699 2 2470.85 1741.5 1796.52 0 0 0
700 2 1733.64 2470.73 1765.54 0 0 0
701 2 3286.69 2850.67 2668.42 0 -1 -1
702 2 1847.98 2467.16 2364.38 0 0 0
703 2 2003.24 3108.19 2048.91 0 0 0
704 2 2206.76 3052.51 2404.16 0 -1 0
705 2 2037.02 1932.63 2801.15 0 0 -1
706 2 1918.28 2576.92 3279.37 0 0 0
707 2 1911.01 3034.55 2576.6 0 -1 0
708 2 1855.59 2602.12 2510.67 1 0 0
709 2 1849.66 1727.47 2970.59 0 0 0
710 2 2714.92 1779.43 3185.65 0 0 -1
711 2 1993.19 2954.43 1913.7 0 -1 0
712 2 2155.05 2671.89 3043.2 0 0 -1
713 2 2345.66 2475.36 2617.13 0 0 -1
714 2 2871.53 1964.26 2294.47 -1 0 0
715 2 2564.77 2261.2 1871.65 0 0 0
716 2 2303.53 2906.09 1746.78 0 0 0
717 2 3031.92 1723.51 3218.37 -1 0 -1
718 2 2656.86 2433.44 2222.05 -1 0 0
719 2 1964.34 1876.68 2124.53 0 0 0
720 2 1726.85 1981.35 3226.16 0 0 -1
721 2 3208.83 2440.05 2087.95 0 0 0
722 2 3272.75 3006.01 2197.56 -1 -1 0
723 2 2679.24 3074.51 3291.17 0 0 -1
724 2 3030.48 3177.42 2509.82 0 -1 0
725 2 2188.69 3263.92 2739.25 0 -1 -1
726 2 2250.07 2192.89 1903.76 0 0 0
727 2 3133.42 2437.68 1789.61 -1 0 0
728 2 2272.6 2143.9 2452.44 0 0 0
729 2 2914.97 1771.07 2489.29 -1 0 0
730 2 2928.78 2845.41 2005.52 -1 -1 0
731 2 2298.23 2708.16 3270.39 0 0 0
732 2 3201.2 1808.53 3285.34 -1 0 -1
733 2 2234.11 1790.27 1965.81 0 1 0
734 2 1841.75 2249.15 2284.89 0 0 0
735 2 2376.55 1838.85 2499.82 0 0 0
736 2 2211.58 3200.44 2075.13 0 -1 0
737 2 2164.39 2790.88 2093.33 -1 0 0
738 2 3170.08 2776.38 3027.4 0 0 0
739 2 2238.7 2987.33 3021.91 0 0 0
740 2 2880.61 1837.45 2144.1 0 0 0
741 2 2648.24 2050.42 2995.34 -1 1 0
742 2 2515.54 2112.14 1716.98 0 0 0
743 2 3267.69 2098.43 2462.4 -1 0 0
744 2 2589.88 2242.37 2249.28 0 0 0
745 2 2196.31 3044.37 3205.3 0 0 -1
746 2 2183 2618.06 1835.4 0 0 0
747 2 2773.52 2943.63 3054.45 0 0 -1
748 2 2435.39 1865.3 1960.7 0 0 0
749 2 2221.57 2059.93 2753.76 0 0 0
750 2 1788.75 1931.12 2427.82 0 0 0
751 2 3264.25 2673.95 2595.73 0 0 -1
752 2 3020.67 1728.64 2668.32 0 1 0
753 2 1770.75 2288.03 2097.26 0 0 0
754 2 2752.76 2373.42 3196.66 -1 0 0
755 2 2327.91 2105.8 2975.23 0 0 0
756 2 2593.55 3041.16 2426.48 0 -1 0
757 2 2389.32 2194.73 2312.77 0 0 0
758 2 3120.54 3145.79 2717.84 -1 -1 0
759 2 2713.29 1728.37 2127.53 0 0 0
760 2 2480.09 2638.96 3000.49 0 0 -1
761 2 2064.01 3113.35 1816.85 0 -1 0
762 2 2097.79 2083.86 2200.02 0 0 0
763 2 1851.04 2082.52 1779.52 0 0 0
764 2 2381.89 2880.08 2113.61 0 -1 0
765 2 2011.55 2355.02 2336.11 0 0 0
766 2 3145.51 2049.22 1887.99 -1 0 0
767 2 2397.85 1965 2133.22 0 1 0
768 2 1982.62 1813.83 2337.79 0 0 0
769 2 1928.13 3256.77 2170.58 0 -1 0
770 2 1743.98 2314.46 2459.82 1 -1 0
771 2 1800.15 2791.2 2972.27 1 0 -1
772 2 2021.58 2153.02 2393.41 0 0 0
773 2 2952.64 1869.1 1738.99 -1 0 1
774 2 1910.5 3056.5 3266.04 0 -1 -1
775 2 3220.19 3265.54 1962.98 -1 -1 0
776 2 2856.64 2805.98 3168.21 -1 0 -1
777 2 3164.32 2621.49 1739.45 -1 0 0
778 2 2105.39 2206.91 2753.58 0 0 -1
779 2 2840.43 2054.48 1713.1 -1 0 0
780 2 2966.7 2550.38 1721.01 -1 0 0
781 2 3059.54 1731.21 1837.44 -1 0 0
782 2 2504.74 2175.97 2952.14 0 0 0
783 2 1977.57 3061.62 2930.14 0 -1 -1
784 2 1799.43 1851.12 2602.23 0 0 -1
785 2 3005.91 3036.57 1972.48 -1 -1 0
786 2 1884.44 1990.79 1968.05 1 0 0
787 2 2543.09 2778.96 2043.34 0 0 0
788 2 2402.26 2116.49 2793.91 0 0 0
789 2 1814.89 2169.6 3186.17 0 0 -1
790 2 3216.84 1987.8 2316.99 -1 0 0
791 2 3128.29 1725.53 2841.58 0 0 -1
792 2 2087.83 2491.41 3265.61 0 0 -1
793 2 2060.55 1843.73 3202.48 0 0 0
794 2 3020.06 1929.44 2606.69 -1 0 0
795 2 2034.08 2975.23 2731.63 0 0 0
796 2 1832.12 2499.69 3075.14 0 0 -1
797 2 3028.65 3276.4 3005.11 -1 -1 -1
798 2 2006.69 3184.37 2731.86 0 0 0
799 2 3082.4 2165.03 3055.83 -1 1 -1
800 2 3091.47 2944.62 3017.08 -1 0 -1
801 2 2280.26 2257.24 2840.75 0 0 0
802 2 1910.51 1773.29 2768.46 0 1 0
803 2 2536.84 3139.42 1871.53 0 -1 0
804 2 2498.83 2770.7 2244.9 0 -1 0
805 2 2245.49 1823.85 2341.83 0 0 0
806 2 3245.28 2814.97 2090.54 -1 -1 0
807 2 3121.19 3136.44 3125.9 -1 0 -1
808 2 2852.45 2336.58 2037.56 -1 0 0
809 2 3178.82 1896.75 2726.57 0 0 0
810 2 2461.97 1915.61 3256.43 0 0 -1
811 2 1834.52 1920.14 3051.5 1 0 0
812 2 2575.26 1866.06 3061 0 0 -1
813 2 2375.85 1871.66 2754.9 0 0 0