ITEM: TIMESTEP
141000
ITEM: NUMBER OF ATOMS
1000
ITEM: BOX BOUNDS pp pp pp
1.5658465731698420e+03 3.4341534268297937e+03
1.5658465731698420e+03 3.4341534268297937e+03
1.5658465731698420e+03 3.4341534268297937e+03
ITEM: ATOMS id type x y z ix iy iz
1 2 3300.12 3153.12 1752.11 0 0 0
2 2 1893.4 1639.06 2626.01 0 1 -1
3 2 2159.93 3395.46 1758.14 0 -1 1
4 2 1875.08 2071.16 2925 0 0 -1
5 2 3306.46 1569.42 2926 0 0 -1
6 2 2084.69 2449.85 2099.32 -1 0 -1
7 2 2170.27 2359.33 2129.05 0 0 0
8 2 1632.87 3336.02 2551.61 0 0 0
9 2 3286.18 2452.36 2226.05 -1 0 0
10 2 1960.52 3213.18 2886.1 0 0 0
11 2 2821.69 2376.28 2926.85 0 0 0
12 2 1591.68 3165.73 2904.99 0 0 -1
13 2 1658.44 2290.48 1732.82 1 0 1
14 2 1692.23 3180.09 1969.72 0 0 0
15 2 3277.97 1702.37 3144.12 0 0 -1
16 2 1922.47 3395.9 1719.11 0 -1 0
17 2 2448.69 2090.32 3249.74 2 1 0
18 2 2363.44 2306.09 3153.02 0 1 -1
19 2 2292.57 1942.26 3365.56 0 0 0
20 2 3349.35 1686.59 2896.23 0 1 0
21 2 1947.91 2529.93 1753.07 0 1 1
22 2 1699.73 3066.25 1895.63 0 0 1
23 2 2842.45 3017.21 2013.13 -1 1 0
24 2 1595.04 1954.75 3287.99 1 0 -1
25 2 2281.44 1639.41 1579.9 0 1 1
26 2 2823.02 2251.89 2690.24 0 0 1
27 2 1867.48 2872.02 3230.71 0 0 0
28 2 1673.57 2423.92 3402.68 0 0 0
29 2 3334.95 2193.4 2549.62 -1 1 0
30 2 3226.34 1896.23 3375.89 -1 1 0
31 2 1750.91 3057.97 3220.94 0 -1 0
32 2 1676.81 3416.4 2645.36 0 0 0
33 2 2170.16 2091.41 2139.5 0 0 0
34 2 2195.25 1839.23 3337.85 0 1 0
35 2 3107.98 3216.39 3409.71 0 -1 0
36 2 2240.65 1574.74 2862.91 0 1 0
37 2 1764.9 1747.63 2643.34 0 0 0
38 2 1605.59 2630.86 1622.96 0 1 0
39 2 3370.2 2473.95 1811.92 -1 1 0
40 2 2201.52 2062.3 3184.02 0 -1 0
41 2 1785.34 3069.1 2007.45 1 -1 0
42 2 3335.04 2314.51 1620.71 -1 0 0
43 2 1799.66 2418.89 2184.39 1 0 1
44 2 3013.39 2882.59 3148.43 1 -1 0
45 2 1723.53 2328.03 2135.1 0 0 0
46 2 3035.45 1696.44 2156.51 0 1 0
47 2 3370.39 2689.3 2296.98 -1 0 0
48 2 1587.09 2539.81 1722.42 1 0 0
49 2 3143.32 2373.6 1568.19 0 0 1
50 2 2347.53 3122.2 1973.96 0 0 1
51 2 2919.33 1697.58 2964.26 -1 1 1
52 2 2701.86 2365.44 2026.71 0 0 0
53 2 2121.42 2425.88 1751.73 0 0 1
54 2 1900.73 1750.37 2700.51 0 1 0
55 2 2650.4 2091.05 2715.73 0 0 -1
56 2 2028.71 2119.34 2142.03 0 0 0
57 2 1943.8 2312.91 2992.51 0 0 -1
58 2 1572.02 2102.66 2561.04 0 0 0
59 2 2855.91 2377.32 2097.65 -1 2 0
60 2 2099.4 3238.88 1725.43 0 0 0
61 2 3381.86 2345.22 2506.04 -1 0 0
62 2 3223.51 3151.98 3069.2 0 -1 0
63 2 1626.03 3252.17 3422.2 0 0 0
64 2 3360.96 2436.57 1691.3 0 0 1
65 2 2740.04 2165.72 2780.33 0 -1 0
66 2 3060.77 1735.51 3000.83 0 0 -1
67 2 2708.31 1633.33 2881.06 0 1 1
68 2 1851.85 2261.05 2453 0 0 1
69 2 2664.73 1961.93 1883.22 0 0 0
70 2 2291.18 3230.65 2955.3 0 0 0
71 2 1587.61 1695.67 1717.14 0 0 1
72 2 2778.42 2273.48 2567.93 -1 -1 0
73 2 3038.38 1659.48 1998.85 -2 -1 0
74 2 2153.98 1612.54 3393.57 0 1 -1
75 2 3131.4 2062.93 1704.9 0 0 0
76 2 2741.08 2616.89 2227.84 0 -1 0
77 2 3109.33 1924.11 1814.14 -1 1 1
78 2 1641.21 1863.77 2664.79 0 0 0
79 2 3362.42 2714.78 1606.03 -1 0 0
80 2 2177.99 3150.06 1841.65 0 0 -1
81 2 2317.59 1621.96 3312.2 0 2 0
82 2 2892.47 3064.05 2210.11 -1 0 -1
83 2 2400.01 3165.65 2582 0 0 0
84 2 2572.01 1984.73 1732.81 1 1 1
85 2 3070.93 1789.87 1771.89 0 1 0
86 2 3390.81 2355.51 1882.43 -1 0 1
87 2 1840.31 2146.04 2539.41 1 0 0
88 2 3433.31 3046.52 1668.7 -1 0 1
89 2 1603.38 2592.19 1860.91 1 0 1
90 2 3281.13 2267.08 3260.26 0 1 -1
91 2 2613.49 2980.68 2980.9 0 0 -1
92 2 2262.94 2317.5 1589.23 -1 0 0
93 2 2369.27 1628.9 1709.11 0 0 1
94 2 2360.08 2138.56 3330.15 1 1 -1
95 2 1802.03 2149.32 2999.47 0 0 -1
96 2 2105.42 3177.23 1603.05 1 0 1
97 2 3092.86 3296.93 2886.22 0 -1 0
98 2 3177.45 1725.72 1808.63 0 0 0
99 2 1693.11 2071.3 1630.67 0 0 0
100 2 2174.02 1821.13 3204.98 1 0 0
101 2 2415.94 2346.98 2807.28 0 0 0
102 2 2034.93 3341.16 1782.16 0 -1 0
103 2 3412.17 1920.99 2017.1 -1 0 0
104 2 2357.53 1720.07 1805.31 0 0 0
105 2 2240.26 1928.86 2899.45 0 0 0
106 2 2476.91 2046.16 1791.05 0 0 0
107 2 1840.27 2067.69 2306.28 0 0 0
108 2 3326.89 3257.01 1858.43 -1 0 0
109 2 2092.13 2031.21 2024.28 0 0 0
110 2 1863.25 2378.9 1668.62 0 0 0
111 2 1698.58 3114.66 3033.02 1 -1 -1
112 2 3296.93 1691.5 2303.51 -1 -1 0
113 2 2032.62 3260.57 2188.49 0 -1 0
114 2 2965.07 2460.04 1919.69 0 0 1
115 2 3358.18 2041.8 3262.11 -1 0 -1
116 2 1948.24 2051.23 2520.17 0 0 0
117 2 2256.16 3257.29 2011.48 0 -1 1
118 2 1674.22 3286.31 2672.19 0 -1 0
119 2 2219.85 1749.8 1816.05 0 0 0
120 2 3339.54 3396.56 2216.23 -1 -1 0
121 2 3350.66 1996.55 2365.95 -1 0 0
122 2 1778.46 1573 3400.83 0 0 -1
123 2 2004.19 2084.25 1654.98 0 0 0
124 2 1894.52 1775.6 1658.5 0 0 0
125 2 1678.04 3259.56 1701.82 0 -1 0
126 2 3428.39 2101.87 1852.49 -1 0 0
127 2 3370.17 2233.41 2352.58 -1 0 0
128 2 1892.08 1625.66 1909.57 0 0 0
129 2 1646.73 2222.53 3274.33 0 0 -1
130 2 1610.96 1743.96 2455.68 0 0 0
131 2 1760.22 1632.25 2578.06 0 0 -1
132 2 1777.48 2447.81 3307.37 0 0 -1
133 2 2180.07 1881.35 1853.05 0 0 0
134 2 1740.77 3170.17 1623.73 1 -1 1
135 2 1906.45 2126.28 1932.99 0 0 0
136 2 3371.9 2438.55 2611.31 0 -1 -1
137 2 2848.46 2127.54 2681.88 0 1 0
138 2 1755.43 2007.67 2654.47 0 0 0
139 2 3217.92 2012.8 2126.79 -1 0 0
140 2 2868.56 2409.86 1836.62 -1 -1 0
141 2 2720.35 2025.13 3133.29 -1 0 0
142 2 1598.68 2367.95 1636.03 0 0 0
143 2 2081.59 1781.84 1816.65 0 0 0
144 2 1619.46 1986.29 2116.52 0 0 0
145 2 2176.47 2038.26 2852.03 0 0 0
146 2 2219.97 2335.81 1724.84 0 0 0
147 2 1683.8 1900.35 2009.89 0 0 0
148 2 2075.66 1781.32 3363.22 0 0 -1
149 2 2157.27 1769.02 1957.45 0 0 0
150 2 3347.77 2362.84 2713.95 -1 0 0
151 2 2382.04 2161.76 2047.69 0 0 -1
152 2 3361.89 2111.71 2448.58 -1 0 -1
153 2 2031.08 1655.35 2258.03 0 0 0
154 2 2025.98 2211.09 1735.32 0 0 0
155 2 2312.77 1695.79 2398.2 0 0 0
156 2 3287.42 1728.47 1895.18 -1 0 0
157 2 3165.58 1689.43 1956.66 0 0 0
158 2 2563.91 1611.01 1911.99 0 0 0
159 2 1810.14 3245.39 1997.31 0 -1 0
160 2 1866.48 2352.66 3267.55 1 0 0
161 2 3241.64 2042.37 3367.18 -1 0 -1
162 2 2234.89 1740.53 2182.8 0 0 0
163 2 3152.56 3287.77 2145.24 0 0 0
164 2 2823.71 1845.27 2334.24 0 0 0
165 2 2091.06 1887 1725.02 0 0 0
166 2 3261.79 2257.03 1726.63 0 0 0
167 2 1999.92 1692.88 2548.3 0 0 0
168 2 1855.5 1904.61 1701.9 0 0 0
169 2 1693.3 1665.24 1605.74 0 0 0
170 2 2937.27 3076.48 2570.55 -1 0 0
171 2 1874.42 3067.66 2133.42 0 -1 0
172 2 1620.4 2020.7 1745.34 0 0 0
173 2 1992.44 2411.15 1714.99 0 0 0
174 2 3309.22 1922.12 2466.66 -1 0 -1
175 2 1675.23 1932.87 1631.33 0 0 0
176 2 1931.01 2424.7 2465.63 0 0 0
177 2 3321.39 2957.42 2293.72 0 -1 0
178 2 1733.42 2348.01 1627.02 0 0 0
179 2 2111.62 2223.55 2055.14 0 0 0
180 2 1800.67 3321.1 1716.33 0 -1 0
181 2 3210.52 3249.38 2885.81 -1 -1 -1
182 2 2261.96 1617.69 1780.92 0 0 0
183 2 3291.77 1687.87 2026.94 -1 0 0
184 2 1692.18 2093.79 2072.47 0 0 0
185 2 2088.58 1576.43 2344.49 0 0 0
186 2 1881.51 2425.95 1800.31 0 0 0
187 2 3291.22 2119.1 2324.65 -1 0 0
188 2 3391.47 1817.45 1663.51 -1 0 0
189 2 2479.2 2043.92 2253.93 0 0 -1
190 2 2532.58 1718.86 1841.56 0 0 0
191 2 1840.7 1952 3334.33 0 0 -1
192 2 1637.59 2164.89 1948.87 0 0 0
193 2 1966.73 2208.91 2517.56 0 1 0
194 2 1924.15 2490.22 1625.05 0 0 0
195 2 1607.25 2417.05 1766.69 0 0 0
196 2 2428.33 1707.78 1921.31 0 0 0
197 2 1776.25 2133.58 1725.43 0 0 0
198 2 2489.52 1926.49 1981.89 0 0 0
199 2 1891.38 1946.08 2101.73 0 0 0
200 2 1609.71 2460.62 1910.82 0 0 0
201 2 2809.61 2912.98 2925.44 0 -1 -1
202 2 1577.27 2221.5 2470.89 0 0 0
203 2 1809.48 3282.41 1855.35 0 -1 0
204 2 2502.51 1930.29 2742.24 0 0 0
205 2 3360.53 1689.27 2427.56 -1 0 0
206 2 1714.73 2087.1 2564 0 0 0
207 2 2981.97 2827.89 2691.01 0 0 0
208 2 1686.68 1853.85 2402.46 0 0 0
209 2 3262.36 3178.69 2104.96 1 -2 2
210 2 2247.35 2181.33 2058.15 0 0 0
211 2 2333.31 1610.16 1902.92 0 0 0
212 2 2350.9 2903.26 2895.29 -1 -2 -1
213 2 2215.27 1689.44 2055.09 0 0 0
214 2 2131.9 3201.97 1969.12 0 -1 0
215 2 2538.22 1934.4 1854.23 0 0 0
216 2 2024.05 3381.11 3296.57 0 -1 -1
217 2 3240.52 3432.42 1996.21 -1 -1 0
218 2 2495.37 2003.59 1604.95 1 1 0
219 2 1926.9 3363.17 1868.93 0 -1 0
220 2 3289.8 2111.32 1861.86 -1 0 0
221 2 2984.06 1788.1 2107.22 1 0 -1
222 2 1612.27 1793.87 2063.71 0 0 0
223 2 2640.49 3043.8 2743.09 0 -2 -1
224 2 1887.14 3238.86 2642.58 0 -1 -1
225 2 2059.42 1671.01 1917.08 0 0 1
226 2 2224.91 1855.72 1718.53 0 0 0
227 2 1986.22 2128.25 3290.97 0 0 0
228 2 2408.19 2158.19 1729.06 0 0 0
229 2 1768.5 1734.58 1700.08 0 0 0
230 2 2100.45 2029.1 3265.88 0 0 -1
231 2 1914.7 1673.53 2363.5 0 0 0
232 2 2146.64 2234.42 2364.95 0 0 0
233 2 1935.61 1636.29 1625.5 0 0 0
234 2 2314.77 1849.53 1849.55 0 0 0
235 2 1952.67 2108.4 1794.5 0 0 0
236 2 1780.56 1843.98 1598.27 0 0 0
237 2 3179.38 1973.59 1602.8 -1 0 0
238 2 1621.18 1864.47 2529.67 0 0 0
239 2 1625.23 2151.48 3403.52 0 0 -1
240 2 2464.65 2046.39 2052.58 0 0 0
241 2 3077.7 2609.01 3416.5 -1 0 -1
242 2 2294.84 1747.65 3338.99 0 0 0
243 2 2754.17 2988.35 2693.9 0 0 0
244 2 1996.64 1899.62 2393.08 0 0 0
245 2 1746.73 2126.11 3240.95 0 0 -1
246 2 2213.64 1618.74 2383.67 0 0 -1
247 2 1924.53 2297.67 1765.42 0 0 0
248 2 3220.48 2055.17 1970.67 -1 0 0
249 2 3392.38 3184.75 2177.01 -1 -1 0
250 2 3018.94 2194.99 3353.65 -1 1 -1
251 2 2087.48 3293.81 3379.14 0 -1 0
252 2 1752.51 1845.26 2275.76 0 0 0
253 2 3264.08 2334.62 3374.56 0 0 -2
254 2 2445.14 1586.38 1975.08 0 0 0
255 2 1664.37 3190.47 2181.75 1 0 0
256 2 3263.21 2200.82 2441.57 0 1 -1
257 2 2115.86 1596.77 2025.05 0 0 0
258 2 1827.88 2586.66 1606.07 0 0 0
259 2 2050.44 2062.1 3393.04 0 0 -1
260 2 1879.01 2230.4 3323.14 0 0 -1
261 2 2248.11 1958.25 1629.68 0 0 0
262 2 1747.75 2444.88 1909.77 0 0 0
263 2 2122.38 1822.62 2347.94 0 0 0
264 2 1766.59 1597.82 2986.66 0 0 -1
265 2 1809.42 1927.9 1839.31 0 0 0
266 2 2292.09 1739.27 1939.72 0 0 0
267 2 1868.87 1755.8 2256.07 0 0 0
268 2 2136.85 2299.31 3420.93 0 0 -1
269 2 2496.42 2599.58 2204.51 0 0 0
270 2 2717.58 1683.54 2980.58 0 -1 -1
271 2 2143.13 3245.74 2099.23 0 -1 0
272 2 3370.1 1801.05 2506.51 -1 0 0
273 2 1727.92 2197.11 2473.14 0 0 0
274 2 1903.42 1626.29 2210.61 0 0 0
275 2 2066.92 2369.01 1991.18 0 0 0
276 2 2667.06 1731.93 2900.05 -1 1 0
277 2 1733.19 1862.86 1738.83 0 0 0
278 2 3012.34 2560.07 2009.77 0 0 0
279 2 2006.9 2449.26 1838.22 0 0 0
280 2 1582.69 3254.1 1928.07 0 -1 0
281 2 1613.17 3374.67 2419.06 0 -1 -1
282 2 3190.23 2198.75 2313.85 0 0 0
283 2 3280.11 1899.09 1634.01 -1 0 0
284 2 3406.89 1963.65 1862.19 -1 0 0
285 2 1822.28 2543.07 1831.62 0 -1 0
286 2 2369.57 2261.33 3381.47 -1 0 -1
287 2 2059.83 1968.72 2495.8 0 0 0
288 2 2121.59 1651.41 1786.44 0 0 0
289 2 2717.34 2182.38 1771.93 0 0 1
290 2 3238.35 2237.48 2103.55 -1 0 0
291 2 1733 1644.51 2425.58 0 0 0
292 2 1882.94 1901.83 3096.27 1 0 0
293 2 3349.33 1998.82 2121.62 -1 0 0
294 2 3213.06 1587.22 2259.29 0 0 0
295 2 1878.69 2159.14 3204.41 0 0 -1
296 2 1685.54 3396.02 1663.19 0 -1 0
297 2 1661.59 2340.02 1896.43 0 0 0
298 2 1605.69 2012.33 3407 0 0 -1
299 2 1594.11 3291.92 2178.14 0 -1 0
300 2 1764.98 2081.5 2189 0 0 0
301 2 1921.86 1817 2058.61 0 0 0
302 2 1701.97 2088.19 2315.97 0 0 0
303 2 2259.08 2088.58 1689.07 0 0 0
304 2 2205.26 2014.79 2443.11 0 -1 0
305 2 3140.53 3046.57 2673.33 0 -1 0
306 2 3221.36 2133.16 2200.77 -1 0 0
307 2 2104.57 1954.14 3157.01 -1 0 -1
308 2 3290.25 1645.83 2165.19 -1 0 0
309 2 2300.17 2114.05 1936.97 0 0 0
310 2 2542.73 3299.51 2244.76 -1 -1 0
311 2 2116.86 2859.98 2071.38 0 0 -1
312 2 1964.16 3244.45 3408.55 0 -1 -1
313 2 2042.93 2340.43 2111.9 0 0 0
314 2 2007.56 1710.77 1721.28 0 0 0
315 2 2034.59 2398.42 1591.83 0 0 0
316 2 2278.67 1832.03 1593.34 0 0 0
317 2 2459.04 1739.76 1732.8 0 0 0
318 2 1778.03 2150.36 2649.26 0 0 0
319 2 1609.85 2440.71 2302.38 0 0 0
320 2 1827.59 1953.87 2225.77 0 0 0
321 2 2847.9 1585.4 2693.27 -1 0 -1
322 2 1856.31 1757.85 1952.13 0 0 0
323 2 1725.9 2426.37 2301.54 0 0 0
324 2 1776.62 1621.73 2702.89 0 0 -1
325 2 1700.48 3275.89 2093.56 0 -1 0
326 2 3405.49 1729.08 1967.56 -1 0 0
327 2 1678.43 1738.54 2323.91 0 0 0
328 2 2014.36 1685.28 2670.59 0 0 0
329 2 3197.18 3380.11 2873.07 0 -1 0
330 2 1626.22 2668.68 1760.18 0 0 0
331 2 3280.61 2372.47 1804.36 -1 0 0
332 2 2644.39 2142.27 3322.77 0 -1 0
333 2 1657.31 2343.79 2259.76 0 0 0
334 2 2132.7 1756.56 1688.35 0 0 0
335 2 1974 3155.07 2583.87 0 0 -1
336 2 1996.44 1785.69 2299.25 0 0 0
337 2 2303.82 2065.14 3426.13 0 0 -1
338 2 2464.6 2355.57 2451.37 0 -1 -1
339 2 1884.59 3395.13 2536.53 0 -1 -1
340 2 2373.51 1940.5 2284.65 0 0 0
341 2 1699.82 2555.14 3430.2 0 0 -1
342 2 2510.83 2181.58 2083.72 0 0 0
343 2 3367.46 2230.29 2110.15 -1 0 0
344 2 1979.98 2222.47 1870.13 0 0 0
345 2 3312.96 2178.35 1620.82 -1 0 0
346 2 2097.57 2354.4 2403.62 0 -1 0
347 2 2170.96 2105.91 1575.1 -1 0 0
348 2 1801.13 2326.44 1869.18 0 0 0
349 2 1919.07 3259.31 1753.38 0 -1 0
350 2 2191.56 2227.66 2170.3 0 0 0
351 2 1852.95 1864.87 3214.93 0 0 0
352 2 1742.15 1758.97 2513.74 0 0 0
353 2 3387.46 1676.37 2562.42 -1 0 0
354 2 1851.47 1707.62 2108.71 0 0 0
355 2 1798.29 2312.51 2253.17 0 0 0
356 2 1682.27 1866.06 2158.47 0 0 0
357 2 3130.92 2285.75 2513.96 0 0 0
358 2 2038.61 1922.98 3402.81 0 0 -1
359 2 1781.91 1690.78 1857.93 0 0 0
360 2 2823.35 2359.2 1946.73 0 0 0
361 2 1576.35 1733.58 3427.87 0 0 -1
362 2 2082.69 3182.74 2304.92 0 0 0
363 2 1954.98 3416.69 2319.59 0 -1 0
364 2 2228.55 3137.75 2045.66 0 -1 0
365 2 2530.26 2188.03 2209.85 0 0 0
366 2 3241.45 2105.76 3247.5 0 0 -1
367 2 2958.28 1950.34 3065.15 0 0 0
368 2 1590.32 2523.35 2694.94 0 -1 0
369 2 2007.89 2048.34 2394.1 0 0 0
370 2 3234.62 2120.93 1727.83 -1 0 0
371 2 2048.84 1817.77 2500.11 0 0 0
372 2 2753.36 2038.25 2503.68 0 0 0
373 2 2805.2 2297.72 1815.49 0 0 1
374 2 2368.58 2197.36 1857.68 0 0 0
375 2 2535.31 2434.5 2940.85 -1 0 0
376 2 3339.37 3213.51 1996.2 0 0 0
377 2 3309.33 2249.98 1854.33 -1 0 0
378 2 1990.62 2119.82 2884.22 1 0 -1
379 2 1893.14 2407.57 3101.82 0 0 -1
380 2 2761.57 1796.99 3314.67 -1 0 -1
381 2 2382.22 1928.44 1601.13 0 0 0
382 2 2778.96 1719.9 2898.97 0 0 0
383 2 2905.11 2486.7 1712.98 -1 -1 -1
384 2 2088.31 2094.3 2726.85 0 0 0
385 2 1982.64 1881.1 2735.07 0 -1 0
386 2 2162.86 1977.21 3378.32 0 0 -1
387 2 1994.08 3425.04 1972.97 0 -1 0
388 2 1752.02 1779.63 2040.71 0 0 0
389 2 1785.95 3149.65 2585.19 0 -1 -1
390 2 2007.89 3117.09 1958.45 0 -1 1
391 2 1704.71 1626.99 1763.25 0 0 0
392 2 3193.05 2194.54 1833.03 -1 0 0
393 2 1585.59 2280.46 2003.09 0 0 0
394 2 1683.37 2427.71 2434.35 0 1 0
395 2 1714.27 1582.52 1908.03 0 0 0
396 2 1997.33 3127.27 2145.93 0 -1 0
397 2 2020.48 1799.69 1958.76 0 0 0
398 2 3220.52 3252.63 1798.73 -1 -1 1
399 2 1642.01 2974.27 1808.57 0 -1 0
400 2 2941.47 3306.74 1725.68 -1 -1 0
401 2 1604.73 3433.21 2141.48 0 -1 0
402 2 1573.12 1597.06 1619.23 0 0 0
403 2 1949.53 1980.49 2284.05 0 0 0
404 2 1744.12 1824.12 1905.73 0 0 0
405 2 1680.28 2354.18 3274.16 0 0 -1
406 2 3383.67 1914.65 2583.41 0 0 0
407 2 2949.09 1771.49 3045.71 -1 0 0
408 2 2431.74 3242.26 2706.5 0 -1 0
409 2 1606.89 1837.26 1914.37 0 0 0
410 2 1585.42 1873.76 3416.93 1 1 0
411 2 1966.69 2151.4 2751.18 0 0 0
412 2 3064.31 1683.98 1867.78 -1 1 1
413 2 1901.45 2136.37 2409.93 0 0 0
414 2 3265.97 3225.2 3242.43 -1 -1 -1
415 2 1841.18 1801.1 1798.51 0 0 0
416 2 1673.1 1622.32 2247.06 0 0 0
417 2 3272.66 1937.55 2021.78 -1 0 0
418 2 2280.02 1722.37 3211.48 0 0 0
419 2 1809.66 3212.68 3373.95 1 0 -1
420 2 2526.44 2074.66 3348.9 0 0 0
421 2 2148.09 3335.76 1991.5 0 -1 0
422 2 1584.68 2340.07 2138.6 0 0 0
423 2 1861.77 2309.2 2130.04 0 0 0
424 2 3191.86 1623.85 3289.79 -1 1 -1
425 2 2319.46 2943.04 3018.06 0 -1 -1
426 2 3257.85 2500.58 1739.78 0 0 0
427 2 1714.73 1995.83 3244.38 0 0 0
428 2 2174.35 1626.71 1656.58 0 0 0
429 2 3330.27 3261.17 1596.26 -2 0 1
430 2 1643.97 2148.13 3162.47 0 0 -1
431 2 1771.89 2147.09 1943.64 0 0 0
432 2 2019.22 3209.54 2047.79 0 -1 0
433 2 2150.57 1865.23 1599.36 0 0 0
434 2 3145.94 1630.06 2071.88 -1 0 0
435 2 3211.92 2311.86 1917.26 -1 0 0
436 2 3369.2 2175.18 1749.37 -1 0 0
437 2 1922.66 1791.95 2440.17 0 0 0
438 2 1659.25 2096.69 2665.53 0 1 0
439 2 1969.03 2257.39 3235.53 0 0 -1
440 2 1892.25 2196.73 2914.19 0 0 -1
441 2 1862.35 2089.56 3323.29 0 0 -1
442 2 1973.73 2236 2200.94 0 0 0
443 2 2049.69 1694.24 2394.27 0 0 0
444 2 1819.16 1836.99 2151.28 0 0 0
445 2 1924.91 2018.02 3426.74 0 0 -1
446 2 2953.55 1610.44 1896.5 1 1 0
447 2 1973.48 1739.84 2163.43 0 0 0
448 2 3339.98 1810.43 2063.76 -1 0 0
449 2 3316.47 2576.87 3015.25 -1 0 0
450 2 1730.5 2058.47 3364.36 0 0 -1
451 2 2355.48 1827.41 1717.55 0 0 0
452 2 1778.73 2073.76 2432.4 0 0 0
453 2 1879.41 1672.66 1755.01 0 0 0
454 2 2268.41 1613.43 2144.29 0 0 0
455 2 1803.32 3152.34 1896.13 0 -1 0
456 2 2099.18 2038.05 2244.5 0 0 0
457 2 1905.49 3232.9 2131.33 0 -1 -1
458 2 2104.26 1742.91 2590.41 0 0 1
459 2 1738.66 1795.15 3246.31 1 0 -1
460 2 2326.95 2774.8 2562.95 0 -1 0
461 2 2278.85 1657.11 2276.49 -1 0 0
462 2 1752.78 1875.7 2587.72 0 0 0
463 2 1798.77 3182.2 1755.95 0 -1 0
464 2 2353.43 2071.24 2245.08 0 0 0
465 2 2482.21 1783.48 2190.3 0 0 0
466 2 2182.32 2334.3 2260.4 0 0 -1
467 2 2562.24 1649.74 3227.75 0 1 0
468 2 3425.42 2104.79 2074.24 -1 0 0
469 2 2425.69 1856.91 2101.76 0 0 0
470 2 1671.93 3280.27 2303.4 0 -1 0
471 2 3348.26 2040.93 1969.25 -1 0 0
472 2 3219.42 1815.46 1987.88 -1 0 0
473 2 2109.18 1994.87 1639.21 0 0 0
474 2 3425.94 3163.26 1803.9 -1 0 1
475 2 1686.57 3221.31 1837.53 0 -1 0
476 2 1618.2 2029.14 1971.6 0 0 0
477 2 2274.27 1923.2 2103.97 0 0 0
478 2 3340.59 1768.61 2202.24 -1 0 0
479 2 1698.72 3356.45 1805.53 0 -1 0
480 2 1871 2069 3079.94 0 0 0
481 2 2229.27 2003.99 2222.55 0 0 0
482 2 2135.11 3148.23 2183.92 0 0 0
483 2 2869.46 3253.5 1620.01 0 -1 0
484 2 3236.67 1631.28 1566.28 -1 1 0
485 2 3208.33 2358.99 2048.01 0 1 0
486 2 1993.48 2275.58 2002.09 0 0 0
487 2 1749.77 3381.16 2503.68 0 -1 0
488 2 2019.98 2267.96 2604.92 0 0 -2
489 2 3397.6 2474.81 2161.2 -1 1 0
490 2 2900.49 2293.96 2511.82 0 1 0
491 2 1780.48 1599.68 2157.22 0 0 0
492 2 3193.62 3081.86 3228.44 0 0 -1
493 2 3174.05 2055.1 1832.28 -1 0 0
494 2 2153.82 2236.57 1778.95 0 0 0
495 2 1786.06 3166.84 2103.49 0 -1 0
496 2 1899.2 2180.47 1685.78 0 0 0
497 2 1811.78 3295.59 2365.28 0 -1 0
498 2 1854.56 3059 2957.43 -1 -1 -1
499 2 2328.73 2025.51 3258.56 0 0 0
500 2 2034.72 2146.18 1970.87 0 0 0
501 2 2022.04 1571.24 2589.76 0 0 -1
502 2 2717.1 1709.16 1844.12 0 0 0
503 2 3161.77 1927.11 1939.45 -1 0 0
504 2 2097.97 1771.22 2206.07 0 0 0
505 2 1628.3 2098.54 2196.1 0 0 0
506 2 1821.85 1991.49 2539.72 0 0 0
507 2 2177.41 1718.84 3297.95 0 0 -1
508 2 1930.1 1970 1802.46 0 0 0
509 2 1609.88 1757.09 2203.78 0 0 0
510 2 2205.25 3196.68 3053.14 0 0 0
511 2 1663.06 2436.09 2191.22 0 -1 0
512 2 1813.77 2287.43 3036.02 0 0 -1
513 2 2197.74 1641.03 1905.99 0 0 0
514 2 3354.29 1573.11 2346.41 0 1 -1
515 2 2125.85 2118.89 1708.57 0 0 0
516 2 1989.51 2825.81 1612.29 0 0 1
517 2 2165.93 2129.79 1950.84 0 0 0
518 2 2931.13 1671.37 2089.93 0 1 0
519 2 1629.1 1613.38 2507.88 -1 0 -1
520 2 2544.71 3362.15 2554.73 0 -1 -1
521 2 2385.52 2041.27 1667.94 -1 0 0
522 2 3177.3 2063.38 2303.61 -1 0 0
523 2 1737.19 2064.83 3128.61 0 0 0
524 2 1662.59 2201.3 2582.74 0 -1 0
525 2 1707.84 3361.2 2207.8 0 -1 0
526 2 3350.62 1611.29 1928.73 -1 0 0
527 2 2140.22 2007.56 1893.26 0 0 0
528 2 3425.65 1989.15 2484.49 -1 0 0
529 2 2089.09 3108.96 2061.41 0 -1 0
530 2 3405.42 3267.16 2291.69 -1 0 0
531 2 1712.8 2218.06 1842.47 0 0 0
532 2 3103.33 1814.02 1902.3 0 0 0
533 2 2452.39 1929.06 1746.06 0 0 0
534 2 2521.69 1800.25 1956.39 0 0 0
535 2 2047.39 3192.93 1843.69 0 -1 0
536 2 3337.7 1803.02 3357.49 -1 0 -1
537 2 1594.87 3343.28 2033.38 0 -1 0
538 2 2762.41 3019.09 2223.18 0 -1 0
539 2 3264.58 1780.88 1712.5 -1 0 0
540 2 3041.54 1886.06 2005.56 0 0 0
541 2 2806.63 3255.3 3366.26 -1 0 -1
542 2 1882.15 2521.36 3366.37 0 0 -1
543 2 3352.69 1566.41 2070.87 -1 0 0
544 2 1870.23 2290.37 3147.94 0 0 -1
545 2 2323.91 2294.88 2243.94 -1 -1 -1
546 2 2311.86 2063.58 2115.82 0 0 0
547 2 2446.63 1821.09 1842.47 0 0 0
548 2 2194.89 1867.03 2227.01 0 0 0
549 2 2129.97 2103.59 2369.31 0 0 0
550 2 3023.48 3345.25 1883.75 0 -1 0
551 2 1571.02 2222.01 2235.9 0 0 0
552 2 2325.21 1836.59 2198.65 0 0 0
553 2 1755.06 1972.37 2107.55 0 0 0
554 2 3431.12 2104.75 2321.76 -1 0 0
555 2 1935.51 3147.71 2733.13 -1 0 0
556 2 2063.06 1680.19 1592.1 0 0 0
557 2 1648.34 3383.63 3405.23 1 0 -1
558 2 2015.84 3033.6 2768.33 -1 -1 -1
559 2 3112.36 1810.62 2179.85 0 1 0
560 2 2006.45 3305.43 1651.09 0 -1 0
561 2 2277.39 3087.19 1749.18 0 -1 1
562 2 2342.71 1658.33 2033.25 0 0 0
563 2 2060.33 3252.01 3101.79 -1 0 0
564 2 1937.91 1905.05 2520.1 0 0 0
565 2 2163.28 2742.32 2111.73 0 0 0
566 2 2263.24 2190.6 3246.28 0 0 -1
567 2 1849.39 2198.16 1830.94 0 0 0
568 2 3221.77 3170.63 1603.86 0 0 0
569 2 1938.67 1869.1 2204.86 0 0 0
570 2 3389.81 2346.52 2257.19 -1 0 -1
571 2 3105.33 3429.71 1819.1 -2 -1 0
572 2 3336.3 1689.46 1644.37 -1 0 0
573 2 2587.5 1620.26 2924.09 0 0 -1
574 2 2568.25 2983.98 2027.28 0 0 0
575 2 2191.17 3421.26 2257.3 0 -1 0
576 2 2718.34 2197.73 2667.64 0 0 0
577 2 2221.4 2135.33 2264.27 0 0 0
578 2 2904.37 2741.3 2229.9 0 0 1
579 2 3072.52 2166.35 2526.32 0 0 0
580 2 2119.75 1900.27 1978.39 0 0 0
581 2 1961.58 1835.47 3300.56 0 0 -1
582 2 2013.46 1628.9 3198.31 0 0 0
583 2 2430.25 2079.65 1916.26 0 0 0
584 2 1664.69 2386.06 2023.41 0 0 0
585 2 1751.89 2009.51 1956.93 0 0 0
586 2 1864.23 2364.56 2368.74 0 0 0
587 2 3399.38 1777.81 1816.31 -1 0 0
588 2 1711.33 2210.72 1629.29 0 0 0
589 2 1689.21 1976.63 2235.88 0 0 0
590 2 2240.51 1916.41 2348.57 0 0 0
591 2 3236.58 3298.56 2031.74 -1 -1 0
592 2 1954.33 1737.43 1851.49 0 0 0
593 2 2996.68 1647.19 3057.77 -1 0 -1
594 2 2103.53 1630.01 2496.03 0 0 0
595 2 1920.21 3279.64 2278.85 0 -1 0
596 2 1856.74 2254.62 1975.32 0 0 0
597 2 3364.24 2099.74 3384.95 -1 0 -1
598 2 3157.38 1891.96 2076.52 -1 0 0
599 2 2042.93 3310.82 2321.77 0 0 0
600 2 2247.71 3431.52 2004.86 0 -1 0
601 2 1720.41 3398.27 2341 0 -1 0
602 2 2610.81 2073.41 1820.43 0 0 0
603 2 3251.02 2363.87 2473.32 -1 1 0
604 2 2441.18 2778.47 2617.73 0 -1 -1
605 2 2296.05 2289.49 2103.02 -1 -1 0
606 2 1918.08 1866.73 1893.03 0 0 0
607 2 2219.52 2085.96 3313.54 0 0 -1
608 2 2200.12 2453.48 2212.56 -1 0 -1
609 2 2677.1 2601.31 1896.14 0 -1 -1
610 2 1585.46 3427.62 1752.11 1 -1 0
611 2 2651.61 3336.81 2484.42 0 -1 0
612 2 2040.36 2302.57 2308.77 0 0 0
613 2 2442.94 1620.96 1818.81 0 0 0
614 2 1757.78 1997.19 1729.26 0 0 0
615 2 1748.8 2198.13 3364.11 0 0 -1
616 2 2104.04 2250.15 1920.68 0 0 0
617 2 1680.87 1671.81 2092.66 0 0 0
618 2 2078.35 2136.13 1842.36 0 0 0
619 2 1639.23 2216.15 2113.53 0 0 0
620 2 2612.33 1895.91 1996.32 0 1 1
621 2 1980.39 3302.85 2555.73 0 -1 0
622 2 2023.09 1813.32 1622.42 0 0 0
623 2 3411.28 2308.56 3269.35 -1 0 -1
624 2 2354.5 1965.44 1997.15 0 0 0
625 2 2006.51 2035.57 1897.19 0 0 0
626 2 2770.96 3349.66 1982.4 0 0 1
627 2 3231.38 1819 2263.42 -1 0 0
628 2 3406.44 2377.53 3388.18 -1 0 0
629 2 2347.47 3399.59 1785.03 0 0 0
630 2 3010.51 3000.79 2658.78 0 0 0
631 2 1622.6 1983.64 2361.36 0 0 0
632 2 2178.03 1825.45 2085.13 0 0 0
633 2 1917.76 2323.12 2546.92 0 0 0
634 2 1684.84 2475.61 1659.28 0 0 0
635 2 1762.71 1961.02 2353.36 0 0 0
636 2 1981.29 2323.09 2430.96 0 0 0
637 2 1968.91 1993.66 3297.72 0 0 -1
638 2 2168.47 3385.51 2119.93 0 -1 0
639 2 2409.16 2017.71 3362.86 0 0 0
640 2 2029.55 2190.09 2387.47 0 0 0
641 2 2049.31 1578.16 1690.42 0 0 0
642 2 1992.4 1604.5 1813.54 0 0 0
643 2 1571.03 3124.88 1938.84 0 0 0
644 2 2309.49 1786.24 2074.48 0 0 0
645 2 3279.14 3065.76 2685.23 -1 -1 0
646 2 2054.02 1759.05 3233.04 0 0 0
647 2 2117.53 1961.03 2368.12 0 0 0
648 2 2184.73 2344.77 1846.82 0 0 0
649 2 1818.03 2507.88 1704.67 0 0 0
650 2 1747.88 1728.68 2201.11 0 0 0
651 2 2319.92 1951.35 1755.22 0 0 0
652 2 1997.87 1968.21 3069.77 0 0 0
653 2 2187.63 1732.25 3430.73 0 0 -1
654 2 1831.41 1800.95 3342.24 0 0 -1
655 2 2716.58 2962.35 2027.85 0 0 0
656 2 1963.29 2126.28 2282.03 0 0 0
657 2 1782.25 3349.05 2633.64 0 -1 0
658 2 1717.69 2766.11 1778.89 0 0 0
659 2 1797 1983.46 1597.8 0 0 0
660 2 1694.98 1972.75 2478.74 0 0 0
661 2 3292.62 2066.75 2550.04 0 0 -1
662 2 1915.76 2248.53 2324.86 0 0 0
663 2 1676.64 1640.5 3347.44 -1 1 -1
664 2 2450.82 1740.99 2058.35 0 0 0
665 2 3229.74 1647.23 1701.26 -1 1 0
666 2 1985.05 1925.3 2001.76 0 0 0
667 2 2143.18 1954.43 2133.14 0 0 0
668 2 2225.03 3130.19 2400.09 -1 -1 1
669 2 2645.33 2986.74 2135.92 0 0 1
670 2 1846.65 3430.22 2407.02 0 -1 0
671 2 1699.99 3275.63 2445.28 0 -1 -2
672 2 3227.74 1984.04 1733.62 -1 0 0
673 2 1929.65 3327.28 2426.64 0 0 0
674 2 3259.11 2188.16 3364.87 -1 0 -1
675 2 1793.67 3257.67 2215.3 0 -1 0
676 2 2865.3 1682.01 3064.14 0 0 -1
677 2 1833.13 3381.8 2259.55 0 -1 0
678 2 1930.58 1710.96 3262.46 0 0 -1
679 2 1947.21 1735.95 3396.39 0 0 -1
680 2 1599.05 1610.19 2003.34 0 0 0
681 2 2321.33 2185.6 2176.41 0 0 0
682 2 2275.06 1980.05 1885 0 0 0
683 2 1777.62 2200.81 2106.16 0 0 0
684 2 3234.51 3002.96 3323.27 -1 0 -1
685 2 2354.91 2632.21 2386.28 0 0 0
686 2 2044.43 1909.16 1857.6 0 0 0
687 2 2535.03 1933.99 2114.54 0 0 0
688 2 3234.87 3393.29 2132.13 -1 -1 0
689 2 1880.44 2465.78 1935.95 0 0 0
690 2 3177.5 3366.57 3336.58 0 -1 -1
691 2 3312.61 2346.18 2140.34 -1 0 0
692 2 3126.37 1852.17 1569.66 0 0 0
693 2 1868.69 1666.75 2494.04 0 0 0
694 2 3433.21 3332.92 1648.03 -1 0 0
695 2 2284.57 2208.17 1755.86 0 0 0
696 2 2192.26 2156.68 2469.23 -1 -1 0
697 2 1599.12 2333.72 2384.68 1 -1 -1
698 2 3343.12 1881.23 2286.62 -1 0 0
699 2 2471.27 2911.19 2273.89 0 -1 0
700 2 1574.33 2230.55 1639.66 0 0 0
701 2 1878.24 2042.55 1691.88 0 0 0
702 2 2069.08 2112.12 2492.79 0 0 0
703 2 1973.45 1590.74 2453 0 0 0
704 2 1716.27 3409.9 2045.62 0 -1 0
705 2 2086.78 2252.41 2486.4 0 0 0
706 2 3385.8 3158.11 3400.23 0 0 -1
707 2 1797.28 1643.01 2301.72 0 0 0
708 2 2118.06 2027.36 2600.78 0 0 0
709 2 1776.21 3048.68 1782.98 1 0 0
710 2 1596.09 1886.29 1758.53 0 0 0
711 2 3093.85 2163.9 2231.92 0 0 0
712 2 2408.99 1954.52 1865.7 0 1 0
713 2 1842.52 2631.83 1732.56 0 0 1
714 2 1635.51 2431.04 2572.26 0 0 0
715 2 1674.44 3124.9 1738.18 1 0 1
716 2 2070.13 3391.52 2216.38 0 -1 0
717 2 2035.72 1653.89 3327.29 0 0 -1
718 2 2012.59 1611.35 2122.79 0 0 0
719 2 1929.43 2354.25 2247.73 0 0 0
720 2 1931.3 3198.65 2390.72 0 0 0
721 2 2228.36 2017.02 2009.78 0 0 0
722 2 3382.4 2314.88 1751.16 -1 0 0
723 2 2081.09 2406.94 2224.51 0 0 0
724 2 3314.49 3075.39 1601.77 -1 0 0
725 2 3119.65 1678.27 3388.52 0 1 0
726 2 2804.7 2281.63 2825.6 0 0 -1
727 2 3343.66 3344.15 1963.75 0 -1 0
728 2 2098.97 2319.03 1675.33 0 0 0
729 2 3305.54 2238.65 2226.32 -1 0 0
730 2 1734.93 3017.51 2586.86 0 -1 0
731 2 1902.01 2066.12 2170.4 0 0 0
732 2 2431.88 2249.42 2146.47 0 0 0
733 2 2253.36 2441.63 1790.6 0 0 1
734 2 2139.34 1639.18 2171.36 0 0 0
735 2 1718.75 2269.62 1997.54 0 0 0
736 2 1850.58 2184.34 2221.89 0 0 0
737 2 3231.94 1606.63 1861.56 -1 0 0
738 2 1854 2013.2 3207.32 0 0 -1
739 2 1889.91 1578.54 2066.06 0 0 0
740 2 3430.82 3194.12 1660.31 -1 0 1
741 2 2052.36 2323.67 1806.82 0 0 0
742 2 1980.83 1911.65 3178.67 0 0 -1
743 2 1787.84 1649.98 2000.63 0 0 0
744 2 3334.58 1859.67 1918.1 -1 0 0
745 2 1913.91 2179.39 2085.59 0 0 0
746 2 2053.22 2016.28 1767.39 0 0 0
747 2 1861.98 3223.13 1632.05 0 -1 0
748 2 3301.46 1807.92 2386.39 -1 0 0
749 2 3329.93 1894.83 1767.17 -1 0 0
750 2 1637.45 2156.11 1742.77 0 0 0
751 2 1732.53 2591.35 2788.32 1 0 0
752 2 3162.02 1865.62 1698.29 0 0 0
753 2 2688.67 2709.57 2314.27 0 0 1
754 2 1875.14 1871.87 2333.56 0 0 0
755 2 2042.66 1855.41 2111.91 0 0 0
756 2 1990.27 3178.25 1675.04 0 -1 0
757 2 3423.92 2093.65 1644.54 -1 0 0
758 2 1595.53 3388.02 2283.58 0 -1 0
759 2 1966.22 1840.66 1761.4 0 0 0
760 2 1900.97 3262.9 2773.44 0 -1 0
761 2 1694.77 2082.67 1850.9 0 0 0
762 2 1957.72 2054.16 2044.68 0 0 0
763 2 3169.88 1934.29 2229.4 -1 0 0
764 2 1800.13 2372.6 2021.12 0 0 0
765 2 2005.42 2129.32 2619.76 -1 1 0
766 2 2078.88 2551.24 1792.1 -1 0 0
767 2 2201.61 1954.2 3253.33 0 0 -1
768 2 3354.08 3384.75 3421.38 -1 -1 0
769 2 1712.26 2203.33 2230.15 0 0 0
770 2 2186.13 1984.42 1755.95 0 0 0
771 2 3368.16 2178.51 1957.96 -1 0 0
772 2 1946.13 2154.13 3418.93 0 0 -1
773 2 1886.27 1983.51 2414.36 0 0 0
774 2 2438.88 2115.93 3430.83 0 0 -1
775 2 3388.39 3031.9 1813.49 -1 0 0
776 2 1591.41 1657.04 1851.85 0 0 0
777 2 1787.13 2667.81 2884.35 1 0 0
778 2 2196.62 2224.54 1644.6 0 0 0
779 2 3270.89 1975.56 1871.63 0 0 0
780 2 3271.63 3274.62 2198.6 -1 -1 0
781 2 1704.24 1767.24 3384.41 0 0 -1
782 2 1977.13 2046.11 3175 0 0 -1
783 2 1648.18 2210.66 2354.72 0 0 0
784 2 3406.55 1686.53 2106.22 -1 0 0
785 2 2946.78 2821.98 3074.19 0 0 0
786 2 1788.77 2191.09 2345.87 0 0 0
787 2 3237.55 2194.75 1972.84 -1 0 0
788 2 1849.3 3092.52 1676.14 1 0 1
789 2 1787.87 2261.22 2567.71 0 -1 0
790 2 2720.27 3428.05 2738.22 1 0 0
791 2 3109.08 3421.22 1960.76 0 0 0
792 2 2709.21 2984.35 2337.72 0 -1 0
793 2 1773.6 2337.8 3360.69 0 0 -1
794 2 2912.09 2311.05 1874.61 0 0 0
795 2 3223.14 3214.88 1924.71 -1 -1 0
796 2 1674.31 1944.61 1860.75 0 0 0
797 2 2015.36 1724.9 2807.9 0 0 0
798 2 3179.37 2035.76 3145.77 0 1 -1
799 2 1766.94 1833.81 3124.07 0 0 -1
800 2 1647.17 2290.19 3399.07 0 0 -1
801 2 1633.67 1747.86 2593.06 0 0 0
802 2 1657.79 1795.4 1638.86 0 0 0
803 2 1731.06 2320.69 2379.7 0 0 0
804 2 1936.44 1791.98 3148.01 0 1 -1
805 2 2189.52 1736.46 2425.62 0 0 0
806 2 2389.56 1831.65 1967.31 0 0 0
807 2 3102 1775.65 2047.87 -1 0 0
808 2 2419.67 3301.14 2590.8 1 -1 -1
809 2 3370.96 3107.16 2067.22 -1 0 1
810 2 2253.53 3197.91 2155.73 0 0 0
811 2 2009.03 1983.33 2154.55 0 0 0
812 2 3237.57 1976.67 3253.77 -1 0 -1
813 2 3383.7 2178.44 3263.19 -1 0 -1
814 2 2630.7 2796.68 2402.9 0 -1 0
815 2 1817.58 1729.82 3178.02 0 0 -1
816 2 3295.89 2039.22 1624.79 -1 0 0
817 2 1885.83 1991.68 1935.75 0 0 0
818 2 3414.44 1873.67 2408.34 -1 0 0
819 2 3194.46 2124.62 1606.83 0 0 0
820 2 1926.18 3315.14 2023.69 0 -1 0
821 2 3211.36 1856.23 1838.58 -1 0 0
822 2 1982.72 1945.21 1661.96 0 0 1
823 2 3270.53 1890.92 2159.73 -1 0 0
824 2 1674.29 2318.94 2497.55 1 0 0