ITEM: TIMESTEP
306000
ITEM: NUMBER OF ATOMS
1000
ITEM: BOX BOUNDS pp pp pp
1.7099591536250448e+03 3.2900408463744197e+03
1.7099591536250448e+03 3.2900408463744197e+03
1.7099591536250448e+03 3.2900408463744197e+03
ITEM: ATOMS id type x y z ix iy iz
1 1 2694.82 2467.65 1797.46 -1 0 1
2 1 2215.34 1730.73 2586.19 0 0 0
3 1 3031.4 2554.69 2264.13 0 0 0
4 1 2328.8 1947.43 3015.03 0 -1 0
5 1 3122.28 2834.65 2640.82 -1 -1 1
6 1 2114.98 1993.21 3120.43 0 0 0
7 1 1935.56 2865.45 2749.62 0 -1 0
8 1 2279.71 1983.58 2482.08 0 0 1
9 1 2843.17 2874.22 2479.52 0 0 0
10 1 2747.7 2506.73 2598.37 0 0 0
11 1 2639.61 2250.15 2573.24 0 0 0
12 1 1778.39 2979.61 3244.4 0 0 0
13 1 2941.04 3190.59 3158.93 -1 0 -1
14 1 2306.97 2651.4 2761.96 0 0 -1
15 1 2999.73 2308.53 2196.37 0 0 0
16 1 2286.32 3284.34 2468.64 0 0 -1
17 1 2455.12 2779.41 2790.03 1 0 -1
18 1 2918.85 2394.49 2468.52 -1 1 0
19 1 2765.06 2077.58 1998.39 -1 0 0
20 1 1803.96 2875.87 2830.81 0 -1 0
21 1 2165.11 2507.17 2553.73 0 1 0
22 1 2620.41 2843.36 2671.81 2 -1 0
23 1 2764.54 2262.26 2637.29 0 0 1
24 1 2830.25 3092.66 2271.72 0 0 0
25 1 1982.96 2102.37 2712.1 -1 0 0
26 1 2806.65 2874.42 2805.04 0 0 0
27 1 2915.71 2427.85 2733.14 -1 0 1
28 1 2178.27 2466.68 2426.21 0 0 0
29 1 2548.95 2338.18 2609.07 0 0 -1
30 1 2711.05 3136.64 2772.22 0 0 0
31 1 1791.71 1921.26 2787.03 0 0 0
32 1 1906.51 2934.52 3021.04 0 0 -1
33 1 2287.51 2423.45 2941.07 0 0 0
34 1 2465.1 1727.55 2773.46 0 0 0
35 1 2158.74 2280.02 2423.78 0 0 -1
36 1 1836.45 2734.92 1767.39 0 -1 0
37 1 2026.82 2040.04 2071.41 0 0 0
38 1 2298.95 2843.4 2278.74 0 0 0
39 1 2999.45 2419.38 2773.29 -2 0 -1
40 1 2931.9 2482.44 2143.52 -1 -1 2
41 1 2113.94 2802.63 2051.95 0 0 -1
42 1 2798.23 2643.37 2192.26 0 -1 0
43 1 2455.43 2560.86 2178.73 0 -2 0
44 1 2847.03 3114.99 1972.46 0 -1 0
45 1 2472.54 2372.09 2716.15 0 0 0
46 1 2792.67 3208.46 2876.27 -1 -1 0
47 1 3109.04 3012.3 2290.18 -1 -1 -1
48 1 2995.81 2198.04 2713.22 0 0 -1
49 1 2784.69 2539.89 2324.65 -1 0 1
50 1 2887.76 1944.84 3060.55 -1 0 0
51 1 3047.87 1783.2 2301.47 -1 -1 1
52 1 3275.43 2527.77 3184.74 -1 0 -1
53 1 2920.59 2105.61 3116.24 -2 0 -1
54 1 3054.06 2330.02 2848.56 0 0 -1
55 1 2873.14 2875.54 2832.15 -2 0 -1
56 1 2930.02 2254.88 1916.99 0 0 0
57 1 2117.41 2515.69 3194.06 0 0 -1
58 1 2475.52 2591.19 3181.14 0 0 -1
59 1 2603.68 3108.59 2703.88 -1 -1 0
60 1 2160.2 2965.9 1852.92 -1 -1 1
61 1 2033.67 2721.95 2466.14 -1 0 0
62 1 2565.15 1755.91 2941.75 0 0 -1
63 1 2985.97 2283.91 2951.5 -1 0 0
64 1 2773.22 2595.77 3004.55 0 -1 -1
65 1 3005.5 2898.43 2678.54 -1 -1 -1
66 1 3039.43 2803.36 2522.5 -1 0 1
67 1 2495.29 2448.23 1930.35 0 0 0
68 1 2319.11 2832.01 3075.63 0 -1 -1
69 1 1787.36 2560.34 2731.26 0 0 0
70 1 1934.12 1800.45 3113.81 0 1 -1
71 1 2104 2642.45 2528.83 -1 0 -1
72 1 2679.22 2169.12 3266.52 0 0 -1
73 1 2613.26 1837.21 1722.19 0 1 1
74 1 2961.89 2666.55 2228.49 -1 0 -1
75 1 2116.83 2481.31 1909.35 0 0 1
76 1 1867.09 1917.02 2889.86 -1 0 0
77 1 2585.74 2491.89 3094.52 -1 -1 -1
78 1 1894.38 3258.21 1996.26 0 -1 0
79 1 2164.44 2380.57 2519.69 0 -1 0
80 1 2987.07 2423.14 2466.71 -1 0 0
81 1 3268.99 2004.31 2010.85 -1 0 0
82 1 2036.33 2290.42 3133.72 1 0 0
83 1 2483.53 2139.56 2660.32 -1 -1 -1
84 1 2105 3263.28 3177.49 1 0 -1
85 1 2501.39 2421.56 2455.55 0 -1 0
86 1 3148.33 2406.07 2777.61 -1 0 0
87 1 1937.86 2101.26 2833.9 0 -1 -1
88 1 1801.04 2714.85 2132.38 0 -1 0
89 1 2788.31 2765.9 1957.37 0 0 0
90 1 3189.62 3052.84 2356.55 -2 -1 0
91 1 1883.6 3187.3 2867.02 0 -1 -1
92 1 2097.48 2747.65 2486.78 0 -1 -1
93 1 2277.95 3134.6 2685.78 1 0 0
94 1 2293.38 2216.57 3136.21 0 0 -1
95 1 1955.35 2445.22 2799.04 -1 -1 -1
96 1 2721.37 2467.7 2073.3 -1 0 0
97 1 2335.55 2427.12 2119.33 0 -1 1
98 1 2663.08 2174.44 2891.01 -1 -1 0
99 1 2469.42 2801.33 2914.22 0 -1 -1
100 1 2699.6 2094.05 1795.46 -1 0 0
101 1 1787.25 2838.52 2388.11 0 -1 0
102 1 2308.56 1747.54 2647.23 -1 0 0
103 1 2813.6 2508.19 2158.79 -1 0 0
104 1 3205.97 2668.23 2447.3 0 -1 -1
105 1 3156.69 2972.99 2724.67 -1 0 0
106 1 3200.08 2085.87 2781.39 0 1 -1
107 1 2721.38 2236.01 2454.56 -1 -2 0
108 1 3110.96 3024.82 1849.61 -1 0 -1
109 1 2294.9 2527.57 2424.89 -1 -1 0
110 1 2717.39 2707.47 1843.13 0 -1 0
111 1 3194.41 1710.34 3199.16 -1 0 -1
112 1 2628.97 1865.41 2908.18 0 0 0
113 1 2403.09 2694.5 2882.47 0 0 -1
114 1 2682.92 2428.63 2864.49 -1 0 0
115 1 2299.89 2644.5 2949.9 0 0 -1
116 1 2804.29 2436.41 2833.86 0 0 0
117 1 2381.6 3229.72 2707.83 0 -1 -1
118 1 2181.37 2747.05 2313.15 -1 0 -1
119 1 3149.58 2891.6 2282.54 0 -1 0
120 1 2728.88 2345.58 1946.25 1 0 0
121 1 2998.36 3084.48 2962.53 -1 0 0
122 1 2748.85 2990.85 2469.12 0 0 -1
123 1 1900.76 1873.84 3215.54 -1 1 -1
124 1 2580.4 2516.1 1800.47 0 0 1
125 1 1903.35 2978.04 2067.03 0 -2 0
126 1 2249.57 3286.11 2925.76 0 0 -1
127 1 2730.72 2304.78 2175.14 -1 -1 0
128 1 2146.73 2315.54 3287.61 -1 0 0
129 1 2477.28 2444.59 2413.14 -1 0 0
130 1 3188.22 2614.26 2093.81 0 -1 0
131 1 2853.11 3043.52 1739.02 -1 -1 0
132 1 2598.81 2757.65 2932.43 0 -1 -1
133 1 2540.21 2420.44 2809.66 0 0 -1
134 1 2041.84 3088.34 2487.12 -1 -1 -1
135 1 2231.7 3229.37 3179.17 0 -1 -1
136 1 2898.08 2180.48 3016.52 -1 0 0
137 1 3042.43 2009.77 2047.22 -1 0 0
138 1 2719.52 2568.02 1998.46 0 -1 0
139 1 2900.08 2575.97 2130.73 -1 -1 -1
140 1 2873.68 2924.08 2725.21 -1 -1 -1
141 1 2816.08 2758.55 2138.29 -1 1 0
142 1 2448.81 2292.75 2815 0 1 -1
143 1 3032.79 2905.9 2301.75 -1 0 0
144 1 1779.83 2920.02 2554.89 -1 -1 0
145 1 2341.25 2276.02 2165.74 0 0 0
146 1 3150.43 2564.97 2208.12 -1 -1 0
147 1 1886.14 2483.97 2687.52 0 0 -1
148 1 2712.27 2674.13 2379.84 -1 -1 1
149 1 2936.28 2791.8 2723.24 0 0 0
150 1 2438.22 2580.72 2551.25 0 0 0
151 1 2544.46 2955.75 2723.03 0 -2 -1
152 1 3168.6 2613.43 2871.64 -1 -1 0
153 1 2846.7 2749.92 2817.35 -1 -1 -1
154 1 3091.83 2663.25 2309.56 -1 0 -1
155 1 2898.52 2388.67 2536.5 0 0 0
156 1 2108.96 2510.38 3049.43 0 0 -2
157 1 3258.03 2909.24 2356.56 0 0 -1
158 1 2700.13 2710.59 2101.05 -1 -1 0
159 1 2964.61 2631.49 2641.41 0 -1 0
160 1 2856.72 2017.97 2794.97 -1 0 0
161 1 2670.02 2699.13 1969.8 0 0 -1
162 1 2764.09 2126.17 2530.66 0 -1 0
163 1 2403.48 2572.54 2822.43 0 0 -1
164 1 3075.95 2452.99 2002.2 0 -1 -1
165 1 2306.49 2205.58 3201.37 0 0 -1
166 1 1746.07 2687.95 2029.41 0 0 -1
167 1 2638.98 2683.54 2370.96 0 -1 0
168 1 1963.5 2215.15 2909.39 0 0 0
169 1 2225.81 3115.92 1922.16 0 -1 -1
170 1 2903.91 2881.34 2375.18 0 -1 0
171 1 2777.25 2172.74 2968.67 -1 -1 -1
172 1 2600.08 2888.28 2176.07 0 -1 -1
173 1 2767.08 2400.53 2520.82 -1 0 -1
174 1 2821.71 1924.68 3212.2 -2 0 -1
175 1 3038.18 2943.46 1758.96 -1 -1 -1
176 1 2171.33 2147.21 2915.69 0 0 0
177 1 2778.96 3160.12 1840.41 -1 0 0
178 1 3143.57 2224.39 2767.89 -1 0 0
179 1 2006.37 2219.23 2962.28 -1 0 0
180 1 3101.55 2849.95 2911.16 0 0 -1
181 1 1849.39 2636.39 2991.86 0 -1 1
182 1 2817.68 3195.18 2222.37 0 -1 0
183 1 1766.11 2944.6 2078.15 0 -1 0
184 1 2881.58 2264.82 2665.74 0 -1 1
185 1 1840.76 2319.11 2619.12 0 0 -1
186 1 2991.51 2355.66 1956.32 -1 0 -1
187 1 3265.25 2642.18 2783.06 0 0 -1
188 1 2571.97 1734.74 3242.18 0 1 -1
189 1 3235.33 2143.23 3166.8 -1 0 -1
190 1 2580.72 2647.6 2487.42 -1 0 0
191 1 2828.8 1829.76 3066.15 0 0 0
192 1 3117.48 3151.67 1890.55 -1 -1 0
193 1 3184.06 2761.75 2870.64 -2 -1 0
194 1 2855.45 2184.62 2024.68 0 -1 -1
195 1 2197.44 2591.86 2741.47 -1 0 0
196 1 2407.35 2514.27 3258.61 0 0 -1
197 1 2221.4 2321.15 1802.17 -1 1 1
198 1 2782.19 3103.72 3166.97 -1 -1 0
199 1 2354.28 3075.23 1755.37 0 0 1
200 1 2132.18 2006.85 2926.57 0 0 -1
201 1 3104.44 2224.6 2923.06 -1 0 0
202 1 2575.98 2389.21 3177.01 -1 -1 -1
203 1 3018.77 3009.26 3195.68 -1 -1 0
204 1 2453.21 2365.06 2933.87 0 -1 -2
205 1 2932.26 2612.15 2988.81 -1 -1 0
206 1 3136.32 1802.86 3119.83 -1 0 0
207 1 2428.23 2721.58 3161.14 -1 -1 -1
208 1 2436.91 2248.05 2691.48 0 0 -1
209 1 2692.21 2658.96 2923.67 -1 -1 0
210 1 3002.15 2538.29 1898.64 0 -1 0
211 1 2799 2881.81 1904.5 -1 -1 0
212 1 2381.3 1719.23 2380.3 0 0 -1
213 1 2975.5 2669.99 2501.46 0 1 -1
214 1 2419.01 2845.35 2473.22 0 -1 0
215 1 1710.78 2905.74 1968.62 0 0 -1
216 1 2648.56 2357.41 3093.42 -1 0 -1
217 1 2880.55 2201.34 2147.16 -1 0 1
218 1 2201.19 2600.04 2036.87 0 0 0
219 1 3013.42 2894.79 2442.63 0 -1 0
220 1 2216.24 2442.65 3084.06 -1 0 -1
221 1 2934.79 1848.87 2987.35 -1 0 -1
222 1 2821.36 2222.86 1713.81 0 -1 1
223 1 2467.57 2460.79 3142.06 0 -1 -2
224 1 1815.01 3149.21 2495.87 0 -1 0
225 1 2772.49 3231.59 2451.75 0 -1 0
226 1 2749.67 2545.59 2863.64 0 -1 0
227 1 3163.53 2411.17 2650.37 -1 -1 -1
228 1 1750.37 3073.53 1761.06 0 0 1
229 1 2844.37 2130.51 2260.3 -1 -1 0
230 1 1798.56 2435.65 2592.08 0 0 -1
231 1 2135.93 2711.89 2434.04 -1 -1 0
232 1 2151.94 3212.6 3284.06 0 -1 -1
233 1 3164.88 2733.05 2735.37 -1 0 1
234 1 2050.01 1919.55 2567 0 -1 -1
235 1 2700.87 2365.97 1822.27 -1 -1 0
236 1 2507.82 2554.12 2168.41 -1 0 0
237 1 2990.48 2526.42 2905.11 0 -1 0
238 1 2935.88 2791.68 2462.57 0 -1 0
239 1 2699.68 2575.75 2126.25 -1 -1 0
240 1 2197.36 2550.63 2552.29 1 0 -1
241 1 2680.45 3201.99 1952.04 0 -1 0
242 1 2622.73 2108.68 1901.82 0 -2 0
243 1 1973.32 3258.95 1872.83 0 -1 0
244 1 2919.62 2576.41 2745.92 0 -1 -1
245 1 3086.5 1774.83 2515.96 -1 0 0
246 1 2857.25 1972.4 2667.49 0 -1 0
247 1 2438.04 3239.79 2596.55 0 -1 0
248 1 3079.6 2775.74 2081.1 -1 -1 0
249 1 3082.43 2624.82 2983.82 0 0 0
250 1 3246.84 1878.64 3117.79 -1 0 -1
251 1 2990.02 2678.09 2051.71 0 -1 0
252 1 2883.42 1837.82 2661.81 -1 0 0
253 1 1869.96 2637.92 2074.11 1 0 0
254 1 3195.61 2288.02 2589.02 -1 0 -1
255 1 2803.71 2020.42 3137.56 -1 0 -1
256 1 2430.46 2422.07 2804.95 -1 0 0
257 1 2838.48 2993.61 2012.31 -1 -1 0
258 1 2566.2 2096.69 2851.51 0 0 -1
259 1 2616.7 2132.83 3167.44 -1 0 -1
260 1 2622.85 2536.5 2931.86 0 0 0
261 1 1773.19 2096.79 2322.78 0 0 0
262 1 3053.73 2524.3 2123.4 -1 0 -1
263 1 2578.06 2807.18 2794.42 -1 0 -1
264 1 2260.76 2403.16 1913.71 0 0 -1
265 1 3198.61 2025.44 2918.83 -1 0 -1
266 1 2969.28 1862.87 3121.2 -1 0 -1
267 1 1765.61 2320.57 2899.82 0 0 -1
268 1 2218.48 2501.05 2554.84 0 -1 0
269 1 2796.45 1773.88 2846.13 -1 0 0
270 1 2334.78 2172.82 3169.2 0 0 -1
271 1 2072.48 2811.36 2391.6 0 -1 -1
272 1 2567.38 2414.93 2945.87 -1 0 -1
273 1 2171.71 2388.21 2916.48 0 0 -1
274 1 2347.72 2553.95 2956.48 1 -1 0
275 1 2867.53 2454.94 1923.57 -1 0 1
276 1 2774.13 2649.37 1737.43 -1 -1 0
277 1 2602.51 2615.59 2051.18 0 0 1
278 1 1734.54 1803.99 2759.85 0 0 -1
279 1 2349.3 2711.18 2459.93 0 -1 0
280 1 2453.97 2468.81 3014.23 -1 0 -1
281 1 1989.3 2846.39 2659.08 0 -1 0
282 1 2041.92 2333.56 2885.56 0 -1 0
283 1 2335.18 3164.48 3230 0 -1 -1
284 1 2172.32 2300.9 3125.67 0 0 -1
285 1 3277.88 2703.2 2907.69 -1 0 -1
286 1 2870.1 2107.77 2879.82 -1 1 0
287 1 2771.01 2040.58 1873.52 0 0 0
288 1 2346.31 2352.07 2711.53 1 0 0
289 1 2154.72 2690.56 2674.56 0 -1 0
290 1 2964.15 2484.51 2356.18 -1 -1 0
291 1 2278.88 2681.93 2445.47 -1 -1 0
292 1 3149.47 2268.5 2737.4 -1 0 -1
293 1 2621.51 2553.31 2550.96 0 0 1
294 1 2547.66 2637.55 2642.98 0 -1 -1
295 1 1980.88 3184.01 2542.06 0 -1 0
296 1 3135.16 2484.71 2887.46 0 0 0
297 1 2856.06 2330.92 2560.31 -1 0 0
298 1 2404.06 2426.37 2607.27 0 0 0
299 1 1837.58 2182.08 2544.55 1 0 0
300 1 2083.32 2438.1 3151.7 0 0 0
301 1 2374.7 2483.44 2555.47 -1 0 -1
302 1 3174.32 1998.41 1772.39 -1 0 0
303 1 2953.22 3207.94 1932.86 0 -1 0
304 1 2308.28 2764.91 3103.22 1 -1 -1
305 1 2412.69 1891.67 3112.74 0 0 -1
306 1 1809.25 3182.48 1753.98 0 -1 0
307 1 3048.59 2426.37 2048.22 -1 0 -1
308 1 1801.3 1849.66 1734.04 0 0 0
309 1 2644.23 2926.41 2334.84 0 0 -1
310 1 1883.73 2014.32 2732.45 0 0 -1
311 1 2176.65 2799.98 1762.33 0 -1 -1
312 1 2815.77 2346.76 2618.66 0 -1 1
313 1 2151.33 2079.64 3024.94 0 -1 -1
314 1 1889.49 2347.14 2845.69 1 0 0
315 1 1964.04 1895.5 2662.58 0 0 0
316 1 2867.01 2887.95 1788.83 -1 0 0
317 1 2213.19 2828.54 2600.97 1 0 -1
318 1 3250.36 3057.1 2790.78 0 -1 -1
319 1 2907.93 2190.76 1786.11 -1 0 0
320 1 2439.84 2666 2693.48 0 -1 0
321 1 2632.23 2268.3 3179.8 -1 0 0
322 1 2323.04 2466.03 1834.74 0 -1 0
323 1 2039.73 2103.2 2922.55 0 0 -1
324 1 3236.09 2347.53 1767.43 0 0 0
325 1 2120.08 3136.64 2869.47 0 0 0
326 1 2694.83 2773.51 2857.79 0 0 -1
327 1 2590.75 3008.55 2607.25 0 -1 0
328 1 2148.63 2240.64 2549.98 0 0 0
329 1 2129.43 2751.75 2049.64 0 0 0
330 1 2670.35 2519.71 2772.32 0 0 0
331 1 2474.48 2573.63 2054.15 -1 0 0
332 1 2262.6 2821.51 3030.04 0 -1 -1
333 1 2864.4 2509.55 2940.37 0 0 0
334 1 2888.86 3288.75 3143.37 -2 -1 0
335 1 2533.23 2883.35 2411.66 0 0 0
336 1 2461.56 2383.68 3261.21 0 -1 -1
337 1 1802.1 2427.26 2210.04 0 0 0
338 1 2689.02 2709.6 3218.03 0 -1 -1
339 1 2850.98 2680.11 3067.31 0 -1 0
340 1 2468.7 2455.45 2595.4 0 -1 0
341 1 2696.96 3173.29 3081.67 0 -1 -2
342 1 2786.44 2840.88 2931.03 0 -1 0
343 1 2749.43 2075.86 2866.95 1 -1 0
344 1 2930.72 2982.04 2970.45 0 -1 -1
345 1 2544.32 2285.19 1712.27 0 0 0
346 1 2664.95 2424.4 1849.03 0 -1 0
347 1 2486.81 2467.57 2789.64 -1 0 -1
348 1 2193.12 2473.14 2593.41 -1 -1 -1
349 1 2795.4 2631.32 2602.22 -1 0 0
350 1 2254.69 2290.95 2056.44 0 1 0
351 1 2048.35 1735.37 3074.59 0 0 -1
352 1 2362.18 2280.41 3015.29 0 1 0
353 1 2994.73 2613.88 2373.6 0 -1 0
354 1 2192.28 2610.11 2338 0 0 0
355 1 2368.47 2759.63 2990.22 0 -1 -1
356 1 2252.13 3065.63 1807.44 0 -1 0
357 1 2154.1 2881.96 2821.16 0 -1 -1
358 1 2986.72 3278.78 2228.05 -1 -1 0
359 1 2626.79 2306.9 2890.16 0 0 0
360 1 2212.66 1750.9 3245.84 0 1 -1
361 1 3201.56 2585.03 2341.67 -1 0 0
362 1 2785.48 2625.04 2795.26 0 -1 0
363 1 2514.56 2382.19 3058.23 0 0 -1
364 1 2811.74 2702.88 2944.99 -1 0 0
365 1 2161.87 3114.79 2749.82 0 -1 0
366 1 2020.48 2592.04 1843.7 0 0 0
367 1 2261.13 2573.92 2851.37 0 -1 -1
368 1 2634.75 1926.04 2584.81 -1 0 0
369 1 3041.57 2724.33 2675.34 0 0 -1
370 1 3107.92 2779.21 2200 -2 0 0
371 1 3178.97 2220.05 1999.5 -1 0 0
372 1 2941.68 2953.31 3244.78 -1 -1 -1
373 1 2837.94 2617.1 2804.91 0 1 0
374 1 2525.98 1942.61 2556.14 0 0 0
375 1 3034.06 1765.55 2360.76 0 0 -1
376 1 2698.93 2645.37 2503.99 0 1 0
377 1 3097.86 2490.73 2347.61 0 0 0
378 1 2330.91 1983.51 2892.99 0 1 -1
379 1 2896.93 2550.58 2247 -1 -1 0
380 1 2612.98 2175.14 2023.96 -1 0 0
381 1 2251.84 2538.13 3011.59 0 0 -1
382 1 3128.42 2857.64 2771.89 -1 -1 0
383 1 2720.19 2324.5 2353.78 -1 0 0
384 1 2823.85 2776.99 2383.88 0 -1 0
385 1 2983.38 2727.07 2338.31 0 0 0
386 1 2827.25 2961.09 2594.96 -1 0 0
387 1 2988.85 2348.3 2751.48 -1 0 -1
388 1 1716.48 2751.91 2854.62 0 0 -1
389 1 2444.32 2515.17 1828.1 0 0 0
390 1 1755.25 2648.48 1719.52 0 -1 0
391 1 2416.73 1974.67 1837.79 0 0 0
392 1 1940.53 2553.73 2972.79 -1 -1 -1
393 1 2587.57 2427.68 2690.28 0 0 1
394 1 1969.74 2165.59 3109.71 1 0 -1
395 1 2460.02 2455.19 2075.12 0 -1 -1
396 1 1777.74 2794.47 2580.47 1 0 0
397 1 2770.12 2801.97 1761.37 -1 0 0
398 1 2227.21 2436.53 2823.83 0 -1 0
399 1 2100.79 1829.57 2796.87 0 0 0
400 1 2206.28 2351.8 2717.1 -1 0 -1
401 1 2509.1 2473.96 2445.31 0 0 -1
402 1 2231.97 2556.51 3271.46 0 0 -2
403 1 1810.16 2106.9 3025.74 0 0 -1
404 1 2595.13 2662.06 2183.25 0 0 0
405 1 2665.8 3025.3 2793.21 -1 0 0
406 1 2130.75 2856.88 2299.13 0 -1 0
407 1 1921.02 2904.36 2893.35 -1 -1 0
408 1 3234.47 2411.99 2888.35 0 0 -1
409 1 3088.79 2660.94 2562.15 0 -1 -1
410 1 2586.5 2261.92 2438.89 0 0 -1
411 1 2145.82 2077.12 2028.28 0 0 0
412 1 2407.13 2999.78 2815.16 0 0 0
413 1 1799.59 2659.01 2850.78 0 0 -1
414 1 2048.32 2824.18 2802.53 0 -1 -1
415 1 2075.51 2390.43 2766.75 0 0 -1
416 1 2630.92 2661.77 1767.25 0 0 0
417 1 1861.59 2123.78 2423.81 -1 0 -1
418 1 3223.13 2973.6 2060.39 -1 0 1
419 1 2218.45 2593.09 2498.26 0 0 0
420 1 3103.87 2824.14 2359.67 -2 -1 -1
421 1 2840.6 2504.79 1828.47 -1 0 0
422 1 1817.64 2975.02 1957.18 0 -1 0
423 1 3023.14 2713.19 1759.08 0 -1 0
424 1 2038.22 2823.43 3137.66 0 -1 -1
425 1 2384 2833.14 3201.31 0 0 -1
426 1 2812.87 2588.05 2767.19 -1 0 -1
427 1 3105.52 2318.24 2241.45 -1 -1 0
428 1 2343.65 2931.81 2562.09 0 -1 -1
429 1 2882.18 2759.87 2253.68 -1 0 0
430 1 2082.97 1923.85 2264.99 0 -1 0
431 1 2610.1 2399.07 1739.34 0 0 0
432 1 2000.83 2825.97 2284.21 0 -1 0
433 1 2227.88 2668.97 2495.82 -1 -1 -1
434 1 3069.87 2697.56 2433.44 -1 0 0
435 1 2832.18 2076.56 3008.51 -1 0 0
436 1 2890.26 2701.12 1752.69 -1 0 0
437 1 2728.32 2239.07 2031.91 0 1 0
438 1 3256.33 2503.36 2653.96 -1 -1 -1
439 1 2818.7 2378.16 1898.12 0 0 0
440 1 3002.48 2012.82 3053.3 -1 0 -1
441 1 2738.18 1918.58 3094.05 -1 0 -1
442 1 1900.83 2567.38 2775.02 0 0 0
443 1 3028.76 2522.44 3030.03 0 -1 0
444 1 2805.54 2649.74 2051.65 -2 0 0
445 1 2433.46 2948.47 2544.72 0 -1 0
446 1 2931.85 1978.16 3182.92 -1 0 -1
447 1 2635.95 2700.64 2607.09 0 0 0
448 1 2052.55 2701.82 2291.91 -1 -1 0
449 1 2273.73 2457.79 1857.89 -1 0 0
450 1 2001.48 2433.57 3071.42 0 0 -1
451 1 2032.38 2728.52 2719.39 0 -1 -1
452 1 2167.04 2213.8 3037.48 0 0 0
453 1 3069.42 3056.52 2398.53 -1 0 0
454 1 1999.24 2229.09 2254.95 0 0 -1
455 1 2730.25 2613.29 3114.92 -1 0 -1
456 1 2912.39 1803.74 1757.43 0 1 0
457 1 2496.26 2748.76 2430.88 0 -1 -1
458 1 1953.55 2174.2 2960.39 0 1 -1
459 1 2084.2 2450.55 2212.87 0 -1 -1
460 1 3102.92 2484.59 2559.27 -1 -1 0
461 1 2818.54 2718.28 2502.05 0 -1 0
462 1 2950.22 2755.52 2585.72 -1 0 -1
463 1 3197.65 2077.06 2933.74 -1 0 -1
464 1 2673.61 2618.2 2653.25 0 0 0
465 1 1746.65 2717.63 2452.31 1 0 -2
466 1 2764.32 2958.73 2697.44 -1 -1 0
467 1 2684.09 2586.53 1858.53 0 1 0
468 1 3122.22 2800.42 1798.17 0 -1 1
469 1 2874.16 2523.84 2643.11 0 -1 -1
470 1 2868.57 2988.25 1876.78 -1 -1 -1
471 1 2873.72 2653.17 2333.59 0 0 0
472 1 2740.05 2928.79 1793.54 0 -1 0
473 1 1731.66 2399.95 3006.5 1 -1 0
474 1 2937.5 2358.32 2838.29 -2 -1 -1
475 1 2831.19 2518.76 2032.27 0 -1 0
476 1 2869.45 3254.33 2090.24 -1 -1 0
477 1 3112.7 2346.65 1999.63 0 -1 -1
478 1 2611.47 2489.54 1998.02 -1 -1 0
479 1 2610.93 1784.4 2303.55 0 0 -1
480 1 3166.25 2255.88 2461.65 -1 0 0
481 1 2905.89 1819.38 3286.58 0 1 0
482 1 2650.76 1986.08 2858.32 0 -1 -1
483 1 2958.91 2234.59 2815.53 -1 1 0
484 1 2764.52 2906.76 2352.29 -1 -1 0
485 1 2325.8 3068.44 2588.77 -1 -1 -1
486 1 3243.92 2913.6 1833.44 -1 -1 0
487 1 2716.02 2407.1 2737.37 -1 0 -1
488 1 2149.35 1818.52 2502.35 0 0 0
489 1 3076.36 2658.68 2138.58 -1 0 0
490 1 2953.6 2413.12 2981.19 -1 0 -1
491 1 2641.95 2729.8 2715.24 0 0 -1
492 1 2808.09 2536.24 3270.29 0 -1 0
493 1 2720.38 2459.43 2404.07 -1 0 0
494 1 2334.83 2403.14 3064.63 1 -1 0
495 1 2979.19 2795.06 2169 0 -1 0
496 1 2858.41 2614.49 2755.05 1 0 0
497 1 2620.5 3234.39 2634.91 -1 -1 0
498 1 2694.47 2941.27 2581.59 0 -1 0
499 1 2325.97 2519.9 1835.96 -1 0 -1
500 1 2701.57 3024.74 2327.22 0 -1 -1
501 1 2477.16 2719.18 2559.9 -1 0 -1
502 1 1827.04 2950.77 2919.41 -1 0 0
503 1 2488.55 2488.97 2862.82 0 0 0
504 1 2289.87 2597.23 2509.83 0 0 0
505 1 2066.97 2497.04 3193.68 -1 0 -1
506 1 1756.2 2146.84 2209.56 -1 0 0
507 1 3153.92 2052.78 2953.29 -1 0 -1
508 1 1931.23 1839.23 1956.1 0 0 -1
509 1 1940.57 1876.91 2516.23 0 0 0
510 1 2678.24 2353.94 2614.46 -1 -1 -1
511 1 3240.02 3004.54 2467.35 0 0 -1
512 1 1868.29 3024.68 3127.09 0 -1 -1
513 1 2982.81 2505.24 2026.16 0 -1 0
514 1 2771.53 2233.96 2278.74 -2 0 1
515 1 2509.32 2169.06 2425.25 -1 0 -1
516 1 2523.3 3224.83 2688.59 -1 -1 0
517 1 2952.2 2934.62 3130.62 0 -1 -1
518 1 2136.62 2838.76 2706.4 0 0 -1
519 1 2646.76 2587.86 2402.01 0 0 0
520 1 2988.66 2804.86 1785.48 -1 0 0
521 1 2508.53 2396.7 1803.46 -1 0 1
522 1 2478.38 2609.51 2177.13 -1 0 0
523 1 2970.16 2909.44 1872.66 0 0 0
524 1 2625.22 2422.24 2498.18 -1 -1 0
525 1 3005.03 2154.7 2929.96 0 0 -1
526 1 2093.04 2364.43 2635.48 0 0 0
527 1 1710.38 2210.94 2851.27 0 -1 -1
528 1 3090.59 2431.87 2232.32 0 1 0
529 1 2498.53 2598.95 1736.76 -1 -1 0
530 1 1990.86 2702.64 2591.43 0 0 0
531 1 2161.91 3241.67 1928.48 0 -1 0
532 1 3081.23 2592.26 2017.92 -1 0 0
533 1 2991.91 1784.5 2322.7 -1 0 -1
534 1 2353.25 1712.66 2829.1 0 0 -1
535 1 2661.85 3200.03 2487.26 -1 -2 0
536 1 2280.04 2550.83 2129.65 -1 0 0
537 1 2698.68 2946.03 2218.88 -1 -1 0
538 1 2020.16 2059.81 3038.33 0 0 -1
539 1 3016.97 2436.1 2660.03 -2 0 -1
540 1 2753.38 3088.04 2440.72 0 0 0
541 1 2489.64 2904.19 2835.29 0 0 -1
542 1 2373.72 2729.09 2415.26 0 -1 0
543 1 2306.81 2676.37 2621.91 0 0 -1
544 1 2952.06 1973.89 2936.42 -1 1 -1
545 1 2252.06 2801.96 2714.6 -1 0 -1
546 1 3127.47 1902.21 1857.09 -1 0 0
547 1 2485.87 2337.18 2394.78 0 -1 0
548 1 1931.41 2015.51 2942.28 0 0 0
549 1 2684.6 2495.32 3117.49 0 0 0
550 1 2140.32 2226.49 1794.89 0 0 0
551 1 2361.58 2680.15 1870.7 0 -1 0
552 1 2653.61 3214.35 3214.75 0 -1 -1
553 1 2855.22 2637.61 3217.69 -1 0 -1
554 1 2285.09 2415.01 2612.43 0 0 0
555 1 2097.64 2345.82 3037.96 0 0 0
556 1 2543.97 2907.75 2530.77 0 0 -1
557 1 2672.09 2622.28 2281.39 -1 0 0
558 1 2538.5 3172.9 2552.47 -1 0 -1
559 1 2535.77 3028.87 2837 -1 0 0
560 1 1962.24 2765.99 1712.97 0 0 0
561 1 3138.79 2383.62 2477.06 -1 -1 -1
562 1 2057.3 3150.88 3228.29 0 0 -1
563 1 3230.93 2505.96 2814.8 -1 0 0
564 1 2571.11 2698.46 3156.5 0 1 -1
565 1 3178.7 2632.73 3153.41 0 0 -1
566 1 3191.6 2235.99 2746.23 -1 0 1
567 1 2538.38 1846.26 2803.63 0 0 0
568 1 2956.61 2884.71 2539.64 -1 -1 -1
569 1 2682.29 2240.45 2994.48 0 0 0
570 1 1863.43 2880.6 2636.75 0 -1 0
571 1 2881.54 2788 1858.46 -1 -1 0
572 1 2544.96 2730.28 2687.26 -1 -1 0
573 1 2240.94 2327.37 3021.94 1 0 -1
574 1 2907.81 3064.64 3210.94 -1 0 0
575 1 1951.11 2417.53 2925.69 0 0 0
576 1 3172.07 2266.32 2786.34 0 -1 -1
577 1 3103.51 2582.78 2451.67 -1 -1 -1
578 1 1743.35 2610.06 2378.39 1 0 1
579 1 2869.1 3189.07 2544.01 0 0 -1
580 1 2387.79 2681.51 2436.47 0 1 1
581 1 1914.64 2282.9 2456.81 -1 0 0
582 1 2977.68 3030.26 2309.16 0 -1 0
583 1 2530.64 2436.67 2412.81 0 0 0
584 1 3135.73 2940.33 2378.69 0 0 1
585 1 2972.62 3059.86 3086.11 -1 -1 -1
586 1 2917.83 2182.43 3238.41 -1 -1 -2
587 1 1728.69 2210.41 2619.98 1 0 -1
588 1 2018.37 2404.47 1999.54 0 0 0
589 1 2812.36 2981.68 3236.08 1 -1 0
590 1 3164.2 2705.65 2004.96 -1 -1 1
591 1 2198.42 1942.88 3025.6 -1 -1 -1
592 1 1969.72 2331.15 2735.73 0 0 0
593 1 1830.5 2215.22 2919.73 0 0 0
594 1 2145.16 3010.94 2882.11 -1 1 0
595 1 2871.24 1734.3 2925.66 -1 0 -1
596 1 2804.19 2447.23 1914.89 1 0 0
597 1 2666.83 2582.14 3094.52 0 0 0
598 1 2897.4 3112.86 1858.38 0 -1 0
599 1 2301.82 3213.37 2587.21 -1 -1 0
600 1 2893.11 2139.65 2756.36 -1 0 -1
601 2 3270.38 2359.36 1916.59 -1 0 0
602 2 1929.53 2007.7 2280.41 1 0 0
603 2 2960.58 3115.13 2156.21 -1 0 1
604 2 3029.94 2989.07 2819.35 0 -1 0
605 2 1778.75 1749.97 3159.53 0 0 0
606 2 1742.88 2562.92 2203.91 1 0 0
607 2 2143.3 2599.74 2153.56 0 0 0
608 2 2742.32 3081.4 2574 0 -1 0
609 2 2890.69 2199.61 2385.8 0 0 0
610 2 2625.37 2911.84 2929.03 0 0 0
611 2 1831.1 2895.63 1800.25 0 0 1
612 2 2477.93 3233.02 2244.78 0 -1 0
613 2 2038.58 2557.88 2663.49 0 0 -1
614 2 2592.96 2072.07 2527.2 0 0 0
615 2 1762.24 2683.09 3113.63 0 0 0
616 2 3212.09 3193.15 1755.92 0 0 0
617 2 1831.15 2862.2 2211.27 0 -1 0
618 2 2468.46 3184.76 2895 0 0 0
619 2 2734.21 2086.23 2678.68 0 1 0
620 2 3240.79 3179.13 2459.07 -1 0 0
621 2 1714.82 3199.88 2800.63 0 0 -1
622 2 2291.2 3229.97 1796.02 0 0 0
623 2 2304.56 2552.71 3085.48 0 0 -1
624 2 1722.53 2360.5 2724.77 0 0 -1
625 2 2662.06 1970.38 3217.34 0 0 0
626 2 1846.55 3046.63 2771.05 1 0 -1
627 2 2034.62 1742.25 2607.54 0 1 0
628 2 3104.3 2564.45 2699.3 -1 0 0
629 2 2272.16 2024.79 2286.62 0 0 0
630 2 2528.18 1821.49 2129.36 0 1 0
631 2 3095.25 1884.82 2963.84 0 1 0
632 2 2174.78 2993.24 2016.28 0 -1 0
633 2 1824.05 2999.48 2386.39 0 -1 0
634 2 3005.24 2688.57 2830.33 -1 0 0
635 2 1800.23 1810.84 2259.22 0 0 0
636 2 2779.84 1908.77 2909.5 -1 0 0
637 2 1844.65 2193.18 2724.42 1 0 -1
638 2 1779.78 1980.52 2143.73 0 0 0
639 2 3067.78 2847 3184.86 0 0 0
640 2 2640.56 3272.24 2780.85 0 0 0
641 2 2345.71 2017.43 2624.02 0 0 0
642 2 2536.97 2972.71 2011.42 0 -1 0
643 2 1805.01 1731.59 2439.44 0 0 0
644 2 3237.77 2547.75 1921.57 -1 0 1
645 2 2555.09 3046.06 2229.98 0 -1 0
646 2 2230.23 2983.85 2217.45 0 -1 0
647 2 2160.88 2120.98 3179.51 0 0 0
648 2 2540.01 2638.73 2802.78 0 0 0
649 2 3044.7 2098.65 1730.51 -1 0 0
650 2 3056.5 2310.11 2315.81 0 0 0
651 2 3167.19 2083.87 2108.45 -1 0 0
652 2 1800.59 1793.02 2054.33 0 0 0
653 2 2875.23 2498.25 3097.51 0 0 -1
654 2 2500.05 3156.04 3255.84 0 -1 -1
655 2 2541.13 1981.29 2698.79 0 0 0
656 2 2721.15 1878.29 2715.14 0 0 0
657 2 3022.81 2028.19 2770.22 -1 0 -1
658 2 2592.82 2227.78 2719.38 -1 0 -1
659 2 1734.92 2037.04 2651.7 1 0 0
660 2 2408.26 2302.88 1974.07 0 0 0
661 2 2611.93 1762.04 1955.11 0 0 0
662 2 1948.79 1895.01 1780.63 0 0 0
663 2 1924.37 2855.39 2474.02 0 -1 0
664 2 2585.65 3031.98 3105.37 0 0 -1
665 2 2453.62 2383.92 2211.25 0 0 0
666 2 2566.6 3170.76 2074 0 -1 0
667 2 2807.69 1727.49 1923.84 0 0 0
668 2 1937.73 2339.58 2139.08 0 0 0
669 2 3113.67 2354.99 3005.96 -1 0 0
670 2 2170.64 1842.96 2849.54 0 0 -1
671 2 2772.79 1862.95 1772.9 0 0 1
672 2 1938.74 2548.66 2197.98 0 0 0
673 2 2300.82 2327.78 2411.89 0 0 0
674 2 3213.07 1730.66 2156.93 -1 0 0
675 2 2936.35 2805.59 3005.75 -1 0 0
676 2 2579.14 1938.93 1837.73 0 0 0
677 2 2042.51 2939.99 2145.96 0 -1 0
678 2 3117.13 2882.35 1940.96 -1 -1 0
679 2 2027.64 2986.52 3117.39 0 0 0
680 2 3046.03 1950.38 2186.61 -1 0 0
681 2 2287.29 3097.92 2859.9 0 0 0
682 2 2852.68 2364.03 2259.33 0 0 0
683 2 2406.27 2894.76 2605.21 0 -1 0
684 2 1893.25 3064.74 2211.58 0 -1 0
685 2 1927.3 3158.08 3098.53 0 0 -1
686 2 1922.22 2446.08 1843.44 0 0 0
687 2 2518.82 2846.93 3075.76 -1 -1 0
688 2 2916.07 3025.48 2462.51 -1 -1 0
689 2 2132.73 3151.18 3036.13 0 -1 0
690 2 3183.7 3012.25 3255.03 0 1 -1
691 2 2586.96 2322.67 2077.23 -1 0 0
692 2 2060.01 1717.03 2892.84 0 0 -1
693 2 3116.65 3187.01 2284.98 -1 -1 0
694 2 1852.25 2717.11 2685.46 0 0 0
695 2 2695.05 2115.12 2149.62 0 0 0
696 2 2389.47 1762.05 2975.86 0 1 0
697 2 1920.94 2032.23 2555.63 0 0 0
698 2 1951.85 2426.27 2516.7 1 0 0
699 2 2470.91 1743 1797.91 0 0 0
700 2 1735.15 2470.79 1766.99 0 0 0
701 2 3285.14 2849.97 2668.08 0 -1 -1
702 2 1849.27 2467.23 2364.64 0 0 0
703 2 2004.22 3106.99 2049.8 0 0 0
704 2 2207.33 3051.42 2404.35 0 -1 0
705 2 2037.94 1933.75 2800.56 0 0 -1
706 2 1919.43 2576.76 3277.83 0 0 0
707 2 1912.17 3033.5 2576.45 0 -1 0
708 2 1856.86 2601.92 2510.65 1 0 0
709 2 1850.94 1728.99 2969.67 0 0 0
710 2 2714.49 1780.85 3184.3 0 0 -1
711 2 1994.19 2953.53 1914.86 0 -1 0
712 2 2155.73 2671.55 3042.13 0 0 -1
713 2 2345.92 2475.57 2616.95 0 0 -1
714 2 2870.8 1965.31 2294.87 -1 0 0
715 2 2564.64 2261.67 1872.89 0 0 0
716 2 2303.91 2905.29 1748.26 0 0 0
717 2 3030.87 1725.05 3216.95 -1 0 -1
718 2 2656.55 2433.57 2222.6 -1 0 0
719 2 1965.4 1877.9 2125.28 0 0 0
720 2 1728.37 1982.37 3224.72 0 0 -1
721 2 3207.43 2440.17 2088.77 0 0 0
722 2 3271.23 3005.01 2198.16 -1 -1 0
723 2 2678.89 3073.38 3289.61 0 0 -1
724 2 3029.43 3176.08 2509.8 0 -1 0
725 2 2189.31 3262.41 2738.78 0 -1 -1
726 2 2250.56 2193.5 1904.93 0 0 0
727 2 3132.17 2437.8 1791.01 -1 0 0
728 2 2273.05 2144.6 2452.53 0 0 0
729 2 2914.15 1772.51 2489.31 -1 0 0
730 2 2927.93 2844.73 2006.5 -1 -1 0
731 2 2298.62 2707.75 3268.87 0 0 0
732 2 3199.82 1809.89 3283.79 -1 0 -1
733 2 2234.63 1791.67 1966.86 0 1 0
734 2 1843.05 2249.64 2285.32 0 0 0
735 2 2376.79 1840.15 2499.82 0 0 0
736 2 2212.15 3199.05 2075.97 0 -1 0
737 2 2165.14 2790.47 2094.26 -1 0 0
738 2 3168.76 2775.84 3026.36 0 0 0
739 2 2239.22 2986.37 3020.88 0 0 0
740 2 2879.86 1838.75 2144.8 0 0 0
741 2 2647.95 2051.31 2994.36 -1 1 0
742 2 2515.51 2112.91 1718.53 0 0 0
743 2 3266.17 2099.22 2462.47 -1 0 0
744 2 2589.7 2242.88 2249.77 0 0 0
745 2 2196.91 3043.3 3203.91 0 0 -1
746 2 2183.62 2617.82 1836.71 0 0 0
747 2 2772.98 2942.75 3053.35 0 0 -1
748 2 2435.51 1866.55 1961.77 0 0 0
749 2 2222.12 2060.79 2753.26 0 0 0
750 2 1790.15 1932.25 2427.96 0 0 0
751 2 3262.75 2673.61 2595.54 0 0 -1
752 2 3019.64 1730.16 2667.98 0 1 0
753 2 1772.19 2288.44 2098.06 0 0 0
754 2 2752.26 2373.67 3195.28 -1 0 0
755 2 2328.25 2106.58 2974.3 0 0 0
756 2 2593.36 3040.09 2426.63 0 -1 0
757 2 2389.54 2195.33 2313.13 0 0 0
758 2 3119.32 3144.52 2717.41 -1 -1 0
759 2 2712.86 1729.89 2128.27 0 0 0
760 2 2480.12 2638.69 2999.51 0 0 -1
761 2 2064.87 3112.14 1818.2 0 -1 0
762 2 2098.59 2084.68 2200.61 0 0 0
763 2 1852.32 2083.34 1780.94 0 0 0
764 2 2382.13 2879.33 2114.37 0 -1 0
765 2 2012.52 2355.31 2336.43 0 0 0
766 2 3144.23 2050.11 1889.2 -1 0 0
767 2 2398.05 1966.06 2133.94 0 1 0
768 2 1983.64 1815.18 2338.11 0 0 0
769 2 1929.26 3255.28 2171.23 0 -1 0
770 2 1745.47 2314.82 2459.9 1 -1 0
771 2 1801.53 2790.62 2971.34 1 0 -1
772 2 2022.52 2153.7 2393.62 0 0 0
773 2 2951.9 1870.55 1740.53 -1 0 1
774 2 1911.67 3055.4 3264.53 0 -1 -1
775 2 3218.77 3264.03 1964.04 -1 -1 0
776 2 2855.94 2805.38 3166.89 -1 0 -1
777 2 3163.01 2621.25 1740.95 -1 0 0
778 2 2106.17 2207.49 2753.07 0 0 -1
779 2 2839.76 2055.36 1714.65 -1 0 0
780 2 2965.78 2550.28 1722.54 -1 0 0
781 2 3058.44 1732.73 1838.75 -1 0 0
782 2 2504.73 2176.61 2951.25 0 0 0
783 2 1978.6 3060.51 2929.29 0 -1 -1
784 2 1800.81 1852.4 2602.02 0 0 -1
785 2 3004.91 3035.52 1973.52 -1 -1 0
786 2 1885.66 1991.8 1969.1 1 0 0
787 2 2543.01 2778.41 2044.24 0 0 0
788 2 2402.45 2117.25 2793.33 0 0 0
789 2 1816.24 2170.25 3184.81 0 0 -1
790 2 3215.43 1988.81 2317.35 -1 0 0
791 2 3127.05 1727.06 2840.91 0 0 -1
792 2 2088.65 2491.37 3264.37 0 0 -1
793 2 2061.42 1845.03 3201.1 0 0 0
794 2 3019.04 1930.56 2606.48 -1 0 0
795 2 2034.99 2974.29 2731.18 0 0 0
796 2 1833.43 2499.69 3074.01 0 0 -1
797 2 3027.61 3274.86 3004.11 -1 -1 -1
798 2 2007.67 3183.02 2731.41 0 0 0
799 2 3081.26 2165.69 3054.73 -1 1 -1
800 2 3090.3 2943.74 3016.06 -1 0 -1
801 2 2280.69 2257.72 2840.08 0 0 0
802 2 1911.67 1774.72 2767.93 0 1 0
803 2 2536.76 3138.16 1872.77 0 -1 0
804 2 2498.83 2770.17 2245.4 0 -1 0
805 2 2245.99 1825.18 2342.15 0 0 0
806 2 3243.81 2814.35 2091.35 -1 -1 0
807 2 3119.96 3135.18 3124.66 -1 0 -1
808 2 2851.76 2336.9 2038.48 -1 0 0
809 2 3177.48 1897.94 2726.13 0 0 0
810 2 2462.05 1916.76 3254.93 0 0 -1
811 2 1835.84 1921.29 3050.42 1 0 0
812 2 2575.11 1867.31 3059.89 0 0 -1
813 2 2376.09 1872.9 2754.39 0 0 0