ITEM: TIMESTEP
965000
ITEM: NUMBER OF ATOMS
1000
ITEM: BOX BOUNDS pp pp pp
-3.9417564408056114e+02 3.3941756440805566e+03
-3.9417564408056114e+02 3.3941756440805566e+03
-3.9417564408056114e+02 3.3941756440805566e+03
ITEM: ATOMS id type x y z ix iy iz
1 1 2592.77 995.326 2622.95 0 0 -1
2 1 1590.07 1005.58 2028.77 0 0 0
3 1 1753.16 -111.67 3293.89 0 1 0
4 1 819.905 1225.45 460.705 0 0 0
5 1 3066.35 -177.635 -235.331 0 0 0
6 1 -149.911 2860.62 3045.66 1 0 -1
7 1 1052.47 1400.08 582.088 0 0 0
8 1 1126.7 2165.68 505.181 0 0 0
9 1 2940.02 1818.56 2269.01 0 0 0
10 1 1114.48 398.202 -372.218 0 1 0
11 1 731.729 824.503 2528.47 0 0 0
12 1 3293.03 1633.32 1742.9 0 0 0
13 1 2014.43 2826.21 2356.45 0 0 0
14 1 1547.32 29.4034 2475.42 1 0 0
15 1 2308.65 2965.39 958.457 0 -1 0
16 1 383.024 615.449 1599.58 0 0 0
17 1 2223.49 2700.92 1905.92 0 0 -1
18 1 1873.88 3063.77 1304.26 0 0 0
19 1 1180.65 3106.29 -361.172 0 0 1
20 1 1631.87 1637.18 2684.33 0 0 -1
21 1 2397.03 1221.14 2536.88 0 0 -1
22 1 1335.55 2611.49 2362.48 0 -1 0
23 1 1240.81 1318.26 1825.04 1 0 0
24 1 1795.23 2176.81 1326.97 0 0 0
25 1 3048.58 627.084 656.367 -1 0 0
26 1 2431.3 3168.62 1645.91 0 0 1
27 1 1359.12 3386.8 1270.95 0 0 0
28 1 1646.28 960.705 1354.19 1 0 0
29 1 1608.33 1084.45 703.963 0 0 0
30 1 916.473 1594.29 383.632 0 1 1
31 1 -189.557 1416.78 3125.62 1 0 -1
32 1 1475.96 988.177 2356.51 0 2 1
33 1 3028.11 -201.81 1912.2 -1 0 0
34 1 2234.94 1387.88 2019.12 0 0 0
35 1 2619.89 1404.76 -213.284 0 0 1
36 1 2497.49 1935.69 2353.59 -1 -1 -1
37 1 547.306 664.794 742.622 0 1 0
38 1 2064.33 2210.95 1181.12 0 0 0
39 1 2469.33 2666.87 2086.73 0 0 0
40 1 1656.9 225.549 464.103 0 0 0
41 1 667.971 -92.1978 1395 0 0 -1
42 1 -375.263 575.842 933.396 0 0 0
43 1 1961.6 -243.154 2224.53 -1 1 0
44 1 2730.39 1577.16 20.3535 0 -2 0
45 1 3248.51 1704.38 2344.59 0 0 0
46 1 -198.896 1729.19 -76.8989 0 -1 0
47 1 2967.34 1708.42 164.456 -1 1 0
48 1 2296.9 2449.55 2615.05 0 0 0
49 1 1376.67 -233.311 2463.86 0 1 0
50 1 2344.89 2357.32 2322.29 -1 -1 -1
51 1 1992.05 1996.92 980.708 0 -1 0
52 1 1773.17 1427.16 2687.92 0 0 -1
53 1 449.347 117.753 179.685 0 0 0
54 1 1924.12 1566.15 1676.53 0 0 -1
55 1 1083.02 -5.43967 -107.775 0 0 0
56 1 -348.51 862.831 814.905 0 0 0
57 1 3163.7 2620.02 914.552 0 0 0
58 1 678.264 2656.26 2193.15 0 -1 -1
59 1 2284.18 2004.64 1066.52 -1 -1 0
60 1 -176.452 572.384 321.385 0 0 0
61 1 2327.91 1045.31 273.689 -1 -1 0
62 1 2518.48 1256.36 3056.19 -1 0 0
63 1 1721.37 3393.18 1933.45 0 -1 0
64 1 48.1167 2187.14 -21.0575 0 0 0
65 1 957.381 1198.54 1734.17 0 0 0
66 1 -238.914 587.026 -381.788 0 0 0
67 1 1761.48 3393.79 -385.425 0 -1 0
68 1 2417.9 1991.06 785.07 0 -1 0
69 1 182.816 1139.6 8.12286 0 0 0
70 1 1925.56 2432 526.288 0 0 0
71 1 2047.98 -279.59 1930.55 0 0 -1
72 1 3234.63 -12.0072 3339.92 -1 0 -1
73 1 2291.62 836.378 981.481 0 0 0
74 1 1684.31 142.28 492.685 -1 0 0
75 1 2531.86 2895.65 2292.79 -1 -1 -1
76 1 1801.72 68.0483 3045.1 0 0 -1
77 1 2039.38 132.44 2927.94 -1 0 -1
78 1 204.108 2713.16 3079.44 0 0 -1
79 1 3150.08 229.16 2848.37 -1 0 -1
80 1 792.211 1674.44 2522.74 0 0 0
81 1 3132.09 2957.89 662.663 0 0 0
82 1 1278.63 765.827 -103.736 0 0 0
83 1 1247.53 2130.16 87.1732 0 0 0
84 1 3005.67 -369.68 2141.77 -1 0 -1
85 1 1439.14 548.416 1754.83 0 -1 0
86 1 1811.78 -377.381 537.933 0 1 0
87 1 2093.11 930.51 3176.14 -1 0 0
88 1 797.783 2842.5 3004.55 0 0 -1
89 1 1742.93 164.141 472.709 0 0 0
90 1 1381.23 1402.95 34.0354 0 0 0
91 1 728.642 -279.262 3096.34 0 1 0
92 1 2731.09 337.878 2257.59 0 0 -1
93 1 -220.972 427.935 -394.061 0 0 1
94 1 3111.23 2525.51 3161.87 0 0 -1
95 1 1132.51 1192.95 1156.94 0 0 1
96 1 2773.99 795.506 381.763 -1 0 0
97 1 514.673 1291.85 705.561 0 0 0
98 1 2555.63 1461.42 3274.44 -1 0 -1
99 1 3103.3 2155.49 737.357 0 0 0
100 1 1163.31 371.64 3115.52 0 0 -1
101 1 -390.726 2630.98 3206.67 1 -1 -1
102 1 3326.33 423.441 1178.59 -1 0 0
103 1 1647.3 2757.06 1662.13 0 0 -1
104 1 639.996 929.443 384.901 0 0 0
105 1 1845.18 2632.33 2939.16 0 -1 -1
106 1 2282.76 674.213 1260.05 0 1 0
107 1 2756.34 2673.2 -223.031 0 -1 0
108 1 1901.12 1544.85 2960.8 0 0 0
109 1 1430.38 2874.12 -23.8638 0 -1 1
110 1 1033.82 -218.087 3139.47 -1 0 0
111 1 1928.39 2909.05 3065.22 0 0 0
112 1 731.806 2615.62 2502.04 -1 -1 -1
113 1 1705.43 2645.83 1938.74 0 0 0
114 1 1961.66 2778.61 2055.27 -1 0 -1
115 1 926 316.569 592.394 0 0 0
116 1 497.026 416.288 84.2489 0 0 0
117 1 1966.98 569.574 3134.25 0 0 0
118 1 1740.94 -37.4686 -191.588 0 0 0
119 1 1050.16 1318.3 281.176 0 0 1
120 1 2425.79 1261.85 2224.82 0 -1 0
121 1 379.043 350.302 1215.57 0 0 0
122 1 2301.03 944.575 2720.37 0 1 0
123 1 2101.92 1113.58 2550.58 0 0 0
124 1 594.677 624.778 437.067 0 0 0
125 1 1149.62 -20.2476 2543.48 0 0 -1
126 1 1890.13 762.359 101.977 -1 0 1
127 1 267.954 -168.177 3394.11 0 0 -1
128 1 844.696 1496.4 44.279 0 0 0
129 1 3123.57 329.672 3165.6 0 0 0
130 1 2189.56 422.004 -341.032 -1 0 0
131 1 2830.11 2163.5 2660.15 0 0 0
132 1 3171.14 403.913 914.076 -1 0 0
133 1 643.766 3196.08 297.194 0 -1 1
134 1 2983.52 2568.13 1686.7 0 -1 0
135 1 119.606 2383.51 3012.87 0 0 -1
136 1 2576.14 1030.07 421.896 0 -1 0
137 1 -363.525 2481.33 588.389 1 0 0
138 1 -57.3919 1443.84 2377.23 0 0 -1
139 1 -222.246 273.736 2878.82 0 0 0
140 1 3.77839 3027.24 -230.631 1 -1 0
141 1 2061.71 2892.57 1477.34 -1 -1 0
142 1 893.644 904.05 1783.79 0 0 0
143 1 2508.91 -230.037 344.728 -1 0 0
144 1 2641.49 857.42 -355.471 0 0 1
145 1 657.519 1307.27 3021.03 0 0 -1
146 1 1886.11 3144.47 1004.74 -1 -1 0
147 1 1794.19 -361.032 642.068 -1 0 0
148 1 782.912 420.535 289.34 0 -1 0
149 1 2598.88 2386.11 2123.22 -1 -1 0
150 1 -9.58493 2593.04 849.838 0 0 0
151 1 -261.984 1132.8 -393.086 0 0 1
152 1 -340.349 654.481 68.9764 0 0 0
153 1 3051.43 3314.53 1429.98 -1 -1 0
154 1 81.1953 2598.02 1722.29 0 -1 -1
155 1 3341.32 -196.388 3101.19 -1 0 -1
156 1 2810.21 2615.4 1036.97 0 0 1
157 1 1521.52 282.584 954.111 -1 0 0
158 1 2182.98 1591.49 373.294 -1 0 0
159 1 166.308 307.799 665.858 1 0 0
160 1 1373.05 2980.73 2269.96 0 -1 0
161 1 3283.84 2448.46 1150.28 -1 0 0
162 1 292.013 1367.22 1849.48 0 0 -1
163 1 2543.21 3308.33 2693.67 -1 -1 0
164 1 2033.23 3086.69 3302.75 0 -1 -1
165 1 2799.52 1649.9 -281.815 -1 1 0
166 1 -219.263 1641.15 -97.5892 0 0 0
167 1 1957.06 3364.8 2478.22 0 -1 -1
168 1 3169.66 1855.83 603.678 -1 0 0
169 1 259.72 2406.32 47.1813 0 0 0
170 1 1026.86 1039.66 1467.9 0 0 -1
171 1 2564.04 254.47 1480.58 -1 0 0
172 1 2073.5 1427.44 2581.38 0 0 0
173 1 2125.23 1430.5 -212.45 -1 0 0
174 1 211.548 3351.63 623.76 0 0 0
175 1 313.168 3023.1 -247.579 0 -2 0
176 1 2586.76 2602.35 1773.99 0 -1 0
177 1 1966.7 2368.44 2844.81 0 -1 -1
178 1 1735.31 2878.76 1061.28 0 -1 0
179 1 2415.32 1523.02 2922.3 -1 0 0
180 1 2371.7 1518.44 2613.82 0 0 0
181 1 1582.38 1382.44 -244.722 0 0 1
182 1 1682 49.9739 2755.3 0 0 0
183 1 2521.39 -109.57 56.6696 -1 0 0
184 1 1036.55 1098.89 625.649 0 0 0
185 1 3155.8 2107.05 -33.2848 -1 -1 1
186 1 2245.31 2868.07 2171.06 0 0 -1
187 1 1110.65 1298.92 865.097 0 0 0
188 1 673.768 2747.59 599.023 1 -1 0
189 1 1019.93 1033.61 320.786 0 -1 -2
190 1 2777.41 1574.26 526.706 0 0 -1
191 1 428.906 -212.307 -132.911 0 0 0
192 1 753.706 912.881 2226.7 0 0 0
193 1 1030.58 2466.27 1544.27 0 0 0
194 1 1500.89 277.691 2290.86 0 0 -1
195 1 -376.568 1063.56 67.5709 0 1 0
196 1 2261.36 167.792 3279.6 -1 0 -1
197 1 2754.46 1702.22 1977.31 -1 0 0
198 1 372.267 1567.33 928.451 0 0 0
199 1 610.564 1766.03 -26.0946 0 1 0
200 1 229.141 3284.82 1601.43 0 0 0
201 1 3010.28 479.479 1177.6 -1 -1 0
202 1 2045.3 166.814 2969.01 -1 0 0
203 1 2146.09 761.77 2906.8 0 0 0
204 1 1546.96 1429.01 2473.31 0 0 0
205 1 924.251 2861.1 1991.44 0 -1 0
206 1 1623 2668.32 820.199 0 0 0
207 1 895.996 1493.41 28.3574 0 0 0
208 1 751.182 2145.51 443.503 0 0 0
209 1 634.021 2771.65 1901.99 1 0 0
210 1 271.661 1359.28 1898.43 0 0 0
211 1 68.1756 2700.11 1426.78 0 -1 0
212 1 -284.713 812.719 1116.52 0 0 0
213 1 -233.951 1692.68 -94.2405 0 -1 0
214 1 2473.98 2875.22 1851.97 0 -1 -1
215 1 1614.34 1235.84 2233.83 0 0 0
216 1 1861.57 986.88 1897.41 0 1 0
217 1 2620.23 2672.51 383.073 -1 -1 0
218 1 654.125 3214.89 1654.42 -1 -1 0
219 1 2570.61 -23.4442 1356.25 0 1 0
220 1 496.292 1142.69 2832.45 -1 0 -1
221 1 3304.76 -228.487 1372.89 0 1 0
222 1 3215.87 2766.63 1730.21 0 0 0
223 1 210.047 477.558 3375.8 0 0 0
224 1 2344.23 503.399 241.483 0 0 0
225 1 1907.91 2148.74 2170 -1 0 -1
226 1 1661.9 2219.68 2906.33 -1 -1 -1
227 1 1861.63 973.942 2698.53 0 0 0
228 1 2718.38 1934.83 2457.62 0 0 0
229 1 3188.33 1471.57 1285.69 -1 -1 0
230 1 690.976 1036.86 676.112 0 0 -1
231 1 816.6 1300 761.721 0 0 0
232 1 35.631 -5.50274 -267.624 -1 0 -1
233 1 3052.14 115.403 919.202 -1 0 0
234 1 1636.94 2563.52 534.71 0 -1 0
235 1 2140.69 3298.2 918.736 1 0 0
236 1 742.612 2317.5 2875.66 0 0 0
237 1 799.504 3031.44 2226.14 0 0 0
238 1 1618.77 1692.7 2613.74 0 -1 0
239 1 536.134 10.0009 1129.97 0 1 0
240 1 567.606 835.981 2797.2 0 0 -1
241 1 1874.89 3070.19 2498.45 0 0 0
242 1 3280.94 2803.75 302.553 0 -1 -1
243 1 2423.03 1635.52 1973.6 0 1 0
244 1 3313.63 1818.18 1153.14 0 0 0
245 1 761.008 3144.81 1375.66 0 -1 0
246 1 -27.1219 641.418 66.4971 0 0 1
247 1 1541.96 782.044 349.436 0 0 1
248 1 864.451 1676.45 -181.691 1 0 0
249 1 2081.61 776.982 2592.18 0 0 0
250 1 2661.64 1237.32 640.26 -1 0 0
251 1 1975.53 2660.45 2622.94 -1 -1 -1
252 1 1626.46 3148.74 2334.65 0 0 -1
253 1 691.544 2456.08 619.996 0 -1 0
254 1 1704.42 1663.17 2625.15 0 0 0
255 1 607.689 2579.6 1655.19 0 -1 0
256 1 2179.56 770.649 204.159 0 -1 0
257 1 698.728 2285.82 2575.44 0 0 -1
258 1 1197.79 28.6135 1010.38 0 0 0
259 1 880.798 3125.6 -282.893 0 0 1
260 1 2278.11 784.926 972.919 -1 0 0
261 1 39.4314 3280.67 2860.36 0 -1 -1
262 1 -188.776 1777.76 -56.5462 0 -1 0
263 1 652.284 -22.8391 -1.04731 0 0 0
264 1 2933.76 2077.38 1166.38 -2 -1 0
265 1 2095.19 -257.574 1413.52 -1 0 0
266 1 2008.45 1263.61 1849.59 0 0 0
267 1 1624.54 299.099 2583.95 0 1 0
268 1 -8.10697 2133.59 536.559 1 0 0
269 1 1457.59 2722.41 2106.14 0 -1 0
270 1 1907.92 1086.26 806.115 0 0 0
271 1 1897.5 2146.56 411.307 0 0 0
272 1 268.62 1300.93 896.808 0 0 -1
273 1 390.261 1577.91 878.673 0 0 0
274 1 -193.866 381.934 82.6433 0 0 0
275 1 1267.49 3372.19 3286.11 0 -1 -1
276 1 156.411 2048.02 1887.23 0 0 0
277 1 689.624 2255.4 2170.68 0 -1 0
278 1 887.678 -115.912 1986.33 -1 1 -1
279 1 -247.49 381.681 3385.97 0 -1 -1
280 1 3166.64 1667.04 346.103 0 0 0
281 1 -269.408 859.445 282.172 0 0 0
282 1 1723.32 2870.25 2235.57 0 -1 0
283 1 135.981 221.789 1370.54 1 0 0
284 1 1508.87 3303.37 2587.66 0 -1 0
285 1 2373.59 802.31 448.057 -1 0 0
286 1 -202.339 926.967 2805.18 0 0 -1
287 1 3350.28 -277.998 -322.594 0 0 1
288 1 2051.37 815.96 758.442 0 0 0
289 1 -198.574 2326.16 -111.901 0 -1 0
290 1 3371.27 3033.67 1734.34 -1 -1 -1
291 1 920.673 2859.35 3344.93 0 0 -1
292 1 2362.88 1335.46 -53.4757 -1 0 0
293 1 1947.6 2735.69 3328.02 0 -1 0
294 1 2717.81 4.69131 337.011 -1 0 1
295 1 552.093 1518.33 2635.82 0 0 -1
296 1 1696.11 189.843 470.296 0 0 0
297 1 1330.86 3081.45 377.296 0 -1 1
298 1 833.784 1131.83 1193.61 0 1 0
299 1 1198.32 3037.44 2834.57 0 -1 0
300 1 1657.44 2738.01 3191.1 0 -1 -1
301 1 268.291 2118.24 2170.49 0 -1 -1
302 1 2723.94 211.309 1223.07 -1 0 0
303 1 3173.12 1552.32 642.375 -1 0 0
304 1 -240.956 859.789 -138.916 0 0 0
305 1 125.491 2251.27 271.081 0 -1 0
306 1 2418.98 2892.6 439.036 -1 0 0
307 1 -338.163 66.7481 3303.2 1 0 -1
308 1 794.639 1214.24 152.625 0 0 0
309 1 -387.741 2494.81 -307.07 1 0 0
310 1 1267.57 844.141 1415.95 0 0 0
311 1 2205.75 2188.26 419.629 0 0 0
312 1 1671.29 -332.368 2374.62 0 1 0
313 1 1095.08 120.367 3277.16 -1 0 -1
314 1 3265.04 1865.97 131.374 0 0 0
315 1 3020.69 1388.6 2490.88 0 0 0
316 1 303.193 847.376 1401.39 0 0 0
317 1 2534.87 3036.86 3129 0 0 0
318 1 2491.59 529.125 2289.6 -1 0 0
319 1 1050.32 877.843 2133.71 0 0 0
320 1 2274.77 1958.04 3069.78 0 0 -1
321 1 3331.89 1563.02 102.589 0 0 0
322 1 2686.98 3000.3 2049.73 0 1 0
323 1 -228.122 -174.387 728.366 0 0 0
324 1 3392.54 973.531 1670.33 -1 0 0
325 1 870.616 1881.9 1654.93 0 -1 0
326 1 1105.5 -240.05 91.089 0 1 0
327 1 2275.97 3058.57 658.869 -1 -1 0
328 1 1645.65 761.79 1834.1 0 0 0
329 1 -378.255 2100.85 -218.209 0 0 0
330 1 313.875 565.017 563.147 0 -1 0
331 1 2956.11 1335.2 623.34 0 -1 0
332 1 3135.58 1892 905.245 -1 -1 -1
333 1 903.364 1033.74 900.451 0 0 0
334 1 1715.58 170.668 30.3999 0 0 0
335 1 -358.034 1347.3 2363.37 0 0 -1
336 1 2920.25 2798.34 813.881 -1 0 0
337 1 240.097 -60.3617 2598.33 0 0 -1
338 1 2131.08 1487.49 82.2658 0 0 0
339 1 443.294 1141.98 276.626 0 0 0
340 1 2942.37 2414.29 825.607 0 0 0
341 1 -36.7761 2457.25 116.304 0 0 0
342 1 2806.27 -109.316 -87.3138 0 -1 0
343 1 1802.3 -376.589 591.172 0 0 0
344 1 1767.92 2778.7 1357.94 0 1 -1
345 1 1061.41 1878.53 -285.838 0 0 0
346 1 396.369 1993.39 1563.5 1 0 0
347 1 1051.73 3368.68 -282.493 0 -1 0
348 1 2916.81 1582.88 1755.09 0 0 0
349 1 2891.91 1111.4 823.55 -1 0 0
350 1 1296.96 2413.9 45.2571 0 0 0
351 1 2153.56 1732.09 970.092 0 0 1
352 1 1386.41 2197.08 1997.75 0 1 0
353 1 1653.6 1663.23 2642.42 0 0 0
354 1 2122.48 1212.44 2251.14 0 0 -1
355 1 1274.43 1944.02 345.43 0 0 0
356 1 541.958 668.558 1325.19 1 0 0
357 1 3280.42 1311.19 -73.0572 -1 0 0
358 1 644.845 2070.53 3035.1 0 -1 0
359 1 -371.745 2475.54 641.471 1 0 0
360 1 857.817 1466.72 1.69601 0 0 0
361 1 -185.512 1795.63 1070.22 0 0 0
362 1 -183.004 1678.83 -85.3972 1 0 0
363 1 3196.45 2173.93 1030.12 -1 -1 -1
364 1 711.463 789.212 1562.62 0 1 0
365 1 2096.99 2538.13 2259.95 0 -1 0
366 1 516.52 263.539 948.108 0 0 0
367 1 1215.59 827.869 193.261 0 0 0
368 1 2963.86 941.06 573.123 -1 0 0
369 1 725.223 2349.83 1152.28 0 0 -1
370 1 339.761 48.0515 1937.86 0 0 0
371 1 983.652 -12.9514 1236.89 -1 1 0
372 1 2431.26 2896.55 1491.35 0 -1 -1
373 1 2902.32 1465.53 259.019 0 0 0
374 1 2875.76 1123.3 320.259 0 0 0
375 1 719.546 -299.535 708.579 0 0 0
376 1 2359.93 2598.66 1567.45 0 1 0
377 1 2547.45 2180.06 2537.04 -1 0 0
378 1 1177.45 1690.99 520.283 0 0 0
379 1 457.935 -56.0323 785.506 0 1 1
380 1 1852.3 -227.75 2700.46 0 0 0
381 1 803.96 2959.07 1723.41 0 -1 0
382 1 151.808 2511.84 2724.13 1 0 0
383 1 2420.86 2569.42 -32.1596 -1 -1 0
384 1 2453.8 3197.37 361.028 0 0 0
385 1 895.341 1661.89 3297.46 0 0 0
386 1 2246.56 487.801 3022.65 0 -1 -1
387 1 -265.295 2932.41 1478.64 0 -1 0
388 1 3321.78 106.278 3073.84 -1 0 0
389 1 457.494 10.6758 3238.23 0 0 0
390 1 871.487 898.241 2844.08 0 1 0
391 1 3036.5 3313.79 1378.33 -1 0 0
392 1 3026.04 1182.66 53.7092 -1 0 0
393 1 1705.62 496.424 2357.24 0 0 0
394 1 1255.1 3127.76 1727.5 0 -1 0
395 1 2014.26 513.692 1291.75 0 0 0
396 1 197.483 508.347 -97.9423 -1 0 0
397 1 1849.38 1450.77 2255.92 -1 0 -1
398 1 2768.03 2099.78 1429 -1 -1 0
399 1 -51.4699 958.845 92.6274 0 0 0
400 1 936.141 1671.62 2252.4 0 0 -1
401 1 1167.36 -140.907 -382.642 0 0 0
402 1 758.381 487.069 1606.67 -2 0 0
403 1 -32.7436 2461.47 1276.48 0 -1 0
404 1 1211.04 459.213 -79.0319 0 0 0
405 1 2985.49 2376.86 1125.48 0 0 0
406 1 2011.12 2114.33 1542.95 0 -1 0
407 1 2033 739.521 1991.59 -1 0 0
408 1 2993.87 -264.382 2426.39 -1 0 0
409 1 522.243 2276.58 934.989 1 0 0
410 1 2540.22 730.717 188.782 -1 0 0
411 1 1671.92 1169.44 2530.92 1 1 0
412 1 1343.23 1196.67 2083.1 1 0 0
413 1 350.925 2254.76 -203.301 0 0 0
414 1 1637.76 1008.12 1660.58 -1 0 -1
415 1 2827.28 3070.22 3076.37 -1 -1 0
416 1 138.325 2734.05 1117.25 -1 0 0
417 1 3354.48 1667.49 869.555 0 0 0
418 1 1877.17 3247.05 2752.93 0 0 -1
419 1 1920.14 2854.77 1750.95 0 0 0
420 1 1957.87 2468.72 1990.09 0 0 -1
421 1 1093.2 3119.14 2272.35 0 0 0
422 1 1752.53 -237.333 2998.29 0 1 0
423 1 2225.89 668.504 3271.25 -1 -1 -1
424 1 2390.56 1516.86 1259 -1 -1 0
425 1 3239.92 2920.62 945.97 -1 0 0
426 1 562.126 1397.27 410.045 0 0 -1
427 1 1986.26 2303.41 153.915 0 0 0
428 1 2855.91 141.551 93.2217 -1 0 0
429 1 1055.37 2303.9 2879.28 0 0 -1
430 1 1381.92 36.2416 2739.03 0 0 -1
431 1 1675.7 2371.44 1795.66 0 -1 -1
432 1 175.168 3337.91 -291.49 0 -1 0
433 1 1483.88 2341.07 1059.63 0 1 0
434 1 -101.613 3210.81 2600.41 0 -1 -1
435 1 1981.72 3134.38 705.013 0 0 0
436 1 3179.47 570.24 -236.863 -1 0 0
437 1 1348.16 1957.65 1946.8 0 0 0
438 1 528.472 548.388 1034.64 0 0 0
439 1 -255.795 2623.09 280.245 0 0 0
440 1 1270.55 3114.81 2530.73 0 -1 -1
441 1 1145.69 2679.42 2127.37 1 0 1
442 1 2183.08 2995.24 1838.67 0 -1 -1
443 1 268.305 678.846 1139.51 0 0 0
444 1 1762.17 1251.65 2949.11 1 0 -1
445 1 252.19 470.259 914.634 0 0 0
446 1 2410.79 1900 2481.38 0 0 -1
447 1 1966.08 1540.31 1989.36 -1 0 0
448 1 3281.57 936.952 564.232 -1 0 0
449 1 2098.02 469.597 1857.3 -1 0 0
450 1 309.265 2560.29 -266.354 1 0 1
451 1 2967.31 1088.57 1943.93 1 0 0
452 1 1209.79 3008.16 2003.52 -1 0 -1
453 1 1741.93 826.521 827.174 0 0 0
454 1 753.852 737.743 3093.42 0 0 -1
455 1 3309.78 449.823 3365.87 -1 0 0
456 1 1778.76 2432.82 2702.33 0 0 -1
457 1 1530.75 740.539 1546.33 0 0 0
458 1 -82.4408 1653.29 2940.37 0 0 -1
459 1 472.387 3265.26 1403.12 0 -1 0
460 1 1546.8 -224.291 2762.23 0 0 0
461 1 97.4089 489.648 1530.19 1 0 0
462 1 630.238 3269.4 2379.78 0 -1 -1
463 1 1020.93 747.258 1572.45 0 1 0
464 1 2314.86 629.239 1997.01 0 0 0
465 1 1944.49 -254.523 938.909 0 0 0
466 1 2266.79 3285.51 1886.17 -1 -1 0
467 1 1024.53 3058.32 1526.75 -1 0 0
468 1 1269.07 825.154 496.949 0 0 0
469 1 3241.97 -265.018 594.718 -1 0 0
470 1 -182.976 -92.9134 2010.92 0 0 -1
471 1 2191.01 2473.36 3236.34 0 0 -1
472 1 -287.522 771.399 2550.56 0 0 -1
473 1 175.15 3353.53 663.748 0 -1 0
474 1 -234.576 2395.92 936.431 0 -1 0
475 1 395.735 2143.6 1297.33 -1 -1 0
476 1 2939.57 1726.65 207.004 -1 0 1
477 1 1173.03 -163.448 1901.78 -1 0 0
478 1 -104.734 1950.76 2016.97 1 0 0
479 1 956.946 1920.02 520.569 0 0 0
480 1 2041.92 2895.72 1105.19 0 -2 0
481 1 12.3793 814.101 357.72 0 1 0
482 1 1963.53 2942.41 2766.59 0 0 0
483 1 97.5525 309.92 122.235 1 0 0
484 1 2132.45 1285.18 327.35 0 0 1
485 1 2937.18 1381.73 -211.481 0 0 0
486 1 2280.41 2715.43 2431.88 0 0 0
487 1 1532.11 2628.23 2924.28 0 0 -1
488 1 757.631 430.211 858.47 0 0 0
489 1 1313.07 1238.22 2442.78 0 0 0
490 1 -364.995 2524.88 619.447 0 0 0
491 1 2812.73 -341.852 -285.865 -1 0 0
492 1 130.849 1095.86 290.061 0 0 0
493 1 1366.07 1540.59 314.653 0 0 0
494 1 1875.48 3300.96 3144.5 0 -1 0
495 1 971.794 2574.97 552.253 0 0 0
496 1 -188.677 515.479 2692.07 0 1 0
497 1 2414.93 3130.83 2127.4 0 0 0
498 1 1057.39 1102.38 2997.39 0 1 0
499 1 1127.47 2843.2 2397.11 0 0 0
500 1 624.218 1152.19 2383.45 0 0 0
501 2 2587.35 1831.3 1652.52 0 0 0
502 2 530.823 1886.49 1014.69 1 0 0
503 2 -93.5583 832.555 1460 0 0 0
504 2 1214.73 1518.86 -309.086 0 0 1
505 2 2883.21 1616.76 3097.79 0 0 -1
506 2 785.177 124.987 2476.94 0 0 0
507 2 583.628 1791.82 458.509 0 0 0
508 2 1265.24 2814.09 3153.41 0 0 -1
509 2 3075.01 3331.8 3210.2 0 0 0
510 2 540.295 1543.45 -360.951 0 0 0
511 2 1171.05 -355.308 2771.13 0 1 -1
512 2 1366.09 636.031 2200.14 0 0 0
513 2 13.4143 2149.3 2463.2 0 0 0
514 2 1828 1907.06 3096.87 0 0 0
515 2 2787.95 1117.54 2307.77 0 0 -1
516 2 -329.692 3340.78 1961.07 1 -1 0
517 2 122.491 1838.15 757.324 1 0 0
518 2 883.401 3091.92 2594.69 0 0 0
519 2 2716.76 1358.72 2725.59 0 0 0
520 2 3092.21 2772.36 1274.49 -1 0 0
521 2 1747.4 1442.21 153.057 0 0 0
522 2 565.075 1436.28 1068.7 0 1 0
523 2 2412.72 155.406 2418.83 0 0 0
524 2 1019.88 2004.22 3128.89 0 0 -1
525 2 2045.73 2746.87 728.465 1 0 0
526 2 2442.49 2954.37 39.6211 0 0 1
527 2 3273.5 3269.05 2388.98 0 -1 0
528 2 -83.1598 2348.21 1982.77 1 0 0
529 2 49.1315 2979.55 826.6 0 0 0
530 2 2630.28 2925.54 2760.68 -1 -1 -1
531 2 3221.78 744.302 1378.47 0 0 0
532 2 3285.77 2499.74 2386.17 -1 0 0
533 2 2632.7 1573.1 2315.31 0 1 0
534 2 2377.03 1720.02 -107.334 0 0 1
535 2 -277.183 2542.95 1570.88 0 0 0
536 2 2648.23 2550.58 2468.37 0 0 0
537 2 2989.67 3212.32 921.216 -1 0 0
538 2 2116.13 1786.73 1350.81 0 0 0
539 2 2753.29 3054.8 -320.068 0 -1 1
540 2 1011.79 85.4767 2889.3 0 1 0
541 2 901.007 547.648 2297.39 0 0 0
542 2 833.935 42.3064 860.104 0 0 0
543 2 2767.37 387.274 856.521 0 -1 -1
544 2 873.741 1555.34 1875.45 0 0 -1
545 2 3229.05 2367.5 1922.71 0 0 0
546 2 1570.34 536.837 39.2319 0 0 1
547 2 3350.36 1121.71 2031.59 0 1 0
548 2 1337.41 1083.7 3287.28 0 0 0
549 2 626.941 2923.18 -54.4456 0 0 0
550 2 1494.68 3051.44 1424.45 0 0 0
551 2 104.573 155.06 3161.88 1 0 0
552 2 -296.414 2882.76 -33.3183 1 0 0
553 2 2560.67 -55.8482 3389.78 -1 0 0
554 2 2446.66 632.249 1614.36 0 0 0
555 2 191.711 456.26 1912.92 0 1 0
556 2 531.203 947.766 1028.62 1 0 0
557 2 707.38 -365.075 1091.47 0 1 0
558 2 1977.85 2366.27 2791.88 0 0 0
559 2 1240.73 81.4296 620.744 0 0 0
560 2 1287.5 1658.46 1641.13 0 0 0
561 2 2111.91 -173.029 3143.15 0 0 -1
562 2 1119.3 1486.33 3015.09 0 0 0
563 2 1283.58 901.607 1798.22 0 0 0
564 2 2404.74 144.804 2908.7 0 0 0
565 2 372.87 2978.44 482.048 0 0 0
566 2 916.008 1681.74 825.224 1 0 0
567 2 2935.4 -13.5991 3073.66 0 -1 -1
568 2 2290.68 1449.3 1632.09 0 0 0
569 2 15.3934 63.4685 1702.65 0 0 0
570 2 1509.08 2420.56 1437.78 0 0 0
571 2 1117.92 1115.18 -62.749 0 1 0
572 2 1741.12 -353.272 1267.47 0 0 0
573 2 -222.779 2500.11 2863.43 1 -1 0
574 2 1446.03 16.2209 1315.63 0 1 0
575 2 831.245 758.617 80.6325 0 0 0
576 2 1899.81 83.6527 1183.27 0 0 0
577 2 1982.28 754.596 1597.35 0 0 0
578 2 2652.83 1063.55 -20.3317 -1 0 1
579 2 4.77421 1058.81 3105.17 1 0 -1
580 2 -307.356 21.1248 -83.7023 1 0 1
581 2 168.713 835.13 2698.19 0 0 0
582 2 3005.61 1749.93 2651.55 -1 0 0
583 2 -70.2033 474.379 1153.14 0 0 0
584 2 -283.224 195.802 2492.25 0 0 0
585 2 171.445 2791.31 29.8255 0 0 0
586 2 1844.05 2495.36 1095.78 0 0 0
587 2 399.113 2430.2 2362.63 0 0 0
588 2 2274.58 1137.52 642.423 0 0 -1
589 2 3244.68 1401.45 3313.48 -1 0 -1
590 2 3354.55 3186.68 1221 0 -1 0
591 2 2102.51 102.483 2004.56 0 1 -1
592 2 -127.382 1255.28 1696.96 0 0 0
593 2 1700.9 2474.12 2298.35 0 0 0
594 2 264.648 1274.88 2528.03 0 0 -1
595 2 2350.46 2182.6 40.3188 0 0 0
596 2 3021.28 223.189 2478.24 -1 0 0
597 2 569.613 -210.467 1758.94 0 0 0
598 2 -182.625 742.061 1913.39 0 0 0
599 2 3297.25 537.224 555.296 -1 0 0
600 2 2787.49 -143.189 1036.04 0 1 0
601 2 2834.41 1159.81 3262.95 -1 0 -1
602 2 1403.3 1915.58 2852.77 0 0 0
603 2 3272.72 588.506 2296.38 -1 0 0
604 2 -215.197 41.2311 1288.6 0 0 0
605 2 533.354 2576.8 271.786 0 0 0
606 2 231.017 1744.83 2692.49 1 0 -1
607 2 1213.18 427.562 1417.46 -1 0 0
608 2 877.026 2160.03 809.649 0 0 0
609 2 1861.38 1009.41 406.006 -1 -1 -1
610 2 1052.93 3086.47 1126.24 0 0 0
611 2 141.144 2252.23 996.672 0 -1 0
612 2 2359.32 1142.03 -391.832 0 0 0
613 2 2335.64 448.009 639.361 0 0 0
614 2 1976.88 3163.84 2123.62 0 -2 0
615 2 508.982 1621.45 1498.08 -1 -1 -1
616 2 3180.9 971.194 -247.432 -1 0 0
617 2 1450.02 -304.28 -168.908 -1 0 0
618 2 2660.54 1322.65 1903.9 0 0 0
619 2 -83.927 3026.41 371.983 1 -1 1
620 2 3255.89 -80.2313 2190.54 -1 0 -1
621 2 1596.84 3004.93 1876.65 0 0 0
622 2 251.525 1354.29 1963.61 0 0 -1
623 2 -247.884 2753.87 1121.78 0 0 0
624 2 1841.38 -69.8411 1644.15 0 1 0
625 2 3266.17 1214.47 830.062 -1 0 0
626 2 -71.1669 2043.44 2922.01 0 0 -1
627 2 97.3733 2247.46 1547.69 0 -1 0
628 2 1858.78 910.741 2295.45 -1 0 -1
629 2 -231.488 1757.56 2579.74 0 0 -1
630 2 2998.64 2596.6 470.913 0 0 0
631 2 387.733 175.7 -217.823 0 0 0
632 2 156.291 1751.58 2225.77 0 0 -1
633 2 -304.082 2032.78 1696.5 0 0 -1
634 2 2061.79 3019.86 332.379 0 -1 0
635 2 542.687 636.3 -267.844 0 0 0
636 2 2055.91 1092.57 -21.7324 0 0 0
637 2 2508.83 1386.33 304.511 0 0 0
638 2 2516.89 7.33117 670.371 0 1 0
639 2 2826.6 658.711 2463.92 -1 -1 0
640 2 -238.026 -312.287 356.608 0 0 0
641 2 614.266 673.766 1923.09 1 0 0
642 2 2996.35 2879.59 2452.9 0 -1 -1
643 2 961.339 -296.529 2328.01 0 0 0
644 2 110.455 1351.64 -319.381 0 0 1
645 2 1169.92 3160.93 28.181 0 -1 0
646 2 317.361 1889 3148.9 0 0 -1
647 2 1256.28 2730.58 1717.19 0 -1 0
648 2 1330.82 2688.82 308.232 0 0 0
649 2 849.456 1261.2 2689.51 0 0 0
650 2 118.517 2909.38 2740.9 0 0 0
651 2 -310.681 2032.25 776.973 0 -1 0
652 2 2571.56 844.566 749.125 0 0 0
653 2 2503.91 2374.53 -362.534 0 -1 0
654 2 2855.27 2630.17 2055.06 0 -1 0
655 2 1173.54 1588.76 2554.9 0 0 0
656 2 2188.64 -352.967 544.06 0 1 0
657 2 889.066 2468.15 1901.83 0 0 0
658 2 2774.73 2251.3 1795.04 0 0 0
659 2 1556.7 2844.15 2586.84 0 0 -1
660 2 2223.39 2162.62 2031.56 0 0 -1
661 2 946.19 3286.21 1900.83 0 -1 0
662 2 1908.44 744.253 -314.872 0 0 0
663 2 -317.364 3080.36 3330.71 0 -1 0
664 2 2997.93 2504.27 2780.2 -1 0 -1
665 2 2237.63 44.5614 279.994 0 0 0
666 2 958.464 1998.45 2653.22 0 0 0
667 2 2888.16 453.295 1560.13 -1 0 0
668 2 971.096 3370.92 411.935 0 0 0
669 2 2674.71 3373.06 1410.34 -1 -1 0
670 2 786.158 -78.4289 -366.576 0 0 0
671 2 -142.691 1091.15 568.695 1 0 0
672 2 479.82 2907.28 2426.36 0 -1 0
673 2 549.418 1965.15 2393.81 0 0 -1
674 2 3110.1 -169.355 156.309 -1 0 0
675 2 510.578 1867.86 1925.35 0 0 0
676 2 1018.69 2372.09 2354.12 0 -1 0
677 2 1137.27 -323.983 852.466 0 0 0
678 2 1392.8 2353.46 2650.75 0 0 0
679 2 -91.9039 1046.42 2356.7 0 0 0
680 2 1211.72 737.205 2970.77 0 0 -1
681 2 1432.75 1931.62 3357.45 0 0 -1
682 2 1491.63 3167.1 964.889 0 -1 0
683 2 2095.88 494.308 2293.72 0 0 0
684 2 125.965 307.319 2709.87 0 0 -1
685 2 2578.64 1246.47 1021.22 0 0 0
686 2 249.986 1869.32 -175.117 0 0 0
687 2 2245.9 3393.02 80.9552 0 -1 1
688 2 412.758 2916.91 1596.33 0 0 0
689 2 685.744 215.478 2023.13 0 0 0
690 2 342.458 901.936 2248.37 0 0 0
691 2 2386.6 2176.58 1402.92 0 0 0
692 2 2800.78 2955.98 1619.42 -1 -1 0
693 2 1376.28 23.0418 175.335 0 0 0
694 2 1947.73 449.138 2747.46 0 1 0
695 2 2487.37 1854.58 350.887 0 0 0
696 2 1720.55 1802.72 2136.27 0 0 0
697 2 3134.74 738.244 1851.28 0 0 0
698 2 1573.61 3050.48 -350.977 0 0 0
699 2 66.4742 3069.32 1299.07 0 -1 0
700 2 2352.88 -170.299 1696.2 -1 0 0
701 2 2183.1 2303.46 809.065 0 0 0
702 2 2299.3 -160.944 1076.88 0 1 0
703 2 2335.4 2811.24 3377.18 0 -1 0
704 2 1381.4 149.553 1763.18 0 1 0
705 2 -122.174 -257.655 2357.05 0 0 -1
706 2 1073.12 2715.56 -104.119 0 0 -1
707 2 1346.84 2343.75 3128.67 0 0 -1
708 2 1554.19 725.036 2635.01 0 0 0
709 2 1285.42 944.406 880.154 0 0 0
710 2 500.354 -177.951 2227.32 0 -1 -1
711 2 1442.15 -324.695 1653.02 0 0 0
712 2 305.663 3245.56 69.3475 0 -1 1
713 2 1789.04 2639.31 179.147 -1 0 1
714 2 925.862 88.1565 1629.9 0 0 0
715 2 90.1393 2593.14 458.619 0 0 0
716 2 372.214 2212.78 574.798 0 0 0
717 2 2347.68 -270.241 2188.35 0 1 0
718 2 1813.45 3390.46 -340.782 0 -1 1
719 2 498.197 3167.11 2010.55 0 -1 0
720 2 1724.7 2158.04 -121.903 0 0 1
721 2 547.344 3285.89 3353.34 0 -1 -1
722 2 2438.64 1589.98 729.078 -1 0 0
723 2 2560.22 2343.36 2889.1 0 -1 0
724 2 2188.74 1622.65 3229.61 0 0 -1
725 2 1138.08 127.354 2170.04 0 1 0
726 2 2710.97 2522.11 1400.52 0 0 0
727 2 2784.92 969.904 1604.18 0 0 0
728 2 3127.71 834.158 209.246 0 1 0
729 2 2723.87 1431.02 1442.05 0 0 0
730 2 1373.85 1229.88 1458.85 0 0 0
731 2 3160.01 3228.42 -121.788 -1 -1 0
732 2 -46.6674 2689.78 3384.2 0 -1 -1
733 2 3046.94 1476.04 2100.2 0 0 0
734 2 758.044 3100.51 746.18 0 -1 0
735 2 450.334 2344.06 3214.58 0 0 -1
736 2 2706.87 3351.98 1881.6 -1 -1 -1
737 2 948.352 761.524 1182.64 0 1 0
738 2 1310.5 2442.09 714.455 0 0 0
739 2 371.335 2185.2 2775.63 0 0 -1
740 2 3174.44 3185.94 345.483 -1 -1 0
741 2 1366.69 3359.6 2120.33 0 -1 -1
742 2 2582.55 1871.24 2828.88 -1 -1 -1
743 2 2036.53 400.585 -1.84172 0 0 0
744 2 130.003 -333.163 1948.74 -1 0 0
745 2 1540.72 638.247 1139.41 0 0 0
746 2 1971.51 885.221 1134.78 0 0 0
747 2 2101.77 1335.48 1044.47 0 0 1
748 2 2135.83 2053.09 -362.259 0 0 0
749 2 756.48 3384.65 -13.4569 0 -1 0
750 2 1539.57 3162.6 2956.83 0 0 0
751 2 550.045 1092.96 -136.599 0 0 1
752 2 238.636 928.692 1782.82 1 0 0
753 2 3233.49 605.937 2780.34 -1 0 0
754 2 1239.79 371.153 2577.61 0 0 0
755 2 527.45 2810.16 3278.97 0 0 0
756 2 3382.71 2055.69 2246.32 -1 0 0
757 2 961.228 2007.37 2027.63 0 0 0
758 2 1448.18 1995.55 1240.53 -1 0 0
759 2 159.303 92.8731 1002.14 1 0 0
760 2 2353.37 723.076 -155.501 0 0 1
761 2 3123.22 1861.6 -362.084 -1 0 0
762 2 499.012 2981.66 1127.97 0 0 0
763 2 2511.68 1983.55 2107.01 0 0 0
764 2 130.868 1849.89 288.049 0 0 0
765 2 979.574 2376.78 194.506 0 0 0
766 2 2616.99 2271.97 996.732 0 0 0
767 2 2686.72 708.901 1210.93 0 0 0
768 2 2981.02 2314.49 -321.325 0 0 0
769 2 -70.0804 592.906 3044.5 0 0 -1
770 2 2246.52 -230.167 2660.59 0 0 -1
771 2 349.878 1479.46 76.8835 0 0 0
772 2 2767.69 3016.64 523.436 0 -1 0
773 2 2137.98 -6.10501 -183.339 0 0 1
774 2 1904.09 1437.23 610.831 0 0 0
775 2 1641.48 1230.99 1063.85 0 0 0
776 2 1705.17 1737.03 922.896 -1 -1 0
777 2 3150.01 1280.7 1627.98 0 0 0
778 2 2818.71 622.065 -86.1388 0 0 0
779 2 883.38 1218.21 3326.94 0 0 -1
780 2 950.651 3180.14 3113.04 0 0 -1
781 2 1755.39 2057.7 2560.75 0 -1 -1
782 2 2997.42 1129.76 1206.88 0 0 0
783 2 1620.6 1359.72 1841.85 0 0 0
784 2 1401.81 1141.13 317.256 0 0 0
785 2 -97.4 -282.787 3253.56 0 1 0
786 2 -21.9752 3034.54 1766.98 0 -1 0
787 2 3064.33 3296.35 1494.51 0 -1 0
788 2 3316.76 974.524 3086.88 -1 0 -1
789 2 400.438 563.057 3025.05 0 0 -1
790 2 2500.05 849.039 3049.8 -1 -1 -1
791 2 -153.341 1312.08 2736.7 0 0 -1
792 2 1531.2 360.604 2960.2 0 0 -1
793 2 3034.82 296.366 1998.44 -1 0 0
794 2 -16.1158 569.463 2332.79 0 0 -1
795 2 2851.08 -305.143 537.832 -1 0 0
796 2 3077.07 1910.99 1908.96 0 0 0
797 2 2206.43 3182.61 2964.64 0 -1 0
798 2 621.105 1152.52 1941.25 0 0 0
799 2 1985.53 2947.99 -126.594 0 -1 0
800 2 2146.63 1237.12 2928.33 0 0 -1
801 2 2916.43 2875.79 90.7036 -1 -1 1
802 2 3103.87 108.597 1306.46 0 0 0
803 2 2774.53 -57.1522 2176.28 0 0 0
804 2 3225.77 1035.08 2487.54 -1 0 0
805 2 1584.06 1016.8 -94.8151 0 -1 0
806 2 117.701 -76.404 562.22 0 0 0
807 2 682.773 2006.72 -320.139 0 -1 0
808 2 -277.075 636.525 3348.5 0 0 0
809 2 2248.23 3183.46 1276.99 -1 -1 -1
810 2 307.893 952.344 608.214 0 0 -1
811 2 2807.43 405.958 2874.31 0 0 -1
812 2 -140.646 -356.082 1534.38 0 0 0
813 2 136.654 1845.81 1288.44 0 0 0
814 2 -291.522 412.665 1574.67 0 0 0
815 2 1183.04 2121.65 1615.53 0 0 0
816 2 538.805 237.884 536.842 0 1 0