ITEM: TIMESTEP
722000
ITEM: NUMBER OF ATOMS
1000
ITEM: BOX BOUNDS pp pp pp
1.0604394064079106e+03 3.9395605935915542e+03
1.0604394064079106e+03 3.9395605935915542e+03
1.0604394064079106e+03 3.9395605935915542e+03
ITEM: ATOMS id type x y z ix iy iz
1 1 2840.38 2402.49 1250.65 -1 0 1
2 1 1981.31 1098.29 2657.04 0 0 0
3 1 3468.28 2599.66 2070.21 0 0 0
4 1 2188.05 1493.15 3438.46 0 -1 0
5 1 3633.88 3109.78 2756.6 -1 -1 1
6 1 1798.44 1576.56 3630.51 0 0 0
7 1 1471.51 3165.9 2954.84 0 -1 0
8 1 2098.6 1559.01 2467.36 0 0 1
9 1 3125.3 3181.89 2462.67 0 0 0
10 1 2951.35 2512.27 2679.25 0 0 0
11 1 2754.39 2044.74 2633.45 0 0 0
12 1 1185.13 3373.92 3856.4 0 0 0
13 1 3303.64 3758.35 3700.67 -1 0 -1
14 1 2148.28 2775.86 2977.32 0 0 -1
15 1 3410.57 2151.12 1946.75 0 0 0
16 1 2110.65 3929.17 2442.86 0 0 -1
17 1 2418.22 3009.13 3028.48 1 0 -1
18 1 3285.5 2314.9 2484.29 -1 1 0
19 1 2982.97 1730.3 1586 -1 0 0
20 1 1231.72 3184.88 3102.77 0 -1 0
21 1 1931.99 2545.76 2596.28 0 1 0
22 1 2719.4 3125.65 2813.05 2 -1 0
23 1 2982.03 2066.8 2750.17 0 0 1
24 1 3101.77 3579.91 2084.04 0 0 0
25 1 1557.87 1775.47 2886.47 -1 0 0
26 1 3094.45 3182.85 3070.38 0 0 0
27 1 3257.48 2368.54 2924.81 -1 0 1
28 1 1913.77 2439.29 2365.55 0 0 0
29 1 2589.2 2205.15 2698.74 0 0 -1
30 1 2884.55 3660.05 2996.02 0 0 0
31 1 1209.39 1445.45 3023 0 0 0
32 1 1418.58 3291.75 3449.4 0 0 -1
33 1 2112.81 2360.52 3303.69 0 0 0
34 1 2436.41 1092.49 2998.27 0 0 0
35 1 1878.18 2099.16 2361.11 0 0 -1
36 1 1290.93 2928.06 1165.08 0 -1 0
37 1 1637.81 1661.89 1719.05 0 0 0
38 1 2133.65 3125.72 2096.84 0 0 0
39 1 3404.21 2313.78 2985.91 -2 0 -1
40 1 3286.98 2468.01 1850.44 -1 -1 2
41 1 1819.84 3036.29 1699.76 0 0 -1
42 1 3043.41 2761.24 1939.26 0 -1 0
43 1 2442.95 2621.09 1931.39 0 -2 0
44 1 3132.34 3620.59 1538.76 0 -1 0
45 1 2449.96 2266.93 2893.85 0 0 0
46 1 3033.28 3790.92 3185.61 -1 -1 0
47 1 3609.75 3433.47 2117.68 -1 -1 -1
48 1 3403.44 1949.78 2888.52 0 0 -1
49 1 3018.74 2572.69 2180.49 -1 0 1
50 1 3206.56 1488.42 3521.4 -1 0 0
51 1 3476.8 1188.36 2164.57 -1 -1 1
52 1 3912.95 2550.61 3747.69 -1 0 -1
53 1 3266.37 1781.36 3622.87 -2 0 -1
54 1 3509.57 2190.27 3135.12 0 0 -1
55 1 3144.22 3183.68 3090.66 -2 0 -1
56 1 3283.55 2053.35 1437.68 0 0 0
57 1 1777.32 2507.31 3787.73 0 0 -1
58 1 2455.39 2666.16 3741.14 0 0 -1
59 1 2688.92 3608.94 2871.49 -1 -1 0
60 1 1880.85 3348.92 1320.93 -1 -1 1
61 1 1700.56 2916.32 2443.94 -1 0 0
62 1 2618.72 1144.16 3304.92 0 0 -1
63 1 3385.5 2106.25 3322.69 -1 0 0
64 1 2997.85 2674.51 3419.36 0 -1 -1
65 1 3421.09 3225.98 2825.33 -1 -1 -1
66 1 3482.91 3052.76 2540.99 -1 0 1
67 1 2491.42 2405.68 1462.02 0 0 0
68 1 2135.62 3064.9 3539.58 0 -1 -1
69 1 1201.47 2609.95 2921.39 0 0 0
70 1 1468.89 1225.32 3618.44 0 1 -1
71 1 1778.43 2759.56 2552.54 -1 0 -1
72 1 2826.57 1897.1 3896.71 0 0 -1
73 1 2706.37 1292.3 1082.72 0 1 1
74 1 3341.63 2803.48 2005.26 -1 0 -1
75 1 1801.82 2465.94 1423.75 0 0 1
76 1 1346.75 1437.73 3210.37 -1 0 0
77 1 2711.56 2525.53 3625.1 -1 -1 -1
78 1 1396.48 3881.55 1582.12 0 -1 0
79 1 1888.57 2282.38 2535.87 0 -1 0
80 1 3327.57 2334.1 2457.82 -1 0 0
81 1 3901.21 1596.79 1608.7 -1 0 0
82 1 1655.13 2118.11 3654.73 1 0 0
83 1 2469.99 1843.23 2792.13 -1 -1 -1
84 1 1780.25 3890.8 3734.48 1 0 -1
85 1 2505.17 2375.69 2399.38 0 -1 0
86 1 3681.35 2328.84 3005.84 -1 0 0
87 1 1475.71 1773.45 3108.42 0 -1 -1
88 1 1226.4 2891.49 1830.14 0 -1 0
89 1 3025.34 2984.5 1511.26 0 0 0
90 1 3756.58 3507.34 2238.61 -2 -1 0
91 1 1376.83 3752.35 3168.77 0 -1 -1
92 1 1753.46 2918.84 2437.17 0 -1 -1
93 1 2095.4 3656.32 2838.52 1 0 0
94 1 2173.61 1964.11 3691.12 0 0 -1
95 1 1507.57 2400.18 3044.9 -1 -1 -1
96 1 2903.37 2441.14 1722.5 -1 0 0
97 1 2200.36 2367.2 1806.38 0 -1 1
98 1 2797.16 1906.78 3212.48 -1 -1 0
99 1 2444.29 3049.07 3254.76 0 -1 -1
100 1 2863.7 1760.31 1216.23 -1 0 0
101 1 1201.26 3116.83 2296.12 0 -1 0
102 1 2151.17 1128.91 2768.27 -1 0 0
103 1 3071.42 2514.93 1878.26 -1 0 0
104 1 3786.37 2806.53 2403.98 0 -1 -1
105 1 3696.58 3361.86 2909.38 -1 0 0
106 1 3775.65 1745.39 3012.73 0 1 -1
107 1 2903.38 2018.97 2417.21 -1 -2 0
108 1 3613.25 3456.3 1314.91 -1 0 -1
109 1 2126.27 2550.24 2363.13 -1 -1 0
110 1 2896.12 2878.03 1303.1 0 -1 0
111 1 3765.3 1061.13 3773.96 -1 0 -1
112 1 2735.01 1343.68 3243.76 0 0 0
113 1 2323.42 2854.41 3196.91 0 0 -1
114 1 2833.31 2369.96 3164.15 -1 0 0
115 1 2135.38 2763.29 3319.78 0 0 -1
116 1 3054.45 2384.14 3108.34 0 0 0
117 1 2284.26 3829.65 2878.69 0 -1 -1
118 1 1919.4 2950.15 2159.54 -1 0 -1
119 1 3683.61 3213.54 2103.76 0 -1 0
120 1 2917.05 2218.63 1490.99 1 0 0
121 1 3408.07 3565.01 3342.8 -1 0 0
122 1 2953.45 3394.39 2443.73 0 0 -1
123 1 1408.1 1359.05 3803.81 -1 1 -1
124 1 2646.51 2529.34 1225.36 0 0 1
125 1 1412.82 3371.06 1711.07 0 -2 0
126 1 2043.69 3932.4 3275.79 0 0 -1
127 1 2920.4 2144.28 1908.06 -1 -1 0
128 1 1856.29 2163.89 3935.14 -1 0 0
129 1 2481.08 2398.71 2357 -1 0 0
130 1 3754.02 2708.2 1759.87 0 -1 0
131 1 3143.41 3490.37 1113.39 -1 -1 0
132 1 2680.05 2969.47 3287.94 0 -1 -1
133 1 2522.27 2388.45 3063.35 0 0 -1
134 1 1665.17 3572.04 2476.53 -1 -1 -1
135 1 2011.12 3829.01 3737.54 0 -1 -1
136 1 3225.35 1917.8 3441.16 -1 0 0
137 1 3488.39 1606.74 1674.97 -1 0 0
138 1 2899.99 2623.94 1586.14 0 -1 0
139 1 3229 2638.43 1827.14 -1 -1 -1
140 1 3180.89 3272.73 2910.37 -1 -1 -1
141 1 3075.95 2971.12 1840.92 -1 1 0
142 1 2406.73 2122.37 3073.97 0 1 -1
143 1 3470.82 3239.6 2138.77 -1 0 0
144 1 1187.75 3265.34 2600.01 -1 -1 0
145 1 2210.74 2091.88 1890.94 0 0 0
146 1 3685.18 2618.38 1968.16 -1 -1 0
147 1 1381.46 2470.79 2841.69 0 0 -1
148 1 2846.48 2822.46 2276.17 -1 -1 1
149 1 3294.96 3031.69 2906.77 0 0 0
150 1 2387.43 2647.08 2593.39 0 0 0
151 1 2581.01 3330.43 2906.39 0 -2 -1
152 1 3718.28 2706.68 3177.17 -1 -1 0
153 1 3131.73 2955.38 3078.25 -1 -1 -1
154 1 3578.39 2797.47 2152.99 -1 0 -1
155 1 3248.07 2296.99 2517.86 0 0 0
156 1 1787.47 2518.92 3501.14 0 0 -2
157 1 3881.24 3245.68 2238.63 0 0 -1
158 1 2864.66 2883.72 1773.06 -1 -1 0
159 1 3346.58 2739.59 2757.67 0 -1 0
160 1 3149.99 1621.68 3037.48 -1 0 0
161 1 2809.8 2862.84 1533.91 0 0 -1
162 1 2981.21 1818.84 2555.86 0 -1 0
163 1 2324.14 2632.18 3087.5 0 0 -1
164 1 3536.82 2402.05 1614.18 0 -1 -1
165 1 2179.04 1960 3744.5 0 0 -1
166 1 1126.23 2842.47 1642.52 0 0 -1
167 1 2793.54 2829.26 2269.76 0 -1 0
168 1 1533.96 1968.93 3280.96 0 0 0
169 1 2000.39 3622.29 1447.1 0 -1 -1
170 1 3235.99 3194.86 2272.56 0 -1 0
171 1 3005.18 1903.69 3353.98 -1 -1 -1
172 1 2682.36 3207.49 1909.75 0 -1 -1
173 1 2986.66 2318.75 2537.93 -1 0 -1
174 1 3086.19 1451.69 3797.72 -2 0 -1
175 1 3480.63 3308.04 1149.73 -1 -1 -1
176 1 1901.12 1857.17 3257.44 0 0 0
177 1 3008.3 3702.83 1298.14 -1 0 0
178 1 3689.63 2017.88 2981.2 -1 0 0
179 1 1567 1970.95 3323.5 -1 0 0
180 1 3596.11 3137.65 3249.19 0 0 -1
181 1 1314.5 2748.53 3396.23 0 -1 1
182 1 3078.85 3766.71 1994.13 0 -1 0
183 1 1162.75 3310.12 1731.33 0 -1 0
184 1 3195.29 2071.46 2802 0 -1 1
185 1 1298.77 2170.4 2717.06 0 0 -1
186 1 3395.59 2237 1509.35 -1 0 -1
187 1 3894.38 2759.06 3015.78 0 0 -1
188 1 2631.14 1105.59 3852.34 0 1 -1
189 1 3839.87 1849.92 3714.99 -1 0 -1
190 1 2647.09 2768.94 2477.07 -1 0 0
191 1 3099.13 1278.74 3531.61 0 0 0
192 1 3625.14 3687.43 1389.5 -1 -1 0
193 1 3746.46 2976.94 3175.36 -2 -1 0
194 1 3147.67 1925.33 1633.91 0 -1 -1
195 1 1948.69 2667.38 2939.98 -1 0 0
196 1 2331.17 2526.01 3882.28 0 0 -1
197 1 1992.35 2174.11 1228.45 -1 1 1
198 1 3014.18 3600.06 3715.31 -1 -1 0
199 1 2234.47 3548.15 1143.18 0 0 1
200 1 1829.79 1601.42 3277.27 0 0 -1
201 1 3601.37 1998.18 3270.87 -1 0 0
202 1 2638.45 2298.13 3733.6 -1 -1 -1
203 1 3445.26 3427.94 3767.62 -1 -1 0
204 1 2414.74 2254.12 3290.56 0 -1 -2
205 1 3287.63 2704.36 3390.68 -1 -1 0
206 1 3659.46 1229.72 3629.41 -1 0 0
207 1 2369.22 2903.75 3704.68 -1 -1 -1
208 1 2385.04 2040.92 2848.9 0 0 -1
209 1 2850.23 2789.64 3271.98 -1 -1 0
210 1 3414.99 2569.78 1404.24 0 -1 0
211 1 3044.81 3195.71 1414.92 -1 -1 0
212 1 2283.71 1077.34 2281.89 0 0 -1
213 1 3366.42 2809.74 2502.65 0 1 -1
214 1 2352.43 3129.27 2451.21 0 -1 0
215 1 1061.94 3239.32 1531.75 0 0 -1
216 1 2770.7 2240.19 3581.28 -1 0 -1
217 1 3193.41 1955.81 1857.07 -1 0 1
218 1 1955.52 2682.29 1656.12 0 0 0
219 1 3435.52 3219.36 2395.47 0 -1 0
220 1 1982.96 2395.5 3564.24 -1 0 -1
221 1 3292.25 1313.55 3388.03 -1 0 -1
222 1 3085.56 1995.01 1067.46 0 -1 1
223 1 2440.9 2428.56 3669.91 0 -1 -2
224 1 1251.85 3682.95 2492.47 0 -1 0
225 1 2996.51 3833.06 2412.08 0 -1 0
226 1 2954.94 2583.08 3162.61 0 -1 0
227 1 3709.04 2338.14 2774 -1 -1 -1
228 1 1134.07 3545.06 1153.54 0 0 1
229 1 3127.49 1826.73 2063.24 -1 -1 0
230 1 1221.87 2382.74 2667.79 0 0 -1
231 1 1799.43 2906.61 2412.93 -1 -1 0
232 1 1865.79 3798.45 3928.66 0 -1 -1
233 1 3711.51 2924.65 2928.87 -1 0 1
234 1 1680.05 1442.34 2622.08 0 -1 -1
235 1 2846.35 2302.25 1275.11 -1 -1 0
236 1 2495.41 2620.11 1918.75 -1 0 0
237 1 3393.71 2548.15 3238.17 0 -1 0
238 1 3294.24 3031.49 2431.8 0 -1 0
239 1 2863.85 2638.02 1818.98 -1 -1 0
240 1 1972.59 2574.4 2575.02 1 0 -1
241 1 2828.81 3779.12 1501.54 0 -1 0
242 1 2723.63 1786.96 1410.04 0 -2 0
243 1 1540.32 3882.91 1357.22 0 -1 0
244 1 3196.17 2668.93 2968.6 0 -1 -1
245 1 3568.69 1178.65 2529.08 -1 0 0
246 1 3150.97 1538.64 2805.19 0 -1 0
247 1 2387.1 3848 2675.93 0 -1 0
248 1 3556.1 3002.44 1736.7 -1 -1 0
249 1 3561.26 2727.43 3381.58 0 0 0
250 1 3860.83 1367.8 3625.69 -1 0 -1
251 1 3392.87 2824.5 1683.15 0 -1 0
252 1 3198.64 1293.42 2794.85 -1 0 0
253 1 1351.99 2751.32 1723.97 1 0 0
254 1 3767.49 2113.75 2662.21 -1 0 -1
255 1 3053.41 1626.13 3661.72 -1 0 -1
256 1 2427.1 2388.58 3060.39 -1 0 0
257 1 3116.76 3399.43 1611.37 -1 -1 0
258 1 2620.62 1765.11 3140.5 0 0 -1
259 1 2712.64 1830.97 3716.17 -1 0 -1
260 1 2723.85 2566.52 3286.91 0 0 0
261 1 1175.65 1765.3 2177.09 0 0 0
262 1 3508.97 2544.28 1813.78 -1 0 -1
263 1 2642.24 3059.73 3036.47 -1 0 -1
264 1 2064.07 2323.59 1431.65 0 0 -1
265 1 3765 1652.73 3294.04 -1 0 -1
266 1 3355.08 1339.06 3631.91 -1 0 -1
267 1 1161.84 2173.05 3228.52 0 0 -1
268 1 1982.44 2527.35 2599.45 0 -1 0
269 1 3040.16 1176.91 3130.69 -1 0 0
270 1 2222.61 1965.82 3713.4 0 0 -1
271 1 1721 3067.34 2302.47 0 -1 -1
272 1 2622.78 2344.99 3312.44 -1 0 -1
273 1 1901.81 2296.29 3258.87 0 0 -1
274 1 2222.52 2598.31 3331.77 1 -1 0
275 1 3132.99 2404.32 1442.23 -1 0 1
276 1 2999.5 2772.17 1110.5 -1 -1 0
277 1 2686.78 2710.62 1682.19 0 0 1
278 1 1105.22 1231.78 2973.48 0 0 -1
279 1 2242.34 2881.38 2408.1 0 -1 0
280 1 2416.12 2443.18 3436.99 -1 0 -1
281 1 1569.43 3131.17 2789.87 0 -1 0
282 1 1665.32 2196.72 3202.53 0 -1 0
283 1 2199.68 3710.77 3830.17 0 -1 -1
284 1 1902.93 2137.22 3640.06 0 0 -1
285 1 3927.67 2897.04 3213.68 -1 0 -1
286 1 3174.37 1785.31 3192.08 -1 1 0
287 1 2993.81 1662.88 1358.47 0 0 0
288 1 2219.95 2230.45 2885.44 1 0 0
289 1 1870.86 2847.23 2818.08 0 -1 0
290 1 3345.75 2471.78 2237.94 -1 -1 0
291 1 2069.59 2823.83 2428.23 -1 -1 0
292 1 3695.52 2061.97 2950.74 -1 0 -1
293 1 2721.4 2597.14 2592.85 0 0 1
294 1 2586.85 2750.64 2760.53 0 -1 -1
295 1 1554.1 3746.36 2576.63 0 -1 0
296 1 3657.35 2472.13 3206.01 0 0 0
297 1 3136.31 2214.68 2636.04 -1 0 0
298 1 2299.97 2413.27 2691.11 0 0 0
299 1 1292.98 1920.7 2581.18 1 0 0
300 1 1736.03 2435.95 3737.1 0 0 0
301 1 2258.87 2454.99 2636.3 -1 0 -1
302 1 3728.69 1586.04 1174.19 -1 0 0
303 1 3325.83 3789.96 1466.59 0 -1 0
304 1 2149.22 3026.07 3573.62 1 -1 -1
305 1 2340.91 1391.55 3616.5 0 0 -1
306 1 1241.36 3743.58 1140.65 0 -1 0
307 1 3512.23 2378.12 1655.56 -1 0 -1
308 1 1226.87 1315 1104.31 0 0 0
309 1 2762.81 3276.98 2199.05 0 0 -1
310 1 1377.07 1615.03 2923.55 0 0 -1
311 1 1910.82 3046.6 1155.87 0 -1 -1
312 1 3103.59 2216.83 2678.63 0 -1 1
313 1 1864.67 1734.05 3456.52 0 -1 -1
314 1 1387.57 2221.47 3129.88 1 0 0
315 1 1523.41 1398.53 2796.23 0 0 0
316 1 3168.75 3206.89 1204.16 -1 0 0
317 1 1977.39 3098.64 2683.98 1 0 -1
318 1 3867.25 3515.11 3029.84 0 -1 -1
319 1 3243.3 1936.52 1199.2 -1 0 0
320 1 2390.38 2802.48 2852.54 0 -1 0
321 1 2740.94 2077.81 3738.69 -1 0 0
322 1 2163.78 2456.49 1310.16 0 -1 0
323 1 1661.33 1776.98 3269.94 0 0 -1
324 1 3841.25 2222.18 1165.15 0 0 0
325 1 1807.73 3660.04 3173.22 0 0 0
326 1 2855 2998.38 3151.94 0 0 -1
327 1 2665.36 3426.64 2695.43 0 -1 0
328 1 1859.76 2027.41 2591.07 0 0 0
329 1 1836.34 2985.03 1698.24 0 0 0
330 1 2810.4 2535.92 2996.2 0 0 0
331 1 2453.49 2634.16 1687.61 -1 0 0
332 1 2103.64 3082.54 3500.62 0 -1 -1
333 1 3163.99 2517.4 3302.4 0 0 0
334 1 3208.56 3937.22 3672.31 -2 -1 0
335 1 2560.55 3198.51 2339.03 0 0 0
336 1 2429.95 2288.04 3887.04 0 -1 -1
337 1 1228.34 2367.45 1971.66 0 0 0
338 1 2844.41 2881.92 3808.35 0 -1 -1
339 1 3139.53 2828.18 3533.72 0 -1 0
340 1 2353.41 2409.2 2686.92 0 -1 0
341 1 2858.89 3726.83 3559.89 0 -1 -2
342 1 3021.93 3121.13 3285.39 0 -1 0
343 1 2954.49 1727.16 3168.63 1 -1 0
344 1 3284.83 3378.34 3357.22 0 -1 -1
345 1 2580.76 2108.59 1064.65 0 0 0
346 1 2834.82 2354.34 1273.05 0 -1 0
347 1 2474.27 2408.58 3074.78 -1 0 -1
348 1 1942.63 2501.03 2624.56 -1 -1 -1
349 1 3038.26 2739.27 2686.26 -1 0 0
350 1 2053.01 2119.08 1691.77 0 1 0
351 1 1677.03 1106.74 3546.98 0 0 -1
352 1 2248.87 2099.88 3438.92 0 1 0
353 1 3401.47 2707.5 2269.68 0 -1 0
354 1 1939.29 2700.63 2204.81 0 0 0
355 1 2260.34 2973.08 3393.24 0 -1 -1
356 1 2048.35 3530.65 1238.06 0 -1 0
357 1 1869.73 3195.98 3085.19 0 -1 -1
358 1 3386.86 3919.04 2004.47 -1 -1 0
359 1 2731.03 2148.15 3210.92 0 0 0
360 1 1976.43 1135.04 3859.02 0 1 -1
361 1 3778.33 2654.93 2211.5 -1 0 0
362 1 3065.45 2708.43 3022.99 0 -1 0
363 1 2526.53 2285.34 3517.17 0 0 -1
364 1 3068.03 2869.68 3310.84 -1 0 0
365 1 1883.88 3620.23 2955.21 0 -1 0
366 1 1626.25 2667.7 1304.14 0 0 0
367 1 2064.75 2634.68 3140.25 0 -1 -1
368 1 2745.53 1454.17 2654.53 -1 0 0
369 1 3486.81 2908.77 2819.49 0 0 -1
370 1 3607.71 3008.77 1953.36 -2 0 0
371 1 3737.18 1989.9 1588.02 -1 0 0
372 1 3304.8 3325.99 3857.08 -1 -1 -1
373 1 3119.28 2708.88 3025.76 0 1 0
374 1 2547.34 1484.36 2602.29 0 0 0
375 1 3465.07 1173.37 2214.9 0 0 -1
376 1 2862.47 2764.88 2507.28 0 1 0
377 1 3589.38 2483.1 2222.32 0 0 0
378 1 2191.89 1558.88 3216.09 0 1 -1
379 1 3223.26 2592.17 2039 -1 -1 0
380 1 2705.86 1908.06 1632.58 -1 0 0
381 1 2085.22 2579.82 3484.61 0 0 -1
382 1 3645.07 3151.67 2995.42 -1 -1 0
383 1 2901.22 2180.22 2233.56 -1 0 0
384 1 3090.09 3004.71 2288.42 0 -1 0
385 1 3380.79 2913.75 2205.38 0 0 0
386 1 3096.3 3340.17 2673.03 -1 0 0
387 1 3396.62 2262.9 2970.3 -1 0 -1
388 1 1062.04 2932.23 3175.34 0 0 -1
389 1 2398.55 2527.65 1275.7 0 0 0
390 1 1142.96 2770.56 1077.86 0 -1 0
391 1 2348.28 1542.77 1293.36 0 0 0
392 1 1480.57 2597.9 3361.49 -1 -1 -1
393 1 2659.56 2368.22 2846.72 0 0 1
394 1 1533.79 1890.66 3610.97 1 0 -1
395 1 2427.14 2418.34 1725.82 0 -1 -1
396 1 1183.95 3036.56 2646.63 1 0 0
397 1 2992.2 3050.24 1154.11 -1 0 0
398 1 2002.95 2384.34 3090.07 0 -1 0
399 1 1820.83 1287.63 3077.31 0 0 0
400 1 1964.79 2229.96 2895.58 -1 0 -1
401 1 2512.88 2428.06 2389.15 0 0 -1
402 1 2011.62 2602.97 3905.7 0 0 -2
403 1 1243.03 1783.73 3457.96 0 0 -1
404 1 2673.35 2795.3 1922.84 0 0 0
405 1 2802.11 3457.16 3034.26 -1 0 0
406 1 1827.17 3150.27 2133.98 0 -1 0
407 1 1445.02 3236.8 3216.74 -1 -1 0
408 1 3838.31 2339.64 3207.63 0 0 -1
409 1 3572.86 2793.25 2613.25 0 -1 -1
410 1 2657.61 2066.19 2388.64 0 0 -1
411 1 1854.64 1729.45 1640.46 0 0 0
412 1 2330.77 3410.67 3074.27 0 0 0
413 1 1223.76 2789.74 3139.17 0 0 -1
414 1 1676.97 3090.71 3051.25 0 -1 -1
415 1 1726.53 2300.35 2986.05 0 0 -1
416 1 2738.55 2794.76 1164.84 0 0 0
417 1 1336.74 1814.48 2361.16 -1 0 -1
418 1 3817.64 3362.96 1698.96 -1 0 1
419 1 2001.99 2612.84 2551.43 0 0 0
420 1 3600.34 3090.63 2244.29 -2 -1 -1
421 1 3127.54 2567.44 1303.42 -1 0 0
422 1 1256.65 3365.56 1510.91 0 -1 0
423 1 3458.78 2889.88 1207.23 0 -1 0
424 1 1658.58 3089.33 3661.9 0 -1 -1
425 1 2288.63 3107.03 3777.89 0 0 -1
426 1 3094.54 2679.86 2987.74 -1 0 -1
427 1 3569.23 2163.15 2080.64 -1 -1 0
428 1 2252.35 3268.42 2634.66 0 -1 -1
429 1 3196.38 2973.53 2051.18 -1 0 0
430 1 1740.12 1450.17 2071.78 0 -1 0
431 1 2700.62 2316.09 1113.97 0 0 0
432 1 1590.45 3093.96 2106.79 0 -1 0
433 1 2031.91 2813.14 2465.04 -1 -1 -1
434 1 3538.38 2859.97 2378.73 -1 0 0
435 1 3105.28 1728.43 3426.58 -1 0 0
436 1 3211.1 2866.47 1138.3 -1 0 0
437 1 2916.04 2024.54 1647.08 0 1 0
438 1 3878.13 2506.12 2780.53 -1 -1 -1
439 1 3079.88 2322.7 1415.05 0 0 0
440 1 3415.59 1612.3 3508.18 -1 0 -1
441 1 2933.99 1440.58 3582.43 -1 0 -1
442 1 1408.24 2622.78 3001.12 0 0 0
443 1 3463.48 2540.88 3465.79 0 -1 0
444 1 3056.74 2772.84 1683.04 -2 0 0
445 1 2356.57 3284.76 2617.9 0 -1 0
446 1 3286.89 1549.13 3744.36 -1 0 -1
447 1 2747.72 2865.6 2695.13 0 0 0
448 1 1684.69 2867.74 2120.83 -1 -1 0
449 1 2119.9 2441.26 1337.33 -1 0 0
450 1 1591.63 2378.96 3541.21 0 0 -1
451 1 1647.94 2916.39 2899.76 0 -1 -1
452 1 1893.29 1978.5 3479.36 0 0 0
453 1 3537.56 3514.06 2315.12 -1 0 0
454 1 1587.55 2006.36 2053.49 0 0 -1
455 1 2852.46 2656.53 3623.21 -1 0 -1
456 1 3274.53 1274.76 1128.23 0 1 0
457 1 2493.18 2953.28 2374.06 0 -1 -1
458 1 1526.3 1935.82 3322.73 0 1 -1
459 1 1742.36 2409.9 1976.81 0 -1 -1
460 1 3598.61 2471.92 2608 -1 -1 0
461 1 3080.42 2897.74 2503.74 0 -1 0
462 1 3320.37 2965.59 2656.18 -1 0 -1
463 1 3770.11 1704.84 3308.19 -1 0 -1
464 1 2816.34 2715.37 2779.24 0 0 0
465 1 1127.3 2896.56 2413.11 1 0 -2
466 1 2981.63 3335.87 2859.76 -1 -1 0
467 1 2835.43 2657.66 1331.15 0 1 0
468 1 3633.77 3047.4 1221.18 0 -1 1
469 1 3181.77 2543.45 2760.77 0 -1 -1
470 1 3171.59 3389.66 1364.4 -1 -1 -1
471 1 3180.96 2779.09 2196.78 0 0 0
472 1 2937.4 3281.31 1212.74 0 -1 0
473 1 1099.98 2317.69 3422.91 1 -1 0
474 1 3297.18 2241.84 3116.41 -2 -1 -1
475 1 3103.47 2534.19 1647.74 0 -1 0
476 1 3173.18 3874.49 1753.36 -1 -1 0
477 1 3616.42 2220.58 1588.26 0 -1 -1
478 1 2703.11 2480.95 1585.33 -1 -1 0
479 1 2702.12 1196.08 2142.04 0 0 -1
480 1 3713.99 2055.19 2430.12 -1 0 0
481 1 3260.44 1279.62 1076.4 0 1 1
482 1 2774.71 1563.57 3152.9 0 -1 -1
483 1 3336.2 2016.39 3074.93 -1 1 0
484 1 2981.99 3241.17 2230.86 -1 -1 0
485 1 2242.93 3532.68 2686.32 -1 -1 -1
486 1 3855.53 3253.63 1285.43 -1 -1 0
487 1 2893.62 2330.73 2932.53 -1 0 -1
488 1 1861.08 1258.25 2504.28 0 0 0
489 1 3550.2 2789.13 1841.44 -1 0 0
490 1 3326.52 2341.7 3376.8 -1 0 -1
491 1 2758.64 2918.73 2892.2 0 0 -1
492 1 3061.38 2566.04 3903.57 0 -1 0
493 1 2901.57 2426.08 2325.21 -1 0 0
494 1 2199.03 2323.5 3528.82 1 -1 0
495 1 3373.15 3037.64 1896.88 0 -1 0
496 1 3148.3 2683.38 2988.2 1 0 0
497 1 2719.56 3838.16 2745.83 -1 -1 0
498 1 2854.35 3304.06 2648.67 0 -1 0
499 1 2176.18 2508.73 1313.64 -1 0 -1
500 1 2867.29 3456.14 2185.17 0 -1 -1
501 1 2458.39 2899.38 2609.14 -1 0 -1
502 1 1273.78 3321.36 3264.22 -1 0 0
503 1 2478.02 2448.22 3110.26 0 0 0
504 1 2038.97 2646.36 2531.19 0 0 0
505 1 1743.96 2465.59 3780.84 -1 0 -1
506 1 1144.69 1856.49 1970.77 -1 0 0
507 1 3726.78 1676.1 3323.61 -1 0 -1
508 1 1463.62 1295.98 1508.95 0 0 -1
509 1 1480.63 1364.65 2529.58 0 0 0
510 1 2824.78 2233.87 2708.56 -1 -1 -1
511 1 3848.41 3419.34 2440.5 0 0 -1
512 1 1348.93 3456.03 3642.64 0 -1 -1
513 1 3379.74 2509.55 1636.61 0 -1 0
514 1 2994.77 2015.24 2096.83 -2 0 1
515 1 2473 1921.42 2400.45 -1 0 -1
516 1 2542.46 3820.73 2843.63 -1 -1 0
517 1 3323.96 3291.94 3649.08 0 -1 -1
518 1 1837.88 3117.27 2876.09 0 0 -1
519 1 2767.42 2660.09 2321.44 0 0 0
520 1 3390.41 3055.49 1198.05 -1 0 0
521 1 2515.54 2311.78 1230.81 -1 0 1
522 1 2470.33 2667.31 1926.18 -1 0 0
523 1 3356.7 3246.05 1356.91 0 0 0
524 1 2728.16 2358.32 2496.68 -1 -1 0
525 1 3420.23 1870.81 3283.44 0 0 -1
526 1 1758.47 2252.98 2746.86 0 0 0
527 1 1061.21 1973.3 3140.07 0 -1 -1
528 1 3576.14 2375.86 2012.26 0 1 0
529 1 2497.33 2680.3 1109.27 -1 -1 0
530 1 1572.29 2869.23 2666.6 0 0 0
531 1 1883.96 3851.42 1458.62 0 -1 0
532 1 3559.07 2668.11 1621.59 -1 0 0
533 1 3425.88 1190.17 2182.01 -1 0 -1
534 1 2232.61 1065.35 3099.66 0 0 -1
535 1 2794.91 3775.55 2476.79 -1 -2 0
536 1 2099.2 2592.62 1825.18 -1 0 0
537 1 2862.03 3312.73 1987.75 -1 -1 0
538 1 1625.66 1697.91 3480.91 0 0 -1
539 1 3441.98 2383.56 2791.59 -2 0 -1
540 1 2961.69 3571.48 2391.99 0 0 0
541 1 2481.13 3236.48 3110.94 0 0 -1
542 1 2266.93 2899.41 2363.72 0 -1 0
543 1 2147.97 2821.36 2722.13 0 0 -1
544 1 3323.72 1541.36 3295.22 -1 1 -1
545 1 2048.22 3050.21 2891.04 -1 0 -1
546 1 3643.33 1410.75 1328.54 -1 0 0
547 1 2474.26 2203.32 2308.28 0 -1 0
548 1 1463.95 1617.2 3305.89 0 0 0
549 1 2812.94 2513.42 3634.28 0 0 0
550 1 1814.34 2047.29 1251.32 0 0 0
551 1 2247.79 2828.26 1353.33 0 -1 0
552 1 2779.91 3801.63 3802.38 0 -1 -1
553 1 3147.25 2750.75 3807.73 -1 0 -1
554 1 2183.71 2394.47 2702.3 0 0 0
555 1 1766.84 2219.06 3480.24 0 0 0
556 1 2580.13 3242.97 2556.07 0 0 -1
557 1 2813.58 2722.82 2101.66 -1 0 0
558 1 2570.16 3726.12 2595.61 -1 0 -1
559 1 2565.18 3463.67 3114.06 -1 0 0
560 1 1520.13 2984.67 1065.93 0 0 0
561 1 3663.95 2287.94 2458.19 -1 -1 -1
562 1 1693.33 3685.99 3827.05 0 0 -1
563 1 3831.85 2510.86 3073.6 -1 0 0
564 1 2629.56 2861.62 3696.22 0 1 -1
565 1 3736.69 2741.85 3690.61 0 0 -1
566 1 3737.62 2029.47 2959.55 -1 0 1
567 1 2569.93 1308.8 3053.25 0 0 0
568 1 3332 3201 2572.23 -1 -1 -1
569 1 2832.16 2027.06 3401 0 0 0
570 1 1340.08 3193.51 2749.17 0 -1 0
571 1 3195.21 3024.77 1331.02 -1 -1 0
572 1 2581.92 2919.6 2841.21 -1 -1 0
573 1 2027.97 2185.45 3451.05 1 0 -1
574 1 3243.09 3528.85 3795.42 -1 0 0
575 1 1499.85 2349.72 3275.66 0 0 0
576 1 3718.1 2059.78 2999.64 0 -1 -1
577 1 3599.67 2650.84 2411.95 -1 -1 -1
578 1 1121.29 2700.54 2278.41 1 0 1
579 1 3172.55 3755.58 2580.2 0 0 -1
580 1 2280.98 2851.93 2384.88 0 1 1
581 1 1433.4 2104.42 2421.3 -1 0 0
582 1 3370.39 3466.2 2152.27 0 -1 0
583 1 2534.4 2390.8 2356.67 0 0 0
584 1 3658.39 3302.34 2278.96 0 0 1
585 1 3361.18 3520.14 3567.98 -1 -1 -1
586 1 3261.34 1921.35 3845.49 -1 -1 -2
587 1 1094.57 1972.32 2718.62 1 0 -1
588 1 1622.41 2325.94 1588.09 0 0 0
589 1 3069.16 3377.68 3841.24 1 -1 0
590 1 3710.27 2874.72 1597.97 -1 -1 1
591 1 1950.49 1484.85 3457.71 -1 -1 -1
592 1 1533.76 2192.33 2929.54 0 0 0
593 1 1280.09 1981.1 3264.8 0 0 0
594 1 1853.44 3431 3196.25 -1 1 0
595 1 3176.44 1104.8 3275.61 -1 0 -1
596 1 3091.82 2372.72 1429.54 1 0 0
597 1 2812.81 2618.12 3633.14 0 0 0
598 1 3224.12 3616.72 1330.88 0 -1 0
599 1 2138.89 3799.85 2658.92 -1 -1 0
600 1 3216.3 1843.39 2967.13 -1 0 -1
601 2 3903.73 2243.74 1436.95 -1 0 0
602 2 1460.53 1602.97 2099.88 1 0 0
603 2 3339.23 3620.84 1873.56 -1 0 1
604 2 3465.62 3391.14 3081.9 0 -1 0
605 2 1185.79 1133.34 3701.75 0 0 0
606 2 1120.42 2614.64 1960.48 1 0 0
607 2 1850.05 2681.75 1868.74 0 0 0
608 2 2941.54 3559.39 2634.84 0 -1 0
609 2 3211.9 1952.65 2291.92 0 0 0
610 2 2728.45 3250.43 3281.76 0 0 0
611 2 1281.18 3220.89 1224.95 0 0 1
612 2 2459.78 3835.66 2034.96 0 -1 0
613 2 1659.23 2605.47 2797.91 0 0 -1
614 2 2669.38 1720.26 2549.57 0 0 0
615 2 1155.7 2833.62 3618.12 0 0 0
616 2 3797.52 3763.02 1144.19 0 0 0
617 2 1281.26 3159.98 1973.9 0 -1 0
618 2 2442.53 3747.73 3219.74 0 0 0
619 2 2926.77 1746.06 2825.58 0 1 0
620 2 3849.82 3737.46 2425.43 -1 0 0
621 2 1069.29 3775.27 3047.79 0 0 -1
622 2 2119.54 3830.11 1217.25 0 0 0
623 2 2124.21 2590.6 3539.27 0 0 -1
624 2 1083.34 2245.81 2909.57 0 0 -1
625 2 2795.29 1534.96 3807.09 0 0 0
626 2 1309.33 3496.03 2993.89 1 0 -1
627 2 1652.02 1119.27 2695.95 0 1 0
628 2 3601.11 2617.44 2863.15 -1 0 0
629 2 2084.84 1634.11 2111.19 0 0 0
630 2 2551.35 1263.67 1824.65 0 1 0
631 2 3584.63 1379.07 3345.18 0 1 0
632 2 1907.41 3398.75 1618.6 0 -1 0
633 2 1268.32 3410.13 2292.98 0 -1 0
634 2 3420.62 2843.59 3101.9 -1 0 0
635 2 1224.92 1244.26 2061.26 0 0 0
636 2 3009.9 1422.7 3246.16 -1 0 0
637 2 1305.86 1940.94 2908.92 1 0 -1
638 2 1187.66 1553.44 1850.83 0 0 0
639 2 3534.56 3132.28 3747.92 0 0 0
640 2 2756.12 3907.13 3011.75 0 0 0
641 2 2218.86 1620.7 2725.98 0 0 0
642 2 2567.37 3361.35 1609.75 0 -1 0
643 2 1233.64 1099.85 2389.65 0 0 0
644 2 3844.32 2587 1446.02 -1 0 1
645 2 2600.38 3494.99 2008 0 -1 0
646 2 2008.44 3381.64 1985.16 0 -1 0
647 2 1882.07 1809.38 3738.15 0 0 0
648 2 2572.9 2752.79 3051.71 0 0 0
649 2 3492.51 1768.68 1097.88 -1 0 0
650 2 3531.95 2156.96 2137.18 0 0 0
651 2 3715.7 1741.75 1786.55 -1 0 0
652 2 1225.59 1211.79 1687.92 0 0 0
653 2 3183.72 2496.81 3588.75 0 0 -1
654 2 2500.08 3695.39 3877.24 0 -1 -1
655 2 2574.95 1554.85 2862.23 0 0 0
656 2 2902.97 1367.16 2892.01 0 0 0
657 2 3452.64 1640.3 2992.37 -1 0 -1
658 2 2669.14 2003.98 2899.75 -1 0 -1
659 2 1105.92 1656.42 2776.41 1 0 0
660 2 2332.84 2140.82 1541.69 0 0 0
661 2 2703.95 1155.34 1507.13 0 0 0
662 2 1495.62 1397.63 1189.21 0 0 0
663 2 1451.13 3147.56 2452.65 0 -1 0
664 2 2656.06 3469.35 3603.06 0 0 -1
665 2 2415.5 2288.48 1973.85 0 0 0
666 2 2621.35 3722.21 1723.77 0 -1 0
667 2 3060.64 1092.37 1450.17 0 0 0
668 2 1475.47 2207.68 1842.35 0 0 0
669 2 3618.19 2235.77 3421.93 -1 0 0
670 2 1874.5 1297.93 3117.78 0 0 -1
671 2 2997.06 1339.2 1175.12 0 0 1
672 2 1477.31 2588.67 1949.68 0 0 0
673 2 2137.06 2186.19 2339.45 0 0 0
674 2 3799.32 1098.17 1874.89 -1 0 0
675 2 3295.09 3056.82 3421.55 -1 0 0
676 2 2644.2 1477.65 1293.25 0 0 0
677 2 1666.39 3301.71 1854.88 0 -1 0
678 2 3624.49 3196.69 1481.35 -1 -1 0
679 2 1639.3 3386.51 3624.96 0 0 0
680 2 3494.93 1498.52 1928.96 -1 0 0
681 2 2112.41 3589.49 3155.78 0 0 0
682 2 3142.63 2252.24 2061.47 0 0 0
683 2 2321.3 3246.01 2661.27 0 -1 0
684 2 1394.43 3529.03 1974.45 0 -1 0
685 2 1456.46 3699.11 3590.6 0 0 -1
686 2 1447.21 2401.75 1303.66 0 0 0
687 2 2534.3 3132.15 3549.11 -1 -1 0
688 2 3258.14 3457.5 2431.7 -1 -1 0
689 2 1830.78 3686.54 3476.91 0 -1 0
690 2 3745.79 3433.39 3875.77 0 1 -1
691 2 2658.46 2176.89 1729.66 -1 0 0
692 2 1698.28 1073.31 3215.82 0 0 -1
693 2 3623.62 3751.82 2108.21 -1 -1 0
694 2 1319.71 2895.6 2837.94 0 0 0
695 2 2855.41 1798.69 1861.56 0 0 0
696 2 2298.6 1155.36 3367.09 0 1 0
697 2 1444.88 1647.67 2601.36 0 0 0
698 2 1501.2 2365.65 2530.43 1 0 0
699 2 2447 1120.64 1220.7 0 0 0
700 2 1106.35 2446.78 1164.36 0 0 0
701 2 3930.62 3137.7 2806.27 0 -1 -1
702 2 1314.28 2440.29 2253.36 0 0 0
703 2 1596.62 3606.02 1679.67 0 0 0
704 2 1966.72 3504.75 2325.71 0 -1 0
705 2 1658.06 1468.21 3047.66 0 0 -1
706 2 1442.12 2639.87 3917.32 0 0 0
707 2 1428.89 3472.1 2639.3 0 -1 0
708 2 1328.11 2685.71 2519.41 1 0 0
709 2 1317.33 1095.12 3355.79 0 0 0
710 2 2890.84 1189.61 3746.88 0 0 -1
711 2 1578.35 3326.4 1433.8 0 -1 0
712 2 1872.69 2812.59 3487.84 0 0 -1
713 2 2246.72 2417.48 2691.35 0 0 -1
714 2 3175.64 1525.73 2126.23 -1 0 0
715 2 2617.79 2065.73 1357.33 0 0 0
716 2 2142.71 3238.49 1130.23 0 0 0
717 2 3467.31 1087.93 3806.38 -1 0 -1
718 2 2785.26 2378.96 1994.53 -1 0 0
719 2 1525.88 1366.46 1817.2 0 0 0
720 2 1093.99 1556.81 3820.54 0 0 -1
721 2 3789.04 2390.99 1750.68 0 0 0
722 2 3905.28 3420.2 1950 -1 -1 0
723 2 2825.96 3544.77 3938.77 0 0 -1
724 2 3464.7 3731.91 2517.85 0 -1 0
725 2 1933.88 3889.22 2935.08 0 -1 -1
726 2 2045.49 1941.52 1415.7 0 0 0
727 2 3651.9 2386.66 1208.13 -1 0 0
728 2 2086.47 1852.42 2413.51 0 0 0
729 2 3254.64 1174.42 2480.52 -1 0 0
730 2 3279.75 3128.14 1600.77 -1 -1 0
731 2 2133.07 2878.55 3900.99 0 0 0
732 2 3775.17 1242.53 3928.18 -1 0 -1
733 2 2016.46 1209.33 1528.55 0 1 0
734 2 1302.94 2043.82 2108.82 0 0 0
735 2 2275.5 1297.67 2499.67 0 0 0
736 2 1975.5 3773.77 1727.35 0 -1 0
737 2 1871.52 3023.4 1742.28 -1 0 0
738 2 3718.57 3002.61 3459.1 0 0 0
739 2 2024.82 3386.22 3449.11 0 0 0
740 2 3192.16 1295.12 1852.78 0 0 0
741 2 2769.58 1682.42 3400.79 -1 1 0
742 2 2528.26 1794.66 1076.05 0 0 0
743 2 3896.07 1769.72 2431.61 -1 0 0
744 2 2663.45 2031.5 2044.05 0 0 0
745 2 1947.72 3489.97 3782.62 0 0 -1
746 2 1923.52 2714.69 1291.4 0 0 0
747 2 2997.41 3306.76 3508.29 0 0 -1
748 2 2382.5 1345.78 1519.27 0 0 0
749 2 1993.66 1699.71 2961.47 0 0 0
750 2 1206.56 1465.48 2368.74 0 0 0
751 2 3889.82 2816.34 2674.09 0 0 -1
752 2 3446.86 1097.25 2806.09 0 1 0
753 2 1173.83 2114.52 1767.61 0 0 0
754 2 2959.65 2269.8 3766.9 -1 0 0
755 2 2187.05 1783.13 3364.23 0 0 0
756 2 2670.12 3484.11 2366.31 0 -1 0
757 2 2298.73 1944.86 2159.51 0 0 0
758 2 3628.49 3674.4 2896.15 -1 -1 0
759 2 2887.87 1096.75 1822.66 0 0 0
760 2 2463.78 2752.71 3410.17 0 0 -1
761 2 1707.13 3615.4 1257.67 0 -1 0
762 2 1768.57 1743.23 1954.47 0 0 0
763 2 1319.84 1740.79 1189.78 0 0 0
764 2 2285.22 3191.19 1797.33 0 -1 0
765 2 1611.74 2236.35 2201.96 0 0 0
766 2 3673.88 1680.25 1387.04 -1 0 0
767 2 2314.23 1527.09 1832.99 0 1 0
768 2 1559.12 1252.17 2205.02 0 0 0
769 2 1460.04 3876.22 1900.93 0 -1 0
770 2 1125.15 2162.58 2426.93 1 -1 0
771 2 1227.29 3029.55 3358.84 1 0 -1
772 2 1629.97 1869 2306.16 0 0 0
773 2 3300.32 1319.81 1114.28 -1 0 1
774 2 1427.98 3512.01 3893.08 0 -1 -1
775 2 3809.69 3892.16 1523.41 -1 -1 0
776 2 3148.57 3056.44 3715.16 -1 0 -1
777 2 3708.1 2720.93 1116.92 -1 0 0
778 2 1782.38 1967 2961.14 0 0 -1
779 2 3119.09 1689.8 1068.99 -1 0 0
780 2 3348.71 2591.62 1083.37 -1 0 0
781 2 3517.55 1101.92 1295.11 -1 0 0
782 2 2508.63 1910.74 3322.24 0 0 0
783 2 1549.93 3521.33 3282.23 0 -1 -1
784 2 1225.99 1319.99 2685.9 0 0 -1
785 2 3420.01 3475.78 1540.69 -1 -1 0
786 2 1380.58 1573.99 1532.63 1 0 0
787 2 2578.37 3007.3 1669.54 0 0 0
788 2 2322.25 1802.57 3034.48 0 0 0
789 2 1254.1 1899.15 3747.82 0 0 -1
790 2 3803.61 1568.55 2167.19 -1 0 0
791 2 3642.57 1091.59 3121.18 0 0 -1
792 2 1749.03 2485.1 3845.73 0 0 -1
793 2 1700.85 1306.55 3777.49 0 0 0
794 2 3445.76 1462.4 2694.01 -1 0 0
795 2 1652.7 3364.22 2921.24 0 0 0
796 2 1285.43 2499.44 3545.91 0 0 -1
797 2 3461.37 3911.91 3418.56 -1 -1 -1
798 2 1602.9 3744.56 2921.65 0 0 0
799 2 3559.13 1890.84 3510.79 -1 1 -1
800 2 3575.61 3308.56 3440.33 -1 0 -1
801 2 2100.39 2058.53 3119.66 0 0 0
802 2 1427.98 1178.45 2988.2 0 1 0
803 2 2566.99 3662.81 1357.11 0 -1 0
804 2 2497.86 2992.29 2036.09 0 -1 0
805 2 2037.16 1270.39 2212.37 0 0 0
806 2 3855.32 3072.78 1755.38 -1 -1 0
807 2 3629.66 3657.38 3638.22 -1 0 -1
808 2 3140.95 2202.81 1659.04 -1 0 0
809 2 3734.46 1402.97 2912.03 0 0 0
810 2 2430.85 1437.26 3875.59 0 0 -1
811 2 1289.8 1445.51 3502.93 1 0 0
812 2 2636.86 1347.15 3520.2 0 0 -1
813 2 2274.23 1357.33 2963.54 0 0 0
814 2 1563.91 2919.79 1814.32 0 0 0