ITEM: TIMESTEP
152000
ITEM: NUMBER OF ATOMS
1000
ITEM: BOX BOUNDS pp pp pp
1.8191506792041337e+03 3.1808493207949259e+03
1.8191506792041337e+03 3.1808493207949259e+03
1.8191506792041337e+03 3.1808493207949259e+03
ITEM: ATOMS id type x y z ix iy iz
1 2 2852.87 2827.18 2288.56 0 0 0
2 2 2236.98 1887.31 2754.75 0 1 -1
3 2 2362.57 3012.87 1880.15 0 -1 1
4 2 2105.59 2434.44 2813.69 0 0 -1
5 2 2996.81 3029.91 2896.42 0 -1 -1
6 2 2308.85 2509.75 2210.63 -1 0 -1
7 2 2301.18 2512.64 2450.53 0 0 0
8 2 3156.05 3043.96 2705.37 -1 0 0
9 2 3001.72 2726.08 2477.99 -1 0 0
10 2 2252.09 2954.64 2831.57 0 0 0
11 2 2673.9 2423 3081.51 0 0 0
12 2 3130.42 2902.6 2676.92 -1 0 -1
13 2 3173.02 2447.83 1905.38 0 0 1
14 2 1851.78 2910.41 2240.3 0 0 0
15 2 2826.46 1892.2 2950.19 0 0 -1
16 2 2096.53 3032.02 1881.88 0 -1 0
17 2 2592.66 2266.15 2776.12 2 1 0
18 2 2447.6 2489.37 2975.2 0 1 -1
19 2 2508.42 2096.78 3008 0 0 0
20 2 2805.66 3117.85 2772.76 0 0 0
21 2 2259.94 2715.54 1886.96 0 1 1
22 2 3168.72 2784.84 2077.03 -1 0 1
23 2 2717.82 2835.77 2253.4 -1 1 0
24 2 3175.82 2058.05 2955.47 0 0 -1
25 2 2507.21 3138.31 3074.27 0 0 0
26 2 2617.3 2339.26 2521.63 0 0 1
27 2 3175.74 2803.43 2948.88 -1 0 0
28 2 3146.71 2568.54 3027.36 -1 0 0
29 2 2844.86 2367.58 2728.34 -1 1 0
30 2 2897.93 2022.36 2951.1 -1 1 0
31 2 1825.54 2945.38 2816.92 0 -1 0
32 2 1893.35 3105.22 2780.91 0 0 0
33 2 2387.94 2245.67 2335.86 0 0 0
34 2 2423.13 1981.18 2965.08 0 1 0
35 2 2642.73 2841.46 3120.86 0 -1 0
36 2 2524.2 3150.17 2776.78 0 0 0
37 2 2134.24 3161.74 2764.75 0 -1 0
38 2 2961.46 2633.14 2942.55 -1 1 -1
39 2 2894.76 2645.77 2125.21 -1 1 0
40 2 2409.71 2237.44 2826.25 0 -1 0
41 2 1911.36 2709.59 2155.68 1 -1 0
42 2 2935.33 2480.37 3106.07 -1 0 -1
43 2 2003.62 2561.21 2378.66 1 0 1
44 2 2774.56 2844.58 3060.34 1 -1 0
45 2 1913.01 2546.16 2268.47 0 0 0
46 2 2818.92 1840.09 2404.82 0 1 0
47 2 2864.29 2563.6 2385.31 -1 0 0
48 2 3043.91 2686.78 1846.16 0 0 0
49 2 2764.13 2602.13 2992.35 0 0 0
50 2 2595.21 2723.37 1894.61 0 0 1
51 2 2798.95 1871.77 2690.32 -1 1 1
52 2 2761.73 2489.94 2212.08 0 0 0
53 2 2337.34 2595.48 1905.22 0 0 1
54 2 2255.52 3144.89 2841.61 0 0 0
55 2 2698.23 1919.45 2576.15 0 0 -1
56 2 2252.8 2273.92 2319.69 0 0 0
57 2 1991.11 2664.24 2865.79 0 0 -1
58 2 3110.17 2331.22 2720.14 -1 0 0
59 2 2756.35 2664.55 2030.85 -1 2 0
60 2 2287.18 2873.02 1840.4 0 0 0
61 2 2859.54 2488.08 2771.98 -1 0 0
62 2 3029.8 2950.4 3047.75 0 -1 0
63 2 3135.42 2867.85 3058.73 -1 0 0
64 2 2957.53 2574.73 1855.03 0 0 1
65 2 2579.27 2341.72 2663.39 0 -1 0
66 2 3069.19 2070.51 2799.64 0 0 -1
67 2 2680.53 1877.26 2956.46 0 1 1
68 2 2127.37 2621.31 2664.64 0 0 1
69 2 2737.48 2113.77 3103.03 0 0 -1
70 2 2169.66 2860.37 2766.39 0 0 0
71 2 3103.94 1830.01 1880.28 -1 0 1
72 2 2571.92 2605.4 2490.86 -1 -1 0
73 2 2798.85 1827.65 2109.21 -2 -1 0
74 2 2334.24 3102.71 3002.38 0 0 -1
75 2 2831.41 2219.57 3141.38 0 0 -1
76 2 2779.01 2454.09 2367.07 0 -1 0
77 2 2808.46 2042.6 1847.58 -1 1 1
78 2 3161.61 1967.41 2839.1 -1 0 0
79 2 2827.95 2678.37 2892.31 -1 0 -1
80 2 2366.65 2754.95 3162.39 0 0 -2
81 2 2615.78 1867.09 2693.57 0 2 0
82 2 2689.03 3084.48 2225.76 -1 0 -1
83 2 2444.09 2968.46 2592.03 0 0 0
84 2 2769.39 2064.52 2984.65 1 1 0
85 2 2713.46 1977.71 3130.14 0 1 -1
86 2 3037.69 2530.44 2035.57 -1 0 1
87 2 2028.69 2521.83 2617.95 1 0 0
88 2 2907.01 2690.23 3158.63 -1 0 0
89 2 2760.71 2710.78 2310.19 0 0 1
90 2 2842.68 2407.88 2852.66 0 1 -1
91 2 2771.18 2753.58 2834.83 0 0 -1
92 2 2531.14 2466.92 3100.72 -1 0 -1
93 2 2582.07 3029.34 3039.45 0 -1 0
94 2 2541.34 2317.16 2907.36 1 1 -1
95 2 2294.54 2236.1 2737.62 0 0 -1
96 2 2260.79 2859.01 3063.91 1 0 0
97 2 3141.14 1915.95 2970.92 0 0 0
98 2 2855.37 3123.77 3142.1 0 -1 -1
99 2 1876.11 2218.48 3177.1 0 0 -1
100 2 2470.77 1891.61 2848.46 1 0 0
101 2 2381.66 2496.1 2812.75 0 0 0
102 2 2214.43 2964.94 1929.39 0 -1 0
103 2 3060.54 2101.04 2190.47 -1 0 0
104 2 2585.3 1859.73 1919.74 0 0 0
105 2 1989.62 1880.56 2841.9 0 0 0
106 2 2730.88 2202.78 1949.48 0 0 0
107 2 2057.73 2282.35 2474.68 0 0 0
108 2 2944.56 2875.57 2006.23 -1 0 0
109 2 2316.86 2227.96 2198.94 0 0 0
110 2 2062.06 2528.61 3179 0 0 -1
111 2 1908.17 3074.52 2922.19 1 -1 -1
112 2 2950.3 1833.58 2463.9 -1 -1 0
113 2 2208.6 2866.42 2307.5 0 -1 0
114 2 2600.83 2540.12 2231.65 0 0 1
115 2 3001.89 2164.51 2928.3 -1 0 -1
116 2 2351.29 2336.17 2620.04 0 0 0
117 2 2463.46 2886.94 2029.6 0 -1 1
118 2 1903.52 2952.64 2694.71 0 -1 0
119 2 2439.94 1895.93 1951.45 0 0 0
120 2 2996.76 3031.15 2375.65 -1 -1 0
121 2 2891.09 2161.06 2589.56 -1 0 0
122 2 1949.01 3094.96 3058.85 0 -1 -1
123 2 2210.71 2244.76 1841.32 0 0 0
124 2 2089.82 1917.21 1847.42 0 0 0
125 2 1859.4 2886.17 3175.79 0 -1 -1
126 2 3095.16 2261.2 2033.92 -1 0 0
127 2 3062.05 2454.84 2517.24 -1 0 0
128 2 2060.26 3127.67 2073.38 0 -1 0
129 2 1842.46 2341.61 2944.93 0 0 -1
130 2 3170.21 1933.73 2625.63 -1 0 0
131 2 1994.88 3177.42 2701.89 0 -1 -1
132 2 1885.65 2588.26 2922.94 0 0 -1
133 2 2408.19 2030.66 1999.19 0 0 0
134 2 1906.61 2818.78 3050.11 1 -1 0
135 2 2103.76 2292.84 2111.48 0 0 0
136 2 2795.42 2693.89 2452.59 0 -1 -1
137 2 2602.96 2213.44 2661.93 0 1 0
138 2 3141.95 2183.05 2678.09 -1 0 0
139 2 2882.56 2239.77 2296.16 -1 0 0
140 2 2691.03 2345.52 1908.94 -1 -1 0
141 2 2805.21 2263.05 2832.25 -1 0 0
142 2 3074.05 2510.43 3137.01 -1 0 -1
143 2 2299.84 1917.1 1980.72 0 0 0
144 2 3154.89 2156.12 2284.63 -1 0 0
145 2 2002.26 2273.52 2610.72 0 0 0
146 2 2446.3 2516.31 1853.85 0 0 0
147 2 1855.26 2065.51 2177.76 0 0 0
148 2 2267.77 1939.36 3030.81 0 0 -1
149 2 2379.56 1934.16 2103.38 0 0 0
150 2 1881.85 2826.78 2755.99 0 0 0
151 2 2620.67 2279.87 2217.07 0 0 -1
152 2 2988.67 2424.45 2642.31 -1 0 -1
153 2 2259.45 3148.72 2382.69 0 -1 0
154 2 2235.79 2370.65 1908.79 0 0 0
155 2 2578.64 3177.09 2548.32 0 -1 0
156 2 2927.03 1880.31 2060.91 -1 0 0
157 2 2852.58 3098.1 2009.77 0 -1 0
158 2 2742.12 3056.91 2089.92 0 -1 0
159 2 1962.84 2880.1 2151.01 0 -1 0
160 2 2120.6 2641.63 2919.69 1 0 0
161 2 2904.91 2268.32 3010.38 -1 0 -1
162 2 2482.39 1873.44 2318.88 0 0 0
163 2 2682.98 2950.99 2174.39 0 0 0
164 2 2768.46 2167.7 2364.39 0 0 0
165 2 2311.01 2029.88 1893.5 0 0 0
166 2 2895.99 2424.27 1873.61 0 0 0
167 2 2183.58 1837.95 2608.51 0 0 0
168 2 2056.98 2052.16 1894.63 0 0 0
169 2 1861.64 3167.08 3154.22 0 -1 -1
170 2 2893.56 3130.7 2931.43 -1 0 0
171 2 2050.65 2776.32 2372.73 0 -1 0
172 2 3164.79 2164.04 1925.98 -1 0 0
173 2 2233.74 2591.06 3170.96 0 0 -1
174 2 2963.23 2036.52 2590.98 -1 0 -1
175 2 1860.38 2077.73 1824.13 0 0 0
176 2 2118.38 2801.59 2646.06 0 0 0
177 2 3155.11 2798.49 2330.27 0 -1 0
178 2 1925.52 2489.55 3133.57 0 0 -1
179 2 2347.2 2355.18 2250.32 0 0 0
180 2 1969.53 2962.47 1873.04 0 -1 0
181 2 2754.8 3145.68 2908.7 -1 -1 -1
182 2 2460.42 3108.33 1892.12 0 -1 0
183 2 2927.57 1836.28 2193.02 -1 0 0
184 2 1886.49 2269.55 2237.95 0 0 0
185 2 2329.21 3055.52 2470.59 0 -1 0
186 2 2047.98 2590.12 1943.77 0 0 0
187 2 2978.1 2333.06 2522.97 -1 0 0
188 2 3058.5 1953.94 1841.54 -1 0 0
189 2 2650.12 2210.21 2424.78 0 0 -1
190 2 2696.42 1834.56 1837.59 0 0 0
191 2 2050.64 2101.36 3012.02 0 0 -1
192 2 3178.9 2340.26 2126.07 -1 0 0
193 2 2201.66 2354.57 2740.4 0 1 0
194 2 2237.01 2718.23 3108.32 0 0 -1
195 2 3108.37 2576.93 1923.42 -1 0 0
196 2 2650.86 1863.62 2041.62 0 0 0
197 2 1949.47 2293.02 1915.14 0 0 0
198 2 2726.66 2090.26 2124.06 0 0 0
199 2 2085.19 2113.91 2265.38 0 0 0
200 2 3032.16 2609.16 2161.15 -1 0 0
201 2 2839.37 2825.58 2934.31 0 -1 -1
202 2 3046.82 2557.21 2617.42 -1 0 0
203 2 1958.26 2922.87 2011 0 -1 0
204 2 2583.17 2135.43 2526.18 0 0 0
205 2 3068.42 3140.72 2635.77 -1 -1 0
206 2 3141.63 2456.52 2629.8 -1 0 0
207 2 3065.2 2699.06 2808.46 0 0 0
208 2 1882.46 2050.54 2565.65 0 0 0
209 2 2881.18 2929.3 2389.04 1 -2 2
210 2 2487.04 2320.71 2238.73 0 0 0
211 2 2536.31 3130.92 2014.8 0 -1 0
212 2 2475.51 3020.91 2800.82 -1 -2 -1
213 2 2447.5 1838.25 2183.61 0 0 0
214 2 2280.44 2810.01 2077.88 0 -1 0
215 2 2813.46 2183.05 2063.88 0 0 0
216 2 2175.95 3044.55 2927.56 0 -1 -1
217 2 2864.73 3075.7 2164.04 -1 -1 0
218 2 2645.62 2141.23 2999.61 1 1 -1
219 2 2086.24 2994.91 2024.86 0 -1 0
220 2 2938.3 2281.96 2035.1 -1 0 0
221 2 2685.95 1889.48 2180.54 1 0 -1
222 2 3128.69 1958.63 2223.36 -1 0 0
223 2 2626.25 2892.34 2354.97 0 -2 -1
224 2 2149.79 3029.52 2780.49 0 -1 -1
225 2 2261.67 3170.34 2071.34 0 -1 1
226 2 2453.26 2006.99 1866.38 0 0 0
227 2 2190.97 2287.16 2966.68 0 0 0
228 2 2624.14 2458.05 1843.73 0 0 0
229 2 1944.72 1868.89 1886.99 0 0 0
230 2 2310.35 2198.53 2925.98 0 0 -1
231 2 2150.85 3171.21 2474.1 0 -1 0
232 2 2389.32 2435.98 2514.94 0 0 0
233 2 2121.67 3145.22 3160.37 0 -1 -1
234 2 2545.85 2002.31 1975.83 0 0 0
235 2 2162.22 2266.81 1978.78 0 0 0
236 2 1969.2 1982.4 3162.26 0 0 -1
237 2 2872.56 2113.66 3058.9 -1 0 -1
238 2 1822.52 2040.06 2718.88 0 0 0
239 2 3171.65 2285.97 3071.32 -1 0 -1
240 2 2649.26 2144.08 2288.07 0 0 0
241 2 2877.25 2598.13 3049.29 -1 0 -1
242 2 2532.56 1882.94 2974.14 0 0 0
243 2 3060.1 2970.47 2796.24 0 0 0
244 2 2212.24 2053.94 2475.47 0 0 0
245 2 1940.44 2256.32 2917.6 0 0 -1
246 2 2464.02 3075.79 2512.98 0 -1 -1
247 2 2121 2465.14 1932.77 0 0 0
248 2 2881.19 2269 2167 -1 0 0
249 2 2981.45 2829.71 2381.45 -1 -1 0
250 2 2732.05 2472.91 2934.16 -1 1 -1
251 2 2156.51 2938.36 3007.37 0 -1 0
252 2 1934.31 2057.22 2433.7 0 0 0
253 2 2849.5 2530.06 2928.01 0 0 -2
254 2 2539.4 2975.67 2216.97 0 -1 0
255 2 3028.34 2811.33 2588.21 0 0 0
256 2 2836.07 2462.5 2632.52 0 1 -1
257 2 2327.56 3080.04 2157.28 0 -1 0
258 2 2097.43 2783.04 2896.69 0 0 -1
259 2 2259.54 2221.97 3066.33 0 0 -1
260 2 2121.85 2512.16 3052.37 0 0 -1
261 2 2458.35 2126.94 3143.86 0 0 -1
262 2 1895.02 2647.2 2038.31 0 0 0
263 2 2374.11 1946.63 2474.02 0 0 0
264 2 3074.72 1835.42 2872.34 -1 0 -1
265 2 2005.15 2077.22 2026.57 0 0 0
266 2 2514.9 1897.9 2076.69 0 0 0
267 2 2097.05 1909.67 2384.58 0 0 0
268 2 2361.77 2443.56 3065.79 0 0 -1
269 2 2411.84 2580.77 2694.51 0 0 0
270 2 2552.91 1945.74 2593.89 0 -1 -1
271 2 2307.23 2829.95 2213.97 0 -1 0
272 2 3052.74 1988.74 2685.67 -1 0 0
273 2 1894.28 2551.56 2642.61 0 0 0
274 2 2119.29 3133.41 2340.29 0 -1 0
275 2 2241.03 2580.07 2098.6 0 0 0
276 2 2608.16 2002.87 3010.74 -1 1 0
277 2 1916.04 2006.45 1934.32 0 0 0
278 2 2675.51 2534.18 1970.35 0 0 0
279 2 2188.16 2620.36 1968.42 0 0 0
280 2 3055.77 2878.37 2088.47 -1 -1 0
281 2 3172.66 3078.81 2560.77 -1 -1 -1
282 2 2867.82 2466.71 2476.69 0 0 0
283 2 2994.92 1944.82 3071.01 -1 0 -1
284 2 3088.77 2116.55 2045.02 -1 0 0
285 2 2034.01 2674.03 2058.13 0 -1 0
286 2 2579.65 2434.69 2969.81 -1 0 -1
287 2 2394.61 2143.08 2690.28 0 0 0
288 2 2327.43 3143.01 1930.93 0 -1 0
289 2 2744.62 2314.86 2375.44 0 0 1
290 2 2891.28 2475.84 2282.65 -1 0 0
291 2 1903.17 3173.83 2521.54 0 -1 0
292 2 2066.3 2077.01 2771.44 1 0 0
293 2 3013.31 2195.27 2291.19 -1 0 0
294 2 2880.97 3073.79 2429.4 0 -1 0
295 2 2058.72 2413.59 2969.63 0 0 -1
296 2 1848.1 3027.1 1824.7 0 -1 0
297 2 1825.88 2512.93 2026.45 0 0 0
298 2 3155.54 2146.33 3082.65 -1 0 -1
299 2 3004.51 2933.57 2470.45 -1 -1 0
300 2 1966.31 2307.97 2361.87 0 0 0
301 2 2115.01 1973.46 2215.21 0 0 0
302 2 1900.54 2293.62 2489.02 0 0 0
303 2 2493.31 2246.82 1851.39 0 0 0
304 2 2453.9 2184.03 2558.02 0 -1 0
305 2 2740.04 2530.31 2675.2 0 -1 0
306 2 2891.06 2363.93 2371.15 -1 0 0
307 2 2306.59 2118 2806.6 -1 0 -1
308 2 2937.39 3153.46 2335.82 -1 -1 0
309 2 2542.42 2282.38 2096.47 0 0 0
310 2 2602.73 3028.65 2338.27 -1 -1 0
311 2 2510.68 2675.56 2149.6 0 0 -1
312 2 2142.78 2792.45 3027.16 0 -1 -1
313 2 2228.81 2408 2286.19 0 0 0
314 2 2207.23 1850.09 1891.82 0 0 0
315 2 2365.79 2688.19 3034.07 0 0 -1
316 2 2502.69 1982.35 3091.62 0 0 -1
317 2 2604.3 1882.11 3099.85 0 0 -1
318 2 1992.4 2611.8 2724.67 0 0 0
319 2 3152.49 2702.72 2438.44 -1 0 0
320 2 2021.65 2174.88 2381.3 0 0 0
321 2 2920.6 3175.61 2666.68 -1 -1 -1
322 2 2034.64 1897.62 2118.42 0 0 0
323 2 1938.12 2682.15 2402.57 0 0 0
324 2 3138.63 3067.08 2856.26 -1 -1 -1
325 2 3080.26 2925.92 2327.56 -1 -1 0
326 2 3050.12 1876.23 2120.99 -1 0 0
327 2 1850.77 1944.58 2474.35 0 0 0
328 2 2403.45 3131.28 2755.15 0 -1 0
329 2 2888.55 1845.37 2794.49 0 0 0
330 2 2988.1 2658.76 1972.19 -1 0 0
331 2 2850.09 2583.88 1957.07 -1 0 0
332 2 2716.98 2318.38 3127.97 0 -1 0
333 2 1847.04 2574.88 2395.9 0 0 0
334 2 2343.96 1898.83 1844.63 0 0 0
335 2 2235.23 2824 2554.52 0 0 -1
336 2 2234.44 1923.16 2429.31 0 0 0
337 2 2535.64 2215.48 3079.45 0 0 -1
338 2 2515.85 2250.57 2453.05 0 -1 -1
339 2 2114.5 3085.84 2655.05 0 -1 -1
340 2 2657.11 2049.7 2622.28 0 0 0
341 2 3107.95 2669.59 2952.37 -1 0 -1
342 2 2662.86 2419.27 2273.73 0 0 0
343 2 3026.52 2465.96 2255.87 -1 0 0
344 2 2183.53 2395.25 2042.04 0 0 0
345 2 2977.24 2308.11 3155.42 -1 0 -1
346 2 2304.16 2706.25 2555.79 0 -1 0
347 2 2395.15 2251.71 3105.52 -1 0 -1
348 2 1970.29 2499.09 2021.51 0 0 0
349 2 2087 2895.11 1917.33 0 -1 0
350 2 2383.17 2476.53 2332.03 0 0 0
351 2 2043.4 2016.99 2898.29 0 0 0
352 2 1944.68 1913.55 2609.92 0 0 0
353 2 3122.87 1868.93 2736.67 -1 0 0
354 2 2032.28 1860.55 2259.65 0 0 0
355 2 1939.39 2541.52 2503.52 0 0 0
356 2 1852.59 2026.29 2313.63 0 0 0
357 2 2765.26 2432.39 2776 0 0 0
358 2 2237.84 2077.25 3078.73 0 0 -1
359 2 1943.05 1832.07 2027.27 0 0 0
360 2 2466.43 2649.21 2033.54 0 0 0
361 2 3109.23 1866.83 3106.17 -1 0 -1
362 2 2186.53 2787.25 2426.43 0 0 0
363 2 2171.98 3035.04 2426.54 0 -1 0
364 2 2412.29 2747.63 2095.77 0 -1 0
365 2 2756.91 2525.85 2471.1 0 0 0
366 2 2945.38 2248.03 2869.1 0 0 -1
367 2 2746.25 3164.54 2515.38 0 -1 0
368 2 3016.09 2842.9 2731.12 -1 -1 0
369 2 2264.99 2173.61 2611.08 0 0 0
370 2 2877.41 2286.6 1905.64 -1 0 0
371 2 2266.27 1955.16 2565.11 0 0 0
372 2 2743.55 2008.02 2729.13 0 0 0
373 2 2575.83 2599.28 1843.07 0 0 1
374 2 2619.13 2381.35 2035.36 0 0 0
375 2 2316.69 2483.86 2930.02 -1 0 0
376 2 2912.08 2839.38 2160.12 0 0 0
377 2 2937.07 2423.55 2013.79 -1 0 0
378 2 2278.03 2339.97 2863.49 1 0 -1
379 2 1860.53 2408.96 2751.19 0 0 -1
380 2 2772.07 2216.9 3020.5 -1 0 -1
381 2 2592.54 2094.52 3118.44 0 0 -1
382 2 2912.75 1926.55 2688.37 0 0 0
383 2 2785.1 2312.57 2019.56 -1 -1 -1
384 2 2599.12 1992.25 2742.43 0 0 0
385 2 2117.31 1941.76 2807.31 0 -1 0
386 2 2366.24 2134.21 3034.74 0 0 -1
387 2 2180.95 3063.1 2117.3 0 -1 0
388 2 1910.12 1937.67 2216.05 0 0 0
389 2 2028.39 2840.15 2758.42 0 -1 -1
390 2 2171.62 2730 2062.5 0 -1 1
391 2 1855.21 3127.13 1932.54 0 -1 0
392 2 2795.71 2449.82 1970.29 -1 0 0
393 2 3115.19 2473.58 2135.11 -1 0 0
394 2 2908.89 2725.8 2594.74 -1 1 0
395 2 1857.75 3087.58 2069.04 0 -1 0
396 2 2148.51 2742.13 2270.7 0 -1 0
397 2 2236.48 1943.67 2112.4 0 0 0
398 2 2804.67 2857.11 1943.12 -1 -1 1
399 2 3171.65 2709.79 1932.34 -1 -1 0
400 2 2609.18 2869.51 1905.1 -1 -1 0
401 2 3116.4 3068.78 2297.04 -1 -1 0
402 2 3083 3091.61 3138.95 -1 -1 -1
403 2 2160.14 2150.52 2384.64 0 0 0
404 2 1918.26 1967.86 2070.29 0 0 0
405 2 3107 2541.52 2887.63 -1 0 -1
406 2 3006.85 2135.4 2681.03 0 0 0
407 2 2940.14 2146 2813.12 -1 0 0
408 2 2563.93 2877.91 2600.61 0 -1 0
409 2 3139.31 1985.37 2077.84 -1 0 0
410 2 3136.24 2003.44 3088.72 0 1 0
411 2 2066.74 2365.18 2693.56 0 0 0
412 2 2660.46 3113.18 1945.97 -1 0 1
413 2 2108.32 2390.34 2559.54 0 0 0
414 2 1956.37 2809.86 2887.83 0 -1 -1
415 2 2029.87 1938.06 1982.15 0 0 0
416 2 1847.92 3134.09 2390.43 0 -1 0
417 2 2922.57 2140.17 2200.71 -1 0 0
418 2 2608.46 1893.38 2841.08 0 0 0
419 2 2025.89 2865.85 2988.09 1 0 -1
420 2 2686.24 2200.4 2866.71 0 0 0
421 2 2356.57 2944.66 2112.61 0 -1 0
422 2 3116.15 2571.44 2288.23 -1 0 0
423 2 2053.71 2525.28 2245.55 0 0 0
424 2 3038.64 3150.72 3004.32 -1 0 -1
425 2 2285.09 2863.2 2677.8 0 -1 -1
426 2 2696.22 2650.28 1868.14 0 0 0
427 2 1935.2 2113.99 2924.06 0 0 0
428 2 2370.74 3111.9 3148.88 0 -1 -1
429 2 3101 2928.64 2930.49 -2 0 0
430 2 1826.44 2279.28 2827.35 0 0 -1
431 2 1959.29 2317.53 2119.85 0 0 0
432 2 2173.31 2833.8 2166.27 0 -1 0
433 2 2360.83 2011.42 3119.08 0 0 -1
434 2 2863.58 3039 2304.87 -1 -1 0
435 2 2797.25 2538.85 2083.98 -1 0 0
436 2 3026.57 2323.79 1927.46 -1 0 0
437 2 2126.37 1943.38 2522.38 0 0 0
438 2 3107.92 2394.17 2832.91 -1 1 0
439 2 2172.02 2504.99 2916 0 0 -1
440 2 2378.11 2605.47 2906.06 0 0 -1
441 2 2054.59 2245.59 3008.61 0 0 -1
442 2 2164.1 2381.47 2431.91 0 0 0
443 2 2295.43 1823.4 2520.26 0 0 0
444 2 2000.51 2005.39 2309.62 0 0 0
445 2 2131.6 2171.08 3108.34 0 0 -1
446 2 2708.97 2982.15 3088.57 1 0 -1
447 2 2203.49 1882.52 2294.93 0 0 0
448 2 2952.75 1985.97 2234.03 -1 0 0
449 2 1847.66 2689.97 2813.96 0 0 0
450 2 1925.2 2195.48 3043.38 0 0 -1
451 2 2588.13 1980.69 1841.74 0 0 0
452 2 1948.96 2407.66 2624.94 0 0 0
453 2 2061.75 3164.43 1932.65 0 -1 0
454 2 2501.78 3101.84 2267.34 0 -1 0
455 2 1942.75 2775.74 2026.21 0 -1 0
456 2 2298.54 2172.78 2418.12 0 0 0
457 2 2070.48 2863.21 2271.86 0 -1 -1
458 2 2342.89 1855.16 2647.7 0 0 1
459 2 1905.83 1960.82 2937.87 1 0 -1
460 2 2430.09 2419.91 2658.11 0 -1 0
461 2 2539.24 3136.05 2404.3 -1 -1 0
462 2 1958.65 2034.52 2678.12 0 0 0
463 2 1968.16 2827.39 1886.16 0 -1 0
464 2 2587 2324.02 2356.74 0 0 0
465 2 2775.92 1957.66 2467.31 0 0 0
466 2 2525.98 2442.75 2485.09 0 0 -1
467 2 2754.87 1892.44 2825.67 0 1 0
468 2 3109.82 2289.72 2244.96 -1 0 0
469 2 2665.27 2014.9 2237.86 0 0 0
470 2 3111.66 2847.51 2461.27 -1 -1 0
471 2 3015.51 2228.52 2155.42 -1 0 0
472 2 2816.44 1936.38 2202.66 -1 0 0
473 2 2317.64 2153.22 3173.36 0 0 -1
474 2 3067.44 2778.29 1987.3 -1 0 1
475 2 1838.72 2844.05 1954.34 0 -1 0
476 2 3159.69 2198.66 2147.91 -1 0 0
477 2 2534.6 2062.47 2260.11 0 0 0
478 2 2998.15 1920.46 2359.17 -1 0 0
479 2 1839.53 2991.37 1966.07 0 -1 0
480 2 2074.39 2300.16 2880.48 0 0 0
481 2 2435.55 2141.63 2419.7 0 0 0
482 2 2287.61 2752.91 2328.34 0 0 0
483 2 2549.95 2760.88 2043.66 0 -1 0
484 2 2924.63 3078.79 3070.88 -1 0 -1
485 2 2833.62 2612.8 2250.18 0 1 0
486 2 2173.57 2470.73 2168 0 0 0
487 2 1954.44 3067.91 2612.53 0 -1 0
488 2 2244.85 2474.34 2802.42 0 0 -2
489 2 2903.13 2715.88 2378.65 -1 1 0
490 2 2803.92 2623.22 2589.16 0 1 0
491 2 1951.41 3109.18 2301.23 0 -1 0
492 2 2844.36 2815.62 3173.29 0 0 -1
493 2 2888.49 2142.24 1924.84 -1 0 0
494 2 2377.63 2399.32 1945.25 0 0 0
495 2 1949.26 2791.9 2272 0 -1 0
496 2 2100.2 2342.16 1869.58 0 0 0
497 2 1998.11 2927.2 2525.34 0 -1 0
498 2 2037.44 3110.93 2870.67 -1 -1 -1
499 2 2544.68 2177.32 2897.49 0 0 0
500 2 2231.33 2340.72 2168.27 0 0 0
501 2 2238.23 3101.33 2698.57 0 -1 -1
502 2 2597.81 3029.77 2091.4 0 -1 0
503 2 2858.78 2044.66 2108.32 -1 0 0
504 2 2337.45 1901.07 2333.26 0 0 0
505 2 1825.14 2324.54 2365.01 0 0 0
506 2 2145.71 2263.9 2630.4 0 0 0
507 2 2462.46 3131.4 2934.38 0 -1 -1
508 2 2142.17 2122.61 1991.44 0 0 0
509 2 3138.43 1907.86 2352.66 -1 0 0
510 2 2270.2 2971.38 2972.37 0 0 0
511 2 3050.83 2706.71 2329.98 -1 -1 0
512 2 1951.05 2303.44 2741.2 0 0 -1
513 2 2404.34 3161.68 2054.02 0 -1 0
514 2 3027.16 3077.21 2501.42 0 0 -1
515 2 2349.04 2273.91 1880.64 0 0 0
516 2 2207.67 2851.26 2927.72 0 0 0
517 2 2404.16 2311.41 2122.35 0 0 0
518 2 2564.75 3012.88 1930.83 0 0 0
519 2 1859.06 3168.09 2654.09 -1 -1 -1
520 2 2639.12 3066.46 2472.6 0 -1 -1
521 2 2621.85 2211.7 1830.34 -1 0 0
522 2 2767.97 2136.46 2660.56 -1 0 0
523 2 1966.86 2158.58 2789.07 0 0 0
524 2 3134.37 2629.45 2706.98 -1 -1 0
525 2 1875.86 3006.16 2339.46 0 -1 0
526 2 2982.17 3116.06 2091.17 -1 -1 0
527 2 2366.81 2187.45 2057.13 0 0 0
528 2 3040.39 2197.42 2547.23 -1 0 0
529 2 2263.59 2708.04 2163.99 0 -1 0
530 2 2647.43 2898.28 2489.6 -1 0 0
531 2 1883.91 2385.01 2012.14 0 0 0
532 2 2766.52 1860.06 1967.71 0 0 0
533 2 2676.78 2087.74 1875.63 0 0 0
534 2 2774.29 2071.7 1986.77 0 0 0
535 2 2203.09 2830.67 1959.16 0 -1 0
536 2 3038.99 2011.68 2931.14 -1 0 -1
537 2 3091.38 2976.4 2192.07 -1 -1 0
538 2 2682.18 2787.69 1994.54 0 -1 0
539 2 2820.17 1905.95 1825.82 -1 0 0
540 2 2759.16 2205.51 2210.33 0 0 0
541 2 2703.64 2772.44 1848.69 -1 0 0
542 2 2234.96 2707.57 2967.2 0 0 -1
543 2 2989.02 3071.08 2231.83 -1 -1 0
544 2 2010.02 2522.11 2879.14 0 0 -1
545 2 2439.24 2544.38 2457.03 -1 -1 -1
546 2 2521.78 2202.7 2320.15 0 0 0
547 2 2680.07 1964.31 1952.98 0 0 0
548 2 2459.22 2008.53 2367.16 0 0 0
549 2 2379.52 2281.14 2481.16 0 0 0
550 2 2700.71 2960.91 1953.25 0 -1 0
551 2 3126.55 2460.32 2387.82 -1 0 0
552 2 2593.03 1962.21 2340.95 0 0 0
553 2 1938.07 2133.81 2268.69 0 0 0
554 2 3116.14 2321.68 2535.81 -1 0 0
555 2 2206.27 2969.7 2666.22 -1 0 0
556 2 2249.19 1828.48 3119.3 0 0 -1
557 2 3166.03 3000.98 3049.35 0 0 -1
558 2 2331.69 2994.5 2711.23 -1 -1 -1
559 2 2725.3 1913.25 2316.6 0 1 0
560 2 2178.69 2950.88 3154.24 0 -1 -1
561 2 2512.23 2778.98 3165.87 0 -1 0
562 2 2572.35 3158.69 2154.22 0 -1 0
563 2 2335.78 2666.9 2786.49 -1 0 0
564 2 2160.16 2051.98 2608.14 0 0 0
565 2 2388.16 2617.31 2126.08 0 0 0
566 2 2412.1 2383.35 2894.83 0 0 -1
567 2 2041.57 2367.63 2003.11 0 0 0
568 2 2953.47 2776.8 1889.26 0 0 0
569 2 2181.09 2021.12 2338.94 0 0 0
570 2 3071.12 2588.71 2420.03 -1 0 -1
571 2 2713.95 3046.1 3179.29 -2 -1 -1
572 2 2988.16 1821.72 3165.74 -1 0 -1
573 2 2607.92 3136.93 2945.52 0 -1 -1
574 2 2659.22 2751.67 2133.27 0 0 0
575 2 2438.13 3039.45 2379.41 0 -1 0
576 2 2859.21 1891.62 2565.9 0 0 0
577 2 2445.9 2360.69 2395.22 0 0 0
578 2 2708.5 2570.78 2308.38 0 0 1
579 2 2734.3 2389.86 2634.3 0 0 0
580 2 2346.87 2076.44 2154.64 0 0 0
581 2 2154.14 2007.46 2983.51 0 0 -1
582 2 2026.71 3007.92 2968.98 0 -1 0
583 2 2681.4 2232.34 2086.44 0 0 0
584 2 1830.21 2597.2 2160.5 0 0 0
585 2 1943.12 2171.99 2133.94 0 0 0
586 2 2036.39 2643.6 2486.97 0 0 0
587 2 3051.43 1918.27 1988.69 -1 0 0
588 2 1880.77 2359.6 3168.44 0 0 -1
589 2 1880.59 2187.65 2399.69 0 0 0
590 2 2487.37 2037.82 2504.86 0 0 0
591 2 2821.72 2939.48 2204.76 -1 -1 0
592 2 2145.36 1872.84 2026.73 0 0 0
593 2 3007.33 3108.43 2777.24 -1 -1 -1
594 2 2354.03 3082.83 2604.48 0 -1 0
595 2 2109.66 2901.35 2402.81 0 -1 0
596 2 2035.64 2438.76 2131.12 0 0 0
597 2 3040.16 2229.91 3057.64 -1 0 -1
598 2 2800.39 2072.34 2257.85 -1 0 0
599 2 2249.23 2910.03 2440.78 0 0 0
600 2 2469.77 3069.54 2138.04 0 -1 0
601 2 1924.04 3044.61 2477.21 0 -1 0
602 2 2607.44 2639.92 2054 0 0 0
603 2 2904.77 2594.02 2661.76 -1 1 0
604 2 2479.33 2534.61 2565.86 0 -1 -1
605 2 2458.82 2570.85 2244.8 -1 -1 0
606 2 2117.07 2004.69 2073.56 0 0 0
607 2 2439.62 2233.25 2967.95 0 0 -1
608 2 2248.93 2658.64 2437.28 -1 0 -1
609 2 2508.58 2551.41 2108.47 0 -1 -1
610 2 3085.66 3056.3 1917.87 0 -1 0
611 2 2539.44 2968.2 2449.21 0 -1 0
612 2 2350.36 2550.72 2570.97 0 0 0
613 2 2594.01 3110.21 1830.5 0 -1 0
614 2 1947.13 2145.95 1917.19 0 0 0
615 2 1940.98 2331.94 3037.79 0 0 -1
616 2 2319.18 2428.15 2092.93 0 0 0
617 2 1836.76 3177.77 2257.37 0 -1 0
618 2 2296.98 2303.25 2019.04 0 0 0
619 2 1822.54 2418.99 2256.38 0 0 0
620 2 2750.78 1954.1 2070.96 0 1 1
621 2 2306.45 2951.89 2571.24 0 -1 0
622 2 2222.16 1960.82 3166.55 0 0 -1
623 2 2975.13 2477.39 2864.19 -1 0 -1
624 2 2593.45 2133.5 2143.79 0 0 0
625 2 2225.33 2196.53 2083.85 0 0 0
626 2 2618.05 2888.37 2049.71 0 0 1
627 2 2923.01 1971.08 2467.69 -1 0 0
628 2 3018.64 2512.93 3002.42 -1 0 0
629 2 2457.32 2906.3 1886.49 0 0 0
630 2 2791.62 2658.28 2726.12 0 0 0
631 2 1825.59 2181.01 2537.83 0 0 0
632 2 2421.17 1975 2234.23 0 0 0
633 2 2215.28 2736.2 2827.21 0 0 0
634 2 1821.49 2611.4 3159.98 0 0 -1
635 2 1965.31 2171.09 2515.74 0 0 0
636 2 2167.78 2708.43 2550.06 0 0 0
637 2 2183.31 2147.47 2968.28 0 0 -1
638 2 2405 2994.17 2244.43 0 -1 0
639 2 2679.66 2004.44 2858.1 0 0 0
640 2 2254.83 2416.96 2534.88 0 0 0
641 2 2238.02 3075.29 1839.73 0 -1 0
642 2 2178.31 3098.14 1978.41 0 -1 0
643 2 3002.83 2739.08 2112.68 -1 0 0
644 2 2553.68 1929.8 2209.97 0 0 0
645 2 2917.98 3019.6 2824.49 -1 -1 0
646 2 2350.73 1858.99 2929.63 0 0 0
647 2 2353.02 2082.23 2522.86 0 0 0
648 2 2403.12 2521.79 2019.67 0 0 0
649 2 2119.15 2669.92 1845.42 0 0 0
650 2 1923.04 1886.78 2351.5 0 0 0
651 2 2545.48 2121.55 1893.51 0 0 0
652 2 2082.33 2233.59 2751.83 0 0 0
653 2 2395.45 1875.23 3066.2 0 0 -1
654 2 2019.22 1962.28 3026.57 0 0 -1
655 2 2575.35 2813.55 2243.28 0 0 0
656 2 2230.13 2276.74 2507 0 0 0
657 2 2012.7 3042.73 2739.59 0 -1 0
658 2 3120.82 2765.66 2706.67 -1 0 -1
659 2 1998.26 2122.2 3147.05 0 0 -1
660 2 1920.02 2163.5 2641.16 0 0 0
661 2 2986.99 2280.77 2657.31 0 0 -1
662 2 2081.95 2508.79 2481.75 0 0 0
663 2 1825.53 3153.63 3011.84 -1 0 -1
664 2 2612.22 1827.95 2289.23 0 0 0
665 2 2822.99 3095.79 3044.92 -1 0 -1
666 2 2201.78 2077.93 2163 0 0 0
667 2 2400.15 2109.84 2285.74 0 0 0
668 2 2336.38 2802.38 2457.75 -1 -1 1
669 2 2619.29 2671.47 2269.6 0 0 1
670 2 2062.6 3057.54 2515.13 0 -1 0
671 2 1860.94 2938.54 2562.9 0 -1 -2
672 2 2947.33 2037.59 3164.94 -1 0 -1
673 2 2145.1 2938.94 2536.03 0 0 0
674 2 2905.25 2417.35 2996.33 -1 0 -1
675 2 1976.89 2894.05 2373.29 0 -1 0
676 2 2858.4 1982.17 2808.23 0 0 -1
677 2 2033.72 3023.96 2381.77 0 -1 0
678 2 2096.22 1890.9 2933.93 0 0 -1
679 2 2137.21 1894.65 3070.65 0 0 -1
680 2 3108.36 3112.51 2160.89 -1 -1 0
681 2 2523.11 2446.67 2298.69 0 0 0
682 2 2504.92 2151.94 2029.66 0 0 0
683 2 1961.73 2392.97 2245.04 0 0 0
684 2 3041.28 2818.37 2973.76 -1 0 -1
685 2 2224.86 2723.97 2678.99 0 0 0
686 2 2265.1 2060.61 2032.67 0 0 0
687 2 2699.55 2042.81 2369.35 0 0 0
688 2 2757.98 2980.76 2440.2 -1 -1 0
689 2 2007.59 2660.39 2273.33 0 0 0
690 2 2892.33 2992.04 2961.92 0 -1 -1
691 2 2972.09 2586.36 2294.91 -1 0 0
692 2 2848.66 1971.55 3070.74 0 0 -1
693 2 2047.35 1829.35 2567.07 0 0 0
694 2 3094.27 2951.91 3174.28 -1 0 -1
695 2 2535.49 2365.95 1918.16 0 0 0
696 2 2476.66 2330.63 2565.54 -1 -1 0
697 2 3160.03 2556.7 2530.47 0 -1 -1
698 2 3008.25 2091.23 2456.38 -1 0 0
699 2 2434.33 2781.01 2357.98 0 -1 0
700 2 3102.33 2370.83 3173.37 -1 0 -1
701 2 2082.59 2191.69 1882.35 0 0 0
702 2 2494.38 2370.82 2773.62 0 0 0
703 2 2220.23 3070.03 2562.81 0 -1 0
704 2 1864.53 3043.66 2212.33 0 -1 0
705 2 2301.37 2456.76 2670.55 0 0 0
706 2 1955.59 2628.28 3147.02 1 0 -1
707 2 2012.58 3157.53 2428.86 0 -1 0
708 2 2515.44 2078.56 2635.44 0 0 0
709 2 1951.48 2690.03 1914.76 1 0 0
710 2 3135.67 2024.3 1942.85 -1 0 0
711 2 2822.13 2239.03 2471.24 0 0 0
712 2 2642.88 2114.62 2012.53 0 1 0
713 2 2014.11 2728.22 2992.9 0 0 0
714 2 3010.79 2689.24 2685.25 -1 0 0
715 2 1873.62 2738.88 3166.95 1 0 0
716 2 2283.31 3014.65 2336.11 0 -1 0
717 2 2218.86 3178.69 2980.72 0 -1 -1
718 2 2226.1 3107.5 2249.49 0 -1 0
719 2 2206.21 2548.96 2561.52 0 0 0
720 2 2076.65 2811.82 2510.59 0 0 0
721 2 2456.6 2189.79 2171 0 0 0
722 2 3035.37 2461.39 1908.48 -1 0 0
723 2 2166.58 2514.06 2371.33 0 0 0
724 2 3120.45 2723.61 3085.18 -1 0 -1
725 2 2660.93 3109.04 3072.99 0 0 0
726 2 2720.4 2249.27 2573.91 0 0 -1
727 2 2961.23 2977.19 2126.08 0 -1 0
728 2 2313.49 2474.95 1842 0 0 0
729 2 2980.85 2478.29 2384.66 -1 0 0
730 2 1936.16 2802.93 2492.69 0 -1 0
731 2 2104.3 2279.01 2340.84 0 0 0
732 2 2556.06 2577.43 2357.02 0 0 0
733 2 2457.82 2672.19 1870.3 0 0 1
734 2 2363.38 3125.63 2289.83 0 -1 0
735 2 1893.7 2459.79 2134.57 0 0 0
736 2 2048.51 2425.48 2354.09 0 0 0
737 2 2834.84 2991.41 1902.08 -1 -1 0
738 2 2069.41 2156.99 2878.1 0 0 -1
739 2 2066.69 3088.13 2210.1 0 -1 0
740 2 3105.72 2812.72 1856.11 -1 0 1
741 2 2264.01 2494.36 1977.15 0 0 0
742 2 2179.76 2061.57 2856.27 0 0 -1
743 2 1948.45 3150.8 2164.05 0 -1 0
744 2 3002.49 2009.26 2086.59 -1 0 0
745 2 2103.62 2367.07 2228.86 0 0 0
746 2 2269.45 2179.01 1951.47 0 0 0
747 2 2047.96 2891.62 3146.05 0 -1 -1
748 2 3001.99 1898.95 2585.1 -1 0 0
749 2 2998.08 2048.63 1943.96 -1 0 0
750 2 3166.95 2309.48 1920.69 -1 0 0
751 2 2762.86 2565.05 2825.02 0 0 0
752 2 2768.69 1858.11 3077.22 0 0 -1
753 2 2347 2616.53 2336.21 0 0 1
754 2 2078.29 2046.09 2427.92 0 0 0
755 2 2279.1 1991.79 2244.52 0 0 0
756 2 2155.79 2807.41 1827.68 0 -1 0
757 2 3095.08 2231.07 1821.05 -1 0 0
758 2 3116.27 2999.77 2441.67 -1 -1 0
759 2 2178.56 1986.39 1941.95 0 0 0
760 2 1969.73 2941.48 2845.19 0 -1 0
761 2 1872.76 2243.69 2027.77 0 0 0
762 2 2167.92 2222.22 2215.74 0 0 0
763 2 2860.68 2103.36 2459.07 -1 0 0
764 2 1969.18 2580.31 2143.5 0 0 0
765 2 2475.66 2282.71 2704.62 -1 1 0
766 2 2304 2684.52 2028.29 -1 0 0
767 2 2417.03 2109.46 2900.32 0 0 -1
768 2 2843.59 2977.6 3121.5 -1 -1 0
769 2 1907.72 2441.51 2370.52 0 0 0
770 2 2409.97 2154.77 1921.85 0 0 0
771 2 3009.38 2372.53 2121.03 -1 0 0
772 2 2149.33 2314.95 3102.55 0 0 -1
773 2 2135.15 2166.31 2528.31 0 0 0
774 2 2648.9 2293.22 3005.44 0 0 -1
775 2 3112.82 2709.21 2190.68 -1 0 0
776 2 3102.99 3154.45 2021.01 -1 -1 0
777 2 1882.05 2705.38 2679.26 1 0 0
778 2 2438.59 2375.66 3170.84 0 0 -1
779 2 2952.86 2140.36 2054.42 0 0 0
780 2 2758.51 2859.96 2389.76 -1 -1 0
781 2 1881.71 1911.86 3064.85 0 0 -1
782 2 2194.31 2220.06 2843.1 0 0 -1
783 2 1847.63 2430.86 2502.59 0 0 0
784 2 3056.4 1831.86 2264.95 -1 0 0
785 2 2905.31 2871.01 3042.94 0 0 0
786 2 1989.58 2408.87 2482.74 0 0 0
787 2 2840.07 2404.47 2119.86 -1 0 0
788 2 2028.38 2749.19 3134.22 1 0 0
789 2 2019.72 2707.05 2619.75 0 -1 0
790 2 2484.91 3120.36 2646.4 1 0 0
791 2 2841.33 2965.3 2041.78 0 0 0
792 2 2484.44 2914.14 2326.7 0 -1 0
793 2 1999.31 2586.86 3007.69 0 0 -1
794 2 2711.83 2617.02 2181.29 0 0 0
795 2 2802.78 2738.22 2182.51 -1 -1 0
796 2 1866.69 2094.21 2035.11 0 0 0
797 2 2358.71 3049.98 2869.54 0 -1 0
798 2 2797.69 2122.13 2795.45 0 1 -1
799 2 1919.39 2034.49 2817.09 0 0 -1
800 2 3174.07 2422.31 3068.4 -1 0 -1
801 2 1882.91 1916.11 2734.76 0 0 0
802 2 1830.07 1936.35 1836.53 0 0 0
803 2 1885.47 2674.51 2536.46 0 0 0
804 2 2228.93 1930.8 2894.31 0 1 -1
805 2 2446.08 1851.2 2562.09 0 0 0
806 2 2621.62 1995.48 2101.7 0 0 0
807 2 2805.86 3168.73 2261.66 -1 -1 0
808 2 2571.78 3012.41 2588.02 1 -1 -1
809 2 2934.33 2720.33 2231.85 -1 0 1
810 2 2445.09 2868.65 2198.13 0 0 0
811 2 2258.35 2129.32 2288.4 0 0 0
812 2 2866.19 2163.39 2924.52 -1 0 -1
813 2 3073.23 2285.45 2927.66 -1 0 -1
814 2 2504.93 2836.36 2482.94 0 -1 0
815 2 1854.77 1841.68 2884.43 0 0 -1
816 2 2967.68 2167.48 3164.09 -1 0 -1
817 2 2084.11 2153.29 2125.21 0 0 0
818 2 3098.78 2072.58 2578.34 -1 0 0
819 2 2848.68 2364.61 3102.35 0 0 -1
820 2 2096.98 2956.14 2159.96 0 -1 0