ITEM: TIMESTEP
438000
ITEM: NUMBER OF ATOMS
1000
ITEM: BOX BOUNDS pp pp pp
1.5038615415273002e+03 3.4961384584721645e+03
1.5038615415273002e+03 3.4961384584721645e+03
1.5038615415273002e+03 3.4961384584721645e+03
ITEM: ATOMS id type x y z ix iy iz
1 1 2737.96 2443.97 1628.76 -1 0 1
2 1 2141.08 1530.05 2608.67 0 0 0
3 1 3170.02 2568.96 2202.6 0 0 0
4 1 2284.14 1803.29 3149.39 0 -1 0
5 1 3284.62 2921.95 2677.56 -1 -1 1
6 1 2014.54 1861 3282.29 0 0 0
7 1 1788.31 2960.79 2814.74 0 -1 0
8 1 2222.24 1848.86 2477.41 0 0 1
9 1 2932.69 2971.85 2474.17 0 0 0
10 1 2812.32 2508.49 2624.04 0 0 0
11 1 2676.03 2184.98 2592.34 0 0 0
12 1 1590.14 3104.73 3438.59 0 0 0
13 1 3056.1 3370.75 3330.83 -1 0 -1
14 1 2256.62 2690.89 2830.29 0 0 -1
15 1 3130.09 2258.59 2117.17 0 0 0
16 1 2230.58 3488.95 2460.46 0 0 -1
17 1 2443.41 2852.3 2865.69 1 0 -1
18 1 3036.23 2369.84 2478.57 -1 1 0
19 1 2834.2 1967.39 1867.54 -1 0 0
20 1 1622.38 2973.92 2917.1 0 -1 0
21 1 2088.64 2515.56 2572.86 0 1 0
22 1 2651.82 2932.94 2716.62 2 -1 0
23 1 2833.55 2200.24 2673.11 0 0 1
24 1 2916.41 3247.27 2212.16 0 0 0
25 1 1848.07 1998.64 2767.43 -1 0 0
26 1 2903.59 2972.38 2891.53 0 0 0
27 1 3024.15 2409.03 2793.96 -1 0 1
28 1 2094.34 2457.99 2406.96 0 0 0
29 1 2561.72 2295.97 2637.52 0 0 -1
30 1 2766.1 3302.72 2843.24 0 0 0
31 1 1606.93 1770.28 2861.9 0 0 0
32 1 1751.69 3047.87 3156.96 0 0 -1
33 1 2232.08 2403.48 3056.13 0 0 0
34 1 2456 1526.04 2844.79 0 0 0
35 1 2069.72 2222.63 2403.89 0 0 -1
36 1 1663.35 2796.21 1576.27 0 -1 0
37 1 1903.38 1920.05 1959.6 0 0 0
38 1 2246.5 2932.98 2221.02 0 0 0
39 1 3126.85 2378.91 2838.62 -2 0 -1
40 1 3044.57 2477.86 2050.52 -1 -1 2
41 1 2020.22 2877.11 1939.94 0 0 -1
42 1 2876.02 2680.77 2111.98 0 -1 0
43 1 2450.64 2579.37 2101.28 0 -2 0
44 1 2937.56 3275.42 1834.85 0 -1 0
45 1 2465.38 2338.72 2772.53 0 0 0
46 1 2869.02 3393.28 2974.42 -1 -1 0
47 1 3267.92 3145.94 2235.44 -1 -1 -1
48 1 3125.16 2119.26 2768.84 0 0 -1
49 1 2858.95 2550.3 2278.91 -1 0 1
50 1 2988.92 1800.01 3206.79 -1 0 0
51 1 3182.38 1593.74 2260.87 -1 -1 1
52 1 3477.72 2535.02 3363.37 -1 0 -1
53 1 3030.31 2002.72 3276.99 -2 0 -1
54 1 3198.59 2285.67 2939.48 0 0 -1
55 1 2953.54 2973.22 2911.88 -2 0 -1
56 1 3042.19 2190.93 1764.9 0 0 0
57 1 2009.25 2513.52 3388.36 0 0 -1
58 1 2469.13 2614.98 3358.83 0 0 -1
59 1 2630.73 3267.36 2757.06 -1 -1 0
60 1 2071.56 3087.43 1684.11 -1 -1 1
61 1 1933.67 2786.47 2461.63 -1 0 0
62 1 2582.15 1561.8 3056.99 0 0 -1
63 1 3112.74 2227.54 3069.28 -1 0 0
64 1 2844.5 2620.75 3136.18 0 -1 -1
65 1 3137.37 3002.36 2725.12 -1 -1 -1
66 1 3180.15 2882.5 2528.37 -1 0 1
67 1 2494.06 2434.73 1781.75 0 0 0
68 1 2254.3 2898.32 3221.08 0 -1 -1
69 1 1601.45 2576.08 2791.59 0 0 0
70 1 1786.5 1617.96 3273.93 0 1 -1
71 1 2000.69 2679.61 2536.36 -1 0 -1
72 1 2725.98 2082.81 3466.49 0 0 -1
73 1 2642.8 1664.31 1519.28 0 1 1
74 1 3082.39 2710 2157.66 -1 0 -1
75 1 2016.88 2476.43 1755.27 0 0 1
76 1 1701.98 1764.94 2991.56 -1 0 0
77 1 2629.03 2504.65 3269.72 -1 -1 -1
78 1 1736.39 3456 1864.85 0 -1 0
79 1 2076.9 2349.41 2524.82 0 -1 0
80 1 3096.47 2395.65 2460.81 -1 0 0
81 1 3469.6 1875 1883.24 -1 0 0
82 1 1915.37 2235.74 3299.04 1 0 0
83 1 2479.23 2045.53 2702.15 -1 -1 -1
84 1 2001.95 3462.4 3354.23 1 0 -1
85 1 2502.59 2407 2437.73 0 -1 0
86 1 3317.46 2381.56 2850.03 -1 0 0
87 1 1791.21 1997.25 2921.01 0 -1 -1
88 1 1618.7 2770.9 2036.47 0 -1 0
89 1 2863.52 2835.26 1815.82 0 0 0
90 1 3369.52 3197.05 2319.12 -2 -1 0
91 1 1722.8 3366.59 2962.77 0 -1 -1
92 1 1985.91 2795.43 2463.18 0 -1 -1
93 1 2220.03 3300.15 2734.25 1 0 0
94 1 2256.24 2130.66 3317.79 0 0 -1
95 1 1813.26 2430.93 2877.05 -1 -1 -1
96 1 2779.12 2459.27 1961.99 -1 0 0
97 1 2292.65 2408.1 2020.03 0 -1 1
98 1 2705.63 2089.51 2993.02 -1 -1 0
99 1 2461.45 2879.94 3022.28 0 -1 -1
100 1 2751.67 1988.15 1611.66 -1 0 0
101 1 1601.31 2926.83 2358.92 0 -1 0
102 1 2258.62 1551.24 2685.64 -1 0 0
103 1 2895.41 2510.33 2069.77 -1 0 0
104 1 3390.13 2712.11 2433.56 0 -1 -1
105 1 3328 3096.38 2783.28 -1 0 0
106 1 3382.71 1977.83 2854.79 0 1 -1
107 1 2779.13 2167.14 2442.71 -1 -2 0
108 1 3270.34 3161.73 1679.95 -1 0 -1
109 1 2241.39 2534.76 2405.29 -1 -1 0
110 1 2774.1 2761.59 1671.77 0 -1 0
111 1 3375.56 1504.34 3381.55 -1 0 -1
112 1 2662.62 1699.86 3014.67 0 0 0
113 1 2377.81 2745.24 2982.25 0 0 -1
114 1 2730.64 2410.01 2959.58 -1 0 0
115 1 2247.69 2682.19 3067.27 0 0 -1
116 1 2883.66 2419.83 2920.96 0 0 0
117 1 2350.71 3420.09 2762.05 0 -1 -1
118 1 2098.24 2811.49 2264.41 -1 0 -1
119 1 3319.03 2993.75 2225.81 0 -1 0
120 1 2788.59 2305.3 1801.79 1 0 0
121 1 3128.36 3236.96 3083.19 -1 0 0
122 1 2813.77 3118.9 2461.06 0 0 -1
123 1 1744.44 1710.49 3402.21 -1 1 -1
124 1 2601.38 2520.3 1617.98 0 0 1
125 1 1747.7 3102.75 1954.08 0 -2 0
126 1 2184.24 3491.18 3036.82 0 0 -1
127 1 2790.91 2253.85 2090.39 -1 -1 0
128 1 2054.57 2267.42 3493.08 -1 0 0
129 1 2478.48 2430.03 2395.33 -1 0 0
130 1 3367.75 2644.07 1987.85 0 -1 0
131 1 2945.22 3185.31 1540.5 -1 -1 0
132 1 2624.59 2824.86 3045.23 0 -1 -1
133 1 2532.19 2414.16 2887.38 0 0 -1
134 1 1922.32 3241.82 2483.76 -1 -1 -1
135 1 2161.71 3419.64 3356.35 0 -1 -1
136 1 3001.92 2097.13 3151.26 -1 0 0
137 1 3183.94 1881.88 1929.1 -1 0 0
138 1 2776.78 2585.77 1867.63 0 -1 0
139 1 3004.45 2595.79 2034.4 -1 -1 -1
140 1 2971.16 3034.71 2783.96 -1 -1 -1
141 1 2898.54 2826 2043.93 -1 1 0
142 1 2435.46 2238.69 2897.17 0 1 -1
143 1 3171.78 3011.78 2250.04 -1 0 0
144 1 1591.95 3029.6 2569.2 -1 -1 0
145 1 2299.84 2217.59 2078.55 0 0 0
146 1 3320.11 2581.91 2131.98 -1 -1 0
147 1 1726 2479.79 2736.44 0 0 -1
148 1 2748.24 2722.05 2346.14 -1 -1 1
149 1 3050.09 2867.92 2781.47 0 0 0
150 1 2422.1 2601.78 2564.62 0 0 0
151 1 2556.06 3074.64 2781.21 0 -2 -1
152 1 3343.02 2643.02 2968.58 -1 -1 0
153 1 2937.14 2815.11 2900.14 -1 -1 -1
154 1 3246.21 2705.84 2259.88 -1 0 -1
155 1 3001.18 2351.19 2532.89 0 0 0
156 1 2006.94 2513.09 3192.76 0 0 -2
157 1 3455.78 3015.99 2319.14 0 0 -1
158 1 2752.34 2765.53 1996.98 -1 -1 0
159 1 3085.81 2665.79 2678.3 0 -1 0
160 1 2949.78 1892.22 2871.92 -1 0 0
161 1 2714.37 2751.08 1831.49 0 0 -1
162 1 2832.98 2028.66 2538.65 0 -1 0
163 1 2378.31 2591.46 2906.54 0 0 -1
164 1 3221.29 2435.95 1880.59 0 -1 -1
165 1 2261.82 2126.54 3371.15 0 0 -1
166 1 1549.39 2736.98 1906.65 0 0 -1
167 1 2694.64 2728.93 2339.65 0 -1 0
168 1 1828.93 2135.72 3031.73 0 0 0
169 1 2154.28 3276.59 1771.42 0 -1 -1
170 1 3009.28 2980.83 2342.62 0 -1 0
171 1 2849.57 2087.37 3090.93 -1 -1 -1
172 1 2626.19 2989.57 2091.56 0 -1 -1
173 1 2836.75 2374.58 2526.25 -1 0 -1
174 1 2905.63 1774.59 3397.99 -2 0 -1
175 1 3178.57 3059.14 1565.65 -1 -1 -1
176 1 2085.59 2055.18 3024.13 0 0 0
177 1 2851.73 3332.33 1668.34 -1 0 0
178 1 3316.84 2158.86 2835.58 -1 0 0
179 1 1862.02 2137.78 3074.28 -1 0 0
180 1 3258.48 2941.24 3018.42 0 0 -1
181 1 1679.66 2671.98 3120.17 0 -1 1
182 1 2900.55 3376.53 2149.95 0 -1 0
183 1 1574.65 3060.58 1968.1 0 -1 0
184 1 2981.12 2203.46 2708.98 0 -1 1
185 1 1668.78 2271.92 2650.2 0 0 -1
186 1 3119.73 2318.01 1814.49 -1 0 -1
187 1 3464.88 2679.27 2856.9 0 0 -1
188 1 2590.74 1535.1 3435.79 0 1 -1
189 1 3427.15 2050.16 3340.74 -1 0 -1
190 1 2601.78 2686.1 2484.14 -1 0 0
191 1 2914.58 1654.92 3213.85 0 0 0
192 1 3278.57 3321.67 1731.56 -1 -1 0
193 1 3362.52 2830.03 2967.33 -2 -1 0
194 1 2948.17 2102.34 1900.69 0 -1 -1
195 1 2118.51 2615.82 2804.46 -1 0 0
196 1 2383.17 2518 3456.5 0 0 -1
197 1 2148.72 2274.49 1620.12 -1 1 1
198 1 2855.8 3261.21 3340.96 -1 -1 0
199 1 2316.26 3225.29 1561.12 0 0 1
200 1 2036.23 1878.21 3037.85 0 0 -1
201 1 3262.12 2152.75 3033.42 -1 0 0
202 1 2595.8 2360.31 3353.62 -1 -1 -1
203 1 3154.1 3142.11 3377.16 -1 -1 0
204 1 2441 2329.86 3047.05 0 -1 -2
205 1 3045.02 2641.41 3116.33 -1 -1 0
206 1 3302.31 1621 3281.52 -1 0 0
207 1 2409.5 2779.38 3333.61 -1 -1 -1
208 1 2420.45 2182.33 2741.43 0 0 -1
209 1 2742.35 2700.42 3034.19 -1 -1 0
210 1 3133.15 2548.28 1741.76 0 -1 0
211 1 2876.99 2981.42 1749.15 -1 -1 0
212 1 2350.33 1515.56 2349.08 0 0 -1
213 1 3099.54 2714.33 2501.83 0 1 -1
214 1 2397.88 2935.44 2466.24 0 -1 0
215 1 1504.9 3011.59 1830 0 0 -1
216 1 2687.32 2320.22 3248.22 -1 0 -1
217 1 2979.83 2123.43 2055.11 -1 0 1
218 1 2123.23 2626.14 1916.06 0 0 0
219 1 3147.36 2997.78 2427.67 0 -1 0
220 1 2142.22 2427.69 3236.43 -1 0 -1
221 1 3048.22 1679.01 3114.49 -1 0 -1
222 1 2905.19 2150.56 1508.72 0 -1 1
223 1 2459.11 2450.56 3309.55 0 -1 -2
224 1 1636.31 3318.57 2494.79 0 -1 0
225 1 2843.57 3422.45 2439.16 0 -1 0
226 1 2814.81 2557.49 2958.51 0 -1 0
227 1 3336.63 2388 2689.6 -1 -1 -1
228 1 1554.81 3223.15 1568.29 0 0 1
229 1 2934.21 2034.12 2197.78 -1 -1 0
230 1 1615.57 2418.86 2616.11 0 0 -1
231 1 2025.87 2777.37 2432.66 -1 -1 0
232 1 2061.14 3398.49 3488.59 0 -1 -1
233 1 3338.33 2793.84 2796.77 -1 0 1
234 1 1932.62 1768.13 2584.47 0 -1 -1
235 1 2743.54 2350.27 1651.63 -1 -1 0
236 1 2503.07 2578.38 2088.65 -1 0 0
237 1 3118.43 2533.32 3010.8 0 -1 0
238 1 3049.59 2867.78 2452.81 0 -1 0
239 1 2751.78 2595.51 2028.75 -1 -1 0
240 1 2121.27 2554.89 2555.53 1 0 -1
241 1 2727.53 3385.12 1809.09 0 -1 0
242 1 2654.75 2006.6 1745.78 0 -2 0
243 1 1835.93 3456.94 1709.22 0 -1 0
244 1 3010.78 2606.05 2814.14 0 -1 -1
245 1 3239.51 1585.66 2520.12 -1 0 0
246 1 2950.45 1834.76 2711.19 0 -1 0
247 1 2421.88 3432.78 2621.74 0 -1 0
248 1 3230.79 2847.68 1971.82 -1 -1 0
249 1 3234.37 2657.38 3110.03 0 0 0
250 1 3441.66 1716.55 3278.95 -1 0 -1
251 1 3117.85 2724.54 1934.76 0 -1 0
252 1 2983.44 1665.07 2704.03 -1 0 0
253 1 1705.61 2673.91 1963.01 1 0 0
254 1 3377.07 2232.73 2612.24 -1 0 -1
255 1 2882.94 1895.31 3303.88 -1 0 -1
256 1 2425.7 2410.92 2883.3 -1 0 0
257 1 2926.78 3122.38 1885.09 -1 -1 0
258 1 2583.47 1991.47 2943.21 0 0 -1
259 1 2647.14 2037.05 3341.56 -1 0 -1
260 1 2654.9 2546.03 3044.52 0 0 0
261 1 1583.59 1991.61 2276.55 0 0 0
262 1 3198.18 2530.64 2025.15 -1 0 -1
263 1 2598.43 2887.32 2871.22 -1 0 -1
264 1 2198.35 2377.93 1760.73 0 0 -1
265 1 3375.47 1908 3039.05 -1 0 -1
266 1 3091.7 1696.66 3283.25 -1 0 -1
267 1 1574.03 2273.76 3004.12 0 0 -1
268 1 2141.87 2507.69 2571.69 0 -1 0
269 1 2873.78 1584.45 2936.42 -1 0 0
270 1 2304.68 2118.97 3338.98 0 0 -1
271 1 1960.95 2892.59 2363.32 0 -1 -1
272 1 2584.96 2392.74 3062.19 -1 0 -1
273 1 2086.07 2359.04 3025.12 0 0 -1
274 1 2307.99 2568.03 3075.56 1 -1 0
275 1 2948.36 2439.79 1770.72 -1 0 1
276 1 2845.64 2688.34 1538.5 -1 -1 0
277 1 2629.25 2645.74 1934.1 0 0 1
278 1 1534.85 1622.43 2827.63 0 0 -1
279 1 2315.18 2765.09 2443.39 0 -1 0
280 1 2441.96 2460.68 3148.37 -1 0 -1
281 1 1856.07 2936.75 2700.58 0 -1 0
282 1 1922.42 2290.14 2986.13 0 -1 0
283 1 2292.19 3337.82 3420.44 0 -1 -1
284 1 2086.84 2248.96 3288.89 0 0 -1
285 1 3485.75 2769.1 3000 -1 0 -1
286 1 2966.65 2005.45 2978.9 -1 1 0
287 1 2841.7 1920.74 1710.09 0 0 0
288 1 2306.21 2313.48 2766.71 1 0 0
289 1 2064.65 2740.28 2720.1 0 -1 0
290 1 3085.24 2480.47 2318.66 -1 -1 0
291 1 2207.99 2725.73 2444.64 -1 -1 0
292 1 3322.73 2202.97 2805.09 -1 0 -1
293 1 2653.2 2567.22 2564.25 0 0 1
294 1 2560.1 2673.44 2680.28 0 -1 -1
295 1 1845.46 3362.45 2553.03 0 -1 0
296 1 3300.86 2480.72 2988.54 0 0 0
297 1 2947.51 2302.04 2584.74 -1 0 0
298 1 2375.16 2429.61 2634.38 0 0 0
299 1 1664.77 2099.14 2556.18 1 0 0
300 1 1971.42 2436.51 3334.38 0 0 0
301 1 2336.61 2475.93 2581.35 -1 0 -1
302 1 3350.22 1867.56 1582.58 -1 0 0
303 1 3071.45 3392.62 1784.91 0 -1 0
304 1 2259.4 2853.69 3250.63 1 -1 -1
305 1 2389.92 1732.98 3272.59 0 0 -1
306 1 1629.06 3360.52 1559.37 0 -1 0
307 1 3196.61 2411.93 1922.11 -1 0 -1
308 1 1619.03 1680.01 1534.22 0 0 0
309 1 2681.86 3037.65 2291.75 0 0 -1
310 1 1722.96 1887.63 2793.09 0 0 -1
311 1 2092.3 2878.24 1569.9 0 -1 -1
312 1 2910.43 2304.54 2633.03 0 -1 1
313 1 2060.37 1969.99 3161.88 0 -1 -1
314 1 1730.23 2307.27 2935.86 1 0 0
315 1 1824.23 1737.81 2704.99 0 0 0
316 1 2962.75 2989.15 1603.31 -1 0 0
317 1 2138.37 2914.24 2627.31 1 0 -1
318 1 3446.1 3202.43 2866.63 0 -1 -1
319 1 3014.34 2110.09 1599.88 -1 0 0
320 1 2424.15 2709.31 2743.95 0 -1 0
321 1 2666.72 2207.86 3357.14 -1 0 0
322 1 2271.91 2463.11 1668.21 0 -1 0
323 1 1919.66 1999.69 3032.78 0 0 -1
324 1 3428.11 2307.75 1576.32 0 0 0
325 1 2020.96 3302.71 2965.85 0 0 0
326 1 2745.65 2844.86 2951.13 0 0 -1
327 1 2614.42 3141.21 2635.23 0 -1 0
328 1 2056.97 2172.98 2563.02 0 0 0
329 1 2036.74 2825.8 1938.42 0 0 0
330 1 2714.79 2524.85 2843.36 0 0 0
331 1 2467.82 2592.83 1937.85 -1 0 0
332 1 2217.16 2906.02 3182.97 0 -1 -1
333 1 2959.47 2512.04 3055.24 0 0 0
334 1 2990.3 3494.52 3311.21 -2 -1 0
335 1 2541.9 2983.35 2388.61 0 0 0
336 1 2451.53 2353.33 3459.79 0 -1 -1
337 1 1620.04 2408.28 2134.4 0 0 0
338 1 2738.32 2764.28 3405.35 0 -1 -1
339 1 2942.54 2727.09 3215.31 0 -1 0
340 1 2436.84 2437.75 2624.43 0 -1 0
341 1 2748.34 3348.93 3233.42 0 -1 -2
342 1 2861.16 2929.8 3043.47 0 -1 0
343 1 2814.49 1965.22 2962.68 1 -1 0
344 1 3043.08 3107.79 3093.17 0 -1 -1
345 1 2555.89 2229.15 1506.77 0 0 0
346 1 2725.38 2400.66 1658.49 0 -1 0
347 1 2488.48 2445.34 2891.07 -1 0 -1
348 1 2111.02 2478.1 2604.6 -1 -1 -1
349 1 2872.46 2665.57 2628.89 -1 0 0
350 1 2190.7 2236.42 1940.73 0 1 0
351 1 1930.53 1535.9 3224.48 0 0 -1
352 1 2326.22 2223.13 3149.71 0 1 0
353 1 3123.79 2643.58 2340.62 0 -1 0
354 1 2112.01 2638.83 2295.73 0 0 0
355 1 2334.16 2827.36 3118.1 0 -1 -1
356 1 2187.47 3213.18 1626.77 0 -1 0
357 1 2063.87 2981.6 2904.94 0 -1 -1
358 1 3113.69 3481.94 2157.11 -1 -1 0
359 1 2659.86 2256.53 2991.94 0 0 0
360 1 2137.71 1555.48 3440.4 0 1 -1
361 1 3384.57 2607.21 2300.36 -1 0 0
362 1 2871.95 2651.6 2868.97 0 -1 0
363 1 2518.36 2351.46 3203.86 0 0 -1
364 1 2893.06 2755.81 3061.08 -1 0 0
365 1 2073.66 3275.17 2815 0 -1 0
366 1 1895.39 2616.04 1672.49 0 0 0
367 1 2198.82 2593.2 2943.03 0 -1 -1
368 1 2669.9 1776.31 2606.93 -1 0 0
369 1 3182.85 2782.86 2721.08 0 0 -1
370 1 3266.5 2852.05 2121.74 -2 0 0
371 1 3356.09 2147.03 1868.93 -1 0 0
372 1 3056.9 3071.56 3439.07 -1 -1 -1
373 1 2925.5 2648.2 2874.58 0 1 0
374 1 2532.75 1797.21 2570.78 0 0 0
375 1 3170.63 1578.72 2311.33 0 0 -1
376 1 2750.82 2683.29 2505.04 0 1 0
377 1 3253.82 2488.31 2307.85 0 0 0
378 1 2286.8 1848.77 2995.51 0 1 -1
379 1 3000.48 2563.78 2181 -1 -1 0
380 1 2642.45 2090.39 1899.77 -1 0 0
381 1 2204.98 2553.02 3170.1 0 0 -1
382 1 3292.36 2950.94 2842.81 -1 -1 0
383 1 2777.63 2278.72 2315.63 -1 0 0
384 1 2908.33 2849.25 2353.59 0 -1 0
385 1 3109.48 2786.31 2296.13 0 0 0
386 1 2912.62 3081.37 2619.73 -1 0 0
387 1 3119.28 2328.16 2823.05 -1 0 -1
388 1 1507.13 2804.73 2961.17 0 0 -1
389 1 2429.8 2519.13 1652.82 0 0 0
390 1 1560.96 2687.22 1515.91 0 -1 0
391 1 2395.01 1837.62 1665.04 0 0 0
392 1 1794.58 2567.74 3096.13 -1 -1 -1
393 1 2610.41 2408.81 2739.92 0 0 1
394 1 1831.41 2078.35 3268.76 1 0 -1
395 1 2449.59 2443.49 1964.29 0 -1 -1
396 1 1589.33 2871.28 2601.47 1 0 0
397 1 2840.59 2880.75 1568.68 -1 0 0
398 1 2156.05 2419.97 2908.31 0 -1 0
399 1 2019.02 1658.96 2891.18 0 0 0
400 1 2129.65 2313.14 2773.73 -1 0 -1
401 1 2510.3 2459.4 2427.49 0 0 -1
402 1 2162.06 2571.25 3472.71 0 0 -2
403 1 1630.21 2004.36 3162.89 0 0 -1
404 1 2619.95 2704.34 2100.62 0 0 0
405 1 2709.05 3162.33 2869.7 -1 0 0
406 1 2034.42 2949.97 2246.73 0 -1 0
407 1 1769.98 3009.84 2995.96 -1 -1 0
408 1 3426.08 2389.04 2989.66 0 0 -1
409 1 3242.39 2702.92 2578.36 0 -1 -1
410 1 2609.06 2199.82 2422.94 0 0 -1
411 1 2053.43 1966.8 1905.22 0 0 0
412 1 2382.9 3130.16 2897.38 0 0 0
413 1 1616.87 2700.49 2942.29 0 0 -1
414 1 1930.49 2908.75 2881.45 0 -1 -1
415 1 1964.78 2361.85 2836.33 0 0 -1
416 1 2665.07 2703.97 1576.1 0 0 0
417 1 1695.05 2025.64 2403.93 -1 0 -1
418 1 3411.77 3097.15 1945.7 -1 0 1
419 1 2151.99 2605.27 2514.54 0 0 0
420 1 3261.41 2908.7 2323.06 -2 -1 -1
421 1 2932.75 2534.07 1666.2 -1 0 0
422 1 1639.63 3098.94 1815.58 0 -1 0
423 1 3162.11 2769.44 1591.55 0 -1 0
424 1 1917.76 2907.8 3304.01 0 -1 -1
425 1 2353.74 2920.05 3384.27 0 0 -1
426 1 2900.6 2619.22 2836.71 -1 0 -1
427 1 3247.53 2268.17 2198.21 -1 -1 0
428 1 2320.45 3035.21 2589.09 0 -1 -1
429 1 2981.88 2827.67 2189.43 -1 0 0
430 1 1974.18 1773.55 2203.68 0 -1 0
431 1 2638.82 2372.74 1540.9 0 0 0
432 1 1870.61 2911.01 2227.91 0 -1 0
433 1 2170.26 2715.03 2481.51 -1 -1 -1
434 1 3218.53 2749.09 2416.08 -1 0 0
435 1 2918.84 1966.1 3141.17 -1 0 0
436 1 2992.06 2753.59 1557.74 -1 0 0
437 1 2787.89 2171 1909.8 0 1 0
438 1 3453.63 2504.24 2694.12 -1 -1 -1
439 1 2900.04 2365.53 1745.99 0 0 0
440 1 3133.56 1885.73 3197.64 -1 0 -1
441 1 2800.31 1766.91 3249.02 -1 0 -1
442 1 1744.53 2584.96 2846.76 0 0 0
443 1 3166.7 2528.29 3168.3 0 -1 0
444 1 2885.25 2688.8 1934.69 -2 0 0
445 1 2407.26 3050.45 2573.28 0 -1 0
446 1 3044.51 1842.02 3361.07 -1 0 -1
447 1 2671.42 2752.98 2635.03 0 0 0
448 1 1935.83 2754.47 2237.63 -1 -1 0
449 1 2225.14 2452.08 1692.73 -1 0 0
450 1 1871.43 2416.24 3220.49 0 0 -1
451 1 1910.39 2788.13 2776.62 0 -1 -1
452 1 2080.17 2139.14 3177.69 0 0 0
453 1 3217.97 3201.7 2372.07 -1 0 0
454 1 1868.61 2158.41 2191.03 0 0 -1
455 1 2772.11 2631.73 3272.98 -1 0 -1
456 1 3028.11 1636.69 1558.59 0 1 0
457 1 2495.28 2813.66 2412.85 0 -1 -1
458 1 1821.2 2102.52 3073.54 0 1 -1
459 1 1975.73 2437.65 2137.97 0 -1 -1
460 1 3260.21 2480.57 2574.73 -1 -1 0
461 1 2901.64 2775.23 2502.59 0 -1 0
462 1 3067.67 2822.18 2608.08 -1 0 -1
463 1 3380.02 1959.82 3052.77 -1 0 -1
464 1 2718.9 2649.03 2693.23 0 0 0
465 1 1550.13 2774.41 2439.87 1 0 -2
466 1 2833.27 3078.4 2748.95 -1 -1 0
467 1 2732.11 2609.1 1691.19 0 1 0
468 1 3284.54 2878.79 1615.09 0 -1 1
469 1 2971.77 2530.06 2680.45 0 -1 -1
470 1 2964.72 3115.62 1714.2 -1 -1 -1
471 1 2971.21 2693.13 2290.18 0 0 0
472 1 2802.67 3040.64 1609.25 0 -1 0
473 1 1531.22 2373.85 3138.63 1 -1 0
474 1 3051.63 2321.36 2926.54 -2 -1 -1
475 1 2917.59 2523.66 1910.26 0 -1 0
476 1 2965.82 3451.11 1983.35 -1 -1 0
477 1 3272.54 2306.65 1869.1 0 -1 -1
478 1 2640.55 2486.82 1867.07 -1 -1 0
479 1 2639.86 1597.72 2252.3 0 0 -1
480 1 3340.05 2192.2 2451.64 -1 0 0
481 1 3020.39 1650.79 1507.12 0 1 1
482 1 2690.09 1852.02 2951.79 0 -1 -1
483 1 3078.63 2165.36 2897.84 -1 1 0
484 1 2833.52 3012.87 2313.76 -1 -1 0
485 1 2309.2 3215.25 2623.67 -1 -1 -1
486 1 3437.99 3021.49 1659.55 -1 -1 0
487 1 2772.38 2382.87 2799.3 -1 0 -1
488 1 2057.88 1640.74 2502.96 0 0 0
489 1 3226.71 2700.07 2044.29 -1 0 0
490 1 3071.93 2390.46 3106.72 -1 0 -1
491 1 2678.97 2789.75 2771.39 0 0 -1
492 1 2888.46 2545.7 3471.23 0 -1 0
493 1 2777.88 2448.85 2379.05 -1 0 0
494 1 2291.74 2377.87 3211.92 1 -1 0
495 1 3104.2 2872.03 2082.66 0 -1 0
496 1 2952.72 2631.96 2830.9 1 0 0
497 1 2651.93 3425.97 2670.1 -1 -1 0
498 1 2745.2 3056.39 2602.88 0 -1 0
499 1 2278.93 2516.56 1670.09 -1 0 -1
500 1 2754.15 3161.63 2282.15 0 -1 -1
501 1 2471.2 2776.36 2575.52 -1 0 -1
502 1 1651.49 3068.36 3028.82 -1 0 0
503 1 2485.58 2476.2 2935.88 0 0 0
504 1 2219.76 2620.64 2511.49 0 0 0
505 1 1965.25 2483.18 3380.93 -1 0 -1
506 1 1562.16 2054.71 2133.79 -1 0 0
507 1 3337.2 1931.4 3068.66 -1 0 -1
508 1 1782.85 1666.85 1814.22 0 0 -1
509 1 1794.63 1714.37 2520.47 0 0 0
510 1 2724.74 2315.84 2644.32 -1 -1 -1
511 1 3433.07 3136.16 2458.83 0 0 -1
512 1 1703.49 3161.55 3290.68 0 -1 -1
513 1 3108.76 2506.61 1902.55 0 -1 0
514 1 2842.37 2164.56 2221.02 -2 0 1
515 1 2491.86 2093.78 2422.32 -1 0 -1
516 1 2529.38 3413.91 2737.79 -1 -1 0
517 1 3070.16 3048 3295.13 0 -1 -1
518 1 2041.83 2927.13 2760.24 0 0 -1
519 1 2685.04 2610.78 2376.44 0 0 0
520 1 3116.14 2884.39 1599.09 -1 0 0
521 1 2510.75 2369.75 1621.76 -1 0 1
522 1 2478 2625.56 2096.08 -1 0 0
523 1 3092.82 3016.25 1709.01 0 0 0
524 1 2657.88 2401.96 2497.7 -1 -1 0
525 1 3136.77 2064.62 3042.12 0 0 -1
526 1 1986.88 2329.07 2670.82 0 0 0
527 1 1504.39 2135.54 2942.91 0 -1 -1
528 1 3244.66 2414.1 2162.5 0 1 0
529 1 2498.15 2624.77 1537.65 -1 -1 0
530 1 1858.05 2755.5 2615.28 0 0 0
531 1 2073.72 3435.15 1779.39 0 -1 0
532 1 3232.85 2616.33 1892.17 -1 0 0
533 1 3131.39 1595.55 2278.36 -1 0 -1
534 1 2314.97 1507.26 2914.95 0 0 -1
535 1 2704.07 3382.65 2483.94 -1 -2 0
536 1 2222.66 2564.09 2033.04 -1 0 0
537 1 2750.52 3062.39 2145.54 -1 -1 0
538 1 1894.98 1944.98 3178.76 0 0 -1
539 1 3151.83 2419.43 2701.78 -2 0 -1
540 1 2819.48 3241.44 2425.26 0 0 0
541 1 2486.94 3009.63 2922.76 0 0 -1
542 1 2339.81 2783.15 2398.93 0 -1 0
543 1 2256.41 2722.37 2653.71 0 0 -1
544 1 3069.99 1836.64 3050.27 -1 1 -1
545 1 2187.38 2880.73 2770.59 -1 0 -1
546 1 3291.15 1746.26 1689.38 -1 0 0
547 1 2482.19 2294.7 2367.34 0 -1 0
548 1 1783.08 1889.12 3057.66 0 0 0
549 1 2727 2498.5 3282.08 0 0 0
550 1 2032.11 2176.83 1628.11 0 0 0
551 1 2325.47 2727.15 1706.54 0 -1 0
552 1 2693.69 3400.7 3401.21 0 -1 -1
553 1 2947.88 2673.51 3404.92 -1 0 -1
554 1 2253.41 2413.43 2642.26 0 0 0
555 1 1992.67 2305.6 3178.3 0 0 0
556 1 2555.45 3014.12 2538.8 0 0 -1
557 1 2716.99 2654.18 2224.36 -1 0 0
558 1 2548.55 3348.44 2566.16 -1 0 -1
559 1 2545.1 3166.83 2924.92 -1 0 0
560 1 1821.96 2835.38 1507.66 0 0 0
561 1 3305.43 2353.26 2471.07 -1 -1 -1
562 1 1941.81 3320.68 3418.28 0 0 -1
563 1 3421.6 2507.51 2896.92 -1 0 0
564 1 2589.65 2750.24 3327.76 0 1 -1
565 1 3355.76 2667.36 3323.87 0 0 -1
566 1 3364.86 2170.46 2813.92 -1 0 1
567 1 2548.39 1675.72 2882.83 0 0 0
568 1 3075.72 2985.07 2549.98 -1 -1 -1
569 1 2729.84 2172.74 3123.47 0 0 0
570 1 1697.36 2979.89 2672.42 0 -1 0
571 1 2981.07 2863.13 1691.1 -1 -1 0
572 1 2556.69 2790.35 2736.11 -1 -1 0
573 1 2173.36 2282.34 3158.1 1 0 -1
574 1 3014.2 3211.94 3396.4 -1 0 0
575 1 1807.92 2396.01 3036.74 0 0 0
576 1 3345.33 2200.78 2854.02 0 -1 -1
577 1 3260.94 2604.38 2439.07 -1 -1 -1
578 1 1545.97 2638.77 2346.66 1 0 1
579 1 2965.39 3368.83 2555.49 0 0 -1
580 1 2353.88 2735.58 2420.13 0 1 1
581 1 1761.94 2226.27 2445.54 -1 0 0
582 1 3102.29 3168.58 2259.38 0 -1 0
583 1 2531.84 2422.11 2395 0 0 0
584 1 3301.57 3055.2 2347.05 0 0 1
585 1 3095.91 3205.91 3239.01 -1 -1 -1
586 1 3026.83 2099.59 3431.04 -1 -1 -2
587 1 1527.48 2134.86 2651.28 1 0 -1
588 1 1892.73 2379.55 1868.98 0 0 0
589 1 2893.84 3107.33 3428.1 1 -1 0
590 1 3337.47 2759.29 1875.82 -1 -1 1
591 1 2119.75 1797.54 3162.71 -1 -1 -1
592 1 1831.39 2287.1 2797.23 0 0 0
593 1 1655.85 2140.93 3029.22 0 0 0
594 1 2052.6 3144.23 2981.79 -1 1 0
595 1 2968.08 1534.56 3036.7 -1 0 -1
596 1 2900.39 2417.7 1759.84 1 0 0
597 1 2711.9 2587.79 3275.4 0 0 0
598 1 3001.07 3272.74 1691 0 -1 0
599 1 2250.12 3399.47 2609.97 -1 -1 0
600 1 2995.66 2045.65 2823.24 -1 0 -1
601 2 3471.35 2322.67 1764.4 -1 0 0
602 2 1780.71 1879.28 2223.13 1 0 0
603 2 3080.73 3275.59 2066.52 -1 0 1
604 2 3168.19 3116.65 2902.66 0 -1 0
605 2 1590.6 1554.31 3331.58 0 0 0
606 2 1545.37 2579.33 2126.67 1 0 0
607 2 2050.25 2625.76 2063.18 0 0 0
608 2 2805.53 3233.07 2593.31 0 -1 0
609 2 2992.61 2121.25 2356.01 0 0 0
610 2 2658.08 3019.28 3040.96 0 0 0
611 2 1656.61 2998.84 1617.7 0 0 1
612 2 2472.17 3424.24 2178.2 0 -1 0
613 2 1918.21 2572.98 2706.14 0 0 -1
614 2 2617.21 1960.44 2534.3 0 0 0
615 2 1569.78 2730.85 3273.71 0 0 0
616 2 3397.85 3373.98 1561.81 0 0 0
617 2 1656.66 2956.69 2135.95 0 -1 0
618 2 2460.23 3363.4 2998.04 0 0 0
619 2 2795.31 1978.29 2725.29 0 1 0
620 2 3434.04 3356.29 2448.4 -1 0 0
621 2 1509.99 3382.46 2879.06 0 0 -1
622 2 2236.73 3420.4 1612.37 0 0 0
623 2 2244.17 2563.86 3225.05 0 0 -1
624 2 1519.71 2324.11 2783.41 0 0 -1
625 2 2704.34 1832.22 3404.47 0 0 0
626 2 1676.09 3189.23 2841.76 1 0 -1
627 2 1913.22 1544.57 2635.59 0 1 0
628 2 3261.94 2581.26 2751.29 -1 0 0
629 2 2212.72 1900.83 2230.96 0 0 0
630 2 2535.53 1644.49 2032.67 0 1 0
631 2 3250.54 1724.34 3084.84 0 1 0
632 2 2089.94 3121.91 1890.09 0 -1 0
633 2 1647.71 3129.78 2356.75 0 -1 0
634 2 3137.05 2737.76 2916.5 -1 0 0
635 2 1617.68 1631.06 2196.4 0 0 0
636 2 2852.84 1754.54 3016.32 -1 0 0
637 2 1673.68 2113.14 2782.96 1 0 -1
638 2 1591.9 1845 2050.79 0 0 0
639 2 3215.89 2937.52 3363.53 0 0 0
640 2 2677.23 3473.7 2854.12 0 0 0
641 2 2305.46 1891.55 2656.37 0 0 0
642 2 2546.62 3096.03 1883.97 0 -1 0
643 2 1623.71 1531.13 2423.64 0 0 0
644 2 3430.24 2560.2 1770.67 -1 0 1
645 2 2569.46 3188.51 2159.55 0 -1 0
646 2 2159.85 3110.07 2143.74 0 -1 0
647 2 2072.41 2022.11 3356.77 0 0 0
648 2 2550.44 2674.93 2881.77 0 0 0
649 2 3186.79 1993.95 1529.77 -1 0 0
650 2 3210.06 2261.96 2255.04 0 0 0
651 2 3341.23 1975.31 2006.31 -1 0 0
652 2 1618.14 1608.59 1938.06 0 0 0
653 2 2973.11 2497.79 3253.39 0 0 -1
654 2 2500.06 3327.18 3453.02 0 -1 -1
655 2 2551.86 1845.98 2750.65 0 0 0
656 2 2778.85 1716.1 2771.26 0 0 0
657 2 3159.2 1905.11 2840.71 -1 0 -1
658 2 2617.04 2156.76 2776.61 -1 0 -1
659 2 1535.33 1916.26 2691.27 1 0 0
660 2 2384.33 2251.46 1836.87 0 0 0
661 2 2641.13 1569.53 1812.96 0 0 0
662 2 1804.99 1737.19 1592.97 0 0 0
663 2 1774.21 2948.1 2467.24 0 -1 0
664 2 2607.99 3170.76 3263.29 0 0 -1
665 2 2441.53 2353.63 2135.92 0 0 0
666 2 2583.97 3345.74 1962.87 0 -1 0
667 2 2887.95 1525.96 1773.54 0 0 0
668 2 1791.05 2297.73 2044.92 0 0 0
669 2 3273.76 2317.16 3137.95 -1 0 0
670 2 2072.96 1669.31 2931.85 0 0 -1
671 2 2843.95 1696.76 1583.22 0 0 1
672 2 1792.33 2561.35 2119.19 0 0 0
673 2 2248.86 2282.85 2388.9 0 0 0
674 2 3399.09 1529.97 2067.44 -1 0 0
675 2 3050.19 2885.31 3137.69 -1 0 0
676 2 2599.79 1792.56 1664.96 0 0 0
677 2 1923.16 3054.76 2053.6 0 -1 0
678 2 3278.12 2982.09 1795.12 -1 -1 0
679 2 1904.42 3113.44 3278.44 0 0 0
680 2 3188.47 1807.01 2104.86 -1 0 0
681 2 2231.8 3253.9 2953.78 0 0 0
682 2 2944.69 2328.56 2196.55 0 0 0
683 2 2377.23 3010.49 2618.11 0 -1 0
684 2 1734.97 3212.06 2136.34 0 -1 0
685 2 1777.9 3329.76 3254.67 0 0 -1
686 2 1771.5 2432.02 1672.16 0 0 0
687 2 2523.73 2937.43 3225.96 -1 -1 0
688 2 3024.62 3162.57 2452.74 -1 -1 0
689 2 2036.92 3321.05 3176 0 -1 0
690 2 3362.06 3145.88 3452 0 1 -1
691 2 2609.65 2276.41 1966.95 -1 0 0
692 2 1945.23 1512.77 2995.33 0 0 -1
693 2 3277.52 3366.23 2228.89 -1 -1 0
694 2 1683.27 2773.74 2733.85 0 0 0
695 2 2745.93 2014.71 2058.22 0 0 0
696 2 2360.64 1569.54 3100 0 1 0
697 2 1769.89 1910.21 2570.14 0 0 0
698 2 1808.86 2407.03 2521.06 1 0 0
699 2 2463.32 1545.52 1614.76 0 0 0
700 2 1535.63 2463.17 1575.77 0 0 0
701 2 3489.95 2941.27 2711.93 0 -1 -1
702 2 1679.51 2458.68 2329.33 0 0 0
703 2 1874.89 3265.34 1932.35 0 0 0
704 2 2130.99 3195.26 2379.4 0 -1 0
705 2 1917.4 1786.03 2878.97 0 0 -1
706 2 1767.98 2596.79 3480.75 0 0 0
707 2 1758.82 3172.67 2596.39 0 -1 0
708 2 1689.08 2628.51 2513.43 1 0 0
709 2 1681.62 1527.86 3092.19 0 0 0
710 2 2770.45 1593.25 3362.81 0 0 -1
711 2 1862.24 3071.85 1762.22 0 -1 0
712 2 2065.92 2716.31 3183.56 0 0 -1
713 2 2310.23 2451.45 2639.48 0 0 -1
714 2 2967.53 1825.83 2241.36 -1 0 0
715 2 2581.51 2199.49 1709.3 0 0 0
716 2 2252.76 3011.01 1552.16 0 0 0
717 2 3169.35 1522.88 3403.98 -1 0 -1
718 2 2697.39 2416.24 2150.23 -1 0 0
719 2 1825.94 1715.62 2027.52 0 0 0
720 2 1527.08 1847.34 3413.78 0 0 -1
721 2 3391.98 2424.57 1981.49 0 0 0
722 2 3472.42 3136.75 2119.41 -1 -1 0
723 2 2725.55 3222.96 3495.59 0 0 -1
724 2 3167.55 3352.45 2512.35 0 -1 0
725 2 2108.26 3461.3 2801.07 0 -1 -1
726 2 2185.49 2113.54 1749.7 0 0 0
727 2 3297.08 2421.57 1606.06 -1 0 0
728 2 2213.85 2051.89 2440.15 0 0 0
729 2 3022.19 1582.73 2486.52 -1 0 0
730 2 3039.57 2934.66 1877.76 -1 -1 0
731 2 2246.09 2761.95 3469.45 0 0 0
732 2 3382.38 1629.86 3488.26 -1 0 -1
733 2 2165.4 1606.89 1827.78 0 1 0
734 2 1671.67 2184.33 2229.31 0 0 0
735 2 2344.65 1668.02 2499.77 0 0 0
736 2 2137.06 3381.42 1965.35 0 -1 0
737 2 2072.02 2864.19 1982.56 -1 0 0
738 2 3343.22 2847.79 3163.67 0 0 0
739 2 2171.19 3113.24 3156.76 0 0 0
740 2 2978.96 1666.25 2052.14 0 0 0
741 2 2686.54 1934.26 3123.33 -1 1 0
742 2 2519.56 2011.93 1514.66 0 0 0
743 2 3466.04 1994.67 2452.68 -1 0 0
744 2 2613.11 2175.81 2184.49 0 0 0
745 2 2117.84 3185.03 3387.54 0 0 -1
746 2 2101.09 2648.56 1663.68 0 0 0
747 2 2844.2 3058.25 3197.71 0 0 -1
748 2 2418.69 1701.31 1821.36 0 0 0
749 2 2149.63 1946.22 2819.33 0 0 0
750 2 1604.97 1784.14 2409.17 0 0 0
751 2 3461.72 2718.9 2620.46 0 0 -1
752 2 3155.2 1529.34 2711.81 0 1 0
753 2 1582.33 2233.26 1993.2 0 0 0
754 2 2818.07 2340.71 3376.66 -1 0 0
755 2 2283.45 2003.95 3098.03 0 0 0
756 2 2617.72 3180.98 2407.49 0 -1 0
757 2 2360.73 2115.86 2264.39 0 0 0
758 2 3280.88 3312.65 2774.13 -1 -1 0
759 2 2768.39 1528.99 2031.3 0 0 0
760 2 2474.94 2674.87 3129.81 0 0 -1
761 2 1951.35 3271.83 1640.34 0 -1 0
762 2 1993.87 1976.34 2122.51 0 0 0
763 2 1683.36 1974.65 1593.36 0 0 0
764 2 2351.38 2978.29 2013.77 0 -1 0
765 2 1885.35 2317.56 2293.77 0 0 0
766 2 3312.3 1932.75 1729.86 -1 0 0
767 2 2371.45 1826.77 2038.44 0 1 0
768 2 1848.94 1636.54 2295.88 0 0 0
769 2 1780.37 3452.31 2085.46 0 -1 0
770 2 1548.64 2266.52 2449.43 1 -1 0
771 2 1619.32 2866.43 3094.3 1 0 -1
772 2 1897.96 2063.36 2365.87 0 0 0
773 2 3060.98 1693.97 1541.1 -1 0 1
774 2 1758.19 3200.28 3463.97 0 -1 -1
775 2 3406.27 3463.34 1824.23 -1 -1 0
776 2 2948.79 2885.04 3340.86 -1 0 -1
777 2 3335.97 2652.88 1542.94 -1 0 0
778 2 2003.43 2131.18 2819.09 0 0 -1
779 2 2928.4 1939.36 1509.78 -1 0 0
780 2 3087.29 2563.4 1519.73 -1 0 0
781 2 3204.11 1532.57 1666.24 -1 0 0
782 2 2505.97 2092.25 3068.97 0 0 0
783 2 1842.58 3206.74 3041.28 0 -1 -1
784 2 1618.42 1683.46 2628.64 0 0 -1
785 2 3136.63 3175.22 1836.18 -1 -1 0
786 2 1725.39 1859.22 1830.6 1 0 0
787 2 2554.23 2851.04 1925.34 0 0 0
788 2 2377 2017.4 2869.85 0 0 0
789 2 1637.87 2084.23 3363.46 0 0 -1
790 2 3402.06 1855.46 2269.71 -1 0 0
791 2 3290.63 1525.42 2929.84 0 0 -1
792 2 1981.5 2491.65 3446.85 0 0 -1
793 2 1947.01 1674.17 3383.99 0 0 0
794 2 3154.44 1782.01 2634.25 -1 0 0
795 2 1913.69 3098.02 2791.49 0 0 0
796 2 1659.55 2499.61 3223.75 0 0 -1
797 2 3165.25 3477 3135.62 -1 -1 -1
798 2 1879.23 3361.2 2791.77 0 0 0
799 2 3232.89 2078.48 3199.44 -1 1 -1
800 2 3244.29 3059.5 3150.69 -1 0 -1
801 2 2223.48 2194.52 2928.79 0 0 0
802 2 1758.19 1585.52 2837.82 0 1 0
803 2 2546.35 3304.63 1709.15 0 -1 0
804 2 2498.52 2840.65 2178.99 0 -1 0
805 2 2179.73 1649.14 2300.97 0 0 0
806 2 3437.84 2896.35 1984.74 -1 -1 0
807 2 3281.69 3300.88 3287.62 -1 0 -1
808 2 2943.52 2294.35 1918.08 -1 0 0
809 2 3354.22 1740.89 2785.12 0 0 0
810 2 2452.15 1764.61 3451.87 0 0 -1
811 2 1662.58 1770.32 3194 1 0 0
812 2 2594.7 1702.26 3205.95 0 0 -1
813 2 2343.77 1709.3 2820.76 0 0 0
814 2 1852.25 2790.48 2025.53 0 0 0