ITEM: TIMESTEP
781000
ITEM: NUMBER OF ATOMS
1000
ITEM: BOX BOUNDS pp pp pp
9.6832001918240348e+02 4.0316799808170613e+03
9.6832001918240348e+02 4.0316799808170613e+03
9.6832001918240348e+02 4.0316799808170613e+03
ITEM: ATOMS id type x y z ix iy iz
1 1 2861.81 2393.83 1171.92 -1 0 1
2 1 1948.12 1008.59 2667.09 0 0 0
3 1 3530.24 2606.04 2042.71 0 0 0
4 1 2168.09 1428.72 3498.52 0 -1 0
5 1 3706.44 3148.8 2773.02 -1 -1 1
6 1 1753.55 1517.47 3702.86 0 0 0
7 1 1405.69 3208.51 2983.95 0 -1 0
8 1 2072.91 1498.8 2465.27 0 0 1
9 1 3165.31 3225.52 2460.29 0 0 0
10 1 2980.23 2513.05 2690.72 0 0 0
11 1 2770.67 2015.61 2641.99 0 0 0
12 1 1100.99 3429.84 3943.2 0 0 0
13 1 3355.07 3838.88 3777.5 -1 0 -1
14 1 2125.77 2793.52 3007.87 0 0 -1
15 1 3468.84 2128.8 1911.35 0 0 0
16 1 2085.74 4020.62 2439.21 0 0 -1
17 1 2412.98 3041.71 3062.29 1 0 -1
18 1 3336.05 2303.14 2483.77 -1 1 0
19 1 3013.87 1681.05 1527.51 -1 0 0
20 1 1150.56 3228.7 3141.34 0 -1 0
21 1 1898.92 2550.74 2601.21 0 1 0
22 1 2733.44 3165.69 2833.08 2 -1 0
23 1 3012.87 2039.08 2766.18 0 0 1
24 1 3140.28 3649.01 2057.42 0 0 0
25 1 1497.59 1729.1 2911.2 -1 0 0
26 1 3133.98 3226.57 3107.48 0 0 0
27 1 3305.95 2360.13 2951.99 -1 0 1
28 1 1876.26 2435.4 2356.94 0 0 0
29 1 2594.91 2186.28 2711.45 0 0 -1
30 1 2909.16 3734.28 3027.76 0 0 0
31 1 1126.81 1377.97 3056.47 0 0 0
32 1 1349.38 3342.42 3510.15 0 0 -1
33 1 2088.04 2351.59 3355.11 0 0 0
34 1 2432.34 1002.42 3030.16 0 0 0
35 1 1838.39 2073.51 2352.22 0 0 -1
36 1 1213.56 2955.45 1079.66 0 -1 0
37 1 1582.63 1608.26 1669.08 0 0 0
38 1 2110.21 3165.76 2071.04 0 0 0
39 1 3461.84 2300.34 3016.53 -2 0 -1
40 1 3337.34 2465.96 1808.87 -1 -1 2
41 1 1778.09 3069.45 1649.78 0 0 -1
42 1 3078.18 2777.95 1903.37 0 -1 0
43 1 2441.4 2629.8 1896.02 0 -2 0
44 1 3172.8 3692.3 1477.25 0 -1 0
45 1 2446.76 2252.02 2919.05 0 0 0
46 1 3067.4 3873.53 3229.48 -1 -1 0
47 1 3680.76 3493.21 2093.22 -1 -1 -1
48 1 3461.25 1914.57 2913.38 0 0 -1
49 1 3051.93 2577.35 2160.04 -1 0 1
50 1 3251.77 1423.69 3586.77 -1 0 0
51 1 3538.01 1104.16 2144.48 -1 -1 1
52 1 4003.36 2553.85 3827.53 -1 0 -1
53 1 3315.41 1735.38 3694.72 -2 0 -1
54 1 3574.17 2170.45 3175.76 0 0 -1
55 1 3183.96 3227.41 3127.86 -2 0 -1
56 1 3333.69 2024.77 1369.7 0 0 0
57 1 1729.41 2505.93 3870.83 0 0 -1
58 1 2452.53 2676.79 3820.56 0 0 -1
59 1 2701.01 3679.9 2895.26 -1 -1 0
60 1 1841.23 3403.25 1245.48 -1 -1 1
61 1 1652.24 2943.15 2440.06 -1 0 0
62 1 2626.31 1057.4 3356.43 0 0 -1
63 1 3442.16 2081.05 3375.33 -1 0 0
64 1 3029.71 2685.67 3478.2 0 -1 -1
65 1 3480.03 3272.44 2846.15 -1 -1 -1
66 1 3545.81 3088.13 2543.62 -1 0 1
67 1 2490.87 2399.64 1395.6 0 0 0
68 1 2111.24 3099.83 3605.82 0 -1 -1
69 1 1118.37 2616.98 2948.35 0 0 0
70 1 1402.91 1143.75 3690.01 0 1 -1
71 1 1732.26 2776.17 2555.9 -1 0 -1
72 1 2847.47 1858.52 3986.08 0 0 -1
73 1 2719.58 1215.02 992.023 0 1 1
74 1 3395.49 2822.9 1973.61 -1 0 -1
75 1 1757.14 2463.76 1354.88 0 0 1
76 1 1272.95 1369.76 3255.83 -1 0 0
77 1 2734.17 2532.3 3699.74 -1 -1 -1
78 1 1325.86 3969.96 1523.38 0 -1 0
79 1 1849.44 2268.45 2538.17 0 -1 0
80 1 3378.12 2322.39 2456.59 -1 0 0
81 1 3990.87 1538.99 1551.67 -1 0 0
82 1 1601.06 2093.67 3728.62 1 0 0
83 1 2468.07 1801.2 2810.82 -1 -1 -1
84 1 1734.2 3979.8 3813.47 1 0 -1
85 1 2505.71 2369.19 2391.41 0 -1 0
86 1 3756.94 2317.89 3038.21 -1 0 0
87 1 1410.16 1726.96 3147.35 0 -1 -1
88 1 1144.9 2916.54 1787.27 0 -1 0
89 1 3058.96 3015.51 1447.99 0 0 0
90 1 3836.99 3571.8 2221.88 -2 -1 0
91 1 1304.96 3832.48 3211.56 0 -1 -1
92 1 1705.27 2944.74 2432.08 0 -1 -1
93 1 2069.51 3730.32 2860.18 1 0 0
94 1 2155.42 1929.86 3768.96 0 0 -1
95 1 1444.06 2393.79 3079.76 -1 -1 -1
96 1 2929.18 2437.37 1672.75 -1 0 0
97 1 2181.18 2358.7 1761.99 0 -1 1
98 1 2816.18 1868.82 3258.07 -1 -1 0
99 1 2440.72 3084.2 3303.06 0 -1 -1
100 1 2886.97 1712.97 1134.08 -1 0 0
101 1 1118.16 3156.3 2283.08 0 -1 0
102 1 2128.85 1041.17 2785.44 -1 0 0
103 1 3107.98 2515.88 1838.48 -1 0 0
104 1 3868.68 2826.14 2397.84 0 -1 -1
105 1 3773.15 3417.01 2935.58 -1 0 0
106 1 3857.28 1697.11 3045.54 0 1 -1
107 1 2929.2 1988.19 2411.91 -1 -2 0
108 1 3684.49 3517.49 1239.07 -1 0 -1
109 1 2102.36 2553.45 2354.38 -1 -1 0
110 1 2921.47 2902.22 1226.51 0 -1 0
111 1 3846.27 969.055 3855.48 -1 0 -1
112 1 2750.05 1269.69 3291.36 0 0 0
113 1 2312.13 2877.09 3241.51 0 0 -1
114 1 2854.64 2361.64 3206.65 -1 0 0
115 1 2112.05 2780.14 3372.24 0 0 -1
116 1 3089.93 2376.73 3147.27 0 0 0
117 1 2270.46 3914.74 2902.93 0 -1 -1
118 1 1882.25 2978.96 2137.76 -1 0 -1
119 1 3759.35 3259.2 2078.41 0 -1 0
120 1 2943.74 2200.62 1426.42 1 0 0
121 1 3466.18 3633.16 3396.73 -1 0 0
122 1 2982.46 3451.62 2440.13 0 0 -1
123 1 1338.23 1286.04 3887.25 -1 1 -1
124 1 2655.88 2531.21 1143.8 0 0 1
125 1 1343.25 3426.8 1660.59 0 -2 0
126 1 2014.49 4024.06 3325.43 0 0 -1
127 1 2947.3 2121.52 1870.18 -1 -1 0
128 1 1815.1 2142.38 4026.98 -1 0 0
129 1 2481.62 2392.2 2349.04 -1 0 0
130 1 3834.27 2721.52 1712.5 0 -1 0
131 1 3184.58 3553.74 1024.66 -1 -1 0
132 1 2691.57 2999.51 3338.36 0 -1 -1
133 1 2521 2382.47 3100.01 0 0 -1
134 1 1611.75 3640.64 2475.03 -1 -1 -1
135 1 1979.83 3914.05 3816.73 0 -1 -1
136 1 3271.77 1880.54 3501.39 -1 0 0
137 1 3551.64 1549.57 1622.18 -1 0 0
138 1 2925.59 2631.88 1527.66 0 -1 0
139 1 3275.65 2647.29 1784.08 -1 -1 -1
140 1 3224.46 3322.18 2936.63 -1 -1 -1
141 1 3112.8 3001.26 1798.74 -1 1 0
142 1 2400.76 2098.21 3110.7 0 1 -1
143 1 3532.95 3286.93 2115.65 -1 0 0
144 1 1103.77 3314.31 2606.41 -1 -1 0
145 1 2192.23 2065.76 1851.96 0 0 0
146 1 3761.02 2625.95 1934.13 -1 -1 0
147 1 1309.89 2468.92 2863.56 0 0 -1
148 1 2867.07 2843.3 2261.65 -1 -1 1
149 1 3345.83 3065.72 2932.8 0 0 0
150 1 2380.22 2656.49 2599.36 0 0 0
151 1 2586.2 3383.57 2932.4 0 -2 -1
152 1 3796.24 2719.9 3220.5 -1 -1 0
153 1 3172.15 2984.52 3115.26 -1 -1 -1
154 1 3647.39 2816.51 2130.78 -1 0 -1
155 1 3298.06 2285.02 2517.05 0 0 0
156 1 1741.87 2520.13 3565.21 0 0 -2
157 1 3969.63 3293.4 2221.9 0 0 -1
158 1 2888 2908.28 1726.54 -1 -1 0
159 1 3400.76 2754.92 2774.16 0 -1 0
160 1 3191.59 1565.47 3071.87 -1 0 0
161 1 2829.62 2886.06 1472.09 0 0 -1
162 1 3012 1775.25 2559.43 0 -1 0
163 1 2312.88 2640.64 3125.1 0 0 -1
164 1 3602.44 2395.07 1558.73 0 -1 -1
165 1 2160.81 1925.78 3822.05 0 0 -1
166 1 1038.33 2864.38 1587.65 0 0 -1
167 1 2813.91 2850.13 2255.21 0 -1 0
168 1 1472.69 1934.3 3332.71 0 0 0
169 1 1968.42 3694.1 1379.72 0 -1 -1
170 1 3283.08 3239.33 2258 0 -1 0
171 1 3037.51 1865.54 3408.63 -1 -1 -1
172 1 2694.03 3252.76 1871.98 0 -1 -1
173 1 3017.8 2307.15 2540.36 -1 0 -1
174 1 3123.7 1384.6 3880.76 -2 0 -1
175 1 3543.38 3359.75 1063.33 -1 -1 -1
176 1 1862.8 1816.04 3305.91 0 0 0
177 1 3040.83 3779.8 1221.23 -1 0 0
178 1 3767.08 1988.6 3011.45 -1 0 0
179 1 1505.78 1936.36 3375.27 -1 0 0
180 1 3666.25 3178.46 3297.13 0 0 -1
181 1 1238.64 2764.43 3453.58 0 -1 1
182 1 3115.9 3847.77 1961.75 0 -1 0
183 1 1077.17 3361.96 1682.14 0 -1 0
184 1 3239.78 2044.04 2821.33 0 -1 1
185 1 1221.9 2149.31 2730.95 0 0 -1
186 1 3452.9 2220.17 1445.95 -1 0 -1
187 1 3983.61 2775.64 3048.78 0 0 -1
188 1 2639.53 1016.36 3938.88 0 1 -1
189 1 3925.61 1808.32 3792.74 -1 0 -1
190 1 2656.5 2786.15 2475.61 -1 0 0
191 1 3137.47 1200.59 3597.62 0 0 0
192 1 3697.14 3763.42 1318.43 -1 -1 0
193 1 3826.22 3007.46 3218.58 -2 -1 0
194 1 3189.12 1888.55 1578.49 0 -1 -1
195 1 1913.41 2678.09 2968.14 -1 0 0
196 1 2320.37 2527.67 3970.74 0 0 -1
197 1 1959.87 2153.25 1147.09 -1 1 1
198 1 3047.08 3670.45 3793.08 -1 -1 0
199 1 2217.48 3615.22 1056.35 0 0 1
200 1 1786.9 1543.92 3327 0 0 -1
201 1 3671.85 1966.07 3320.2 -1 0 0
202 1 2647.31 2285.22 3812.54 -1 -1 -1
203 1 3505.75 3487.32 3848.74 -1 -1 0
204 1 2409.28 2238.39 3341.15 0 -1 -2
205 1 3338.03 2717.44 3447.68 -1 -1 0
206 1 3733.65 1148.43 3701.68 -1 0 0
207 1 2360.85 2929.58 3781.77 -1 -1 -1
208 1 2377.69 2011.54 2871.22 0 0 -1
209 1 2872.64 2808.17 3321.38 -1 -1 0
210 1 3473.54 2574.24 1334.12 0 -1 0
211 1 3079.67 3240.23 1345.48 -1 -1 0
212 1 2269.87 986.3 2267.94 0 0 -1
213 1 3421.87 2829.56 2502.82 0 1 -1
214 1 2342.98 3169.54 2448.09 0 -1 0
215 1 969.914 3286.63 1469.79 0 0 -1
216 1 2788.02 2223.56 3650.48 -1 0 -1
217 1 3237.79 1920.98 1815.93 -1 0 1
218 1 1920.68 2693.95 1602.12 0 0 0
219 1 3495.38 3265.39 2388.78 0 -1 0
220 1 1949.87 2388.82 3632.35 -1 0 -1
221 1 3342.95 1237.63 3444.85 -1 0 -1
222 1 3123.03 1962.7 975.795 0 -1 1
223 1 2437.12 2423.99 3744.78 0 -1 -2
224 1 1171.98 3758.65 2491.99 0 -1 0
225 1 3028.28 3918.37 2406.45 0 -1 0
226 1 2984.05 2588.39 3205.01 0 -1 0
227 1 3786.41 2327.78 2791.54 -1 -1 -1
228 1 1046.66 3611.93 1067.38 0 0 1
229 1 3167.65 1783.65 2035.29 -1 -1 0
230 1 1140.08 2375.24 2678.53 0 0 -1
231 1 1752.19 2933.33 2408.71 -1 -1 0
232 1 1825.2 3881.54 4020.08 0 -1 -1
233 1 3789.03 2951.82 2956.31 -1 0 1
234 1 1627.58 1374.66 2629.89 0 -1 -1
235 1 2867.86 2292.24 1196.7 -1 -1 0
236 1 2493.75 2628.81 1883.4 -1 0 0
237 1 3450.9 2551.23 3285.41 0 -1 0
238 1 3345.06 3065.5 2427.44 0 -1 0
239 1 2887.13 2646.86 1775.4 -1 -1 0
240 1 1940.17 2578.24 2580.45 1 0 -1
241 1 2849.85 3860.97 1437.65 0 -1 0
242 1 2737.94 1741.33 1340.3 0 -2 0
243 1 1478.91 3971.41 1284.09 0 -1 0
244 1 3236.06 2681.14 3000.5 0 -1 -1
245 1 3637.08 1094.09 2530.94 -1 0 0
246 1 3192.62 1477.12 2824.72 0 -1 0
247 1 2379.88 3934.26 2687.18 0 -1 0
248 1 3623.68 3034.59 1687.85 -1 -1 0
249 1 3629.18 2741.98 3437.99 0 0 0
250 1 3947.92 1295.35 3697.72 -1 0 -1
251 1 3450.01 2845.26 1630.88 0 -1 0
252 1 3243.34 1216.2 2813.71 -1 0 0
253 1 1278.53 2767.4 1674.31 1 0 0
254 1 3848.6 2089.04 2672.59 -1 0 -1
255 1 3088.82 1570.21 3736.06 -1 0 -1
256 1 2425.21 2382.66 3097.07 -1 0 0
257 1 3156.23 3456.98 1554.5 -1 -1 0
258 1 2628.34 1718.08 3181.49 0 0 -1
259 1 2726.24 1788.16 3794 -1 0 -1
260 1 2738.17 2570.77 3337.27 0 0 0
261 1 1090.91 1718.28 2156.42 0 0 0
262 1 3573.54 2547.12 1769.87 -1 0 -1
263 1 2651.35 3095.55 3070.8 -1 0 -1
264 1 2036.18 2312.3 1363.29 0 0 -1
265 1 3846.85 1599.81 3347.05 -1 0 -1
266 1 3409.8 1264.77 3704.34 -1 0 -1
267 1 1076.21 2152.12 3275.14 0 0 -1
268 1 1949.19 2531.33 2604.91 0 -1 0
269 1 3074.73 1092.24 3171.05 -1 0 0
270 1 2205.17 1932.2 3791.07 0 0 -1
271 1 1671.15 3103.65 2289.83 0 -1 -1
272 1 2630.64 2335.07 3364.43 -1 0 -1
273 1 1863.53 2283.26 3307.44 0 0 -1
274 1 2204.77 2604.6 3385 1 -1 0
275 1 3171.46 2396.78 1373.95 -1 0 1
276 1 3031.46 2789.59 1021.58 -1 -1 0
277 1 2698.73 2724.1 1629.86 0 0 1
278 1 1015.97 1150.63 3003.78 0 0 -1
279 1 2227.16 2905.55 2400.82 0 -1 0
280 1 2410.75 2439.54 3496.95 -1 0 -1
281 1 1509.88 3171.56 2808.42 0 -1 0
282 1 1611.9 2177.32 3247.49 0 -1 0
283 1 2180.46 3788.25 3915.28 0 -1 -1
284 1 1864.72 2114 3713.01 0 0 -1
285 1 4019.43 2923.5 3258.2 -1 0 -1
286 1 3217.53 1739.57 3236.37 -1 1 0
287 1 3025.41 1609.31 1285.42 0 0 0
288 1 2202.03 2213.2 2910.1 1 0 0
289 1 1830.6 2869.45 2838.43 0 -1 0
290 1 3399.87 2469.97 2221.17 -1 -1 0
291 1 2040.92 2844.23 2424.73 -1 -1 0
292 1 3772.97 2032.67 2981 -1 0 -1
293 1 2735.57 2603.36 2598.79 0 0 1
294 1 2592.41 2766.68 2777.2 0 -1 -1
295 1 1493.57 3826.12 2581.53 0 -1 0
296 1 3731.41 2470.35 3251.19 0 0 0
297 1 3176.05 2196.49 2646.01 -1 0 0
298 1 2293.27 2407.51 2703.65 0 0 0
299 1 1215.74 1883.63 2586.38 1 0 0
300 1 1687.78 2434.27 3819.76 0 0 0
301 1 2242.52 2449.49 2648.86 -1 0 -1
302 1 3807.32 1527.55 1089.35 -1 0 0
303 1 3378.67 3872.51 1400.46 0 -1 0
304 1 2126.17 3061.74 3640.66 1 -1 -1
305 1 2330.73 1320.61 3687.94 0 0 -1
306 1 1160.82 3823.15 1053.67 0 -1 0
307 1 3577.74 2371.03 1600.28 -1 0 -1
308 1 1145.4 1239.17 1015 0 0 0
309 1 2779.63 3326.7 2179.79 0 0 -1
310 1 1305.21 1558.4 2950.66 0 0 -1
311 1 1873.12 3081.58 1069.86 0 -1 -1
312 1 3143.19 2198.65 2688.79 0 -1 1
313 1 1824.02 1685.04 3517.72 0 -1 -1
314 1 1316.39 2203.65 3170.19 1 0 0
315 1 1460.92 1328.04 2815.19 0 0 0
316 1 3211.54 3252.13 1121.24 -1 0 0
317 1 1943.95 3136.95 2695.75 1 0 -1
318 1 3954.74 3580.07 3063.74 0 -1 -1
319 1 3290.86 1900.46 1115.96 -1 0 0
320 1 2383.37 2821.83 2875.1 0 -1 0
321 1 2756.35 2050.79 3817.96 -1 0 0
322 1 2141.46 2455 1235.8 0 -1 0
323 1 1607.67 1730.72 3319.21 0 0 -1
324 1 3927.08 2204.4 1079.73 0 0 0
325 1 1763.43 3734.27 3216.3 0 0 0
326 1 2877.72 3030.27 3193.66 0 0 -1
327 1 2675.94 3485.94 2707.93 0 -1 0
328 1 1818.79 1997.17 2596.89 0 0 0
329 1 1794.68 3018 1648.28 0 0 0
330 1 2830.26 2538.22 3027.96 0 0 0
331 1 2450.52 2642.74 1635.62 -1 0 0
332 1 2079.93 3119.03 3566.6 0 -1 -1
333 1 3206.48 2518.51 3353.75 0 0 0
334 1 3253.9 4029.18 3747.32 -2 -1 0
335 1 2564.43 3243.21 2328.73 0 0 0
336 1 2425.47 2274.48 3975.79 0 -1 -1
337 1 1146.96 2358.97 1937.85 0 0 0
338 1 2866.45 2906.35 3892.08 0 -1 -1
339 1 3180.45 2849.18 3599.87 0 -1 0
340 1 2350.74 2402.84 2698.43 0 -1 0
341 1 2881.86 3805.34 3627.71 0 -1 -2
342 1 3055.32 3160.87 3335.65 0 -1 0
343 1 2983.57 1677.71 3211.42 1 -1 0
344 1 3335.05 3434.54 3412.07 0 -1 -1
345 1 2585.93 2083.54 972.796 0 0 0
346 1 2857.24 2344.79 1193.35 0 -1 0
347 1 2472.73 2402.49 3112.09 -1 0 -1
348 1 1908.5 2505.64 2629.19 -1 -1 -1
349 1 3072.71 2754.59 2698.18 -1 0 0
350 1 2024.41 2094.71 1640.05 0 1 0
351 1 1624.37 1017.59 3613.97 0 0 -1
352 1 2232.8 2074.27 3499 0 1 0
353 1 3459.15 2720.78 2254.94 0 -1 0
354 1 1903.41 2713.47 2185.92 0 0 0
355 1 2245 3003.35 3450.4 0 -1 -1
356 1 2019.45 3596.6 1157.3 0 -1 0
357 1 1829.4 3240.52 3122.64 0 -1 -1
358 1 3443.62 4009.85 1972.77 -1 -1 0
359 1 2745.81 2125.64 3256.42 0 0 0
360 1 1942.93 1047.7 3945.98 0 1 -1
361 1 3860.13 2664.85 2193.03 -1 0 0
362 1 3105.61 2720.42 3054.89 0 -1 0
363 1 2528.23 2271.6 3582.26 0 0 -1
364 1 3104.38 2893.34 3362.73 -1 0 0
365 1 1844.45 3691.91 2984.34 0 -1 0
366 1 1570.34 2678.43 1227.61 0 0 0
367 1 2036.9 2643.3 3181.22 0 -1 -1
368 1 2761.24 1387.24 2664.42 -1 0 0
369 1 3549.96 2934.93 2839.93 0 0 -1
370 1 3678.59 3041.32 1918.38 -2 0 0
371 1 3816.35 1957.26 1529.66 -1 0 0
372 1 3356.3 3378.84 3943.92 -1 -1 -1
373 1 3159.33 2721.23 3057.65 0 1 0
374 1 2550.36 1419.37 2608.84 0 0 0
375 1 3526.25 1089.13 2194.95 0 0 -1
376 1 2885.67 2781.83 2507.74 0 1 0
377 1 3659.09 2482.02 2204.55 0 0 0
378 1 2172.18 1498.66 3261.91 0 1 -1
379 1 3269.55 2598.07 2009.5 -1 -1 0
380 1 2719.04 1870.18 1577.08 -1 0 0
381 1 2060.17 2585.34 3549.71 0 0 -1
382 1 3718.35 3193.37 3027.12 -1 -1 0
383 1 2926.89 2159.75 2216.51 -1 0 0
384 1 3127.85 3037.01 2274.88 0 -1 0
385 1 3437.15 2940.23 2186.53 0 0 0
386 1 3134.46 3393.93 2684.11 -1 0 0
387 1 3454.22 2249.25 3000.86 -1 0 -1
388 1 969.621 2958.83 3219.71 0 0 -1
389 1 2392.06 2529.42 1197.36 0 0 0
390 1 1056.12 2787.87 986.852 0 -1 0
391 1 2338.57 1481.52 1216.15 0 0 0
392 1 1415.34 2604.16 3416.61 -1 -1 -1
393 1 2669.77 2359.79 2868.9 0 0 1
394 1 1471.96 1851.67 3682.06 1 0 -1
395 1 2422.48 2413.12 1676.28 0 -1 -1
396 1 1099.74 3070.89 2656.02 1 0 0
397 1 3023.69 3085.45 1067.99 -1 0 0
398 1 1971.14 2376.94 3127.82 0 -1 0
399 1 1779.42 1210.45 3115.8 0 0 0
400 1 1930.55 2212.67 2920.89 -1 0 -1
401 1 2513.42 2421.54 2381.18 0 0 -1
402 1 1980.37 2609.56 3995.66 0 0 -2
403 1 1162.59 1737.89 3519.27 0 0 -1
404 1 2684.44 2814.2 1885.91 0 0 0
405 1 2821.45 3518.41 3068.45 -1 0 0
406 1 1784.12 3191.89 2110.56 0 -1 0
407 1 1377.51 3283.95 3262.6 -1 -1 0
408 1 3923.95 2329.38 3252.91 0 0 -1
409 1 3641.52 2812.01 2620.49 0 -1 -1
410 1 2667.69 2038.43 2381.51 0 0 -1
411 1 1813.35 1680.14 1585.45 0 0 0
412 1 2319.94 3468.94 3111.02 0 0 0
413 1 1142.09 2808.28 3180.07 0 0 -1
414 1 1624.31 3128.51 3086.53 0 -1 -1
415 1 1677.03 2287.58 3017.15 0 0 -1
416 1 2753.82 2813.62 1079.4 0 0 0
417 1 1262.3 1770.61 2352.28 -1 0 -1
418 1 3901.96 3418.18 1647.7 -1 0 1
419 1 1969.07 2616.71 2556.82 0 0 0
420 1 3670.75 3128.43 2227.93 -2 -1 -1
421 1 3167.97 2574.1 1227.94 -1 0 0
422 1 1177.08 3420.94 1447.62 0 -1 0
423 1 3520.39 2914.89 1127.1 0 -1 0
424 1 1604.74 3127.04 3736.25 0 -1 -1
425 1 2275.11 3145.88 3859.66 0 0 -1
426 1 3134.49 2692.07 3019.46 -1 0 -1
427 1 3636.22 2141.35 2055.97 -1 -1 0
428 1 2243.01 3315.16 2646.14 0 -1 -1
429 1 3240.94 3003.83 2022.46 -1 0 0
430 1 1691.49 1382.99 2044.38 0 -1 0
431 1 2713.46 2304.33 1025.27 0 0 0
432 1 1532.24 3131.97 2081.63 0 -1 0
433 1 2003.08 2833.49 2461.71 -1 -1 -1
434 1 3604.82 2883.01 2370.97 -1 0 0
435 1 3144.02 1679.06 3485.87 -1 0 0
436 1 3256.61 2889.92 1051.16 -1 0 0
437 1 2942.66 1994.12 1592.5 0 1 0
438 1 3966.32 2506.52 2798.49 -1 -1 -1
439 1 3117.43 2313.76 1346.3 0 0 0
440 1 3474.18 1555.49 3572.7 -1 0 -1
441 1 2961.77 1372.79 3651.7 -1 0 -1
442 1 1338.37 2630.63 3033.19 0 0 0
443 1 3525.13 2543.5 3527.6 0 -1 0
444 1 3092.37 2790.3 1630.76 -2 0 0
445 1 2345.52 3333.16 2627.48 0 -1 0
446 1 3337.25 1488.28 3823.99 -1 0 -1
447 1 2763.58 2888.99 2707.62 0 0 0
448 1 1632.52 2891.28 2096.57 -1 -1 0
449 1 2097.89 2439.05 1263.38 -1 0 0
450 1 1533.5 2371.21 3607.84 0 0 -1
451 1 1593.41 2943.03 2925.34 0 -1 -1
452 1 1854.47 1945.13 3542.03 0 0 0
453 1 3603.96 3578.95 2303.29 -1 0 0
454 1 1529.16 1974.77 2024.92 0 0 -1
455 1 2865.48 2657.22 3697.54 -1 0 -1
456 1 3324.63 1197.76 1039.22 0 1 0
457 1 2492.74 2982.29 2366 0 -1 -1
458 1 1464.96 1901.1 3374.53 0 1 -1
459 1 1693.87 2404.13 1943.33 0 -1 -1
460 1 3668.91 2470.12 2614.91 -1 -1 0
461 1 3117.56 2923.19 2503.98 0 -1 0
462 1 3372.86 2995.38 2666.18 -1 0 -1
463 1 3850.49 1651.75 3360.48 -1 0 -1
464 1 2836.58 2729.16 2797.11 0 0 0
465 1 1039.46 2921.94 2407.55 1 0 -2
466 1 3012.45 3389.36 2882.79 -1 -1 0
467 1 2856.89 2667.75 1256.35 0 1 0
468 1 3706.32 3082.43 1139.35 0 -1 1
469 1 3225.4 2546.23 2777.46 0 -1 -1
470 1 3214.57 3446.59 1291.74 -1 -1 -1
471 1 3224.54 2796.95 2177.37 0 0 0
472 1 2965.39 3331.3 1130.37 0 -1 0
473 1 1010.39 2306.02 3481.97 1 -1 0
474 1 3348.19 2225.32 3155.86 -2 -1 -1
475 1 3142.09 2536.38 1593.2 0 -1 0
476 1 3216.26 3962.44 1705.58 -1 -1 0
477 1 3687.87 2202.7 1529.92 0 -1 -1
478 1 2716.1 2479.73 1526.8 -1 -1 0
479 1 2715.06 1112.64 2119.14 0 0 -1
480 1 3791.67 2026.72 2425.65 -1 0 0
481 1 3310.48 1202.62 987.223 0 1 1
482 1 2792.29 1503.65 3194.68 0 -1 -1
483 1 3389.71 1985.45 3111.72 -1 1 0
484 1 3012.83 3288.6 2213.63 -1 -1 0
485 1 2228.89 3598.64 2699.23 -1 -1 -1
486 1 3942.27 3301.85 1207.71 -1 -1 0
487 1 2918.81 2319.9 2960.21 -1 0 -1
488 1 1820.19 1178.79 2504.56 0 0 0
489 1 3617.4 2807.63 1799.3 -1 0 0
490 1 3379.41 2331.57 3432.9 -1 0 -1
491 1 2775.19 2945.53 2917.3 0 0 -1
492 1 3097.3 2570.27 3993.38 0 -1 0
493 1 2927.27 2421.35 2314.03 -1 0 0
494 1 2179.77 2312.2 3594.66 1 -1 0
495 1 3429.03 3072.04 1858.29 0 -1 0
496 1 3188.14 2695.39 3020.34 1 0 0
497 1 2733.61 3923.79 2761.56 -1 -1 0
498 1 2877.02 3355.51 2658.18 0 -1 0
499 1 2154.72 2507.19 1239.45 -1 0 -1
500 1 2890.79 3517.33 2165.03 0 -1 -1
501 1 2455.72 2924.94 2616.12 -1 0 -1
502 1 1195.31 3373.92 3313.12 -1 0 0
503 1 2476.41 2442.78 3147.36 0 0 0
504 1 2004.52 2651.18 2535.93 0 0 0
505 1 1696.5 2463.74 3863.94 -1 0 -1
506 1 1057.96 1815.32 1936.9 -1 0 0
507 1 3807.8 1623.68 3377.26 -1 0 -1
508 1 1397.3 1218.94 1445.53 0 0 -1
509 1 1415.4 1292 2531.47 0 0 0
510 1 2845.57 2216.84 2721.91 -1 -1 -1
511 1 3934.7 3478.17 2436.7 0 0 -1
512 1 1275.27 3517.21 3715.76 0 -1 -1
513 1 3436.03 2510.16 1581.36 0 -1 0
514 1 3026.43 1984.22 2071.03 -2 0 1
515 1 2470.64 1884.75 2394.6 -1 0 -1
516 1 2545.17 3905.25 2865.62 -1 -1 0
517 1 3376.69 3342.61 3722.61 0 -1 -1
518 1 1795.51 3156.77 2900.15 0 0 -1
519 1 2784.53 2670.33 2310.02 0 0 0
520 1 3447.38 3091.04 1114.74 -1 0 0
521 1 2516.53 2299.73 1149.6 -1 0 1
522 1 2468.72 2675.92 1890.83 -1 0 0
523 1 3411.52 3293.79 1283.76 0 0 0
524 1 2742.76 2349.25 2496.46 -1 -1 0
525 1 3479.11 1830.55 3333.58 0 0 -1
526 1 1711.02 2237.17 2762.66 0 0 0
527 1 969.138 1939.59 3181.03 0 -1 -1
528 1 3645.01 2367.91 1981.05 0 1 0
529 1 2497.16 2691.84 1020.27 -1 -1 0
530 1 1512.92 2892.86 2677.26 0 0 0
531 1 1844.54 3937.9 1391.98 0 -1 0
532 1 3626.84 2678.87 1565.38 -1 0 0
533 1 3487 1105.96 2161.98 -1 0 -1
534 1 2215.5 973.549 3138.03 0 0 -1
535 1 2813.78 3857.18 2475.3 -1 -2 0
536 1 2073.55 2598.54 1782 -1 0 0
537 1 2885.2 3364.73 1954.98 -1 -1 0
538 1 1569.71 1646.59 3543.67 0 0 -1
539 1 3502.26 2376.11 2810.25 -2 0 -1
540 1 2991.24 3640.05 2385.08 0 0 0
541 1 2479.92 3283.61 3150.04 0 0 -1
542 1 2251.8 2923.61 2356.35 0 -1 0
543 1 2125.45 2841.93 2736.34 0 0 -1
544 1 3376.43 1480.01 3346.11 -1 1 -1
545 1 2019.31 3085.42 2916.06 -1 0 -1
546 1 3716.49 1341.04 1253.58 -1 0 0
547 1 2472.61 2184.33 2296.01 0 -1 0
548 1 1397.65 1560.71 3357.46 0 0 0
549 1 2830.9 2517.27 3706.83 0 0 0
550 1 1769.17 2020.27 1172.96 0 0 0
551 1 2231.65 2849.27 1279.95 0 -1 0
552 1 2797.82 3884.93 3885.72 0 -1 -1
553 1 3188.67 2766.79 3891.42 -1 0 -1
554 1 2169.62 2390.16 2714.07 0 0 0
555 1 1719.92 2201.09 3542.96 0 0 0
556 1 2585.26 3290.52 2559.66 0 0 -1
557 1 2833.65 2737.08 2076.17 -1 0 0
558 1 2574.65 3804.58 2601.72 -1 0 -1
559 1 2569.35 3525.33 3153.36 -1 0 0
560 1 1457.43 3015.69 974.164 0 0 0
561 1 3738.44 2274.37 2455.52 -1 -1 -1
562 1 1641.72 3761.89 3911.97 0 0 -1
563 1 3917.07 2511.55 3110.31 -1 0 0
564 1 2637.85 2884.77 3772.77 0 1 -1
565 1 3815.82 2757.33 3766.79 0 0 -1
566 1 3815.06 2000.19 2989.81 -1 0 1
567 1 2574.41 1232.57 3088.65 0 0 0
568 1 3385.24 3245.85 2576.85 -1 -1 -1
569 1 2853.41 1996.8 3458.66 0 0 0
570 1 1265.85 3237.89 2765.12 0 -1 0
571 1 3239.7 3058.35 1256.22 -1 -1 0
572 1 2587.16 2946.45 2863.04 -1 -1 0
573 1 1997.76 2165.32 3511.91 1 0 -1
574 1 3290.64 3594.69 3878.32 -1 0 0
575 1 1435.85 2340.11 3325.3 0 0 0
576 1 3795.55 2030.49 3029.88 0 -1 -1
577 1 3670.04 2660.5 2406.31 -1 -1 -1
578 1 1033.06 2713.37 2264.23 1 0 1
579 1 3215.59 3835.93 2585.33 0 0 -1
580 1 2265.88 2876.04 2377.55 0 1 1
581 1 1365.15 2079.11 2416.26 -1 0 0
582 1 3426.09 3528.03 2130.01 0 -1 0
583 1 2534.93 2384.29 2348.72 0 0 0
584 1 3732.51 3353.68 2264.82 0 0 1
585 1 3416.28 3585.42 3636.32 -1 -1 -1
586 1 3310.06 1884.32 3931.59 -1 -1 -2
587 1 1004.63 1938.55 2732.61 1 0 -1
588 1 1566.25 2314.8 1529.74 0 0 0
589 1 3105.58 3433.84 3927.06 1 -1 0
590 1 3787.71 2898.7 1540.25 -1 -1 1
591 1 1915.32 1419.88 3519 -1 -1 -1
592 1 1471.93 2172.64 2957.03 0 0 0
593 1 1202.02 1947.89 3313.74 0 0 0
594 1 1812.06 3490.58 3240.81 -1 1 0
595 1 3219.73 1015.52 3325.24 -1 0 -1
596 1 3131.27 2363.57 1360.94 1 0 0
597 1 2829.04 2617.95 3705.9 0 0 0
598 1 3270.45 3688.18 1256.07 0 -1 0
599 1 2115.78 3883.03 2669.09 -1 -1 0
600 1 3262.14 1801.38 2997.02 -1 0 -1
601 2 3993.56 2227.34 1368.93 -1 0 0
602 2 1394.01 1545.57 2074.28 1 0 0
603 2 3392.94 3692.57 1833.47 -1 0 1
604 2 3527.41 3448.17 3119.13 0 -1 0
605 2 1101.69 1045.89 3778.65 0 0 0
606 2 1032.14 2621.98 1925.96 1 0 0
607 2 1808.45 2693.38 1828.34 0 0 0
608 2 2969.79 3627.18 2643.47 0 -1 0
609 2 3257.45 1917.63 2278.6 0 0 0
610 2 2743.07 3298.45 3331.78 0 0 0
611 2 1203.19 3267.02 1143.36 0 0 1
612 2 2457.21 3921.13 2005.2 0 -1 0
613 2 1605.43 2612.21 2816.97 0 0 -1
614 2 2680.22 1670.36 2552.74 0 0 0
615 2 1069.67 2854.97 3689.67 0 0 0
616 2 3880.55 3843.84 1057.43 0 0 0
617 2 1203.27 3202.22 1940.23 0 -1 0
618 2 2438.85 3827.57 3265.8 0 0 0
619 2 2954.08 1697.81 2846.41 0 1 0
620 2 3936.2 3816.65 2420.65 -1 0 0
621 2 977.739 3856.88 3082.85 0 0 -1
622 2 2095.19 3915.23 1135.17 0 0 0
623 2 2099.38 2596.18 3604.67 0 0 -1
624 2 992.684 2229.55 2935.78 0 0 -1
625 2 2814.19 1473.21 3890.73 0 0 0
626 2 1233.13 3559.76 3025.5 1 0 -1
627 2 1597.76 1030.92 2708.49 0 1 0
628 2 3671.58 2624.95 2886.38 -1 0 0
629 2 2058.27 1578.7 2086.31 0 0 0
630 2 2554.64 1184.56 1781.43 0 1 0
631 2 3654.04 1307.34 3399.27 0 1 0
632 2 1869.49 3456.26 1562.2 0 -1 0
633 2 1189.51 3468.37 2279.74 0 -1 0
634 2 3479.54 2865.58 3140.42 -1 0 0
635 2 1143.33 1163.9 2033.19 0 0 0
636 2 3042.53 1353.76 3293.91 -1 0 0
637 2 1229.44 1905.16 2935.09 1 0 -1
638 2 1103.69 1492.86 1809.29 0 0 0
639 2 3600.77 3172.74 3827.77 0 0 0
640 2 2772.51 3997.17 3044.5 0 0 0
641 2 2200.87 1564.43 2740.44 0 0 0
642 2 2571.68 3416.47 1552.78 0 -1 0
643 2 1152.6 1010.25 2382.59 0 0 0
644 2 3930.35 2592.57 1378.57 -1 0 1
645 2 2606.8 3558.66 1976.51 0 -1 0
646 2 1976.98 3438.06 1952.21 0 -1 0
647 2 1842.53 1765.19 3817.38 0 0 0
648 2 2577.56 2768.97 3087.02 0 0 0
649 2 3556.02 1721.89 1008.16 -1 0 0
650 2 3598.73 2135.13 2112.83 0 0 0
651 2 3793.5 1693.23 1740.9 -1 0 0
652 2 1144.03 1129.35 1635.96 0 0 0
653 2 3227.47 2496.6 3658.42 0 0 -1
654 2 2500.09 3771.88 3965.38 0 -1 -1
655 2 2579.74 1494.36 2885.41 0 0 0
656 2 2928.76 1294.66 2917.1 0 0 0
657 2 3513.6 1585.28 3023.88 -1 0 -1
658 2 2679.96 1972.23 2925.33 -1 0 -1
659 2 1016.71 1602.44 2794.1 1 0 0
660 2 2322.15 2117.84 1480.37 0 0 0
661 2 2717 1069.3 1443.59 0 0 0
662 2 1431.35 1327.09 1105.33 0 0 0
663 2 1384.01 3189 2449.62 0 -1 0
664 2 2666.05 3531.38 3673.65 0 0 -1
665 2 2410.09 2274.94 1940.19 0 0 0
666 2 2629.12 3800.42 1674.1 0 -1 0
667 2 3096.52 1002.3 1382.99 0 0 0
668 2 1409.91 2188.98 1800.26 0 0 0
669 2 3689.75 2218.86 3480.92 -1 0 0
670 2 1833.39 1220.8 3156.5 0 0 -1
671 2 3028.87 1264.92 1090.34 0 0 1
672 2 1411.87 2594.34 1914.47 0 0 0
673 2 2113.84 2166.11 2329.17 0 0 0
674 2 3882.46 1008.46 1834.89 -1 0 0
675 2 3345.97 3092.46 3480.52 -1 0 0
676 2 2653.43 1412.23 1216.03 0 0 0
677 2 1613.05 3353.02 1813.6 0 -1 0
678 2 3696.45 3241.27 1416.17 -1 -1 0
679 2 1584.22 3443.24 3696.95 0 0 0
680 2 3558.6 1434.44 1892.42 -1 0 0
681 2 2087.6 3659.21 3197.74 0 0 0
682 2 3183.76 2236.39 2033.41 0 0 0
683 2 2307.43 3295.98 2669.01 0 -1 0
684 2 1323.68 3594.88 1940.82 0 -1 0
685 2 1389.68 3775.85 3660.39 0 0 -1
686 2 1379.84 2395.47 1227.1 0 0 0
687 2 2536.49 3172.61 3616.24 -1 -1 0
688 2 3306.66 3518.77 2427.33 -1 -1 0
689 2 1787.95 3762.46 3539.42 0 -1 0
690 2 3825.51 3493.12 3963.81 0 1 -1
691 2 2668.6 2156.21 1680.37 -1 0 0
692 2 1646.98 982.019 3261.62 0 0 -1
693 2 3695.53 3831.93 2083.14 -1 -1 0
694 2 1244.18 2920.91 2859.56 0 0 0
695 2 2878.15 1753.81 1820.71 0 0 0
696 2 2285.72 1069.31 3422.58 0 1 0
697 2 1377.36 1593.12 2607.85 0 0 0
698 2 1437.29 2357.05 2532.38 1 0 0
699 2 2443.61 1032.37 1138.83 0 0 0
700 2 1017.16 2443.37 1078.89 0 0 0
701 2 4022.17 3178.51 2825.87 0 -1 -1
702 2 1238.41 2436.46 2237.58 0 0 0
703 2 1538.82 3676.8 1627.18 0 0 0
704 2 1932.6 3569.05 2314.56 0 -1 0
705 2 1604.18 1402.18 3082.71 0 0 -1
706 2 1374.43 2648.82 4008.01 0 0 0
707 2 1360.35 3534.31 2648.21 0 -1 0
708 2 1253.12 2697.59 2520.65 1 0 0
709 2 1241.65 1005.22 3410.56 0 0 0
710 2 2915.85 1105.76 3826.67 0 0 -1
711 2 1519.37 3379.28 1365.57 0 -1 0
712 2 1832.55 2832.6 3551.05 0 0 -1
713 2 2221.03 2412.69 2702.26 0 0 -1
714 2 3218.88 1463.39 2102.31 -1 0 0
715 2 2625.33 2037.94 1284.21 0 0 0
716 2 2119.84 3285.74 1042.58 0 0 0
717 2 3529.21 997.569 3889.98 -1 0 -1
718 2 2803.51 2371.21 1962.19 -1 0 0
719 2 1463.55 1293.92 1773.51 0 0 0
720 2 1004.02 1496.46 3905.05 0 0 -1
721 2 3871.52 2384.01 1702.73 0 0 0
722 2 3995.2 3479.08 1914.8 -1 -1 0
723 2 2846.82 3611.63 4030.84 0 0 -1
724 2 3526.43 3810.74 2518.99 0 -1 0
725 2 1897.65 3978.12 2962.92 0 -1 -1
726 2 2016.41 1905.78 1346.32 0 0 0
727 2 3725.61 2379.41 1125.47 -1 0 0
728 2 2060.01 1810.98 2407.97 0 0 0
729 2 3302.93 1089.59 2479.27 -1 0 0
730 2 3329.65 3168.33 1543.23 -1 -1 0
731 2 2109.59 2902.78 3990.64 0 0 0
732 2 3856.77 1162.06 4019.57 -1 0 -1
733 2 1985.52 1126.74 1466.38 0 1 0
734 2 1226.34 2014.63 2083.79 0 0 0
735 2 2261.14 1220.73 2499.65 0 0 0
736 2 1941.94 3855.28 1677.91 0 -1 0
737 2 1829.95 3056.49 1692.44 -1 0 0
738 2 3796.55 3034.77 3520.48 0 0 0
739 2 1994.41 3442.93 3509.84 0 0 0
740 2 3236.45 1218.02 1811.36 0 0 0
741 2 2786.83 1630.11 3458.44 -1 1 0
742 2 2530.07 1749.53 984.928 0 0 0
743 2 3985.41 1722.99 2427.24 -1 0 0
744 2 2673.91 2001.52 2014.87 0 0 0
745 2 1912.38 3553.32 3864.7 0 0 -1
746 2 1886.63 2728.43 1214.06 0 0 0
747 2 3029.24 3358.38 3572.81 0 0 -1
748 2 2374.98 1271.91 1456.51 0 0 0
749 2 1961.26 1648.5 2991 0 0 0
750 2 1123.79 1399.28 2360.34 0 0 0
751 2 3978.76 2836.59 2685.22 0 0 -1
752 2 3507.45 1007.49 2825.68 0 1 0
753 2 1088.97 2089.85 1720.74 0 0 0
754 2 2989.07 2255.07 3847.97 -1 0 0
755 2 2167.03 1737.26 3419.54 0 0 0
756 2 2681 3547.09 2357.75 0 -1 0
757 2 2285.85 1909.33 2137.72 0 0 0
758 2 3700.7 3749.55 2921.5 -1 -1 0
759 2 2912.69 1006.96 1779.31 0 0 0
760 2 2461.47 2768.88 3468.41 0 0 -1
761 2 1656.39 3686.77 1178.17 0 -1 0
762 2 1721.76 1694.81 1919.56 0 0 0
763 2 1244.32 1692.21 1105.93 0 0 0
764 2 2271.47 3235.42 1752.36 0 -1 0
765 2 1554.9 2219.48 2182.89 0 0 0
766 2 3749 1627.79 1315.82 -1 0 0
767 2 2302.34 1464.83 1790.3 0 1 0
768 2 1498.92 1172.32 2186.14 0 0 0
769 2 1393.49 3964.28 1862.59 0 -1 0
770 2 1037.17 2140.99 2422.25 1 -1 0
771 2 1145.85 3063.44 3413.8 1 0 -1
772 2 1574.3 1828.62 2293.76 0 0 0
773 2 3350.52 1242.98 1025.24 -1 0 1
774 2 1359.38 3576.77 3982.22 0 -1 -1
775 2 3893.5 3981.24 1460.92 -1 -1 0
776 2 3190.07 3092.05 3792.92 -1 0 -1
777 2 3785.4 2735.07 1028.41 -1 0 0
778 2 1736.46 1932.89 2990.65 0 0 -1
779 2 3158.71 1637.96 977.42 -1 0 0
780 2 3403.02 2597.49 992.714 -1 0 0
781 2 3582.66 1012.46 1218 -1 0 0
782 2 2509.18 1873.04 3374.86 0 0 0
783 2 1489.14 3586.69 3332.29 0 -1 -1
784 2 1144.46 1244.48 2697.8 0 0 -1
785 2 3478.89 3538.22 1479.3 -1 -1 0
786 2 1308.95 1514.73 1470.72 1 0 0
787 2 2583.38 3039.77 1616.39 0 0 0
788 2 2310.88 1757.94 3068.69 0 0 0
789 2 1174.38 1860.7 3827.67 0 0 -1
790 2 3887.02 1508.94 2145.9 -1 0 0
791 2 3715.68 1001.47 3160.93 0 0 -1
792 2 1701.03 2483.66 3929.04 0 0 -1
793 2 1649.71 1230.18 3859.24 0 0 0
794 2 3506.28 1396.01 2706.43 -1 0 0
795 2 1598.48 3419.52 2948.19 0 0 0
796 2 1207.71 2499.41 3612.84 0 0 -1
797 2 3522.89 4002.26 3477.34 -1 -1 -1
798 2 1545.5 3824.2 2948.64 0 0 0
799 2 3626.9 1851.86 3575.47 -1 1 -1
800 2 3644.44 3360.3 3500.51 -1 0 -1
801 2 2074.82 2030.28 3159.32 0 0 0
802 2 1359.38 1093.88 3019.44 0 1 0
803 2 2571.27 3737.22 1283.98 0 -1 0
804 2 2497.73 3023.79 2006.41 0 -1 0
805 2 2007.54 1191.71 2193.96 0 0 0
806 2 3942.05 3109.43 1707.73 -1 -1 0
807 2 3701.94 3731.45 3711.06 -1 0 -1
808 2 3181.96 2183.79 1605.23 -1 0 0
809 2 3813.46 1332.77 2938.4 0 0 0
810 2 2426.42 1369.25 3963.62 0 0 -1
811 2 1212.36 1378.03 3567.11 1 0 0
812 2 2645.62 1273.38 3585.49 0 0 -1
813 2 2259.78 1284.21 2993.2 0 0 0
814 2 1504.01 2946.65 1770.44 0 0 0