ITEM: TIMESTEP
244000
ITEM: NUMBER OF ATOMS
1000
ITEM: BOX BOUNDS pp pp pp
1.2836829281156263e+03 3.7163170718840097e+03
1.2836829281156263e+03 3.7163170718840097e+03
1.2836829281156263e+03 3.7163170718840097e+03
ITEM: ATOMS id type x y z ix iy iz
1 2 3541.8 3350.39 1526.21 0 0 0
2 2 1710.18 1379 2664.07 0 1 -1
3 2 2057.21 3665.94 1534.06 0 -1 1
4 2 1686.32 1941.63 3053.37 0 0 -1
5 2 3541.96 1300.36 3044.64 0 0 -1
6 2 1958.95 2433.94 1978.38 -1 0 -1
7 2 2070.67 2316.84 2017.01 0 0 0
8 2 1370.96 3588.54 2567.2 0 0 0
9 2 3523.65 2437.97 2143.3 -1 0 0
10 2 1797.57 3428.59 3002.73 0 0 0
11 2 2918.86 2338.91 3055.79 0 0 0
12 2 1317.32 3366.82 3027.32 0 0 -1
13 2 1404.24 2227.19 1501.09 1 0 1
14 2 1448.24 3385.52 1809.54 0 0 0
15 2 3512.96 1461.44 3338.67 0 0 -1
16 2 1748.02 3666.51 1483.25 0 -1 0
17 2 2433.2 1966.58 3476.19 2 1 0
18 2 2322.19 2247.52 3350.26 0 1 -1
19 2 2229.91 1773.8 3627.01 0 0 0
20 2 3590.33 1433.64 3010.54 0 1 0
21 2 1781.15 2538.96 1527.46 0 1 1
22 2 1458 3237.28 1713.08 0 0 1
23 2 2945.88 3173.43 1866.06 -1 1 0
24 2 1321.69 1790.06 3526 1 0 -1
25 2 2215.43 1379.47 1301.98 0 1 1
26 2 2920.57 2176.94 2747.69 0 0 1
27 2 1676.43 2984.4 3451.42 0 0 0
28 2 1423.94 2400.94 3675.33 0 0 0
29 2 3587.15 2100.8 2564.61 -1 1 0
30 2 3445.74 1713.85 3640.45 -1 1 0
31 2 1524.64 3226.5 3438.7 0 -1 0
32 2 1428.17 3693.2 2689.26 0 0 0
33 2 2070.53 1968 2030.61 0 0 0
34 2 2103.2 1639.65 3590.93 0 1 0
35 2 3291.62 3432.78 3684.49 0 -1 0
36 2 2162.32 1295.26 2972.53 0 1 0
37 2 1542.86 1520.37 2686.64 0 0 0
38 2 1335.43 2670.39 1358.04 0 1 0
39 2 3633.05 2466.08 1604.08 -1 1 0
40 2 2111.36 1930.09 3390.63 0 -1 0
41 2 1569.47 3241 1858.67 1 -1 0
42 2 3587.26 2258.48 1355.12 -1 0 0
43 2 1588.11 2394.39 2089.06 1 0 1
44 2 3165.34 2974.9 3321.69 1 -1 0
45 2 1489 2276.08 2024.88 0 0 0
46 2 3193.01 1461.18 2048.75 0 1 0
47 2 3633.29 2746.48 2235.66 -1 0 0
48 2 1311.34 2551.84 1487.55 1 0 0
49 2 3337.63 2335.42 1286.74 0 0 1
50 2 2301.48 3310.13 1815.07 0 0 1
51 2 3042.29 1464.2 3132.37 -1 1 1
52 2 2762.83 2324.8 1883.75 0 0 0
53 2 2007.07 2403.49 1525.72 0 0 1
54 2 1719.72 1523.94 2761.07 0 1 0
55 2 2695.83 1967.53 2780.89 0 0 -1
56 2 1886.35 2004.37 2033.91 0 0 0
57 2 1775.8 2256.4 3141.27 0 0 -1
58 2 1291.72 1982.64 2579.48 0 0 0
59 2 2963.42 2340.27 1976.12 -1 2 0
60 2 1978.4 3462.06 1491.47 0 0 0
61 2 3648.23 2298.47 2507.86 -1 0 0
62 2 3442.04 3348.92 3241.13 0 -1 0
63 2 1362.04 3479.37 3700.75 0 0 0
64 2 3621.01 2417.41 1447.03 0 0 1
65 2 2812.53 2064.77 2864.94 0 -1 0
66 2 3230.16 1504.59 3152.11 0 0 -1
67 2 2777.78 1404.04 3016.12 0 1 1
68 2 1656.08 2188.88 2438.8 0 0 1
69 2 2714.48 1799.4 1696.92 0 0 0
70 2 2228.1 3451.34 3092.82 0 0 0
71 2 1312.02 1452.72 1480.67 0 0 1
72 2 2862.52 2205.06 2588.45 -1 -1 0
73 2 3201 1405.6 1847.48 -2 -1 0
74 2 2049.46 1344.49 3663.48 0 1 -1
75 2 3322.12 1930.92 1464.74 0 0 0
76 2 2813.9 2652.2 2145.63 0 -1 0
77 2 3293.39 1750.16 1606.97 -1 1 1
78 2 1381.81 1671.6 2714.56 0 0 0
79 2 3622.91 2779.66 1336 -1 0 0
80 2 2080.73 3346.41 1642.79 0 0 -1
81 2 2262.49 1356.75 3557.53 0 2 0
82 2 3011.01 3234.42 2122.55 -1 0 -1
83 2 2369.81 3366.71 2606.77 0 0 0
84 2 2593.76 1829.09 1501.08 1 1 1
85 2 3243.38 1575.37 1551.97 0 1 0
86 2 3659.89 2311.87 1695.89 -1 0 1
87 2 1641.05 2039.13 2551.31 1 0 0
88 2 3715.22 3211.6 1417.6 -1 0 1
89 2 1332.56 2620.04 1667.87 1 0 1
90 2 3517.08 2196.73 3489.9 0 1 -1
91 2 2647.77 3125.87 3126.16 0 0 -1
92 2 2191.34 2262.38 1314.13 -1 0 0
93 2 2329.78 1365.78 1470.22 0 0 1
94 2 2317.82 2029.39 3580.9 1 1 -1
95 2 1604.9 2053.12 3157.6 0 0 -1
96 2 1986.23 3381.79 1332.13 1 0 1
97 2 3271.93 3537.65 3002.88 0 -1 0
98 2 3382.08 1491.84 1599.8 0 0 0
99 2 1449.39 1941.81 1368.08 0 0 0
100 2 2075.56 1616.08 3417.93 1 0 0
101 2 2390.55 2300.76 2900.09 0 0 0
102 2 1894.45 3595.23 1565.34 0 -1 0
103 2 3687.7 1746.1 1871.23 -1 0 0
104 2 2314.49 1484.49 1595.47 0 0 0
105 2 2161.8 1756.35 3020.1 0 0 0
106 2 2469.94 1909.07 1576.9 0 0 0
107 2 1640.99 1937.1 2247.76 0 0 0
108 2 3576.65 3485.66 1664.64 -1 0 0
109 2 1968.93 1889.6 1880.59 0 0 0
110 2 1670.91 2342.32 1417.5 0 0 0
111 2 1456.51 3300.32 3194.02 1 -1 -1
112 2 3537.65 1447.29 2244.17 -1 -1 0
113 2 1891.44 3490.3 2094.4 0 -1 0
114 2 3105.54 2447.97 1744.4 0 0 1
115 2 3617.4 1903.39 3492.31 -1 0 -1
116 2 1781.58 1915.67 2526.27 0 0 0
117 2 2182.51 3486.03 1863.92 0 -1 1
118 2 1424.79 3523.81 2724.21 0 -1 0
119 2 2135.23 1523.2 1609.46 0 0 0
120 2 3593.13 3667.37 2130.51 -1 -1 0
121 2 3607.61 1844.48 2325.46 -1 0 0
122 2 1560.51 1292.99 3672.92 0 0 -1
123 2 1854.43 1958.67 1399.75 0 0 0
124 2 1711.63 1556.8 1404.32 0 0 0
125 2 1429.76 3488.99 1460.73 0 -1 0
126 2 3708.81 1981.61 1656.91 -1 0 0
127 2 3633.01 2152.89 2308.06 -1 0 0
128 2 1708.46 1361.57 1731.22 0 0 0
129 2 1389 2138.72 3508.21 0 0 -1
130 2 1342.42 1515.6 2442.3 0 0 0
131 2 1536.76 1370.14 2601.63 0 0 -1
132 2 1559.24 2432.04 3551.24 0 0 -1
133 2 2083.43 1694.48 1657.63 0 0 0
134 2 1511.45 3372.6 1359.05 1 -1 1
135 2 1727.17 2013.4 1761.72 0 0 0
136 2 3635.26 2419.98 2644.93 0 -1 -1
137 2 2953.71 2015.03 2736.82 0 1 0
138 2 1530.53 1858.96 2701.12 0 0 0
139 2 3434.77 1865.64 2014.06 -1 0 0
140 2 2986.76 2367.03 1642.24 -1 -1 0
141 2 2786.9 1881.69 3324.58 -1 0 0
142 2 1326.43 2328.06 1375.07 0 0 0
143 2 1955.2 1564.92 1610.24 0 0 0
144 2 1353.49 1831.13 2000.68 0 0 0
145 2 2078.74 1898.79 2958.36 0 0 0
146 2 2135.39 2286.21 1490.7 0 0 0
147 2 1437.26 1719.22 1861.85 0 0 0
148 2 1947.49 1564.25 3623.96 0 0 -1
149 2 2053.75 1548.22 1793.58 0 0 0
150 2 3603.84 2321.4 2778.57 -1 0 0
151 2 2346.42 2059.6 1911.06 0 0 -1
152 2 3622.23 1994.42 2433.05 -1 0 -1
153 2 1889.44 1400.22 2184.94 0 0 0
154 2 1882.8 2123.82 1504.35 0 0 0
155 2 2256.21 1452.87 2367.45 0 0 0
156 2 3525.26 1495.43 1712.49 -1 0 0
157 2 3366.62 1444.59 1792.54 0 0 0
158 2 2583.22 1342.49 1734.38 0 0 0
159 2 1601.77 3470.53 1845.47 0 -1 0
160 2 1675.13 2308.15 3499.38 1 0 0
161 2 3465.65 1904.14 3629.11 -1 0 -1
162 2 2154.81 1511.13 2086.99 0 0 0
163 2 3349.67 3525.72 2038.08 0 0 0
164 2 2921.48 1647.5 2284.17 0 0 0
165 2 1967.54 1701.85 1490.94 0 0 0
166 2 3491.9 2183.64 1493.04 0 0 0
167 2 1848.88 1449.09 2562.88 0 0 0
168 2 1660.83 1724.77 1460.83 0 0 0
169 2 1449.64 1413.09 1335.63 0 0 0
170 2 3069.35 3250.61 2591.86 -1 0 0
171 2 1685.46 3239.13 2022.7 0 -1 0
172 2 1354.71 1875.93 1517.39 0 0 0
173 2 1839.13 2384.31 1477.88 0 0 0
174 2 3553.65 1747.58 2456.59 -1 0 -1
175 2 1426.11 1761.57 1368.94 0 0 0
176 2 1759.19 2401.86 2455.21 0 0 0
177 2 3569.49 3095.58 2231.41 0 -1 0
178 2 1501.87 2302.11 1363.34 0 0 0
179 2 1994.31 2140.05 1920.77 0 0 0
180 2 1589.44 3569.12 1479.62 0 -1 0
181 2 3425.13 3475.74 3002.34 -1 -1 -1
182 2 2190.06 1351.19 1563.72 0 0 0
183 2 3530.93 1442.57 1884.05 -1 0 0
184 2 1448.18 1971.09 1943.33 0 0 0
185 2 1964.32 1297.46 2297.52 0 0 0
186 2 1694.69 2403.59 1588.97 0 0 0
187 2 3530.21 2004.05 2271.69 -1 0 0
188 2 3660.74 1611.29 1410.84 -1 0 0
189 2 2463.69 1897.52 2166.82 0 0 -1
190 2 2542.42 1482.92 1642.68 0 0 0
191 2 1641.55 1786.48 3586.34 0 0 -1
192 2 1377.09 2063.67 1782.4 0 0 0
193 2 1805.79 2121.13 2523.08 0 1 0
194 2 1750.21 2487.27 1360.77 0 0 0
195 2 1337.6 2391.99 1545.19 0 0 0
196 2 2406.68 1468.49 1746.52 0 0 0
197 2 1557.64 2022.9 1491.47 0 0 0
198 2 2486.35 1753.26 1825.39 0 0 0
199 2 1707.54 1778.77 1981.43 0 0 0
200 2 1340.8 2448.72 1732.85 0 0 0
201 2 2903.13 3037.73 3053.94 0 -1 -1
202 2 1298.56 2137.38 2462.09 0 0 0
203 2 1600.9 3518.74 1660.63 0 -1 0
204 2 2503.27 1758.21 2815.41 0 0 0
205 2 3620.46 1444.39 2405.68 -1 0 0
206 2 1473.06 1963.15 2591.52 0 0 0
207 2 3127.55 2926.93 2748.7 0 0 0
208 2 1441.01 1658.68 2373 0 0 0
209 2 3492.64 3383.69 1985.64 1 -2 2
210 2 2171.03 2085.07 1924.68 0 0 0
211 2 2282.96 1341.38 1722.58 0 0 0
212 2 2305.86 3025.07 3014.69 -1 -2 -1
213 2 2129.27 1444.61 1920.71 0 0 0
214 2 2020.71 3414 1808.76 0 -1 0
215 2 2549.77 1763.56 1659.17 0 0 0
216 2 1880.29 3647.25 3537.17 0 -1 -1
217 2 3464.2 3714.06 1844.04 -1 -1 0
218 2 2493.98 1853.65 1334.6 1 1 0
219 2 1753.79 3623.89 1678.31 0 -1 0
220 2 3528.37 1993.92 1669.11 -1 0 0
221 2 3134.45 1565.61 1992.59 1 0 -1
222 2 1344.13 1580.58 1931.93 0 0 0
223 2 2682.92 3208.05 2816.52 0 -2 -1
224 2 1702.03 3462.04 2685.65 0 -1 -1
225 2 1926.34 1420.61 1741.01 0 0 1
226 2 2141.82 1661.11 1482.48 0 0 0
227 2 1831.03 2015.97 3529.88 0 0 0
228 2 2380.46 2054.95 1496.19 0 0 0
229 2 1547.55 1503.38 1458.46 0 0 0
230 2 1979.77 1886.86 3497.22 0 0 -1
231 2 1737.91 1423.89 2322.27 0 0 0
232 2 2039.9 2154.21 2324.16 0 0 0
233 2 1765.14 1375.41 1361.36 0 0 0
234 2 2258.81 1653.06 1653.09 0 0 0
235 2 1787.34 1990.12 1581.41 0 0 0
236 2 1563.25 1645.82 1325.91 0 0 0
237 2 3384.59 1814.58 1331.79 -1 0 0
238 2 1355.73 1672.51 2538.63 0 0 0
239 2 1361.01 2046.21 3676.43 0 0 -1
240 2 2453.98 1909.38 1917.44 0 0 0
241 2 3252.2 2641.93 3693.34 -1 0 -1
242 2 2232.87 1520.4 3592.42 0 0 0
243 2 2830.94 3135.86 2752.46 0 0 0
244 2 1844.6 1718.27 2360.78 0 0 0
245 2 1519.2 2013.18 3464.76 0 0 -1
246 2 2126.52 1353.34 2347.67 0 0 -1
247 2 1750.71 2236.55 1543.54 0 0 0
248 2 3438.1 1920.8 1810.78 -1 0 0
249 2 3661.92 3391.58 2079.45 -1 -1 0
250 2 3175.68 2102.86 3611.5 -1 1 -1
251 2 1962.87 3533.58 3644.69 0 -1 0
252 2 1526.72 1647.5 2208.03 0 0 0
253 2 3494.87 2284.67 3638.72 0 0 -2
254 2 2428.56 1310.41 1816.53 0 0 0
255 2 1411.96 3399.03 2085.62 1 0 0
256 2 3493.74 2110.45 2423.92 0 1 -1
257 2 1999.83 1323.95 1881.59 0 0 0
258 2 1624.87 2612.83 1336.06 0 0 0
259 2 1914.65 1929.83 3662.79 0 0 -1
260 2 1691.44 2148.97 3571.77 0 0 -1
261 2 2172.03 1794.62 1366.8 0 0 0
262 2 1520.53 2428.23 1731.49 0 0 0
263 2 2008.32 1618.02 2302.01 0 0 0
264 2 1545.06 1325.31 3133.66 0 0 -1
265 2 1600.83 1755.1 1639.75 0 0 0
266 2 2229.29 1509.48 1770.49 0 0 0
267 2 1678.23 1531.02 2182.39 0 0 0
268 2 2027.16 2238.69 3699.1 0 0 -1
269 2 2495.34 2629.66 2115.26 0 0 0
270 2 2783.4 1439.94 3090.7 0 -1 -1
271 2 2035.33 3471 1978.18 0 -1 0
272 2 3632.92 1589.93 2508.47 -1 0 0
273 2 1494.72 2105.63 2465.03 0 0 0
274 2 1723.22 1362.38 2123.19 0 0 0
275 2 1936.08 2329.4 1837.49 0 0 0
276 2 2745.92 1479.69 3028.26 -1 1 0
277 2 1501.57 1670.41 1508.92 0 0 0
278 2 3167.09 2578.21 1861.69 0 0 0
279 2 1857.96 2433.94 1638.32 0 0 0
280 2 1305.61 3481.88 1755.32 0 -1 0
281 2 1345.3 3638.87 2394.61 0 -1 -1
282 2 3398.72 2107.76 2257.62 0 0 0
283 2 3515.74 1717.59 1372.44 -1 0 0
284 2 3680.82 1801.65 1669.54 -1 0 0
285 2 1617.57 2556.08 1629.73 0 -1 0
286 2 2330.17 2189.24 3647.72 -1 0 -1
287 2 1926.88 1808.25 2494.53 0 0 0
288 2 2007.29 1395.1 1570.91 0 0 0
289 2 2782.99 2086.45 1552.01 0 0 1
290 2 3461.37 2158.19 1983.81 -1 0 0
291 2 1501.33 1386.1 2403.1 0 0 0
292 2 1696.56 1721.15 3276.37 1 0 0
293 2 3605.88 1847.44 2007.33 -1 0 0
294 2 3428.44 1311.51 2186.59 0 0 0
295 2 1691.02 2056.18 3417.18 0 0 -1
296 2 1439.53 3666.66 1410.43 0 -1 0
297 2 1408.34 2291.7 1714.12 0 0 0
298 2 1335.57 1865.03 3680.96 0 0 -1
299 2 1320.49 3531.12 2080.92 0 -1 0
300 2 1542.96 1955.09 2095.07 0 0 0
301 2 1747.24 1610.7 1925.29 0 0 0
302 2 1460.92 1963.8 2260.39 0 0 0
303 2 2186.31 1964.31 1444.13 0 0 0
304 2 2116.23 1868.23 2425.93 0 -1 0
305 2 3334.01 3211.66 2725.69 0 -1 0
306 2 3439.25 2022.35 2110.39 -1 0 0
307 2 1985.13 1789.26 3355.46 -1 0 -1
308 2 3528.94 1387.83 2064.07 -1 0 0
309 2 2239.81 1997.47 1766.91 0 0 0
310 2 2555.64 3541 2167.67 -1 -1 0
311 2 2001.13 2968.72 1941.91 0 0 -1
312 2 1802.3 3469.32 3682.98 0 -1 -1
313 2 1905.16 2292.99 1994.59 0 0 0
314 2 1858.82 1472.38 1486.07 0 0 0
315 2 1894.02 2367.73 1317.51 0 0 0
316 2 2211.82 1630.27 1319.49 0 0 0
317 2 2446.67 1510.13 1501.07 0 0 0
318 2 1559.95 2044.74 2694.35 0 0 0
319 2 1368.45 2404.25 2233.94 0 0 0
320 2 1624.48 1788.91 2142.94 0 0 0
321 2 2952.99 1309.15 2751.64 -1 0 -1
322 2 1661.88 1533.68 1786.65 0 0 0
323 2 1460.8 2392.64 2233.15 0 0 0
324 2 1558.12 1356.45 2764.17 0 0 -1
325 2 1458.99 3510.24 1970.8 0 -1 0
326 2 3678.99 1496.22 1806.74 -1 0 0
327 2 1430.27 1508.54 2270.72 0 0 0
328 2 1867.67 1439.19 2722.12 0 0 0
329 2 3407.76 3645.95 2985.75 0 -1 0
330 2 1363.32 2719.34 1537.46 0 0 0
331 2 3516.39 2333.94 1594.24 -1 0 0
332 2 2688 2034.21 3571.29 0 -1 0
333 2 1407.32 2340.25 2191.8 0 0 0
334 2 2021.76 1532.01 1443.19 0 0 0
335 2 1815.11 3352.93 2609.2 0 0 -1
336 2 1844.33 1569.93 2238.62 0 0 0
337 2 2244.56 1933.79 3705.87 0 0 -1
338 2 2453.91 2311.94 2436.68 0 -1 -1
339 2 1698.7 3665.51 2547.56 0 -1 -1
340 2 2335.3 1771.5 2219.6 0 0 0
341 2 1458.13 2571.8 3711.17 0 0 -1
342 2 2505.76 2076.67 1971.4 0 0 0
343 2 3629.48 2148.83 1992.39 -1 0 0
344 2 1822.91 2138.64 1679.88 0 0 0
345 2 3558.52 2081.2 1355.26 -1 0 0
346 2 1976.02 2310.42 2374.5 0 -1 0
347 2 2071.57 1986.87 1295.73 -1 0 0
348 2 1590.03 2274.01 1678.64 0 0 0
349 2 1743.6 3488.66 1527.86 0 -1 0
350 2 2098.39 2145.4 2070.71 0 0 0
351 2 1657.51 1673.03 3430.87 0 0 0
352 2 1513.23 1535.14 2517.9 0 0 0
353 2 3655.53 1427.6 2581.28 -1 0 0
354 2 1655.58 1468.29 1990.53 0 0 0
355 2 1586.33 2255.88 2178.61 0 0 0
356 2 1435.27 1674.57 2055.31 0 0 0
357 2 3321.49 2221.04 2518.17 0 0 0
358 2 1899.24 1748.69 3675.51 0 0 -1
359 2 1565 1446.35 1663.99 0 0 0
360 2 2921.01 2316.67 1779.61 0 0 0
361 2 1297.37 1502.08 3708.13 0 0 -1
362 2 1956.64 3388.96 2246 0 0 0
363 2 1790.35 3693.58 2265.1 0 -1 0
364 2 2146.56 3330.38 1908.42 0 -1 0
365 2 2526.73 2083.09 2113.3 0 0 0
366 2 3465.41 1986.68 3473.29 0 0 -1
367 2 3096.7 1784.32 3235.86 0 0 0
368 2 1315.55 2530.41 2753.83 0 -1 0
369 2 1859.24 1911.91 2362.11 0 0 0
370 2 3455.08 2007.57 1494.22 -1 0 0
371 2 1912.57 1611.7 2500.14 0 0 0
372 2 2829.89 1898.78 2504.8 0 0 0
373 2 2897.38 2236.62 1608.73 0 0 1
374 2 2328.88 2105.95 1663.66 0 0 0
375 2 2545.98 2414.71 3074.01 -1 0 0
376 2 3592.9 3429.02 1844.03 0 0 0
377 2 3553.79 2174.47 1659.3 -1 0 0
378 2 1836.76 2004.98 3000.27 1 0 -1
379 2 1709.83 2379.65 3283.6 0 0 -1
380 2 2840.58 1584.64 3560.74 -1 0 -1
381 2 2346.64 1755.8 1329.62 0 0 0
382 2 2828.18 1469 3027.18 0 0 0
383 2 3027.47 2482.69 1475.26 -1 -1 -1
384 2 1963.95 1971.75 2795.37 0 0 0
385 2 1826.37 1694.16 2806.08 0 -1 0
386 2 2061.03 1819.3 3643.62 0 0 -1
387 2 1841.27 3704.45 1813.78 0 -1 0
388 2 1526.1 1562.03 1901.98 0 0 0
389 2 1570.28 3345.88 2610.92 0 -1 -1
390 2 1859.24 3303.49 1794.88 0 -1 1
391 2 1464.49 1363.3 1540.72 0 0 0
392 2 3402.39 2102.27 1631.57 -1 0 0
393 2 1309.4 2214.15 1853 0 0 0
394 2 1436.71 2405.87 2414.52 0 1 0
395 2 1476.93 1305.4 1729.22 0 0 0
396 2 1845.5 3316.74 2038.99 0 -1 0
397 2 1875.64 1588.16 1795.27 0 0 0
398 2 3438.16 3479.97 1586.91 -1 -1 1
399 2 1382.85 3117.53 1599.72 0 -1 0
400 2 3074.81 3550.42 1491.8 -1 -1 0
401 2 1334.31 3715.09 2033.19 0 -1 0
402 2 1293.16 1324.33 1353.19 0 0 0
403 2 1783.26 1823.58 2218.82 0 0 0
404 2 1515.81 1619.97 1726.23 0 0 0
405 2 1432.68 2310.14 3508 0 0 -1
406 2 3650.58 1737.85 2608.61 0 0 0
407 2 3079.26 1539.09 3198.2 -1 0 0
408 2 2411.12 3466.46 2768.87 0 -1 0
409 2 1337.12 1637.08 1737.47 0 0 0
410 2 1309.17 1684.6 3693.9 1 1 0
411 2 1805.61 2046.11 2827.06 0 0 0
412 2 3234.76 1437.5 1676.82 -1 1 1
413 2 1720.66 2026.54 2382.72 0 0 0
414 2 3497.33 3444.25 3466.69 -1 -1 -1
415 2 1642.18 1589.99 1586.63 0 0 0
416 2 1423.33 1357.22 2170.65 0 0 0
417 2 3506.05 1767.66 1877.33 -1 0 0
418 2 2213.57 1487.49 3426.39 0 0 0
419 2 1601.14 3427.95 3637.93 1 0 -1
420 2 2533.96 1947.35 3605.1 0 0 0
421 2 2041.79 3588.2 1837.91 0 -1 0
422 2 1308.2 2291.77 2029.44 0 0 0
423 2 1668.99 2251.57 2018.29 0 0 0
424 2 3400.83 1359.21 3528.35 -1 1 -1
425 2 2264.93 3076.86 3174.54 0 -1 -1
426 2 3486.76 2500.76 1510.15 0 0 0
427 2 1477.53 1843.55 3469.22 0 0 0
428 2 2075.99 1362.93 1401.83 0 0 0
429 2 3581.06 3491.08 1323.28 -2 0 1
430 2 1385.41 2041.85 3362.57 0 0 -1
431 2 1551.96 2040.49 1775.59 0 0 0
432 2 1874 3423.86 1911.19 0 -1 0
433 2 2045.02 1673.5 1327.32 0 0 0
434 2 3341.05 1367.29 1942.57 -1 0 0
435 2 3426.95 2255.03 1741.24 -1 0 0
436 2 3631.74 2077.07 1522.64 -1 0 0
437 2 1748.28 1578.08 2422.1 0 0 0
438 2 1409.77 1974.09 2707.34 0 1 0
439 2 1808.65 2184.11 3457.7 0 0 -1
440 2 1708.68 2105.13 3039.29 0 0 -1
441 2 1669.74 1965.59 3571.97 0 0 -1
442 2 1814.77 2156.25 2110.6 0 0 0
443 2 1913.68 1450.86 2362.34 0 0 0
444 2 1613.51 1636.72 2045.95 0 0 0
445 2 1751.2 1872.44 3706.66 0 0 -1
446 2 3090.55 1341.75 1714.21 1 1 0
447 2 1814.44 1510.23 2061.77 0 0 0
448 2 3593.7 1602.14 1932 -1 0 0
449 2 3563.09 2600.09 3170.88 -1 0 0
450 2 1498.08 1925.11 3625.45 0 0 -1
451 2 2311.83 1624.25 1481.21 0 0 0
452 2 1560.87 1945.02 2411.98 0 0 0
453 2 1691.96 1422.76 1529.99 0 0 0
454 2 2198.46 1345.64 2036.84 0 0 0
455 2 1592.89 3349.38 1713.72 0 -1 0
456 2 1978.11 1898.51 2167.32 0 0 0
457 2 1725.92 3454.27 2019.98 0 -1 -1
458 2 1984.73 1514.23 2617.72 0 0 1
459 2 1508.69 1582.25 3471.74 1 0 -1
460 2 2274.68 2857.8 2581.96 0 -1 0
461 2 2212.05 1402.52 2208.98 -1 0 0
462 2 1527.08 1687.13 2614.21 0 0 0
463 2 1586.96 3388.26 1531.21 0 -1 0
464 2 2309.15 1941.73 2168.08 0 0 0
465 2 2476.83 1567.05 2096.75 0 0 0
466 2 2086.37 2284.25 2188.03 0 0 -1
467 2 2581.04 1392.92 3447.56 0 1 0
468 2 3704.95 1985.41 1945.64 -1 0 0
469 2 2403.24 1662.66 1981.47 0 0 0
470 2 1421.81 3515.95 2244.02 0 -1 0
471 2 3604.48 1902.27 1808.94 -1 0 0
472 2 3436.72 1608.7 1833.19 -1 0 0
473 2 1991.13 1842.29 1379.21 0 0 0
474 2 3705.63 3363.6 1593.64 -1 0 1
475 2 1440.87 3439.18 1637.42 0 -1 0
476 2 1351.85 1886.92 1812 0 0 0
477 2 2206.08 1748.97 1984.34 0 0 0
478 2 3594.49 1547.69 2112.3 -1 0 0
479 2 1456.7 3615.14 1595.77 0 -1 0
480 2 1681.01 1938.82 3255.12 0 0 0
481 2 2147.49 1854.17 2138.75 0 0 0
482 2 2024.89 3344.03 2088.45 0 0 0
483 2 2981.05 3481.1 1354.21 0 -1 0
484 2 3459.18 1368.88 1284.25 -1 1 0
485 2 3422.29 2316.39 1911.49 0 1 0
486 2 1840.52 2207.84 1851.68 0 0 0
487 2 1523.16 3647.32 2504.79 0 -1 0
488 2 1874.86 2197.73 2636.39 0 0 -2
489 2 3668.72 2467.2 2058.87 -1 1 0
490 2 3021.46 2231.73 2515.39 0 1 0
491 2 1563.15 1327.74 2053.69 0 0 0
492 2 3403.13 3257.61 3448.47 0 0 -1
493 2 3377.65 1920.72 1630.59 -1 0 0
494 2 2049.25 2157 1561.16 0 0 0
495 2 1570.41 3368.26 1983.73 0 -1 0
496 2 1717.73 2083.95 1439.85 0 0 0
497 2 1603.9 3535.9 2324.59 0 -1 0
498 2 1659.6 3227.84 3095.6 -1 -1 -1
499 2 2277 1882.19 3487.68 0 0 0
500 2 1894.18 2039.31 1811.05 0 0 0
501 2 1877.67 1290.71 2616.88 0 0 -1
502 2 2782.67 1470.29 1646.01 0 0 0
503 2 3361.66 1754.07 1770.13 -1 0 0
504 2 1976.54 1551.09 2117.28 0 0 0
505 2 1364.99 1977.27 2104.31 0 0 0
506 2 1617.01 1837.9 2551.71 0 0 0
507 2 2079.97 1482.88 3538.97 0 0 -1
508 2 1757.96 1809.92 1591.76 0 0 0
509 2 1341.01 1532.69 2114.3 0 0 0
510 2 2116.22 3407.11 3220.21 0 0 0
511 2 1409.53 2403.2 2110.55 0 -1 0
512 2 1618.12 2209.12 3198.86 0 0 -1
513 2 2106.45 1381.58 1726.56 0 0 0
514 2 3612.33 1293.14 2300.01 0 1 -1
515 2 2012.84 2003.78 1469.52 0 0 0
516 2 1835.32 2924.22 1344.16 0 0 1
517 2 2065.03 2017.96 1784.97 0 0 0
518 2 3061.35 1421.08 1966.07 0 1 0
519 2 1366.05 1345.58 2510.26 -1 0 -1
520 2 2558.21 3622.56 2571.27 0 -1 -1
521 2 2350.95 1902.71 1416.61 -1 0 0
522 2 3381.88 1931.5 2244.29 -1 0 0
523 2 1506.78 1933.39 3318.48 0 0 0
524 2 1409.65 2111.07 2607.73 0 -1 0
525 2 1468.57 3621.33 2119.54 0 -1 0
526 2 3607.55 1342.85 1756.17 -1 0 0
527 2 2031.55 1858.82 1709.99 0 0 0
528 2 3705.24 1834.85 2479.8 -1 0 0
529 2 1964.97 3292.9 1928.94 0 -1 0
530 2 3678.9 3498.88 2228.77 -1 0 0
531 2 1475.03 2132.91 1643.86 0 0 0
532 2 3285.56 1606.81 1721.77 0 0 0
533 2 2438.01 1756.6 1518.33 0 0 0
534 2 2528.24 1588.89 1792.2 0 0 0
535 2 1910.68 3402.23 1645.45 0 -1 0
536 2 3590.72 1592.49 3616.5 -1 0 -1
537 2 1321.48 3597.99 1892.44 0 -1 0
538 2 2841.67 3175.89 2139.56 0 -1 0
539 2 3495.52 1563.67 1474.63 -1 0 0
540 2 3205.11 1700.62 1856.22 0 0 0
541 2 2899.25 3483.44 3627.92 -1 0 -1
542 2 1695.53 2527.81 3628.06 0 0 -1
543 2 3610.25 1284.41 1941.25 -1 0 0
544 2 1680 2227.05 3343.65 0 0 -1
545 2 2270.72 2232.92 2166.59 -1 -1 -1
546 2 2255.04 1931.76 1999.78 0 0 0
547 2 2430.52 1616.02 1643.86 0 0 0
548 2 2102.73 1675.83 2144.55 0 0 0
549 2 2018.2 1983.85 2329.84 0 0 0
550 2 3181.6 3600.55 1697.61 0 -1 0
551 2 1290.41 2138.04 2156.13 0 0 0
552 2 2272.41 1636.2 2107.63 0 0 0
553 2 1530.04 1813 1989 0 0 0
554 2 3712.37 1985.37 2267.92 -1 0 0
555 2 1765 3343.35 2803.55 -1 0 0
556 2 1931.08 1432.56 1317.87 0 0 0
557 2 1391.09 3650.53 3678.66 1 0 -1
558 2 1869.6 3194.77 2849.38 -1 -1 -1
559 2 3297.33 1602.4 2083.15 0 1 0
560 2 1857.37 3548.72 1394.67 0 -1 0
561 2 2210.14 3264.56 1522.4 0 -1 1
562 2 2295.2 1404.1 1892.27 0 0 0
563 2 1927.53 3479.15 3283.57 -1 0 0
564 2 1768.13 1725.34 2526.17 0 0 0
565 2 2061.58 2815.51 1994.45 0 0 0
566 2 2191.73 2097.15 3471.7 0 0 -1
567 2 1652.87 2106.99 1628.85 0 0 0
568 2 3439.79 3373.2 1333.18 0 0 0
569 2 1769.12 1678.54 2115.72 0 0 0
570 2 3658.58 2300.16 2183.85 -1 0 -1
571 2 3288.17 3710.53 1613.43 -2 -1 0
572 2 3588.9 1444.64 1385.93 -1 0 0
573 2 2613.94 1354.54 3052.19 0 0 -1
574 2 2588.86 3130.17 1884.49 0 0 0
575 2 2097.88 3699.53 2184 0 -1 0
576 2 2784.33 2106.42 2718.35 0 0 0
577 2 2137.24 2025.19 2193.07 0 0 0
578 2 3026.51 2814.18 2148.31 0 0 1
579 2 3245.45 2065.57 2534.27 0 0 0
580 2 2004.9 1719.12 1820.83 0 0 0
581 2 1798.94 1634.75 3542.37 0 0 -1
582 2 1866.5 1365.78 3409.23 0 0 0
583 2 2409.18 1952.69 1739.94 0 0 0
584 2 1412.38 2351.64 1879.45 0 0 0
585 2 1525.92 1861.36 1792.89 0 0 0
586 2 1672.19 2323.65 2329.1 0 0 0
587 2 3671.05 1559.67 1609.8 -1 0 0
588 2 1473.11 2123.35 1366.29 0 0 0
589 2 1444.31 1818.55 2156.11 0 0 0
590 2 2162.13 1740.13 2302.83 0 0 0
591 2 3459.06 3539.77 1890.3 -1 -1 0
592 2 1789.51 1507.09 1655.61 0 0 0
593 2 3146.7 1389.6 3226.24 -1 0 -1
594 2 1983.77 1367.23 2494.84 0 0 0
595 2 1745.08 3515.13 2212.06 0 -1 0
596 2 1662.44 2180.5 1816.83 0 0 0
597 2 3625.29 1978.85 3652.25 -1 0 -1
598 2 3355.94 1708.3 1948.61 -1 0 0
599 2 1904.87 3555.73 2267.93 0 0 0
600 2 2171.5 3712.89 1855.3 0 -1 0
601 2 1484.93 3669.59 2292.97 0 -1 0
602 2 2644.28 1944.56 1615.17 0 0 0
603 2 3477.87 2322.75 2465.26 -1 1 0
604 2 2423.42 2862.58 2653.29 0 -1 -1
605 2 2234.45 2225.91 1983.11 -1 -1 0
606 2 1742.31 1675.45 1709.69 0 0 0
607 2 2134.8 1960.89 3559.28 0 0 -1
608 2 2109.54 2439.43 2125.73 -1 0 -1
609 2 2730.59 2631.91 1713.74 0 -1 -1
610 2 1309.22 3707.81 1526.2 1 -1 0
611 2 2697.4 3589.57 2479.72 0 -1 0
612 2 1901.52 2242.94 2251.01 0 0 0
613 2 2425.7 1355.44 1613.06 0 0 0
614 2 1533.59 1845.32 1496.45 0 0 0
615 2 1521.9 2106.95 3625.11 0 0 -1
616 2 1984.44 2174.68 1745.69 0 0 0
617 2 1433.45 1421.66 1969.62 0 0 0
618 2 1950.98 2026.22 1643.72 0 0 0
619 2 1379.24 2130.41 1996.79 0 0 0
620 2 2646.26 1713.45 1844.18 0 1 1
621 2 1823.44 3545.36 2572.56 0 -1 0
622 2 1879.03 1605.91 1357.35 0 0 0
623 2 3686.54 2250.74 3501.74 -1 0 -1
624 2 2310.55 1803.98 1845.26 0 0 0
625 2 1857.45 1895.28 1715.11 0 0 0
626 2 2852.8 3606.31 1826.06 0 0 1
627 2 3452.3 1613.3 2191.95 -1 0 0
628 2 3680.23 2340.54 3656.46 -1 0 0
629 2 2301.39 3671.32 1569.06 0 0 0
630 2 3164.71 3152.05 2706.74 0 0 0
631 2 1357.57 1827.67 2319.49 0 0 0
632 2 2080.78 1621.71 1959.81 0 0 0
633 2 1741.9 2269.7 2561.09 0 0 0
634 2 1438.62 2468.24 1405.34 0 0 0
635 2 1540.01 1798.22 2309.07 0 0 0
636 2 1829.28 2273.96 2417.86 0 0 0
637 2 1808.49 1840.72 3538.68 0 0 -1
638 2 2068.33 3652.98 2005.13 0 -1 0
639 2 2381.72 1872.03 3623.49 0 0 0
640 2 1887.45 2096.49 2353.48 0 0 0
641 2 1913.17 1299.71 1445.89 0 0 0
642 2 1839.08 1334.01 1606.2 0 0 0
643 2 1290.43 3313.63 1769.34 0 0 0
644 2 2251.94 1570.64 1945.96 0 0 0
645 2 3514.48 3236.65 2741.18 -1 -1 0
646 2 1919.31 1535.25 3454.46 0 0 0
647 2 2002.01 1798.23 2328.29 0 0 0
648 2 2089.5 2297.89 1649.52 0 0 0
649 2 1612.04 2510.26 1464.44 0 0 0
650 2 1520.7 1495.7 2110.83 0 0 0
651 2 2265.53 1785.63 1530.26 0 0 0
652 2 1846.2 1807.59 3241.88 0 0 0
653 2 2093.27 1500.35 3711.85 0 0 -1
654 2 1629.46 1589.8 3596.64 0 0 -1
655 2 2782 3102 1885.24 0 0 0
656 2 1801.18 2013.39 2216.2 0 0 0
657 2 1565.45 3605.51 2674.01 0 -1 0
658 2 1481.39 2846.49 1561.08 0 0 0
659 2 1584.65 1827.44 1325.29 0 0 0
660 2 1451.82 1813.49 2472.31 0 0 0
661 2 3532.04 1935.89 2565.15 0 0 -1
662 2 1739.29 2172.58 2271.96 0 0 0
663 2 1427.94 1380.89 3603.42 -1 1 -1
664 2 2435.97 1511.73 1924.95 0 0 0
665 2 3450.16 1389.65 1460 -1 1 0
666 2 1829.5 1751.72 1851.26 0 0 0
667 2 2035.4 1789.63 2022.33 0 0 0
668 2 2141.98 3320.54 2369.91 -1 -1 1
669 2 2689.23 3133.76 2025.94 0 0 1
670 2 1649.31 3711.19 2378.94 0 -1 0
671 2 1458.34 3509.91 2428.76 0 -1 -2
672 2 3447.56 1828.2 1502.13 -1 0 0
673 2 1757.37 3577.16 2404.48 0 0 0
674 2 3488.4 2093.96 3626.1 -1 0 -1
675 2 1580.32 3486.53 2129.3 0 -1 0
676 2 2984.82 1438.27 3219.01 0 0 -1
677 2 1631.69 3648.14 2186.93 0 -1 0
678 2 1758.59 1472.62 3492.77 0 0 -1
679 2 1780.24 1505.17 3667.15 0 0 -1
680 2 1326.92 1341.42 1853.32 0 0 0
681 2 2267.36 2090.64 2078.67 0 0 0
682 2 2207.12 1823 1699.24 0 0 0
683 2 1559.43 2110.44 1987.2 0 0 0
684 2 3456.37 3154.88 3571.95 -1 0 -1
685 2 2311.09 2672.14 2351.93 0 0 0
686 2 1906.82 1730.7 1663.57 0 0 0
687 2 2545.61 1763.03 1998.11 0 0 0
688 2 3456.84 3663.12 2021.01 -1 -1 0
689 2 1693.3 2455.44 1765.58 0 0 0
690 2 3382.14 3628.32 3589.27 0 -1 -1
691 2 3558.07 2299.72 2031.7 -1 0 0
692 2 3315.57 1656.49 1288.65 0 0 0
693 2 1678.01 1415.07 2492.24 0 0 0
694 2 3715.09 3584.51 1390.69 -1 0 0
695 2 2219.5 2120.02 1531.09 0 0 0
696 2 2099.31 2052.98 2459.94 -1 -1 0
697 2 1327.01 2283.49 2349.85 1 -1 -1
698 2 3597.78 1694.33 2222.17 -1 0 0
699 2 2462.59 3035.39 2205.59 0 -1 0
700 2 1294.73 2149.16 1379.79 0 0 0
701 2 1690.44 1904.37 1447.79 0 0 0
702 2 1938.91 1994.97 2490.61 0 0 0
703 2 1814.41 1316.1 2438.8 0 0 0
704 2 1479.54 3684.74 1908.37 0 -1 0
705 2 1961.96 2177.63 2482.29 0 0 0
706 2 3653.35 3356.89 3672.15 0 0 -1
707 2 1585.02 1384.16 2241.83 0 0 0
708 2 2002.7 1884.6 2631.22 0 0 0
709 2 1557.59 3214.41 1566.4 1 0 0
710 2 1323.06 1700.91 1534.57 0 0 0
711 2 3273.23 2062.37 2150.95 0 0 0
712 2 2381.5 1789.75 1674.11 0 1 0
713 2 1643.92 2671.65 1500.75 0 0 1
714 2 1374.39 2410.21 2594.09 0 0 0
715 2 1425.07 3313.65 1508.07 1 0 1
716 2 1940.28 3660.81 2130.71 0 -1 0
717 2 1895.48 1398.32 3577.18 0 0 -1
718 2 1865.36 1342.94 2008.86 0 0 0
719 2 1757.09 2310.22 2171.53 0 0 0
720 2 1759.52 3409.68 2357.71 0 0 0
721 2 2146.31 1871.13 1861.71 0 0 0
722 2 3648.93 2258.97 1524.97 -1 0 0
723 2 1954.55 2378.83 2141.3 0 0 0
724 2 3560.51 3249.19 1330.45 -1 0 0
725 2 3306.81 1430.07 3656.9 0 1 0
726 2 2896.73 2215.67 2923.95 0 0 -1
727 2 3598.49 3599.13 1801.77 0 -1 0
728 2 1977.85 2264.39 1426.22 0 0 0
729 2 3548.86 2159.71 2143.65 -1 0 0
730 2 1503.84 3173.83 2613.1 0 -1 0
731 2 1721.38 1935.06 2070.85 0 0 0
732 2 2411.31 2173.73 2039.68 0 0 0
733 2 2178.86 2424 1576.32 0 0 1
734 2 2030.4 1379.16 2072.09 0 0 0
735 2 1482.77 2200.03 1845.77 0 0 0
736 2 1654.42 2089 2137.89 0 0 0
737 2 3453.02 1336.79 1668.71 -1 0 0
738 2 1658.87 1866.16 3420.96 0 0 -1
739 2 1705.63 1300.21 1934.98 0 0 0
740 2 3711.98 3403.78 1406.67 -1 0 1
741 2 1917.15 2270.41 1597.44 0 0 0
742 2 1824.02 1733.94 3383.66 0 0 -1
743 2 1572.73 1393.23 1849.8 0 0 0
744 2 3586.67 1666.26 1742.34 -1 0 0
745 2 1736.88 2082.55 1960.42 0 0 0
746 2 1918.27 1870.16 1546.11 0 0 0
747 2 1669.27 3441.55 1369.89 0 -1 0
748 2 3543.54 1598.87 2352.07 -1 0 0
749 2 3580.62 1712.04 1545.82 -1 0 0
750 2 1376.91 2052.24 1514.05 0 0 0
751 2 1500.72 2618.94 2875.41 1 0 0
752 2 3361.99 1674 1456.14 0 0 0
753 2 2745.66 2772.87 2258.17 0 0 1
754 2 1686.4 1682.14 2283.29 0 0 0
755 2 1904.52 1660.71 1994.69 0 0 0
756 2 1836.31 3383.12 1425.86 0 -1 0
757 2 3702.99 1970.91 1386.14 -1 0 0
758 2 1322.33 3656.25 2218.21 0 -1 0
759 2 1804.99 1641.5 1538.3 0 0 0
760 2 1720.03 3493.33 2856.03 0 -1 0
761 2 1451.55 1956.61 1654.83 0 0 0
762 2 1793.92 1919.49 1907.15 0 0 0
763 2 3372.21 1763.42 2147.66 -1 0 0
764 2 1588.74 2334.12 1876.47 0 0 0
765 2 1856.02 2017.36 2655.93 -1 1 0
766 2 1951.68 2566.72 1578.28 -1 0 0
767 2 2111.48 1789.33 3480.87 0 0 -1
768 2 3612.05 3651.99 3699.69 -1 -1 0
769 2 1474.32 2113.72 2148.64 0 0 0
770 2 2091.33 1828.68 1531.21 0 0 0
771 2 3630.39 2081.4 1794.24 -1 0 0
772 2 1778.83 2049.65 3696.49 0 0 -1
773 2 1700.9 1827.5 2388.5 0 0 0
774 2 2420.41 1999.92 3711.99 0 0 -1
775 2 3656.73 3192.56 1606.12 -1 0 0
776 2 1316.97 1402.42 1656.08 0 0 0
777 2 1571.81 2718.49 3000.44 1 0 0
778 2 2104.98 2141.33 1386.23 0 0 0
779 2 3503.74 1817.16 1681.83 0 0 0
780 2 3504.71 3508.59 2107.56 -1 -1 0
781 2 1463.88 1545.9 3651.55 0 0 -1
782 2 1819.2 1909.01 3378.88 0 0 -1
783 2 1390.89 2123.26 2310.84 0 0 0
784 2 3680.38 1440.82 1987.27 -1 0 0
785 2 3110.86 2925.25 3260.9 0 0 0
786 2 1573.94 2097.78 2299.32 0 0 0
787 2 3460.33 2102.55 1813.6 -1 0 0
788 2 1652.75 3271.49 1427.29 1 0 1
789 2 1572.77 2189.09 2588.17 0 -1 0
790 2 2786.8 3708.37 2810.18 1 0 0
791 2 3293.06 3699.47 1797.88 0 0 0
792 2 2772.41 3130.65 2288.7 0 -1 0
793 2 1554.18 2288.8 3620.66 0 0 -1
794 2 3029.69 2269.58 1679.71 0 0 0
795 2 3441.56 3430.81 1750.95 -1 -1 0
796 2 1424.9 1776.85 1667.67 0 0 0
797 2 1868.98 1490.78 2900.91 0 0 0
798 2 3384.58 1895.53 3340.82 0 1 -1
799 2 1545.52 1632.59 3312.57 0 0 -1
800 2 1389.57 2226.82 3670.64 0 0 -1
801 2 1372 1520.67 2621.17 0 0 0
802 2 1403.39 1582.58 1378.76 0 0 0
803 2 1498.8 2266.53 2343.36 0 0 0
804 2 1766.21 1578.12 3343.74 0 1 -1
805 2 2095.74 1505.83 2403.16 0 0 0
806 2 2356.2 1629.78 1806.41 0 0 0
807 2 3283.84 1556.86 1911.3 -1 0 0
808 2 2395.4 3543.13 2618.22 1 -1 -1
809 2 3634.04 3290.55 1936.49 -1 0 1
810 2 2179.08 3408.71 2051.74 0 0 0
811 2 1860.73 1827.27 2050.21 0 0 0
812 2 3460.35 1818.59 3481.45 -1 0 -1
813 2 3650.63 2081.31 3493.71 -1 0 -1
814 2 2670.17 2886.29 2373.57 0 -1 0
815 2 1611.45 1497.19 3382.82 0 0 -1
816 2 3536.3 1900.03 1360.43 -1 0 0
817 2 1700.32 1838.14 1765.32 0 0 0
818 2 3690.65 1684.48 2380.66 -1 0 0
819 2 3404.22 2011.23 1337.05 0 0 0
820 2 1752.86 3561.36 1879.82 0 -1 0
821 2 3426.23 1661.78 1638.79 -1 0 0
822 2 1826.47 1777.63 1408.82 0 0 1
823 2 3503.28 1706.95 2056.95 -1 0 0
824 2 1424.89 2264.25 2496.82 1 0 0
825 2 1593.9 1535.24 2344.21 0 0 0
826 2 3555.2 2235.61 1849.91 -1 0 0