ITEM: TIMESTEP
563000
ITEM: NUMBER OF ATOMS
1000
ITEM: BOX BOUNDS pp pp pp
1.3086933482529212e+03 3.6913066517465436e+03
1.3086933482529212e+03 3.6913066517465436e+03
1.3086933482529212e+03 3.6913066517465436e+03
ITEM: ATOMS id type x y z ix iy iz
1 1 2782.84 2426.27 1462.41 -1 0 1
2 1 2070.76 1340.01 2629.96 0 0 0
3 1 3301.3 2582.47 2144.33 0 0 0
4 1 2241.84 1666.78 3276.62 0 -1 0
5 1 3438.34 3004.62 2712.35 -1 -1 1
6 1 1919.43 1735.81 3435.56 0 0 0
7 1 1648.87 3051.06 2876.4 0 -1 0
8 1 2167.82 1721.29 2472.99 0 0 1
9 1 3017.46 3064.29 2469.11 0 0 0
10 1 2873.51 2510.15 2648.34 0 0 0
11 1 2710.52 2123.25 2610.43 0 0 0
12 1 1411.88 3223.21 3622.49 0 0 0
13 1 3165.05 3541.35 3493.61 -1 0 -1
14 1 2208.93 2728.29 2895.01 0 0 -1
15 1 3253.54 2211.29 2042.16 0 0 0
16 1 2177.8 3682.71 2452.72 0 0 -1
17 1 2432.32 2921.33 2937.34 1 0 -1
18 1 3148.89 2346.51 2485.24 -1 1 0
19 1 2899.68 1863.04 1743.62 -1 0 0
20 1 1450.44 3066.77 2998.82 0 -1 0
21 1 2020.27 2531.08 2583.33 0 1 0
22 1 2681.56 3017.76 2759.07 2 -1 0
23 1 2898.9 2141.51 2707.03 0 0 1
24 1 2997.99 3393.68 2155.77 0 0 0
25 1 1720.35 1900.41 2819.83 -1 0 0
26 1 2987.59 3065.02 2970.24 0 0 0
27 1 3126.85 2391.21 2851.55 -1 0 1
28 1 2014.87 2449.76 2388.73 0 0 0
29 1 2573.82 2255.99 2664.46 0 0 -1
30 1 2818.24 3460 2910.48 0 0 0
31 1 1431.96 1627.31 2932.81 0 0 0
32 1 1605.08 3155.21 3285.67 0 0 -1
33 1 2179.58 2384.57 3165.09 0 0 0
34 1 2447.38 1335.22 2912.35 0 0 0
35 1 1985.42 2168.28 2385.06 0 0 -1
36 1 1499.43 2854.24 1395.29 0 -1 0
37 1 1786.49 1806.43 1853.73 0 0 0
38 1 2196.83 3017.81 2166.37 0 0 0
39 1 3248.94 2350.34 2903.47 -2 0 -1
40 1 3151.26 2473.52 1962.46 -1 -1 2
41 1 1932.04 2947.18 1834.24 0 0 -1
42 1 2949.7 2716.19 2035.96 0 -1 0
43 1 2447.35 2597.79 2026.46 0 -2 0
44 1 3023.29 3427.34 1704.53 0 -1 0
45 1 2458.59 2307.12 2825.93 0 0 0
46 1 2941.31 3568.3 3067.37 -1 -1 0
47 1 3418.37 3272.5 2183.61 -1 -1 -1
48 1 3247.64 2044.67 2821.52 0 0 -1
49 1 2929.28 2560.16 2235.59 -1 0 1
50 1 3084.71 1662.87 3345.26 -1 0 0
51 1 3311.92 1415.31 2218.52 -1 -1 1
52 1 3669.28 2541.88 3532.53 -1 0 -1
53 1 3134.21 1905.29 3429.23 -2 0 -1
54 1 3335.47 2243.68 3025.59 0 0 -1
55 1 3037.47 3065.85 2990.58 -2 0 -1
56 1 3148.42 2130.38 1620.88 0 0 0
57 1 1906.56 2510.88 3564.13 0 0 -1
58 1 2463.08 2637.5 3527.1 0 0 -1
59 1 2656.34 3417.7 2807.43 -1 -1 0
60 1 1987.62 3202.53 1524.26 -1 -1 1
61 1 1830.32 2843.81 2454.23 -1 0 0
62 1 2598.24 1377.98 3166.11 0 0 -1
63 1 3232.79 2174.15 3180.82 -1 0 0
64 1 2911.99 2644.41 3260.82 0 -1 -1
65 1 3262.25 3100.79 2769.23 -1 -1 -1
66 1 3313.41 2957.44 2533.92 -1 0 1
67 1 2492.9 2421.94 1641.02 0 0 0
68 1 2201.81 2971.34 3361.2 0 -1 -1
69 1 1425.4 2590.99 2848.72 0 0 0
70 1 1646.71 1445.14 3425.57 0 1 -1
71 1 1902.87 2714.8 2543.48 -1 0 -1
72 1 2770.25 2001.07 3655.84 0 0 -1
73 1 2670.78 1500.57 1327.13 0 1 1
74 1 3196.49 2751.14 2090.58 -1 0 -1
75 1 1922.22 2471.82 1609.35 0 0 1
76 1 1545.63 1620.92 3087.87 -1 0 0
77 1 2664.6 2513.09 3426.82 -1 -1 -1
78 1 1586.78 3643.3 1740.41 0 -1 0
79 1 1994.01 2319.91 2529.69 0 -1 0
80 1 3192.31 2366.08 2460.78 -1 0 0
81 1 3659.57 1752.55 1762.41 -1 0 0
82 1 1800.83 2183.97 3455.59 1 0 0
83 1 2475.16 1956.49 2741.75 -1 -1 -1
84 1 1904.37 3650.96 3521.59 1 0 -1
85 1 2503.73 2393.27 2420.8 0 -1 0
86 1 3477.62 2358.36 2918.61 -1 0 0
87 1 1652.35 1898.74 3003.5 0 -1 -1
88 1 1446.03 2823.98 1945.66 0 -1 0
89 1 2934.75 2900.95 1681.77 0 0 0
90 1 3539.88 3333.62 2283.68 -2 -1 0
91 1 1570.52 3536.38 3053.44 0 -1 -1
92 1 1883.55 2849.49 2451.41 0 -1 -1
93 1 2165.17 3456.91 2780.14 1 0 0
94 1 2220.16 2056.46 3482.17 0 0 -1
95 1 1678.71 2417.39 2950.93 -1 -1 -1
96 1 2833.81 2451.29 1856.58 -1 0 0
97 1 2252.03 2390.1 1925.99 0 -1 1
98 1 2745.92 2009.08 3089.61 -1 -1 0
99 1 2453.89 2954.38 3124.6 0 -1 -1
100 1 2800.98 1887.87 1437.62 -1 0 0
101 1 1425.23 3010.45 2331.28 0 -1 0
102 1 2211.33 1365.36 2722.01 -1 0 0
103 1 2972.88 2512.35 1985.48 -1 0 0
104 1 3564.53 2753.67 2420.54 0 -1 -1
105 1 3490.23 3213.23 2838.79 -1 0 0
106 1 3555.66 1875.53 2924.31 0 1 -1
107 1 2833.82 2101.92 2431.49 -1 -2 0
108 1 3421.27 3291.38 1519.28 -1 0 -1
109 1 2190.72 2541.57 2386.74 -1 -1 0
110 1 2827.81 2812.84 1509.5 0 -1 0
111 1 3547.1 1309.27 3554.27 -1 0 -1
112 1 2694.48 1543.09 3115.5 0 0 0
113 1 2353.88 2793.29 3076.73 0 0 -1
114 1 2775.83 2392.38 3049.62 -1 0 0
115 1 2198.26 2717.89 3178.41 0 0 -1
116 1 2958.83 2404.12 3003.43 0 0 0
117 1 2321.47 3600.35 2813.39 0 -1 -1
118 1 2019.53 2872.52 2218.25 -1 0 -1
119 1 3479.5 3090.49 2172.09 0 -1 0
120 1 2845.13 2267.15 1664.99 1 0 0
121 1 3251.48 3381.35 3197.46 -1 0 0
122 1 2875.25 3240.15 2453.43 0 0 -1
123 1 1596.4 1555.81 3578.97 -1 1 -1
124 1 2621.24 2524.28 1445.18 0 0 1
125 1 1600.3 3220.85 1847.12 0 -2 0
126 1 2122.38 3685.38 3142 0 0 -1
127 1 2847.9 2205.62 2010.14 -1 -1 0
128 1 1967.3 2221.85 3687.65 -1 0 0
129 1 2479.68 2416.25 2378.5 -1 0 0
130 1 3537.76 2672.3 1887.5 0 -1 0
131 1 3032.45 3319.58 1352.51 -1 -1 0
132 1 2649 2888.51 3152.06 0 -1 -1
133 1 2526.8 2404.01 2964.5 0 0 -1
134 1 1809.14 3387.16 2480.58 -1 -1 -1
135 1 2095.43 3599.82 3524.13 0 -1 -1
136 1 3100.26 2018.2 3278.86 -1 0 0
137 1 3317.94 1760.78 1817.25 -1 0 0
138 1 2831.01 2602.57 1743.73 0 -1 0
139 1 3103.28 2614.56 1943.17 -1 -1 -1
140 1 3063.47 3139.47 2839.6 -1 -1 -1
141 1 2976.62 2889.87 1954.58 -1 1 0
142 1 2422.81 2187.49 2974.99 0 1 -1
143 1 3303.4 3112.05 2201.06 -1 0 0
144 1 1414.05 3133.36 2582.76 -1 -1 0
145 1 2260.63 2162.26 1995.97 0 0 0
146 1 3480.79 2597.96 2059.88 -1 -1 0
147 1 1574.36 2475.83 2782.77 0 0 -1
148 1 2791.35 2766.26 2315.33 -1 -1 1
149 1 3157.87 2940 2836.62 0 0 0
150 1 2406.84 2621.72 2577.28 0 0 0
151 1 2567.04 3187.22 2836.31 0 -2 -1
152 1 3508.18 2671.04 3060.39 -1 -1 0
153 1 3022.79 2876.85 2978.53 -1 -1 -1
154 1 3392.42 2746.17 2212.83 -1 0 -1
155 1 3112.77 2328.95 2520.85 0 0 0
156 1 1910.34 2515.66 3328.49 0 0 -2
157 1 3643.04 3117.09 2283.7 0 0 -1
158 1 2801.77 2817.55 1898.42 -1 -1 0
159 1 3200.59 2698.27 2713.23 0 -1 0
160 1 3037.9 1773.15 2944.79 -1 0 0
161 1 2756.37 2800.27 1700.52 0 0 -1
162 1 2898.22 1936.31 2546.22 0 -1 0
163 1 2354.46 2609.38 2986.19 0 0 -1
164 1 3360.17 2421.03 1763.33 0 -1 -1
165 1 2225.61 2052.38 3535.23 0 0 -1
166 1 1363.14 2783.41 1790.39 0 0 -1
167 1 2738.3 2773.07 2308.9 0 -1 0
168 1 1699.13 2062.3 3141.49 0 0 0
169 1 2086.55 3428.75 1628.67 0 -1 -1
170 1 3109.07 3075.03 2311.78 0 -1 0
171 1 2918.06 2006.53 3206.71 -1 -1 -1
172 1 2650.91 3085.48 2011.54 0 -1 -1
173 1 2902.73 2350.01 2531.39 -1 0 -1
174 1 2985.1 1632.47 3573.93 -2 0 -1
175 1 3311.52 3168.69 1382.59 -1 -1 -1
176 1 2004.4 1968.03 3126.82 0 0 0
177 1 2920.65 3495.4 1505.4 -1 0 0
178 1 3480.96 2096.86 2899.66 -1 0 0
179 1 1732.11 2064.33 3183.93 -1 0 0
180 1 3407.08 3027.69 3119.99 0 0 -1
181 1 1518.94 2705.67 3241.67 0 -1 1
182 1 2979.03 3548.26 2081.36 0 -1 0
183 1 1393.36 3170.41 1863.89 0 -1 0
184 1 3075.39 2145.37 2749.92 0 -1 1
185 1 1505.92 2227.24 2679.63 0 0 -1
186 1 3241.15 2282.35 1680.19 -1 0 -1
187 1 3653.92 2714.39 2926.83 0 0 -1
188 1 2608.52 1346.06 3619.13 0 1 -1
189 1 3608.81 1962.03 3505.47 -1 0 -1
190 1 2621.72 2722.56 2481.03 -1 0 0
191 1 2995.81 1489.34 3353.71 0 0 0
192 1 3431.11 3482.66 1581 -1 -1 0
193 1 3531.5 2894.69 3058.9 -2 -1 0
194 1 3035.98 2024.43 1783.27 0 -1 -1
195 1 2043.76 2638.51 2864.11 -1 0 0
196 1 2360.29 2521.52 3643.91 0 0 -1
197 1 2079.9 2230.31 1447.73 -1 1 1
198 1 2925.51 3410.35 3505.73 -1 -1 0
199 1 2280.26 3367.4 1377.16 0 0 1
200 1 1945.37 1756.38 3143.23 0 0 -1
201 1 3411.44 2084.72 3137.93 -1 0 0
202 1 2614.57 2332.95 3520.87 -1 -1 -1
203 1 3282.25 3267.92 3549.02 -1 -1 0
204 1 2429.44 2296.53 3154.23 0 -1 -2
205 1 3151.8 2669.12 3237.08 -1 -1 0
206 1 3459.51 1448.78 3434.64 -1 0 0
207 1 2391.77 2834.12 3496.93 -1 -1 -1
208 1 2404.87 2120.09 2788.73 0 0 -1
209 1 2789.83 2739.69 3138.85 -1 -1 0
210 1 3257.2 2557.74 1593.2 0 -1 0
211 1 2950.86 3075.74 1602.04 -1 -1 0
212 1 2321.01 1322.68 2319.51 0 0 -1
213 1 3217.01 2756.33 2502.19 0 1 -1
214 1 2377.88 3020.75 2459.62 0 -1 0
215 1 1309.93 3111.82 1698.73 0 0 -1
216 1 2724.02 2284.99 3394.82 -1 0 -1
217 1 3073.83 2049.65 1967.95 -1 0 1
218 1 2049.42 2650.85 1801.65 0 0 0
219 1 3274.19 3095.3 2413.5 0 -1 0
220 1 2072.12 2413.53 3380.71 -1 0 -1
221 1 3155.62 1518.15 3234.88 -1 0 -1
222 1 2984.58 2082.1 1314.51 0 -1 1
223 1 2451.09 2440.88 3468.16 0 -1 -2
224 1 1467.1 3478.95 2493.77 0 -1 0
225 1 2910.88 3603.18 2427.24 0 -1 0
226 1 2876.48 2568.75 3048.34 0 -1 0
227 1 3500.54 2366.05 2726.75 -1 -1 -1
228 1 1369.62 3364.83 1385.74 0 0 1
229 1 3019.28 1942.84 2138.56 -1 -1 0
230 1 1442.29 2402.96 2638.85 0 0 -1
231 1 1926.99 2834.32 2423.91 -1 -1 0
232 1 1975.16 3574.53 3682.28 0 -1 -1
233 1 3502.58 2851.42 2854.91 -1 0 1
234 1 1821.45 1624.74 2601.02 0 -1 -1
235 1 2788.66 2328.65 1486.23 -1 -1 0
236 1 2499.61 2596.81 2013.87 -1 0 0
237 1 3239.59 2539.85 3110.87 0 -1 0
238 1 3157.27 2939.83 2443.56 0 -1 0
239 1 2801.1 2614.22 1936.43 -1 -1 0
240 1 2057.66 2563.27 2561.32 1 0 -1
241 1 2772.1 3558.53 1673.72 0 -1 0
242 1 2685.07 1909.93 1598.01 0 -2 0
243 1 1705.82 3644.43 1554.29 0 -1 0
244 1 3088.72 2635.81 2882.8 0 -1 -1
245 1 3384.39 1406.52 2524.06 -1 0 0
246 1 3038.71 1704.43 2752.56 0 -1 0
247 1 2406.57 3615.54 2645.59 0 -1 0
248 1 3373.97 2915.79 1868.33 -1 -1 0
249 1 3378.25 2688.21 3229.55 0 0 0
250 1 3626.16 1563.05 3431.56 -1 0 -1
251 1 3238.9 2768.54 1824.02 0 -1 0
252 1 3078.16 1501.49 2744 -1 0 0
253 1 1549.97 2707.98 1857.8 1 0 0
254 1 3548.91 2180.36 2634.24 -1 0 -1
255 1 2957.97 1776.83 3461.38 -1 0 -1
256 1 2430.89 2403.86 2961.38 -1 0 0
257 1 3010.4 3244.32 1764.61 -1 -1 0
258 1 2599.82 1891.84 3030.04 0 0 -1
259 1 2675.97 1946.35 3506.44 -1 0 -1
260 1 2685.24 2555.05 3151.21 0 0 0
261 1 1404.04 1892 2232.77 0 0 0
262 1 3334.97 2536.65 1932.12 -1 0 -1
263 1 2617.71 2963.21 2943.96 -1 0 -1
264 1 2139.25 2354.01 1615.89 0 0 -1
265 1 3547.16 1795.72 3151.42 -1 0 -1
266 1 3207.62 1539.27 3436.71 -1 0 -1
267 1 1392.61 2229.43 3102.89 0 0 -1
268 1 2071.97 2516.76 2584.47 0 -1 0
269 1 2947.01 1405.08 3021.93 -1 0 0
270 1 2269.46 2054.98 3503.96 0 0 -1
271 1 1855.34 2969.5 2336.54 0 -1 -1
272 1 2601.61 2371.72 3172.33 -1 0 -1
273 1 2004.97 2331.42 3128.01 0 0 -1
274 1 2270.37 2581.36 3188.33 1 -1 0
275 1 3029.76 2424.72 1626.3 -1 0 1
276 1 2913.36 2725.24 1350.12 -1 -1 0
277 1 2654.57 2674.3 1823.22 0 0 1
278 1 1345.75 1450.49 2891.83 0 0 -1
279 1 2283.17 2816.27 2427.81 0 -1 0
280 1 2430.59 2452.98 3275.4 -1 0 -1
281 1 1729.91 3022.32 2739.88 0 -1 0
282 1 1809.26 2249.02 3081.38 0 -1 0
283 1 2251.47 3501.97 3600.78 0 -1 -1
284 1 2005.89 2199.78 3443.45 0 0 -1
285 1 3680.29 2825.5 3093.95 -1 0 -1
286 1 3058.08 1908.56 3072.73 -1 1 0
287 1 2908.65 1807.24 1555.33 0 0 0
288 1 2268.25 2276.93 2818.97 1 0 0
289 1 1979.36 2787.35 2763.23 0 -1 0
290 1 3199.9 2476.64 2283.13 -1 -1 0
291 1 2147.1 2768.92 2437.39 -1 -1 0
292 1 3486.84 2140.87 2869.24 -1 0 -1
293 1 2683.22 2580.39 2576.84 0 0 1
294 1 2571.87 2707.42 2715.6 0 -1 -1
295 1 1717.22 3531.42 2563.42 0 -1 0
296 1 3457.77 2476.94 3084.26 0 0 0
297 1 3029.44 2263.7 2608.86 -1 0 0
298 1 2344.62 2425.58 2658.96 0 0 0
299 1 1501.13 2020.6 2567.18 1 0 0
300 1 1866.54 2438.62 3512.92 0 0 0
301 1 2301.47 2467.27 2605.31 -1 0 -1
302 1 3516.8 1743.65 1402.83 -1 0 0
303 1 3183.41 3567.51 1644.8 0 -1 0
304 1 2211.31 2929.37 3393.27 1 -1 -1
305 1 2368.35 1582.7 3423.96 0 0 -1
306 1 1458.42 3529.12 1375.07 0 -1 0
307 1 3335.52 2397.04 1804.8 -1 0 -1
308 1 1446.42 1519.35 1345 0 0 0
309 1 2717.49 3142.99 2250.95 0 0 -1
310 1 1570.72 1767.65 2850.51 0 0 -1
311 1 2012.42 2952.34 1387.67 0 -1 -1
312 1 2996.64 2265.86 2651.54 0 -1 1
313 1 1974.24 1866.14 3291.56 0 -1 -1
314 1 1579.41 2269.51 3021.26 1 0 0
315 1 1691.83 1588.48 2745.15 0 0 0
316 1 3053.42 3084.99 1427.63 -1 0 0
317 1 2067.51 2995.4 2652.25 1 0 -1
318 1 3631.47 3340.05 2938.47 0 -1 -1
319 1 3115.11 2033.69 1423.52 -1 0 0
320 1 2409.29 2750.31 2791.74 0 -1 0
321 1 2699.39 2150.62 3525.08 -1 0 0
322 1 2224.22 2460.26 1510.57 0 -1 0
323 1 1805.96 1901.67 3137.17 0 0 -1
324 1 3609.95 2270.09 1395.35 0 0 0
325 1 1927.11 3459.99 3057.12 0 0 0
326 1 2793.78 2912.43 3039.51 0 0 -1
327 1 2636.84 3266.84 2661.73 0 -1 0
328 1 1970.17 2108.91 2575.36 0 0 0
329 1 1948.55 2895.89 1832.73 0 0 0
330 1 2756.87 2529.72 2910.63 0 0 0
331 1 2461.51 2611.02 1827.71 -1 0 0
332 1 2167.05 2984.2 3322.37 0 -1 -1
333 1 3049.49 2514.4 3164.03 0 0 0
334 1 3086.36 3689.37 3470.14 -2 -1 0
335 1 2550.11 3078.05 2366.79 0 0 0
336 1 2442.03 2324.6 3647.84 0 -1 -1
337 1 1447.64 2390.31 2062.77 0 0 0
338 1 2785.02 2816.05 3582.73 0 -1 -1
339 1 3029.24 2771.59 3355.46 0 -1 0
340 1 2398.15 2423.74 2652.69 0 -1 0
341 1 2797 3515.26 3377.11 0 -1 -2
342 1 2931.92 3014.01 3149.95 0 -1 0
343 1 2876.11 1860.44 3053.33 1 -1 0
344 1 3149.48 3226.87 3209.39 0 -1 -1
345 1 2566.84 2176.09 1312.17 0 0 0
346 1 2773.88 2380.2 1488.44 0 -1 0
347 1 2478.47 2425.53 2973.54 -1 0 -1
348 1 2035.71 2488.55 2612.47 -1 -1 -1
349 1 2945.44 2698.01 2654.14 -1 0 0
350 1 2130.1 2184.77 1831.15 0 1 0
351 1 1818.95 1347.01 3366.42 0 0 -1
352 1 2292.18 2168.88 3277 0 1 0
353 1 3246.01 2671.71 2309.4 0 -1 0
354 1 2035.99 2666.03 2255.71 0 0 0
355 1 2301.67 2891.49 3239.2 0 -1 -1
356 1 2126.24 3352.91 1455.68 0 -1 0
357 1 1978.42 3075.96 2984.27 0 -1 -1
358 1 3233.92 3674.33 2089.93 -1 -1 0
359 1 2691.19 2208.83 3088.32 0 0 0
360 1 2066.72 1370.43 3624.65 0 1 -1
361 1 3557.88 2628.21 2261.25 -1 0 0
362 1 2957.61 2676.14 2936.76 0 -1 0
363 1 2521.95 2322.36 3341.76 0 0 -1
364 1 2970.07 2805.93 3171.01 -1 0 0
365 1 1990.13 3427.04 2876.71 0 -1 0
366 1 1776.93 2638.78 1510.37 0 0 0
367 1 2139.81 2611.46 3029.83 0 -1 -1
368 1 2703.19 1634.52 2627.88 -1 0 0
369 1 3316.63 2838.28 2764.39 0 0 -1
370 1 3416.68 2921.03 2047.63 -2 0 0
371 1 3523.82 2077.87 1745.29 -1 0 0
372 1 3166.01 3183.54 3623.05 -1 -1 -1
373 1 3011.45 2675.47 2940.11 0 1 0
374 1 2539.17 1659.51 2584.65 0 0 0
375 1 3300.2 1400.33 2268.84 0 0 -1
376 1 2799.96 2719.2 2506.02 0 1 0
377 1 3401.51 2486.02 2270.21 0 0 0
378 1 2245.03 1721.18 3092.6 0 1 -1
379 1 3098.54 2576.28 2118.5 -1 -1 0
380 1 2670.36 2010.14 1782.17 -1 0 0
381 1 2152.27 2564.81 3308.54 0 0 -1
382 1 3447.6 3039.29 2909.98 -1 -1 0
383 1 2832.03 2235.36 2279.51 -1 0 0
384 1 2988.33 2917.68 2324.9 0 -1 0
385 1 3228.89 2842.4 2256.19 0 0 0
386 1 2993.47 3195.28 2643.19 -1 0 0
387 1 3241.34 2299.35 2887.83 -1 0 -1
388 1 1311.2 2860.76 3055.53 0 0 -1
389 1 2416.05 2522.88 1486.83 0 0 0
390 1 1376.98 2723.9 1323.11 0 -1 0
391 1 2374.44 1707.85 1501.45 0 0 0
392 1 1656.37 2581.01 3212.92 -1 -1 -1
393 1 2632.05 2390.95 2786.93 0 0 1
394 1 1700.41 1995.74 3419.38 1 0 -1
395 1 2439.71 2432.42 1859.33 0 -1 -1
396 1 1410.91 2944.03 2621.35 1 0 0
397 1 2907.32 2955.35 1386.21 -1 0 0
398 1 2088.66 2404.29 2988.31 0 -1 0
399 1 1931.79 1495.53 2973.11 0 0 0
400 1 2057.09 2276.52 2827.36 -1 0 -1
401 1 2511.43 2445.54 2410.59 0 0 -1
402 1 2095.84 2585.21 3663.29 0 0 -2
403 1 1459.79 1907.25 3292.76 0 0 -1
404 1 2643.45 2744.38 2022.37 0 0 0
405 1 2750.01 3292.1 2942.13 -1 0 0
406 1 1943.2 3038.13 2197.1 0 -1 0
407 1 1626.95 3109.74 3093.13 -1 -1 0
408 1 3607.52 2367.29 3085.59 0 0 -1
409 1 3387.85 2742.68 2593.72 0 -1 -1
410 1 2630.43 2141 2407.84 0 0 -1
411 1 1965.94 1862.33 1788.69 0 0 0
412 1 2359.96 3253.62 2975.24 0 0 0
413 1 1443.85 2739.78 3028.94 0 0 -1
414 1 1818.91 2988.84 2956.19 0 -1 -1
415 1 1859.92 2334.78 2902.23 0 0 -1
416 1 2697.41 2743.93 1395.09 0 0 0
417 1 1537.34 1932.7 2385.11 -1 0 -1
418 1 3590.41 3214.14 1837.1 -1 0 1
419 1 2090.69 2604.92 2535.1 0 0 0
420 1 3410.58 2988.78 2288.39 -2 -1 -1
421 1 3018.49 2548.76 1506.53 -1 0 0
422 1 1471.06 3216.29 1681.48 0 -1 0
423 1 3292.69 2822.45 1422.4 0 -1 0
424 1 1803.68 2987.7 3461.53 0 -1 -1
425 1 2325.08 3002.35 3557.51 0 0 -1
426 1 2986.78 2646.61 2902.32 -1 0 -1
427 1 3389.12 2221.95 2146.47 -1 -1 0
428 1 2292.62 3136.99 2610.16 0 -1 -1
429 1 3076.29 2891.87 2128.58 -1 0 0
430 1 1871.16 1631.22 2145.63 0 -1 0
431 1 2666.02 2347.81 1352.99 0 0 0
432 1 1747.3 2991.53 2174.6 0 -1 0
433 1 2109.34 2758.2 2474.29 -1 -1 -1
434 1 3359.31 2797.9 2399.64 -1 0 0
435 1 3000.9 1861.49 3266.79 -1 0 0
436 1 3088.47 2803.27 1373.13 -1 0 0
437 1 2844.29 2106.54 1794.16 0 1 0
438 1 3640.47 2505.07 2732.16 -1 -1 -1
439 1 2978.76 2346.34 1600.2 0 0 0
440 1 3257.7 1765.38 3334.32 -1 0 -1
441 1 2859.15 1623.28 3395.77 -1 0 -1
442 1 1596.51 2601.6 2914.7 0 0 0
443 1 3297.32 2533.83 3299.24 0 -1 0
444 1 2960.73 2725.79 1823.93 -2 0 0
445 1 2387.88 3156.57 2589.57 0 -1 0
446 1 3151.19 1713.11 3529.77 -1 0 -1
447 1 2705 2802.55 2661.48 0 0 0
448 1 1825.29 2804.33 2186.22 -1 -1 0
449 1 2178.82 2447.17 1536.44 -1 0 0
450 1 1748.28 2399.83 3361.65 0 0 -1
451 1 1794.88 2844.58 2830.82 0 -1 -1
452 1 1997.92 2068.44 3310.47 0 0 0
453 1 3358.63 3339.18 2347 -1 0 0
454 1 1744.9 2091.49 2130.49 0 0 -1
455 1 2806.03 2642.17 3426.59 -1 0 -1
456 1 3135.44 1475.56 1369.5 0 1 0
457 1 2494.35 2875.11 2395.78 0 -1 -1
458 1 1691.43 2029.19 3183.2 0 1 -1
459 1 1873.01 2425.44 2067.04 0 -1 -1
460 1 3409.15 2476.76 2589.37 -1 -1 0
461 1 2980.33 2829.15 2503.1 0 -1 0
462 1 3178.89 2885.3 2629.25 -1 0 -1
463 1 3551.54 1847.6 3164.95 -1 0 -1
464 1 2761.79 2678.23 2731.09 0 0 0
465 1 1364.03 2828.17 2428.09 1 0 -2
466 1 2898.57 3191.73 2797.72 -1 -1 0
467 1 2777.58 2630.47 1532.72 0 1 0
468 1 3438.25 2953 1441.71 0 -1 1
469 1 3064.2 2535.96 2715.8 0 -1 -1
470 1 3055.77 3236.24 1560.24 -1 -1 -1
471 1 3063.53 2730.96 2249.07 0 0 0
472 1 2861.97 3146.57 1434.73 0 -1 0
473 1 1341.41 2349.13 3263.75 1 -1 0
474 1 3159.71 2286.36 3010.11 -2 -1 -1
475 1 2999.4 2528.29 1794.71 0 -1 0
476 1 3057.09 3637.45 1882.12 -1 -1 0
477 1 3423.9 2268.77 1745.49 0 -1 -1
478 1 2668.08 2484.23 1743.07 -1 -1 0
479 1 2667.27 1420.94 2203.77 0 0 -1
480 1 3504.63 2131.9 2442.17 -1 0 0
481 1 3126.49 1487.78 1318.15 0 1 1
482 1 2727.33 1725.06 3040.31 0 -1 -1
483 1 3192 2099.79 2975.78 -1 1 0
484 1 2898.87 3113.35 2277.27 -1 -1 0
485 1 2280.04 3354.96 2651.25 -1 -1 -1
486 1 3621.76 3123.66 1494.88 -1 -1 0
487 1 2825.74 2359.92 2857.94 -1 0 -1
488 1 1971.26 1472.39 2503.55 0 0 0
489 1 3369.09 2739.27 1955.01 -1 0 0
490 1 3183.98 2369 3225.59 -1 0 -1
491 1 2714.04 2846.52 2824.57 0 0 -1
492 1 2964.57 2554.65 3661.52 0 -1 0
493 1 2832.32 2438.83 2355.35 -1 0 0
494 1 2250.93 2353.94 3351.4 1 -1 0
495 1 3222.58 2944.92 2000.89 0 -1 0
496 1 3040.49 2651.72 2901.33 1 0 0
497 1 2681.7 3607.39 2703.43 -1 -1 0
498 1 2793.24 3165.4 2623.03 0 -1 0
499 1 2233.89 2513.18 1513.26 -1 0 -1
500 1 2803.95 3291.25 2239.47 0 -1 -1
501 1 2465.56 2830.51 2590.32 -1 0 -1
502 1 1485.24 3179.71 3132.43 -1 0 0
503 1 2482.46 2463.58 3011.21 0 0 0
504 1 2133.97 2632.86 2518.83 0 0 0
505 1 1870.44 2472.31 3556.12 -1 0 -1
506 1 1378.42 1967.47 2062.04 -1 0 0
507 1 3508.82 1819.17 3181.08 -1 0 -1
508 1 1642.34 1503.62 1679.86 0 0 -1
509 1 1656.43 1560.45 2524.48 0 0 0
510 1 2768.77 2279.76 2672.59 -1 -1 -1
511 1 3615.88 3260.8 2450.76 0 0 -1
512 1 1547.43 3291.16 3445.59 0 -1 -1
513 1 3228.03 2507.9 1785.5 0 -1 0
514 1 2909.44 2098.84 2166.36 -2 0 1
515 1 2483.88 2017.74 2412.43 -1 0 -1
516 1 2535.13 3592.97 2784.37 -1 -1 0
517 1 3181.87 3155.37 3450.92 0 -1 -1
518 1 1952.06 3010.82 2811.23 0 0 -1
519 1 2721.3 2632.48 2352.24 0 0 0
520 1 3236.85 2959.7 1422.58 -1 0 0
521 1 2512.86 2344.24 1449.69 -1 0 1
522 1 2474.62 2643.83 2021.28 -1 0 0
523 1 3208.96 3117.39 1554.04 0 0 0
524 1 2688.82 2382.75 2497.25 -1 -1 0
525 1 3261.53 1979.31 3148.34 0 0 -1
526 1 1886.35 2295.58 2704.29 0 0 0
527 1 1309.33 2064.13 3029.69 0 -1 -1
528 1 3390.56 2397.26 2096.37 0 1 0
529 1 2497.79 2649.21 1349.1 -1 -1 0
530 1 1732.27 2805.56 2637.87 0 0 0
531 1 1990.2 3618.37 1638.2 0 -1 0
532 1 3376.43 2639.12 1773.08 -1 0 0
533 1 3261.07 1417.11 2235.97 -1 0 -1
534 1 2278.72 1312.76 2996.25 0 0 -1
535 1 2744.05 3555.58 2480.79 -1 -2 0
536 1 2168.32 2576.64 1941.55 -1 0 0
537 1 2799.6 3172.57 2076.09 -1 -1 0
538 1 1776.44 1836.23 3311.75 0 0 -1
539 1 3279.54 2403.64 2741.31 -2 0 -1
540 1 2882.07 3386.7 2410.62 0 0 0
541 1 2484.38 3109.48 3005.59 0 0 -1
542 1 2307.73 2834.27 2383.47 0 -1 0
543 1 2208.68 2765.94 2683.82 0 0 -1
544 1 3181.67 1706.68 3158.08 -1 1 -1
545 1 2126.13 2955.32 2823.6 -1 0 -1
546 1 3446.16 1598.59 1530.56 -1 0 0
547 1 2478.7 2254.48 2341.34 0 -1 0
548 1 1642.62 1769.44 3166.92 0 0 0
549 1 2764.67 2504.42 3437.59 0 0 0
550 1 1936.33 2119.7 1462.18 0 0 0
551 1 2291.28 2771.65 1551.08 0 -1 0
552 1 2731.64 3577.17 3577.78 0 -1 -1
553 1 3035.63 2707.51 3582.21 -1 0 -1
554 1 2221.68 2406.01 2668.87 0 0 0
555 1 1893.27 2267.51 3311.19 0 0 0
556 1 2566.31 3114.85 2546.4 0 0 -1
557 1 2759.5 2684.39 2170.36 -1 0 0
558 1 2558.06 3514.67 2579.12 -1 0 -1
559 1 2553.94 3297.48 3008.17 -1 0 0
560 1 1689.11 2901.09 1313.24 0 0 0
561 1 3463.23 2324.51 2465.4 -1 -1 -1
562 1 1832.45 3481.47 3598.2 0 0 -1
563 1 3602.17 2508.98 2974.68 -1 0 0
564 1 2607.22 2799.26 3489.93 0 1 -1
565 1 3523.42 2700.15 3485.28 0 0 -1
566 1 3528.87 2108.43 2878.05 -1 0 1
567 1 2557.87 1514.22 2957.84 0 0 0
568 1 3188.52 3080.11 2559.77 -1 -1 -1
569 1 2774.88 2108.62 3245.62 0 0 0
570 1 1540.11 3073.91 2706.2 0 -1 0
571 1 3075.32 2934.27 1532.62 -1 -1 0
572 1 2567.79 2847.24 2782.36 -1 -1 0
573 1 2109.37 2239.7 3287.04 1 0 -1
574 1 3114.94 3351.42 3572.02 -1 0 0
575 1 1672.32 2375.64 3141.9 0 0 0
576 1 3509.39 2138.69 2918.06 0 -1 -1
577 1 3410.03 2624.83 2427.13 -1 -1 -1
578 1 1359.05 2665.96 2316.62 1 0 1
579 1 3056.57 3539.05 2566.37 0 0 -1
580 1 2321.76 2786.85 2404.61 0 1 1
581 1 1617.34 2172.64 2434.87 -1 0 0
582 1 3220.29 3299.58 2212.23 0 -1 0
583 1 2532.91 2408.34 2378.17 0 0 0
584 1 3458.62 3163.98 2317.08 0 0 1
585 1 3212.66 3344.22 3383.8 -1 -1 -1
586 1 3130.04 2021.14 3613.46 -1 -1 -2
587 1 1336.94 2063.32 2680.92 1 0 -1
588 1 1773.75 2355.95 1745.35 0 0 0
589 1 2971.01 3226.32 3609.94 1 -1 0
590 1 3501.55 2810.1 1753.53 -1 -1 1
591 1 2045.25 1659.91 3292.55 -1 -1 -1
592 1 1700.39 2245.39 2855.47 0 0 0
593 1 1490.46 2070.58 3132.91 0 0 0
594 1 1964.94 3270.45 3076.18 -1 1 0
595 1 3059.79 1345.4 3141.85 -1 0 -1
596 1 2984.95 2397.7 1614.44 1 0 0
597 1 2759.81 2602.31 3435.39 0 0 0
598 1 3099.24 3424.14 1532.5 0 -1 0
599 1 2201.16 3575.69 2631.51 -1 -1 0
600 1 3092.77 1956.63 2886.57 -1 0 -1
601 2 3661.66 2287.93 1620.28 -1 0 0
602 2 1639.79 1757.66 2168.88 1 0 0
603 2 3194.51 3427.55 1981.59 -1 0 1
604 2 3299.1 3237.47 2981.55 0 -1 0
605 2 1412.42 1369.02 3494.51 0 0 0
606 2 1358.33 2594.87 2053.52 1 0 0
607 2 1962.13 2650.4 1977.6 0 0 0
608 2 2865.4 3376.69 2611.59 0 -1 0
609 2 3089.13 2047.04 2327.8 0 0 0
610 2 2689.05 3121.02 3146.94 0 0 0
611 2 1491.37 3096.57 1444.84 0 0 1
612 2 2466.72 3605.32 2115.15 0 -1 0
613 2 1804.22 2587.28 2746.53 0 0 -1
614 2 2640.17 1854.72 2541.02 0 0 0
615 2 1387.52 2776.08 3425.3 0 0 0
616 2 3573.76 3545.21 1378 0 0 0
617 2 1491.43 3046.17 2064.63 0 -1 0
618 2 2452.44 3532.56 3095.62 0 0 0
619 2 2853.17 1876.07 2769.43 0 1 0
620 2 3617.04 3524.06 2438.29 -1 0 0
621 2 1316.02 3555.35 2953.33 0 0 -1
622 2 2185.15 3600.73 1438.46 0 0 0
623 2 2191.37 2575.63 3363.34 0 0 -1
624 2 1327.64 2289.65 2838.94 0 0 -1
625 2 2744.37 1701.39 3581.68 0 0 0
626 2 1514.66 3324.26 2908.72 1 0 -1
627 2 1798.26 1357.38 2662.16 0 1 0
628 2 3411.23 2597.18 2800.52 -1 0 0
629 2 2156.43 1783.43 2178.24 0 0 0
630 2 2542.5 1476.88 1941.11 0 1 0
631 2 3397.58 1572.37 3199.43 0 1 0
632 2 2009.6 3243.76 1770.6 0 -1 0
633 2 1480.73 3253.17 2328.68 0 -1 0
634 2 3261.86 2784.34 2998.1 -1 0 0
635 2 1444.81 1460.81 2136.92 0 0 0
636 2 2921.97 1608.48 3117.48 -1 0 0
637 2 1511.79 2037.35 2838.4 1 0 -1
638 2 1413.98 1716.67 1962.78 0 0 0
639 2 3356.15 3023.24 3532.71 0 0 0
640 2 2711.95 3664.47 2923.5 0 0 0
641 2 2267.34 1772.33 2687.01 0 0 0
642 2 2555.75 3212.81 1763.27 0 -1 0
643 2 1452.02 1341.31 2408.68 0 0 0
644 2 3612.49 2572 1627.78 -1 0 1
645 2 2583.07 3323.4 2092.84 0 -1 0
646 2 2093.21 3229.6 2073.94 0 -1 0
647 2 1988.63 1928.48 3524.63 0 0 0
648 2 2560.33 2709.2 2956.57 0 0 0
649 2 3321.35 1894.8 1339.68 -1 0 0
650 2 3351.74 2215.75 2203.16 0 0 0
651 2 3506.05 1872.51 1909.59 -1 0 0
652 2 1445.36 1433.94 1827.97 0 0 0
653 2 3065.81 2497.36 3401 0 0 -1
654 2 2500.07 3489.24 3639.74 0 -1 -1
655 2 2562.02 1717.84 2799.76 0 0 0
656 2 2833.48 1562.52 2824.41 0 0 0
657 2 3288.36 1788.55 2907.46 -1 0 -1
658 2 2639.97 2089.52 2830.81 -1 0 -1
659 2 1346.33 1801.9 2728.75 1 0 0
660 2 2361.67 2202.76 1706.95 0 0 0
661 2 2668.78 1387.23 1678.35 0 0 0
662 2 1668.82 1587.73 1415.26 0 0 0
663 2 1632.01 3035.89 2460.82 0 -1 0
664 2 2629.15 3302.18 3412.84 0 0 -1
665 2 2430.07 2324.96 2064.59 0 0 0
666 2 2600.43 3511.44 1857.63 0 -1 0
667 2 2963.96 1335.12 1631.21 0 0 0
668 2 1652.15 2258.09 1955.76 0 0 0
669 2 3425.36 2281.34 3262.94 -1 0 0
670 2 1985.61 1505.85 3013.68 0 0 -1
671 2 2911.34 1539.38 1403.6 0 0 1
672 2 1653.68 2573.38 2044.59 0 0 0
673 2 2199.65 2240.31 2367.14 0 0 0
674 2 3575.25 1339.91 1982.69 -1 0 0
675 2 3157.98 2960.8 3262.63 -1 0 0
676 2 2619.34 1653.95 1501.35 0 0 0
677 2 1810.15 3163.46 1966.14 0 -1 0
678 2 3430.57 3076.54 1657.02 -1 -1 0
679 2 1787.73 3233.63 3430.96 0 0 0
680 2 3323.36 1671.23 2027.44 -1 0 0
681 2 2179.25 3401.61 3042.69 0 0 0
682 2 3031.81 2294.97 2137.09 0 0 0
683 2 2349.94 3113.03 2638.33 0 -1 0
684 2 1585.08 3351.57 2065.09 0 -1 0
685 2 1636.42 3492.33 3402.53 0 0 -1
686 2 1628.77 2418.7 1509.97 0 0 0
687 2 2528.38 3023.14 3368.19 -1 -1 0
688 2 3127.4 3292.38 2443.48 -1 -1 0
689 2 1946.19 3481.92 3308.44 0 -1 0
690 2 3530.95 3272.43 3638.52 0 1 -1
691 2 2631.13 2232.61 1862.51 -1 0 0
692 2 1836.54 1319.35 3092.37 0 0 -1
693 2 3429.85 3535.94 2175.77 -1 -1 0
694 2 1523.25 2827.38 2779.66 0 0 0
695 2 2794.12 1919.63 1971.66 0 0 0
696 2 2333.34 1387.24 3217.56 0 1 0
697 2 1626.84 1794.65 2583.88 0 0 0
698 2 1673.45 2388.82 2525.19 1 0 0
699 2 2456.14 1358.51 1441.32 0 0 0
700 2 1346.68 2455.96 1394.69 0 0 0
701 2 3683.91 3027.73 2753.45 0 -1 -1
702 2 1518.76 2450.58 2295.89 0 0 0
703 2 1752.41 3415.29 1821.14 0 0 0
704 2 2058.69 3331.48 2355.77 0 -1 0
705 2 1803.25 1646.14 2953.22 0 0 -1
706 2 1624.56 2615.75 3672.9 0 0 0
707 2 1613.61 3304.46 2615.28 0 -1 0
708 2 1530.2 2653.68 2516.06 1 0 0
709 2 1521.28 1337.39 3208.21 0 0 0
710 2 2823.44 1415.59 3531.85 0 0 -1
711 2 1737.29 3183.89 1617.67 0 -1 0
712 2 1980.87 2758.69 3317.48 0 0 -1
713 2 2283.01 2434.82 2662.14 0 0 -1
714 2 3059.13 1693.75 2190.69 -1 0 0
715 2 2597.48 2140.62 1554.38 0 0 0
716 2 2204.32 3111.13 1366.45 0 0 0
717 2 3300.5 1331.44 3581.09 -1 0 -1
718 2 2736.07 2399.83 2081.7 -1 0 0
719 2 1693.87 1561.94 1934.95 0 0 0
720 2 1336.46 1719.47 3592.81 0 0 -1
721 2 3566.74 2409.79 1879.9 0 0 0
722 2 3662.94 3261.51 2044.85 -1 -1 0
723 2 2769.75 3364.6 3690.65 0 0 -1
724 2 3298.34 3519.46 2514.77 0 -1 0
725 2 2031.51 3649.65 2860.05 0 -1 -1
726 2 2123.87 2037.83 1602.69 0 0 0
727 2 3453.25 2406.21 1430.92 -1 0 0
728 2 2157.78 1964.1 2428.42 0 0 0
729 2 3124.5 1403.02 2483.88 -1 0 0
730 2 3145.28 3019.82 1755.84 -1 -1 0
731 2 2196.34 2813.27 3659.39 0 0 0
732 2 3555.26 1459.38 3681.89 -1 0 -1
733 2 2099.85 1431.91 1696.07 0 1 0
734 2 1509.38 2122.49 2176.28 0 0 0
735 2 2314.22 1505.01 2499.73 0 0 0
736 2 2065.95 3554.11 1860.6 0 -1 0
737 2 1983.76 2934.26 1876.78 -1 0 0
738 2 3508.43 2915.93 3293.7 0 0 0
739 2 2106.76 3233.39 3285.43 0 0 0
740 2 3072.8 1502.9 1964.39 0 0 0
741 2 2723.09 1823.42 3245.45 -1 1 0
742 2 2523.39 1916.3 1321.61 0 0 0
743 2 3655.32 1895.66 2443.41 -1 0 0
744 2 2635.27 2112.29 2122.68 0 0 0
745 2 2042.97 3319.25 3561.43 0 0 -1
746 2 2022.93 2677.67 1499.83 0 0 0
747 2 2911.63 3167.63 3334.41 0 0 -1
748 2 2402.76 1544.82 1688.4 0 0 0
749 2 2080.98 1837.72 2881.89 0 0 0
750 2 1429.61 1643.88 2391.38 0 0 0
751 2 3650.15 2761.79 2644.06 0 0 -1
752 2 3283.57 1339.16 2753.3 0 1 0
753 2 1402.53 2180.99 1893.91 0 0 0
754 2 2880.38 2309.5 3548.42 -1 0 0
755 2 2241.02 1906.76 3215.19 0 0 0
756 2 2640.78 3314.4 2389.36 0 -1 0
757 2 2333.44 2040.59 2218.23 0 0 0
758 2 3433.88 3471.87 2827.84 -1 -1 0
759 2 2820.98 1338.75 1939.46 0 0 0
760 2 2470.03 2709.13 3253.21 0 0 -1
761 2 1843.86 3423.05 1471.91 0 -1 0
762 2 1894.71 1873.74 2048.55 0 0 0
763 2 1523.36 1871.72 1415.73 0 0 0
764 2 2322.26 3072 1918.5 0 -1 0
765 2 1764.92 2281.82 2253.36 0 0 0
766 2 3471.44 1821.61 1578.97 -1 0 0
767 2 2346.27 1694.87 1948.01 0 1 0
768 2 1721.38 1467.36 2255.89 0 0 0
769 2 1639.38 3638.89 2004.24 0 -1 0
770 2 1362.25 2220.77 2439.53 1 -1 0
771 2 1446.77 2938.23 3210.73 1 0 -1
772 2 1780.01 1977.82 2339.59 0 0 0
773 2 3166.68 1530.06 1352.75 -1 0 1
774 2 1612.85 3337.49 3652.84 0 -1 -1
775 2 3583.83 3652.08 1691.82 -1 -1 0
776 2 3036.72 2960.48 3505.61 -1 0 -1
777 2 3499.76 2682.83 1355.43 -1 0 0
778 2 1906.14 2058.92 2881.61 0 0 -1
779 2 3012.33 1829.52 1315.77 -1 0 0
780 2 3202.35 2575.82 1327.67 -1 0 0
781 2 3342.07 1343.02 1502.89 -1 0 0
782 2 2507.14 2012.36 3180.44 0 0 0
783 2 1713.77 3345.2 3147.33 0 -1 -1
784 2 1445.69 1523.48 2653.84 0 0 -1
785 2 3261.36 3307.51 1706.13 -1 -1 0
786 2 1573.63 1733.68 1699.45 1 0 0
787 2 2564.85 2919.82 1812.75 0 0 0
788 2 2352.9 1922.84 2942.31 0 0 0
789 2 1468.96 2002.77 3532.64 0 0 -1
790 2 3578.8 1729.18 2224.59 -1 0 0
791 2 3445.53 1334.47 3014.06 0 0 -1
792 2 1878.81 2489.11 3622.18 0 0 -1
793 2 1838.67 1512.36 3557.19 0 0 0
794 2 3282.66 1641.34 2660.55 -1 0 0
795 2 1798.82 3215.19 2848.59 0 0 0
796 2 1494.88 2499.54 3365.55 0 0 -1
797 2 3295.58 3668.42 3260.15 -1 -1 -1
798 2 1757.61 3529.93 2848.94 0 0 0
799 2 3376.48 1995.89 3336.48 -1 1 -1
800 2 3390.12 3169.12 3278.17 -1 0 -1
801 2 2169.3 2134.67 3012.8 0 0 0
802 2 1612.85 1406.35 2904.01 0 1 0
803 2 2555.44 3462.28 1554.2 0 -1 0
804 2 2498.23 2907.39 2116.09 0 -1 0
805 2 2116.98 1482.44 2261.97 0 0 0
806 2 3621.59 2974 1883.79 -1 -1 0
807 2 3434.85 3457.79 3441.93 -1 0 -1
808 2 3030.42 2254.06 1804.07 -1 0 0
809 2 3521.58 1592.16 2840.98 0 0 0
810 2 2442.77 1620.53 3638.37 0 0 -1
811 2 1498.5 1627.35 3329.97 1 0 0
812 2 2613.26 1545.96 3344.27 0 0 -1
813 2 2313.16 1554.39 2883.6 0 0 0