ITEM: TIMESTEP
282000
ITEM: NUMBER OF ATOMS
1000
ITEM: BOX BOUNDS pp pp pp
1.7474314467337256e+03 3.2525685532657390e+03
1.7474314467337256e+03 3.2525685532657390e+03
1.7474314467337256e+03 3.2525685532657390e+03
ITEM: ATOMS id type x y z ix iy iz
1 1 2686.45 2470.39 1829.3 -1 0 1
2 1 2228.84 1767.22 2582.1 0 0 0
3 1 3006.19 2552.1 2275.32 0 0 0
4 1 2336.92 1973.64 2990.61 0 -1 0
5 1 3092.77 2818.78 2634.14 -1 -1 1
6 1 2133.24 2017.25 3091.01 0 0 0
7 1 1962.33 2848.12 2737.78 0 -1 0
8 1 2290.16 2008.07 2482.93 0 0 1
9 1 2826.89 2856.47 2480.49 0 0 0
10 1 2735.95 2506.41 2593.71 0 0 0
11 1 2632.99 2262 2569.76 0 0 0
12 1 1812.62 2956.86 3209.09 0 0 0
13 1 2920.12 3157.84 3127.68 -1 0 -1
14 1 2316.13 2644.22 2749.53 0 0 -1
15 1 2976.03 2317.61 2210.77 0 0 0
16 1 2296.46 3247.13 2470.13 0 0 -1
17 1 2457.25 2766.16 2776.27 1 0 -1
18 1 2897.7 2398.82 2467.65 -1 1 0
19 1 2752.48 2097.62 2022.18 -1 0 0
20 1 1836.97 2858.04 2815.11 0 -1 0
21 1 2178.69 2507 2548.58 0 1 0
22 1 2614.7 2827.08 2663.66 2 -1 0
23 1 2751.99 2273.53 2630.78 0 0 1
24 1 2814.59 3064.55 2282.54 0 0 0
25 1 2007.48 2121.23 2702.04 -1 0 0
26 1 2790.51 2856.64 2789.93 0 0 0
27 1 2895.99 2431.28 2722.08 -1 0 1
28 1 2193.53 2468.26 2429.71 0 0 0
29 1 2546.63 2345.86 2603.89 0 0 -1
30 1 2701.04 3106.45 2759.31 0 0 0
31 1 1825.3 1948.71 2773.41 0 0 0
32 1 1934.66 2913.91 2996.32 0 0 -1
33 1 2297.59 2427.08 2920.15 0 0 0
34 1 2466.76 1764.19 2760.49 0 0 0
35 1 2174.93 2290.45 2427.39 0 0 -1
36 1 1867.93 2723.78 1802.13 0 -1 0
37 1 2049.27 2061.86 2091.74 0 0 0
38 1 2308.48 2827.11 2289.24 0 0 0
39 1 2976.01 2424.88 2760.84 -2 0 -1
40 1 2911.41 2483.27 2160.43 -1 -1 2
41 1 2125.89 2793.22 2069.04 0 0 -1
42 1 2784.08 2636.57 2206.86 0 -1 0
43 1 2456.63 2557.73 2192.42 0 -2 0
44 1 2830.57 3085.82 1997.49 0 -1 0
45 1 2473.84 2378.16 2705.89 0 0 0
46 1 2778.79 3174.86 2858.42 -1 -1 0
47 1 3080.15 2988 2300.13 -1 -1 -1
48 1 2972.3 2212.36 2703.11 0 0 -1
49 1 2771.18 2538 2332.97 -1 0 1
50 1 2869.37 1971.17 3033.97 -1 0 0
51 1 3025.65 1817.93 2306.99 -1 -1 1
52 1 3238.65 2526.46 3152.26 -1 0 -1
53 1 2900.64 2124.31 3087.01 -2 0 -1
54 1 3027.78 2338.08 2832.02 0 0 -1
55 1 2857.03 2857.75 2817.04 -2 0 -1
56 1 2909.62 2266.5 1944.64 0 0 0
57 1 2136.89 2516.3 3156.78 0 0 -1
58 1 2476.68 2586.86 3148.84 0 0 -1
59 1 2598.76 3079.73 2694.21 -1 -1 0
60 1 2176.32 2943.8 1883.61 -1 -1 1
61 1 2054.23 2710.78 2467.22 -1 0 0
62 1 2562.06 1791.2 2920.79 0 0 -1
63 1 2962.92 2294.16 2930.08 -1 0 0
64 1 2760.26 2591.23 2980.62 0 -1 -1
65 1 2981.52 2879.53 2670.08 -1 -1 -1
66 1 3013.84 2788.97 2521.43 -1 0 1
67 1 2495.51 2450.69 1957.37 0 0 0
68 1 2329.72 2818.61 3048.87 0 -1 -1
69 1 1821.16 2557.48 2720.29 0 0 0
70 1 1960.96 1833.63 3084.7 0 1 -1
71 1 2122.78 2635.69 2527.47 -1 0 -1
72 1 2670.72 2184.82 3230.17 0 0 -1
73 1 2607.89 1868.65 1759.08 0 1 1
74 1 2939.99 2658.65 2241.36 -1 0 -1
75 1 2135.01 2482.2 1937.36 0 0 1
76 1 1897.11 1944.67 2871.37 -1 0 0
77 1 2579.27 2490.66 3063.46 -1 -1 -1
78 1 1923.1 3222.24 2020.15 0 -1 0
79 1 2180.36 2386.23 2518.75 0 -1 0
80 1 2965.89 2427.59 2468.29 -1 0 0
81 1 3232.52 2027.82 2034.05 -1 0 0
82 1 2058.32 2300.36 3103.67 1 0 0
83 1 2484.31 2156.65 2652.72 -1 -1 -1
84 1 2123.73 3227.08 3145.36 1 0 -1
85 1 2501.15 2424.2 2458.82 0 -1 0
86 1 3117.58 2410.52 2764.44 -1 0 0
87 1 1964.52 2120.18 2818.07 0 -1 -1
88 1 1834.19 2704.66 2149.81 0 -1 0
89 1 2774.64 2753.29 1983.11 0 0 0
90 1 3156.91 3026.61 2363.35 -2 -1 0
91 1 1912.83 3154.7 2849.62 0 -1 -1
92 1 2117.16 2737.48 2489.31 0 -1 -1
93 1 2288.48 3104.5 2676.97 1 0 0
94 1 2301.18 2232.06 3102.28 0 0 -1
95 1 1981.18 2447.82 2784.86 -1 -1 -1
96 1 2710.87 2469.23 2093.54 -1 0 0
97 1 2343.35 2430.57 2137.39 0 -1 1
98 1 2655.35 2189.88 2872.47 -1 -1 0
99 1 2470.87 2787.04 2894.57 0 -1 -1
100 1 2690.13 2113.31 1828.87 -1 0 0
101 1 1821.05 2822.46 2393.42 0 -1 0
102 1 2317.64 1783.23 2640.25 -1 0 0
103 1 2798.72 2507.8 2174.97 -1 0 0
104 1 3172.48 2660.25 2449.8 0 -1 -1
105 1 3125.54 2950.56 2714.02 -1 0 0
106 1 3166.88 2105.51 2768.04 0 1 -1
107 1 2710.88 2248.53 2456.72 -1 -2 0
108 1 3081.98 2999.93 1880.46 -1 0 -1
109 1 2304.62 2526.26 2428.45 -1 -1 0
110 1 2707.08 2697.63 1874.29 0 -1 0
111 1 3161.47 1747.79 3166 -1 0 -1
112 1 2622.86 1895.5 2888.82 0 0 0
113 1 2407.69 2685.28 2864.33 0 0 -1
114 1 2674.24 2432.02 2847.2 -1 0 0
115 1 2309.39 2637.64 2928.56 0 0 -1
116 1 2789.85 2439.43 2818.03 0 0 0
117 1 2387.22 3195.11 2697.97 0 -1 -1
118 1 2196.48 2735.33 2322.02 -1 0 -1
119 1 3118.77 2873.02 2292.86 0 -1 0
120 1 2718.03 2352.91 1972.51 1 0 0
121 1 2974.72 3056.76 2940.6 -1 0 0
122 1 2737.05 2967.57 2470.58 0 0 -1
123 1 1929.18 1903.54 3181.6 -1 1 -1
124 1 2576.59 2515.34 1833.65 0 0 1
125 1 1931.65 2955.37 2087.57 0 -2 0
126 1 2261.45 3248.82 2905.56 0 0 -1
127 1 2719.77 2314.04 2190.55 -1 -1 0
128 1 2163.48 2324.29 3250.26 -1 0 0
129 1 2477.06 2447.24 2416.38 -1 0 0
130 1 3155.57 2608.84 2113.08 0 -1 0
131 1 2836.36 3017.74 1775.11 -1 -1 0
132 1 2594.12 2745.43 2911.92 0 -1 -1
133 1 2539.62 2423.01 2795.51 0 0 -1
134 1 2063.57 3060.44 2487.73 -1 -1 -1
135 1 2244.42 3194.77 3146.96 0 -1 -1
136 1 2879.2 2195.64 2992.02 -1 0 0
137 1 3016.71 2033.02 2068.69 -1 0 0
138 1 2709.11 2564.79 2022.25 0 -1 0
139 1 2881.11 2572.37 2148.24 -1 -1 -1
140 1 2855.95 2903.97 2714.53 -1 -1 -1
141 1 2801.09 2746.29 2155.45 -1 1 0
142 1 2451.24 2302.58 2800.06 0 1 -1
143 1 3007.52 2886.64 2311.16 -1 0 0
144 1 1813.98 2900.1 2552.28 -1 -1 0
145 1 2348.78 2286.64 2181.6 0 0 0
146 1 3119.58 2561.89 2221.97 -1 -1 0
147 1 1915.26 2484.73 2678.63 0 0 -1
148 1 2704.05 2665.63 2385.76 -1 -1 1
149 1 2915.59 2777.96 2712.65 0 0 0
150 1 2441.15 2576.89 2548.82 0 0 0
151 1 2542.35 2934.13 2712.45 0 -2 -1
152 1 3136.89 2608.05 2854.01 -1 -1 0
153 1 2830.25 2738.06 2802.3 -1 -1 -1
154 1 3063.75 2655.51 2318.59 -1 0 -1
155 1 2880.34 2395.72 2536.44 0 0 0
156 1 2127.5 2509.89 3023.37 0 0 -2
157 1 3222.08 2889.82 2363.36 0 0 -1
158 1 2690.64 2700.6 2119.97 -1 -1 0
159 1 2942.57 2625.25 2634.7 0 -1 0
160 1 2839.8 2040.83 2780.98 -1 0 0
161 1 2661.95 2689.69 1994.95 0 0 -1
162 1 2751.56 2143.91 2529.2 0 -1 0
163 1 2408.06 2569.1 2807.13 0 0 -1
164 1 3050.29 2456.84 2023.01 0 -1 -1
165 1 2316 2219.33 3170.86 0 0 -1
166 1 1781.83 2679.03 2051.73 0 0 -1
167 1 2630.54 2675.07 2376.86 0 -1 0
168 1 1987.79 2230.2 2885.93 0 0 0
169 1 2238.81 3086.71 1949.57 0 -1 -1
170 1 2884.76 2863.26 2381.1 0 -1 0
171 1 2764.1 2188.27 2946.44 -1 -1 -1
172 1 2595.33 2869.86 2191.43 0 -1 -1
173 1 2754.41 2405.25 2519.83 -1 0 -1
174 1 2806.45 1951.97 3178.42 -2 0 -1
175 1 3012.65 2922.42 1794.11 -1 -1 -1
176 1 2186.92 2163.94 2895.97 0 0 0
177 1 2765.73 3128.81 1871.7 -1 0 0
178 1 3112.07 2236.3 2755.58 -1 0 0
179 1 2033.16 2234.24 2942.36 -1 0 0
180 1 3073.02 2833.35 2891.66 0 0 -1
181 1 1880.25 2629.93 2968.53 0 -1 1
182 1 2802.61 3162.21 2235.54 0 -1 0
183 1 1800.91 2923.51 2098.16 0 -1 0
184 1 2863.48 2275.97 2657.88 0 -1 1
185 1 1872.02 2327.69 2613.47 0 0 -1
186 1 2968.19 2362.51 1982.11 -1 0 -1
187 1 3228.95 2635.43 2769.64 0 0 -1
188 1 2568.56 1771.03 3206.97 0 1 -1
189 1 3200.45 2160.15 3135.17 -1 0 -1
190 1 2576.89 2640.6 2488.02 -1 0 0
191 1 2813.21 1861.55 3039.3 0 0 0
192 1 3088.2 3120.76 1919.45 -1 -1 0
193 1 3151.62 2749.33 2853.06 -2 -1 0
194 1 2838.59 2199.58 2047.23 0 -1 -1
195 1 2211.79 2587.5 2730.01 -1 0 0
196 1 2411.74 2513.6 3222.62 0 0 -1
197 1 2234.61 2329.63 1835.27 -1 1 1
198 1 2768.8 3075.08 3135.33 -1 -1 0
199 1 2361.19 3047.95 1790.69 0 0 1
200 1 2149.63 2030.25 2906.34 0 0 -1
201 1 3075.77 2237.66 2902.99 -1 0 0
202 1 2572.38 2394.47 3144.9 -1 -1 -1
203 1 2994.16 2985.1 3162.68 -1 -1 0
204 1 2455.43 2371.46 2913.29 0 -1 -2
205 1 2911.76 2606.84 2965.63 -1 -1 0
206 1 3106.14 1835.93 3090.43 -1 0 0
207 1 2431.63 2711.07 3129.78 -1 -1 -1
208 1 2439.9 2260 2682.4 0 0 -1
209 1 2683.09 2651.42 2903.57 -1 -1 0
210 1 2978.34 2536.48 1927.16 0 -1 0
211 1 2784.81 2863.7 1932.74 -1 -1 0
212 1 2386.93 1756.27 2385.98 0 0 -1
213 1 2952.95 2661.93 2501.39 0 1 -1
214 1 2422.85 2828.97 2474.49 0 -1 0
215 1 1748.21 2886.5 1993.82 0 0 -1
216 1 2641.51 2364.18 3065.27 -1 0 -1
217 1 2862.5 2215.51 2163.89 -1 0 1
218 1 2215.36 2595.3 2058.84 0 0 0
219 1 2989.07 2876.06 2445.35 0 -1 0
220 1 2229.7 2445.37 3056.36 -1 0 -1
221 1 2914.17 1879.75 2964.24 -1 0 -1
222 1 2806.12 2236 1751.1 0 -1 1
223 1 2469.1 2462.65 3111.6 0 -1 -2
224 1 1847.5 3118.42 2496.06 0 -1 0
225 1 2759.56 3196.89 2454.04 0 -1 0
226 1 2737.83 2543.43 2846.4 0 -1 0
227 1 3132.06 2415.38 2643.24 -1 -1 -1
228 1 1785.92 3046.33 1796.1 0 0 1
229 1 2828.04 2148.03 2271.67 -1 -1 0
230 1 1831.83 2438.7 2587.72 0 0 -1
231 1 2154.16 2700.9 2435.8 -1 -1 0
232 1 2168.45 3178.8 3246.87 0 -1 -1
233 1 3133.35 2722 2724.2 -1 0 1
234 1 2071.35 1947.08 2563.82 0 -1 -1
235 1 2692.39 2370.68 1853.62 -1 -1 0
236 1 2508.87 2548.65 2183.14 -1 0 0
237 1 2967.21 2525.17 2885.9 0 -1 0
238 1 2915.21 2777.85 2464.35 0 -1 0
239 1 2690.21 2572.16 2143.98 -1 -1 0
240 1 2211.43 2549.72 2552.66 1 0 -1
241 1 2671.89 3168.69 1978.03 0 -1 0
242 1 2616.91 2127.24 1930.2 0 -2 0
243 1 1998.3 3222.95 1902.58 0 -1 0
244 1 2901.84 2571.42 2733.98 0 -1 -1
245 1 3058.69 1809.23 2515.2 -1 0 0
246 1 2840.31 1997.42 2659.55 0 -1 0
247 1 2440.98 3204.7 2591.97 0 -1 0
248 1 3052.1 2762.66 2100.96 -1 -1 0
249 1 3054.8 2618.9 2960.87 0 0 0
250 1 3211.41 1908.11 3088.48 -1 0 -1
251 1 2966.77 2669.64 2072.97 0 -1 0
252 1 2865.23 1869.23 2654.14 -1 0 0
253 1 1899.85 2631.38 2094.31 1 0 0
254 1 3162.62 2298.08 2584.8 -1 0 -1
255 1 2789.31 2043.16 3107.32 -1 0 -1
256 1 2432.27 2424.53 2790.94 -1 0 0
257 1 2822.43 2970.2 2035.44 -1 -1 0
258 1 2563.06 2115.82 2834.84 0 0 -1
259 1 2611.16 2150.25 3135.79 -1 0 -1
260 1 2617.02 2534.77 2911.38 0 0 0
261 1 1807.66 2115.92 2331.19 0 0 0
262 1 3027.47 2523.15 2141.26 -1 0 -1
263 1 2574.36 2792.61 2780.46 -1 0 -1
264 1 2271.89 2406.51 1942.77 0 0 -1
265 1 3167.8 2046.35 2897.43 -1 0 -1
266 1 2947.02 1893.09 3091.73 -1 0 -1
267 1 1800.44 2329.08 2880.85 0 0 -1
268 1 2231.91 2499.8 2551.75 0 -1 0
269 1 2782.38 1808.32 2829.71 -1 0 0
270 1 2343.4 2185.91 3138.57 0 0 -1
271 1 2092.76 2796.59 2396.74 0 -1 -1
272 1 2564.19 2418.96 2924.72 -1 0 -1
273 1 2187.28 2393.51 2896.72 0 0 -1
274 1 2354.94 2551.39 2934.83 1 -1 0
275 1 2853.09 2457.37 1951.31 -1 0 1
276 1 2761.12 2642.29 1773.6 -1 -1 0
277 1 2597.64 2610.11 2072.47 0 0 1
278 1 1770.84 1837.01 2747.52 0 0 -1
279 1 2357.51 2702.23 2463.46 0 -1 0
280 1 2456.15 2470.29 2989.84 -1 0 -1
281 1 2013.52 2829.96 2651.54 0 -1 0
282 1 2063.65 2341.45 2867.27 0 -1 0
283 1 2343 3132.96 3195.38 0 -1 -1
284 1 2187.87 2310.35 3096 0 0 -1
285 1 3240.51 2692.33 2889.69 -1 0 -1
286 1 2852.55 2126.37 2861.8 -1 1 0
287 1 2758.15 2062.37 1903.24 0 0 0
288 1 2353.6 2359.08 2701.5 1 0 0
289 1 2171.1 2681.53 2666.28 0 -1 0
290 1 2942.14 2485.25 2363 -1 -1 0
291 1 2289.1 2672.82 2445.72 -1 -1 0
292 1 3117.96 2280.42 2725.1 -1 0 -1
293 1 2615.74 2550.78 2548.54 0 0 1
294 1 2545.4 2631.03 2636.2 0 -1 -1
295 1 2005.5 3151.57 2540.06 0 -1 0
296 1 3105.04 2485.43 2869.09 0 0 0
297 1 2838.99 2336.52 2556.42 -1 0 0
298 1 2410.24 2424.95 2601.87 0 0 0
299 1 1869 2197.16 2542.44 1 0 0
300 1 2103.74 2438.79 3119.34 0 0 0
301 1 2382.6 2484.54 2548.7 -1 0 -1
302 1 3142.33 2022.2 1806.9 -1 0 0
303 1 2931.72 3174.36 1959.76 0 -1 0
304 1 2317.02 2750.35 3075.4 1 -1 -1
305 1 2416.83 1920.53 3083.68 0 0 -1
306 1 1842.01 3150.11 1789.37 0 -1 0
307 1 3020.9 2428.24 2072.45 -1 0 -1
308 1 1834.44 1880.51 1770.37 0 0 0
309 1 2637.39 2906.19 2342.67 0 0 -1
310 1 1912.96 2037.36 2721.42 0 0 -1
311 1 2191.99 2785.75 1797.32 0 -1 -1
312 1 2799.62 2354.54 2614.77 0 -1 1
313 1 2167.87 2099.58 3000.04 0 -1 -1
314 1 1918.45 2354.39 2829.29 1 0 0
315 1 1989.46 1924.18 2654.86 0 0 0
316 1 2849.6 2869.55 1822.57 -1 0 0
317 1 2226.79 2812.96 2596.18 1 0 -1
318 1 3214.77 3030.67 2776.99 0 -1 -1
319 1 2888.58 2205.43 1819.97 -1 0 0
320 1 2442.69 2658.13 2684.3 0 -1 0
321 1 2625.96 2279.29 3147.56 -1 0 0
322 1 2335.79 2468.72 1865.45 0 -1 0
323 1 2061.57 2122.02 2902.51 0 0 -1
324 1 3201.17 2354.76 1802.17 0 0 0
325 1 2138.1 3106.44 2851.94 0 0 0
326 1 2685.58 2760.54 2840.82 0 0 -1
327 1 2586.45 2984.43 2602.17 0 -1 0
328 1 2165.3 2252.94 2547.61 0 0 0
329 1 2144.57 2732.26 2066.38 0 0 0
330 1 2662.27 2518.78 2759.4 0 0 0
331 1 2475.69 2570.13 2075.3 -1 0 0
332 1 2272.18 2805.91 3003.57 0 -1 -1
333 1 2847.12 2509.1 2919.48 0 0 0
334 1 2870.42 3251.34 3112.85 -2 -1 0
335 1 2531.66 2865.16 2415.85 0 0 0
336 1 2463.38 2389.19 3225.11 0 -1 -1
337 1 1835.2 2430.71 2223.8 0 0 0
338 1 2680.05 2699.66 3183.98 0 -1 -1
339 1 2834.33 2671.57 3040.41 0 -1 0
340 1 2472.6 2458.79 2590.43 0 -1 0
341 1 2687.62 3141.36 3054.09 0 -1 -2
342 1 2772.85 2824.71 2910.58 0 -1 0
343 1 2737.59 2095.98 2849.55 1 -1 0
344 1 2910.29 2959.17 2948.13 0 -1 -1
345 1 2542.22 2295.38 1749.63 0 0 0
346 1 2655.21 2428.43 1882.18 0 -1 0
347 1 2487.56 2471.11 2773.31 -1 0 -1
348 1 2209.19 2471.97 2592 -1 -1 -1
349 1 2781.39 2625.09 2597.37 -1 0 0
350 1 2266.33 2300.87 2077.48 0 1 0
351 1 2069.77 1771.64 3047.33 0 0 -1
352 1 2368.71 2290.83 2990.85 0 1 0
353 1 2971.26 2608.48 2379.59 0 -1 0
354 1 2206.88 2604.88 2345.68 0 0 0
355 1 2374.71 2747.31 2966.97 0 -1 -1
356 1 2263.89 3038.8 1840.29 0 -1 0
357 1 2170.51 2863.84 2805.92 0 -1 -1
358 1 2963.63 3241.84 2240.95 -1 -1 0
359 1 2620.78 2316.06 2871.65 0 0 0
360 1 2226.29 1786.43 3210.46 0 1 -1
361 1 3168.28 2580.99 2349.18 -1 0 0
362 1 2769.68 2621.32 2782.62 0 -1 0
363 1 2513.87 2387.78 3031.75 0 0 -1
364 1 2796.95 2693.26 2923.89 -1 0 0
365 1 2177.91 3085.63 2737.98 0 -1 0
366 1 2043.23 2587.67 1874.83 0 0 0
367 1 2272.46 2570.41 2834.71 0 -1 -1
368 1 2628.36 1953.26 2580.79 -1 0 0
369 1 3015.88 2713.69 2667.02 0 0 -1
370 1 3079.08 2765.97 2214.23 -2 0 0
371 1 3146.77 2233.33 2023.24 -1 0 0
372 1 2920.73 2931.81 3209.45 -1 -1 -1
373 1 2821.86 2611.13 2791.65 0 1 0
374 1 2524.75 1969.05 2553.48 0 0 0
375 1 3010.46 1798.52 2372.21 0 0 -1
376 1 2689.49 2638.47 2503.8 0 1 0
377 1 3069.5 2491.17 2354.83 0 0 0
378 1 2338.93 2008.01 2874.35 0 1 -1
379 1 2878.11 2548.18 2259 -1 -1 0
380 1 2607.62 2190.55 2046.54 -1 0 0
381 1 2261.32 2535.69 2984.12 0 0 -1
382 1 3098.62 2840.68 2758.99 -1 -1 0
383 1 2709.75 2332.83 2360.71 -1 0 0
384 1 2808.49 2763.85 2389.39 0 -1 0
385 1 2960.45 2716.3 2345.98 0 0 0
386 1 2811.73 2939.22 2590.46 -1 0 0
387 1 2965.42 2353.82 2739.04 -1 0 -1
388 1 1754.11 2741.19 2836.46 0 0 -1
389 1 2446.96 2514.45 1859.97 0 0 0
390 1 1790.57 2641.44 1756.54 0 -1 0
391 1 2420.68 1999.58 1869.2 0 0 0
392 1 1967.07 2551.18 2950.36 -1 -1 -1
393 1 2583.42 2431.11 2681.26 0 0 1
394 1 1994.89 2181.45 3080.79 1 0 -1
395 1 2461.91 2457.31 2095.28 0 -1 -1
396 1 1812 2780.5 2576.66 1 0 0
397 1 2757.31 2787.65 1796.4 -1 0 0
398 1 2240.15 2439.54 2808.47 0 -1 0
399 1 2116.41 1860.73 2780.29 0 0 0
400 1 2220.21 2358.83 2706.8 -1 0 -1
401 1 2508.88 2476.6 2448.55 0 0 -1
402 1 2244.69 2553.83 3234.87 0 0 -2
403 1 1842.88 2125.55 3000.8 0 0 -1
404 1 2590.62 2654.38 2198.27 0 0 0
405 1 2657.94 3000.38 2779.3 -1 0 0
406 1 2148.26 2839.95 2308.66 0 -1 0
407 1 1948.48 2885.18 2874.69 -1 -1 0
408 1 3199.64 2416.17 2869.93 0 0 -1
409 1 3060.87 2653.3 2559.2 0 -1 -1
410 1 2582.39 2273.22 2441.78 0 0 -1
411 1 2162.62 2097.18 2050.65 0 0 0
412 1 2411.53 2976.08 2800.22 0 0 0
413 1 1832.81 2651.47 2834.14 0 0 -1
414 1 2069.74 2808.81 2788.18 0 -1 -1
415 1 2095.65 2395.63 2754.09 0 0 -1
416 1 2624.71 2654.09 1802.01 0 0 0
417 1 1891.87 2141.63 2427.42 -1 0 -1
418 1 3188.83 2951.14 2081.24 -1 0 1
419 1 2230.75 2588.34 2495.19 0 0 0
420 1 3075.23 2808.77 2366.32 -2 -1 -1
421 1 2824.03 2500.99 1858.67 -1 0 0
422 1 1850 2952.49 1982.93 0 -1 0
423 1 2997.89 2702.97 1789.73 0 -1 0
424 1 2060.13 2808.09 3107.41 0 -1 -1
425 1 2389.5 2817.34 3168.05 0 0 -1
426 1 2798.25 2581.1 2753.85 -1 0 -1
427 1 3079.09 2327.24 2250.24 -1 -1 0
428 1 2348.83 2912.7 2557.55 0 -1 -1
429 1 2864.05 2747.55 2265.37 -1 0 0
430 1 2102.75 1951.18 2276.14 0 -1 0
431 1 2604.88 2403.86 1775.41 0 0 0
432 1 2024.51 2810.51 2294.44 0 -1 0
433 1 2239.25 2662.78 2497.88 -1 -1 -1
434 1 3042.84 2688.19 2436.6 -1 0 0
435 1 2816.43 2096.64 2984.39 -1 0 0
436 1 2871.75 2691.58 1788.14 -1 0 0
437 1 2717.49 2251.44 2054.11 0 1 0
438 1 3220.45 2503.2 2646.66 -1 -1 -1
439 1 2804.1 2381.8 1926.16 0 0 0
440 1 2978.65 2035.93 3027.05 -1 0 -1
441 1 2726.88 1946.16 3065.87 -1 0 -1
442 1 1929.25 2564.18 2761.97 0 0 0
443 1 3003.68 2521.37 3004.89 0 -1 0
444 1 2791.05 2642.63 2072.91 -2 0 0
445 1 2438.01 2930.04 2539.4 0 -1 0
446 1 2911.37 2002.91 3150.52 -1 0 -1
447 1 2629.5 2691.13 2602.01 0 0 0
448 1 2073.78 2692.25 2301.78 -1 -1 0
449 1 2279.98 2460.16 1888.89 -1 0 0
450 1 2025.13 2436.72 3044.32 0 0 -1
451 1 2054.56 2717.68 2708.99 0 -1 -1
452 1 2182.83 2227.37 3011.99 0 0 0
453 1 3042.41 3030.13 2403.35 -1 0 0
454 1 2022.99 2241.94 2266.58 0 0 -1
455 1 2721.36 2608.87 3086.48 -1 0 -1
456 1 2890.68 1831.95 1795.95 0 1 0
457 1 2496.43 2736.96 2434.16 0 -1 -1
458 1 1977.25 2186.42 2940.59 0 1 -1
459 1 2103.92 2452.9 2226.49 0 -1 -1
460 1 3074.33 2485.32 2556.46 -1 -1 0
461 1 2803.43 2707.93 2501.96 0 -1 0
462 1 2928.87 2743.4 2581.65 -1 0 -1
463 1 3163.25 2097.91 2912.38 -1 0 -1
464 1 2665.38 2612.59 2645.98 0 0 0
465 1 1782.39 2707.31 2454.57 1 0 -2
466 1 2751.78 2936.97 2688.08 -1 -1 0
467 1 2675.35 2582.42 1888.95 0 1 0
468 1 3092.71 2786.17 1831.46 0 -1 1
469 1 2856.41 2522.71 2636.33 0 -1 -1
470 1 2851.09 2965.09 1906.34 -1 -1 -1
471 1 2855.99 2645.9 2341.48 0 0 0
472 1 2728.66 2908.45 1827.05 0 -1 0
473 1 1768.1 2404.69 2982.48 1 -1 0
474 1 2916.75 2365.04 2822.25 -2 -1 -1
475 1 2815.48 2517.87 2054.46 0 -1 0
476 1 2851.92 3218.55 2109.67 -1 -1 0
477 1 3083.64 2353.93 2023.37 0 -1 -1
478 1 2606.18 2490.04 2021.83 -1 -1 0
479 1 2605.67 1818.34 2312.87 0 0 -1
480 1 3134.64 2267.46 2463.47 -1 0 0
481 1 2883.19 1848.84 3244.69 0 1 0
482 1 2643.61 2010.46 2841.32 0 -1 -1
483 1 2937.15 2247.18 2800.56 -1 1 0
484 1 2751.97 2887.47 2359.3 -1 -1 0
485 1 2330.38 3041.67 2583.06 -1 -1 -1
486 1 3208.64 2893.98 1865.05 -1 -1 0
487 1 2705.78 2411.51 2726.12 -1 0 -1
488 1 2165.99 1850.84 2502.24 0 0 0
489 1 3049.02 2651.15 2155.72 -1 0 0
490 1 2932.08 2417.24 2958.37 -1 0 -1
491 1 2635.21 2718.9 2705.03 0 0 -1
492 1 2793.48 2534.53 3233.75 0 -1 0
493 1 2709.93 2461.36 2408.62 -1 0 0
494 1 2342.66 2407.73 3037.85 1 -1 0
495 1 2956.46 2781.07 2184.7 0 -1 0
496 1 2841.39 2611.4 2741.34 1 0 0
497 1 2614.78 3199.56 2628.51 -1 -1 0
498 1 2685.24 2920.34 2577.72 0 -1 0
499 1 2335.22 2522.39 1860.14 -1 0 -1
500 1 2692.01 2999.85 2335.42 0 -1 -1
501 1 2478.25 2708.79 2557.05 -1 0 -1
502 1 1858.96 2929.39 2899.51 -1 0 0
503 1 2489.13 2489.93 2847.22 0 0 0
504 1 2301.63 2592.72 2509.7 0 0 0
505 1 2085.55 2500.14 3156.64 -1 0 -1
506 1 1791.48 2163.59 2223.33 -1 0 0
507 1 3117.07 2077.28 2930.7 -1 0 -1
508 1 1958.2 1870.57 1981.9 0 0 -1
509 1 1967.1 1906.47 2515.46 0 0 0
510 1 2669.79 2360.87 2609.03 -1 -1 -1
511 1 3204.92 2980.61 2468.9 0 0 -1
512 1 1898.25 2999.79 3097.35 0 -1 -1
513 1 2959.91 2504.99 2048.64 0 -1 0
514 1 2758.65 2246.58 2289.23 -2 0 1
515 1 2511.84 2183.11 2426.32 -1 0 -1
516 1 2522.2 3190.45 2679.64 -1 -1 0
517 1 2930.75 2914.01 3100.71 0 -1 -1
518 1 2153.86 2822.69 2696.61 0 0 -1
519 1 2639.8 2583.69 2406.66 0 0 0
520 1 2965.48 2790.4 1819.37 -1 0 0
521 1 2508.12 2401.6 1836.5 -1 0 1
522 1 2477.73 2607.26 2192.38 -1 0 0
523 1 2947.86 2890.02 1902.42 0 0 0
524 1 2619.28 2425.93 2498.26 -1 -1 0
525 1 2981.07 2171.07 2909.57 0 0 -1
526 1 2112.35 2370.86 2629.05 0 0 0
527 1 1747.83 2224.65 2834.61 0 -1 -1
528 1 3062.58 2435.1 2245.02 0 1 0
529 1 2498.6 2594.26 1772.96 -1 -1 0
530 1 2015.01 2693.03 2587.09 0 0 0
531 1 2177.95 3206.49 1955.59 0 -1 0
532 1 3053.66 2587.88 2040.79 -1 0 0
533 1 2963.08 1819.58 2330.17 -1 0 -1
534 1 2360.21 1750 2813.49 0 0 -1
535 1 2654.17 3166.83 2487.86 -1 -2 0
536 1 2290.47 2548.42 2147.22 -1 0 0
537 1 2689.26 2924.87 2232.21 -1 -1 0
538 1 2042.91 2080.69 3012.79 0 0 -1
539 1 2992.45 2439.13 2652.44 -2 0 -1
540 1 2741.36 3060.15 2443.53 0 0 0
541 1 2490.13 2885.02 2819.39 0 0 -1
542 1 2379.56 2720.37 2417.7 0 -1 0
543 1 2315.97 2668 2616.12 0 0 -1
544 1 2930.62 1998.84 2915.72 -1 1 -1
545 1 2263.82 2787.64 2704.42 -1 0 -1
546 1 3097.71 1930.56 1887.59 -1 0 0
547 1 2486.54 2344.9 2399.77 0 -1 0
548 1 1958.38 2038.49 2921.3 0 0 0
549 1 2676.36 2495.15 3087.72 0 0 0
550 1 2159.21 2236.69 1826.14 0 0 0
551 1 2368.15 2671.61 1900.55 0 -1 0
552 1 2646.33 3180.46 3180.85 0 -1 -1
553 1 2838.37 2631.08 3183.65 -1 0 -1
554 1 2292.23 2415.85 2606.8 0 0 0
555 1 2116.72 2353.13 3012.45 0 0 0
556 1 2541.89 2888.41 2529.31 0 0 -1
557 1 2663.93 2616.48 2291.76 -1 0 0
558 1 2536.68 3140.99 2549.98 -1 0 -1
559 1 2534.07 3003.78 2821.02 -1 0 0
560 1 1987.75 2753.37 1750.3 0 0 0
561 1 3108.49 2389.14 2478.14 -1 -1 -1
562 1 2078.29 3120.01 3193.75 0 0 -1
563 1 3196.26 2505.68 2799.87 -1 0 0
564 1 2567.73 2689.05 3125.36 0 1 -1
565 1 3146.51 2626.44 3122.42 0 0 -1
566 1 3160.1 2247.9 2733.93 -1 0 1
567 1 2536.56 1877.27 2789.23 0 0 0
568 1 2934.95 2866.46 2537.76 -1 -1 -1
569 1 2673.64 2252.76 2971.02 0 0 0
570 1 1893.62 2862.55 2630.26 0 -1 0
571 1 2863.44 2774.34 1888.89 -1 -1 0
572 1 2542.83 2719.36 2678.37 -1 -1 0
573 1 2253.23 2335.56 2997.19 1 0 -1
574 1 2888.47 3037.86 3177.22 -1 0 0
575 1 1977.14 2421.44 2905.5 0 0 0
576 1 3140.57 2278.23 2774.04 0 -1 -1
577 1 3074.88 2578.86 2453.97 -1 -1 -1
578 1 1779.24 2604.84 2384.16 1 0 1
579 1 2851.59 3156.39 2541.92 0 0 -1
580 1 2394.27 2670.57 2439.93 0 1 1
581 1 1942.41 2293.2 2458.86 -1 0 0
582 1 2955.02 3005.11 2318.21 0 -1 0
583 1 2530.44 2439.33 2416.02 0 0 0
584 1 3105.58 2919.44 2384.45 0 0 1
585 1 2950.2 3033.31 3058.31 -1 -1 -1
586 1 2898.01 2197.5 3203.39 -1 -1 -2
587 1 1765.27 2224.14 2614.29 1 0 -1
588 1 2041.22 2409 2023.27 0 0 0
589 1 2797.54 2958.83 3201.17 1 -1 0
590 1 3132.7 2695.89 2028.44 -1 -1 1
591 1 2212.73 1969.3 3000.67 -1 -1 -1
592 1 1994.87 2339.16 2724.55 0 0 0
593 1 1862.26 2228.73 2899.82 0 0 0
594 1 2161.99 2986.71 2863.98 -1 1 0
595 1 2853.63 1770.62 2905.47 -1 0 -1
596 1 2786.26 2451.57 1942.76 1 0 0
597 1 2658.18 2579.99 3062.3 0 0 0
598 1 2878.55 3083.8 1888.81 0 -1 0
599 1 2311.22 3179.53 2583.08 -1 -1 0
600 1 2874.47 2156.74 2744.2 -1 0 -1
601 2 3233.84 2366.03 1944.26 -1 0 0
602 2 1956.59 2031.05 2290.83 1 0 0
603 2 2938.73 3085.95 2172.51 -1 0 1
604 2 3004.81 2965.87 2804.2 0 -1 0
605 2 1812.96 1785.54 3128.25 0 0 0
606 2 1778.79 2559.93 2217.95 1 0 0
607 2 2160.22 2595.01 2169.99 0 0 0
608 2 2730.83 3053.82 2570.49 0 -1 0
609 2 2872.16 2213.86 2391.22 0 0 0
610 2 2619.43 2892.31 2908.68 0 0 0
611 2 1862.83 2876.87 1833.44 0 0 1
612 2 2478.97 3198.25 2256.89 0 -1 0
613 2 2060.47 2555.13 2655.74 0 0 -1
614 2 2588.55 2092.37 2525.91 0 0 0
615 2 1797.23 2674.41 3084.53 0 0 0
616 2 3178.31 3160.28 1791.21 0 0 0
617 2 1862.87 2845.02 2224.97 0 -1 0
618 2 2469.95 3152.28 2876.26 0 0 0
619 2 2723.1 2105.86 2670.21 0 1 0
620 2 3205.66 3146.92 2461.01 -1 0 0
621 2 1752.06 3166.68 2786.37 0 0 -1
622 2 2301.1 3195.35 1829.41 0 0 0
623 2 2315.03 2550.54 3059.4 0 0 -1
624 2 1759.4 2367.12 2714.11 0 0 -1
625 2 2654.37 1995.5 3183.31 0 0 0
626 2 1877.54 3020.7 2758.19 1 0 -1
627 2 2056.7 1778.19 2602.44 0 1 0
628 2 3075.64 2561.39 2689.84 -1 0 0
629 2 2282.96 2047.33 2296.74 0 0 0
630 2 2526.85 1853.68 2146.94 0 1 0
631 2 3067.02 1914 2941.84 0 1 0
632 2 2190.21 2969.84 2039.22 0 -1 0
633 2 1856.11 2975.79 2391.78 0 -1 0
634 2 2981.28 2679.62 2814.66 -1 0 0
635 2 1833.42 1843.53 2270.64 0 0 0
636 2 2766.57 1936.81 2890.08 -1 0 0
637 2 1875.73 2207.74 2713.77 1 0 -1
638 2 1813.94 2005.16 2160.63 0 0 0
639 2 3040.85 2830.54 3152.38 0 0 0
640 2 2633.89 3235.61 2767.53 0 0 0
641 2 2353.02 2040.32 2618.14 0 0 0
642 2 2535.22 2950.29 2034.6 0 -1 0
643 2 1837.98 1768.03 2442.31 0 0 0
644 2 3202.78 2545.48 1949 -1 0 1
645 2 2552.48 3020.16 2242.79 0 -1 0
646 2 2243.02 2960.9 2230.85 0 -1 0
647 2 2176.96 2138.96 3147.28 0 0 0
648 2 2538.11 2632.15 2788.42 0 0 0
649 2 3018.86 2117.69 1767 -1 0 0
650 2 3028.9 2318.91 2326.38 0 0 0
651 2 3135.54 2103.6 2127.03 -1 0 0
652 2 1833.77 1826.55 2075.47 0 0 0
653 2 2857.43 2498.33 3069.17 0 0 -1
654 2 2500.04 3124.92 3219.99 0 -1 -1
655 2 2539.18 2005.9 2689.36 0 0 0
656 2 2710.66 1907.78 2704.93 0 0 0
657 2 2998.02 2050.57 2757.4 -1 0 -1
658 2 2588.42 2240.69 2708.98 -1 0 -1
659 2 1771.21 2059 2644.5 1 0 0
660 2 2412.61 2312.23 1999.02 0 0 0
661 2 2606.62 1797.05 1980.95 0 0 0
662 2 1974.93 1923.71 1814.75 0 0 0
663 2 1951.68 2838.53 2475.25 0 -1 0
664 2 2581.58 3006.75 3076.65 0 0 -1
665 2 2455.82 2389.42 2224.94 0 0 0
666 2 2563.44 3138.94 2094.2 0 -1 0
667 2 2793.09 1764.13 1951.17 0 0 0
668 2 1964.4 2347.18 2156.2 0 0 0
669 2 3084.56 2361.87 2981.96 -1 0 0
670 2 2188 1874.46 2834.27 0 0 -1
671 2 2759.85 1893.16 1807.38 0 0 1
672 2 1965.36 2546.35 2212.31 0 0 0
673 2 2310.27 2335.95 2416.07 0 0 0
674 2 3179.25 1767.15 2173.21 -1 0 0
675 2 2915.66 2791.09 2981.76 -1 0 0
676 2 2575.39 1965.54 1869.14 0 0 0
677 2 2064.21 2919.12 2162.75 0 -1 0
678 2 3087.86 2864.21 1967.47 -1 -1 0
679 2 2050.05 2963.45 3088.1 0 0 0
680 2 3020.13 1976.45 2201.47 -1 0 0
681 2 2297.38 3069.56 2842.83 0 0 0
682 2 2835.95 2370.48 2270.75 0 0 0
683 2 2411.16 2873.82 2602.75 0 -1 0
684 2 1922.03 3037.95 2225.26 0 -1 0
685 2 1954.46 3126.87 3070.14 0 0 -1
686 2 1949.63 2448.64 1874.58 0 0 0
687 2 2517.93 2830.47 3048.45 -1 -1 0
688 2 2896.34 3000.56 2464.29 -1 -1 0
689 2 2150.15 3120.29 3010.71 0 -1 0
690 2 3151.27 2987.95 3219.22 0 1 -1
691 2 2582.84 2331.08 2097.29 -1 0 0
692 2 2080.88 1754.16 2874.21 0 0 -1
693 2 3087.4 3154.42 2295.18 -1 -1 0
694 2 1882.97 2706.81 2676.67 0 0 0
695 2 2685.8 2133.37 2166.24 0 0 0
696 2 2394.71 1797.05 2953.29 0 1 0
697 2 1948.41 2054.42 2552.99 0 0 0
698 2 1977.85 2429.76 2515.91 1 0 0
699 2 2472.29 1778.9 1831.21 0 0 0
700 2 1771.43 2472.18 1801.76 0 0 0
701 2 3247.9 2833.37 2660.11 0 -1 -1
702 2 1880.13 2468.78 2371.06 0 0 0
703 2 2027.74 3078.2 2071.15 0 0 0
704 2 2221.22 3025.26 2408.89 0 -1 0
705 2 2059.85 1960.6 2786.3 0 0 -1
706 2 1946.97 2573.12 3240.94 0 0 0
707 2 1940.05 3008.19 2572.82 0 -1 0
708 2 1887.36 2597.08 2510.15 1 0 0
709 2 1881.73 1765.56 2947.39 0 0 0
710 2 2704.32 1814.96 3151.84 0 0 -1
711 2 2018.18 2932.02 1942.61 0 -1 0
712 2 2172.06 2663.42 3016.42 0 0 -1
713 2 2351.67 2480.18 2614.14 0 0 -1
714 2 2853.21 1990.68 2304.6 -1 0 0
715 2 2561.58 2272.97 1902.64 0 0 0
716 2 2313.22 2886.06 1783.92 0 0 0
717 2 3005.69 1761.8 3182.94 -1 0 -1
718 2 2649.13 2436.72 2235.75 -1 0 0
719 2 1990.75 1907.41 2143.05 0 0 0
720 2 1764.97 2006.92 3190.35 0 0 -1
721 2 3173.88 2443.01 2108.27 0 0 0
722 2 3234.65 2981.06 2212.47 -1 -1 0
723 2 2670.4 3046.18 3252.16 0 0 -1
724 2 3004.32 3144.01 2509.33 0 -1 0
725 2 2204.04 3226.25 2727.45 0 -1 -1
726 2 2262.39 2208.04 1933.16 0 0 0
727 2 3102.18 2440.75 1824.64 -1 0 0
728 2 2283.82 2161.46 2454.78 0 0 0
729 2 2894.51 1807.02 2489.82 -1 0 0
730 2 2907.63 2828.38 2029.9 -1 -1 0
731 2 2308.18 2697.9 3232.41 0 0 0
732 2 3166.63 1842.62 3246.62 -1 0 -1
733 2 2247.22 1825.27 1992.15 0 1 0
734 2 1874.21 2261.52 2295.5 0 0 0
735 2 2382.64 1871.45 2499.83 0 0 0
736 2 2225.81 3165.9 2096.08 0 -1 0
737 2 2185.65 2778.06 2118.12 -1 0 0
738 2 3137.04 2762.75 3001.4 0 0 0
739 2 2251.59 2963.3 2996.17 0 0 0
740 2 2861.84 1870.12 2161.65 0 0 0
741 2 2640.93 2072.59 2970.91 -1 1 0
742 2 2514.78 2131.27 1755.59 0 0 0
743 2 3229.83 2118.23 2464.25 -1 0 0
744 2 2585.45 2255.08 2261.64 0 0 0
745 2 2211.28 3017.53 3170.52 0 0 -1
746 2 2198.63 2612.24 1868.17 0 0 0
747 2 2760.03 2921.75 3027.11 0 0 -1
748 2 2438.57 1896.6 1987.3 0 0 0
749 2 2235.3 2081.63 2741.25 0 0 0
750 2 1823.82 1959.18 2431.38 0 0 0
751 2 3226.57 2665.38 2591.01 0 0 -1
752 2 2995 1766.68 2660.02 0 1 0
753 2 1806.71 2298.48 2117.12 0 0 0
754 2 2740.3 2379.66 3162.3 -1 0 0
755 2 2336.4 2125.24 2951.8 0 0 0
756 2 2588.93 3014.47 2430.11 0 -1 0
757 2 2394.78 2209.79 2322 0 0 0
758 2 3089.95 3113.95 2707.1 -1 -1 0
759 2 2702.77 1766.42 2145.9 0 0 0
760 2 2481.07 2632.11 2975.82 0 0 -1
761 2 2085.5 3083.1 1850.54 0 -1 0
762 2 2117.63 2104.38 2214.81 0 0 0
763 2 1883.04 2103.1 1815.05 0 0 0
764 2 2387.72 2861.34 2132.66 0 -1 0
765 2 2035.64 2362.17 2344.19 0 0 0
766 2 3113.68 2071.45 1918.17 -1 0 0
767 2 2402.88 1991.38 2151.3 0 1 0
768 2 2008.13 1847.67 2345.79 0 0 0
769 2 1956.33 3219.45 2186.82 0 -1 0
770 2 1781.26 2323.61 2461.8 1 -1 0
771 2 1834.66 2776.84 2948.98 1 0 -1
772 2 2045.17 2170.13 2398.66 0 0 0
773 2 2933.41 1904.42 1777.23 -1 0 1
774 2 1939.57 3029.05 3228.27 0 -1 -1
775 2 3184.68 3227.79 1989.46 -1 -1 0
776 2 2839.06 2790.89 3135.26 -1 0 -1
777 2 3131.56 2615.5 1776.96 -1 0 0
778 2 2124.85 2221.36 2741.07 0 0 -1
779 2 2823.65 2076.45 1751.9 -1 0 0
780 2 2943.69 2547.9 1759.42 -1 0 0
781 2 3031.95 1769.12 1870.11 -1 0 0
782 2 2504.51 2191.95 2929.85 0 0 0
783 2 2003.33 3033.93 2908.93 0 -1 -1
784 2 1833.98 1883.12 2597.19 0 0 -1
785 2 2980.96 3010.12 1998.5 -1 -1 0
786 2 1914.79 2015.9 1994.28 1 0 0
787 2 2540.97 2765.21 2065.85 0 0 0
788 2 2407.08 2135.4 2779.42 0 0 0
789 2 1848.67 2185.89 3152.33 0 0 -1
790 2 3181.49 2013.06 2326.02 -1 0 0
791 2 3097.31 1763.72 2824.74 0 0 -1
792 2 2108.15 2490.69 3233.35 0 0 -1
793 2 2082.22 1876.09 3167.84 0 0 0
794 2 2994.42 1957.57 2601.43 -1 0 0
795 2 2057.05 2951.8 2720.21 0 0 0
796 2 1865.05 2499.71 3046.78 0 0 -1
797 2 3002.58 3238.11 2980.2 -1 -1 -1
798 2 2031.02 3150.63 2720.43 0 0 0
799 2 3053.69 2181.55 3028.42 -1 1 -1
800 2 3062.3 2922.69 2991.58 -1 0 -1
801 2 2291.09 2269.21 2823.95 0 0 0
802 2 1939.57 1809.12 2755.22 0 1 0
803 2 2535.02 3107.89 1902.52 0 -1 0
804 2 2498.88 2757.36 2257.48 0 -1 0
805 2 2258.04 1857.19 2349.63 0 0 0
806 2 3208.53 2799.44 2110.73 -1 -1 0
807 2 3090.56 3105.05 3095.04 -1 0 -1
808 2 2835.07 2344.64 2060.37 -1 0 0
809 2 3145.35 1926.5 2715.4 0 0 0
810 2 2463.85 1944.42 3219.13 0 0 -1
811 2 1867.34 1948.73 3024.31 1 0 0
812 2 2571.55 1897.32 3033.34 0 0 -1
813 2 2381.97 1902.64 2742.33 0 0 0
814 2 2010.64 2719.46 2141.54 0 0 0