LAMMPS (23 Jun 2022 - Update 1)
OMP_NUM_THREADS environment is not set. Defaulting to 1 thread. (src/comm.cpp:98)
  using 1 OpenMP thread(s) per MPI task
###

# Read restart info
read_restart ${read_res}
read_restart ./trial5/3070/equpmf71.res
Reading restart file ...
  restart file = 23 Jun 2022, LAMMPS = 23 Jun 2022
  restoring atom style atomic from restart
  orthogonal box = (1650.3962 1650.3962 1650.3962) to (2349.6038 2349.6038 2349.6038)
  1 by 2 by 2 MPI processor grid
  restoring pair style table from restart
  1000 atoms
  read_restart CPU = 0.046 seconds

# Settings
pair_style table/pgn spline 10941
pair_coeff 1 1 N20e.txt DE_GNP 308 72.9   # 1.35 * r
pair_coeff 2 2 N100e.txt DE_GNP 473.9 111.78
WARNING: 20 of 10941 force values in table DE_GNP are inconsistent with -dE/dr.
WARNING:  Should only be flagged at inflection points (src/pair_table_pgn.cpp:478)
pair_coeff 1 2 mixed_potentiale.txt DE_GNP 391.2 92.95
WARNING: 1564 of 10941 force values in table DE_GNP are inconsistent with -dE/dr.
WARNING:  Should only be flagged at inflection points (src/pair_table_pgn.cpp:478)

# Neighbor list
neighbor 2.0 bin
neigh_modify delay 0 every 1 check no once yes

# Temperature
variable T equal ${Temp}
variable T equal 300

# Deformation
reset_timestep 0
variable tmp equal "lx"
variable L0 equal ${tmp}
variable L0 equal 699.207614673396
variable strain equal "(lx - v_L0)/v_L0"
variable stp equal "step"
variable tmpe equal "temp"
variable p1 equal "v_strain"
variable p2 equal "-pxx*1.01325/10000"
variable p3 equal "-pyy*1.01325/10000"
variable p4 equal "-pzz*1.01325/10000"
variable p5 equal "lx"
variable p6 equal "ly"
variable p7 equal "lz"
variable p8 equal "press"
variable p9 equal "epair"
variable p10 equal "etotal"

# Thermo
thermo_style custom step temp v_p1 v_p2 v_p3 v_p4 press lx ly lz vol density epair pe ke etotal pxx pyy pzz pxy pxz pyz spcpu
thermo ${ts_save}
thermo 1000

# Dump
# dump 1 all custom 2000 ./${N20}${N100}/tensile/trajectory/trajectory_${usic}_${trial}_*.tensile.custom id type x y z ix iy iz
# dump_modify 1 sort id
dump 2 all cfg 50000 ./trial${trial}/${N20}${N100}/tensile/trajectory/dumpten.tens_${usic}_${trial}_*.cfg mass type xs ys zs fx fy fz
dump 2 all cfg 50000 ./trial5/${N20}${N100}/tensile/trajectory/dumpten.tens_${usic}_${trial}_*.cfg mass type xs ys zs fx fy fz
dump 2 all cfg 50000 ./trial5/30${N100}/tensile/trajectory/dumpten.tens_${usic}_${trial}_*.cfg mass type xs ys zs fx fy fz
dump 2 all cfg 50000 ./trial5/3070/tensile/trajectory/dumpten.tens_${usic}_${trial}_*.cfg mass type xs ys zs fx fy fz
dump 2 all cfg 50000 ./trial5/3070/tensile/trajectory/dumpten.tens_1_${trial}_*.cfg mass type xs ys zs fx fy fz
dump 2 all cfg 50000 ./trial5/3070/tensile/trajectory/dumpten.tens_1_5_*.cfg mass type xs ys zs fx fy fz
dump_modify 2 element N20 N100

fix 1 all nvt temp ${T} ${T} 100
fix 1 all nvt temp 300 ${T} 100
fix 1 all nvt temp 300 300 100
fix 2 all deform 1 x erate ${strain_rate} y erate ${strain_rate} z erate ${strain_rate} units box
fix 2 all deform 1 x erate 5e-6 y erate ${strain_rate} z erate ${strain_rate} units box
fix 2 all deform 1 x erate 5e-6 y erate 5e-6 z erate ${strain_rate} units box
fix 2 all deform 1 x erate 5e-6 y erate 5e-6 z erate 5e-6 units box
fix             def1 all print ${ts_save} "${p1} ${p2} ${p3} ${p4}" file ./tensile/${trial}/tensile${N20}${N100}_${usic}_${trial}.txt screen no
fix             def1 all print 1000 "${p1} ${p2} ${p3} ${p4}" file ./tensile/${trial}/tensile${N20}${N100}_${usic}_${trial}.txt screen no
fix             def1 all print 1000 "${p1} ${p2} ${p3} ${p4}" file ./tensile/5/tensile${N20}${N100}_${usic}_${trial}.txt screen no
fix             def1 all print 1000 "${p1} ${p2} ${p3} ${p4}" file ./tensile/5/tensile30${N100}_${usic}_${trial}.txt screen no
fix             def1 all print 1000 "${p1} ${p2} ${p3} ${p4}" file ./tensile/5/tensile3070_${usic}_${trial}.txt screen no
fix             def1 all print 1000 "${p1} ${p2} ${p3} ${p4}" file ./tensile/5/tensile3070_1_${trial}.txt screen no
fix             def1 all print 1000 "${p1} ${p2} ${p3} ${p4}" file ./tensile/5/tensile3070_1_5.txt screen no

timestep       		${ts}
timestep       		0.1
run				${steps_tensile}
run				6000000
Generated 0 of 1 mixed pair_coeff terms from geometric mixing rule
Unused restart file global fix info:
  fix style: npt, fix ID: 5
Neighbor list info ...
  update every 1 steps, delay 0 steps, check no
  max neighbors/atom: 2000, page size: 100000
  master list distance cutoff = 113.78
  ghost atom cutoff = 113.78
  binsize = 56.89, bins = 13 13 13
  1 neighbor lists, perpetual/occasional/extra = 1 0 0
  (1) pair table/pgn, perpetual
      attributes: half, newton on
      pair build: half/bin/atomonly/newton
      stencil: half/bin/3d
      bin: standard
Per MPI rank memory allocation (min/avg/max) = 3.851 | 3.853 | 3.854 Mbytes
   Step          Temp           v_p1           v_p2           v_p3           v_p4          Press            Lx             Ly             Lz           Volume        Density         E_pair         PotEng         KinEng         TotEng          Pxx            Pyy            Pzz            Pxy            Pxz            Pyz           S/CPU     
         0   309.56636      1.6259382e-16 -0.0034625656   0.0094457496   0.0095162779  -50.989265      699.20761      699.20761      699.20761      3.4183651e+08  1.7584434     -42002207      -42002207       921.83577     -42001285       34.172865     -93.222301     -93.91836       43.368067     -46.152207      62.263478      0            
      1000   327.08655      0.0005         0.0062379996   0.018618667    0.01886705    -143.83984      699.55722      699.55722      699.55722      3.4234952e+08  1.7558083     -42001573      -42001573       974.00791     -42000599      -61.564269     -183.75196     -186.20331      42.299845     -45.269409      61.238547      12881.592    
      2000   374.32299      0.001          0.015166204    0.026969871    0.027432875   -228.86405      699.90682      699.90682      699.90682      3.4286305e+08  1.7531786     -42000431      -42000431       1114.6699     -41999316      -149.67879     -266.17193     -270.74143      41.376655     -44.17163       60.927847      16102.066    
      3000   422.03714      0.0015         0.02341373     0.034902572    0.035535991   -308.75004      700.25643      700.25643      700.25643      3.4337708e+08  1.750554      -41998800      -41998800       1256.7545     -41997543      -231.07555     -344.46161     -350.71296      41.541398     -43.519603      60.564094      15967.628    
      4000   454.58062      0.002          0.031544466    0.042854202    0.043653705   -388.36211      700.60603      700.60603      700.60603      3.4389164e+08  1.7479348     -41996649      -41996649       1353.6635     -41995295      -311.31967     -422.93809     -430.82857      42.789056     -42.822371      59.846583      15952.85     
      5000   468.19117      0.0025         0.03975169     0.050889899    0.051759139   -468.46197      700.95563      700.95563      700.95563      3.444067e+08   1.7453207     -41993926      -41993926       1394.1933     -41992532      -392.31868     -502.24425     -510.82299      43.677536     -41.892505      58.600536      16097.349    
      6000   467.59068      0.003          0.047938723    0.058934012    0.059741145   -548.11705      701.30524      701.30524      701.30524      3.4492228e+08  1.7427119     -41990603      -41990603       1392.4052     -41989211      -473.11841     -581.63347     -589.59926      43.803065     -41.228794      56.767751      15972.539    
      7000   458.98845      0.0035         0.055968493    0.066958031    0.067834944   -627.55644      701.65484      701.65484      701.65484      3.4543837e+08  1.7401082     -41986685      -41986685       1366.7892     -41985318      -552.36608     -660.82438     -669.47884      42.737027     -41.157137      54.591489      16007.239    
      8000   446.90666      0.004          0.063796235    0.074755096    0.075913613   -705.53481      702.00445      702.00445      702.00445      3.4595498e+08  1.7375097     -41982171      -41982171       1330.8117     -41980841      -629.61989     -737.77543     -749.20911      40.444077     -41.05981       52.828821      16058.668    
      9000   434.2714       0.0045         0.071600918    0.082335009    0.083661929   -781.63617      702.35405      702.35405      702.35405      3.464721e+08   1.7349164     -41977059      -41977059       1293.1861     -41975766      -706.64612     -812.58337     -825.67904      38.369052     -40.007293      51.898093      15908.957    
     10000   422.77558      0.005          0.079407524    0.089816171    0.091069706   -856.29871      702.70365      702.70365      702.70365      3.4698974e+08  1.7323283     -41971358      -41971358       1258.9535     -41970099      -783.69133     -886.41669     -898.78812      37.100234     -37.902617      51.582971      16037.797    
     11000   412.98574      0.0055         0.08709236     0.097128965    0.098381135   -929.68981      703.05326      703.05326      703.05326      3.4750789e+08  1.7297453     -41965076      -41965076       1229.801      -41963846      -859.53477     -958.58835     -970.94631      37.214881     -36.253109      51.055632      15980.977    
     12000   404.68521      0.006          0.094582411    0.10429196     0.10569042    -1001.9402      703.40286      703.40286      703.40286      3.4802656e+08  1.7271674     -41958221      -41958221       1205.0834     -41957016      -933.45582     -1029.2816     -1043.0833      38.368803     -35.985648      50.071386      15733.913    
     13000   397.539        0.0065         0.10172943     0.11134485     0.11280683    -1072.0655      703.75246      703.75246      703.75246      3.4854575e+08  1.7245947     -41950817      -41950817       1183.8033     -41949633      -1003.9914     -1098.8883     -1113.3168      38.584419     -36.28699       49.112844      16186.525    
     14000   391.58302      0.007          0.10857639     0.11804848     0.11959647    -1138.9797      704.10207      704.10207      704.10207      3.4906545e+08  1.7220271     -41942878      -41942878       1166.0674     -41941712      -1071.5657     -1165.0479     -1180.3254      37.37285      -36.637668      48.647221      15978.815    
     15000   386.73507      0.0075         0.11538703     0.12457548     0.12623344    -1204.691       704.45167      704.45167      704.45167      3.4958566e+08  1.7194645     -41934413      -41934413       1151.631      -41933261      -1138.7814     -1229.4644     -1245.8272      35.919045     -36.292619      48.801467      16159.58     
     16000   382.8063       0.008          0.1221327      0.13121181     0.13276894    -1270.2145      704.80128      704.80128      704.80128      3.501064e+08   1.7169071     -41925433      -41925433       1139.9318     -41924293      -1205.356      -1294.9598     -1310.3275      34.37598      -34.993921      48.240963      16103.189    
     17000   379.76606      0.0085         0.12869857     0.13778776     0.13921483    -1334.6531      705.15088      705.15088      705.15088      3.5062765e+08  1.7143547     -41915946      -41915946       1130.8785     -41914815      -1270.1561     -1359.8595     -1373.9436      33.777367     -33.453357      46.729639      16059.085    
     18000   377.60148      0.009          0.13515254     0.14415203     0.14568988    -1398.123       705.50048      705.50048      705.50048      3.5114941e+08  1.7118073     -41905951      -41905951       1124.4327     -41904827      -1333.8519     -1422.6699     -1437.8474      34.381381     -32.40635       45.418511      16182.666    
     19000   376.42808      0.0095         0.14165829     0.15027023     0.15206925    -1460.6391      705.85009      705.85009      705.85009      3.516717e+08   1.7092651     -41895466      -41895466       1120.9386     -41894346      -1398.0587     -1483.0519     -1500.8068      34.887081     -32.73858       44.721951      16057.77     
     20000   376.38649      0.01           0.14806327     0.15611708     0.15809275    -1520.7602      706.19969      706.19969      706.19969      3.521945e+08   1.7067278     -41884514      -41884514       1120.8147     -41883394      -1461.2709     -1540.7558     -1560.2541      34.423033     -33.017863      43.837593      16061.211    
     21000   376.99637      0.0105         0.15407616     0.16184629     0.16382797    -1578.2562      706.54929      706.54929      706.54929      3.5271782e+08  1.7041956     -41873109      -41873109       1122.6308     -41871987      -1520.6135     -1597.2987     -1616.8564      33.891008     -31.982569      43.014766      16119.389    
     22000   377.49278      0.011          0.15977017     0.16762498     0.16933177    -1634.1045      706.8989       706.8989       706.8989       3.5324166e+08  1.7016683     -41861259      -41861259       1124.109      -41860135      -1576.809      -1654.3299     -1671.1746      33.158446     -30.793962      42.631631      15964.564    
     23000   377.77014      0.0115         0.16532609     0.17339998     0.17472542    -1689.1241      707.2485       707.2485       707.2485       3.5376601e+08  1.6991461     -41848977      -41848977       1124.935      -41847852      -1631.6417     -1711.3247     -1724.4058      32.053803     -29.619624      42.176641      16135.12     
     24000   378.41093      0.012          0.17088999     0.17892358     0.1802659     -1743.8259      707.59811      707.59811      707.59811      3.5429089e+08  1.6966288     -41836267      -41836267       1126.8431     -41835140      -1686.553      -1765.8384     -1779.0861      31.382583     -28.955082      41.427649      16095.322    
     25000   379.7942       0.0125         0.17650904     0.18417657     0.18605987    -1798.6528      707.94771      707.94771      707.94771      3.5481628e+08  1.6941166     -41823123      -41823123       1130.9623     -41821992      -1742.0087     -1817.6814     -1836.2682      30.70496      -29.132243      40.499132      16110.177    
     26000   381.53298      0.013          0.18211706     0.1893479      0.19165287    -1852.5136      708.29731      708.29731      708.29731      3.553422e+08   1.6916092     -41809556      -41809556       1136.14       -41808420      -1797.3556     -1868.7185     -1891.4667      29.819692     -28.961423      39.749168      16189.95     
     27000   383.26855      0.0135         0.18756862     0.19443774     0.19674189    -1903.9337      708.64692      708.64692      708.64692      3.5586863e+08  1.6891069     -41795589      -41795589       1141.3083     -41794447      -1851.1584     -1918.9513     -1941.6915      29.58455      -27.5101        39.356314      15972.717    
     28000   385.0585       0.014          0.19276326     0.19932364     0.20158721    -1953.036       708.99652      708.99652      708.99652      3.5639558e+08  1.6866094     -41781231      -41781231       1146.6385     -41780085      -1902.4255     -1967.1714     -1989.5111      29.427961     -26.508434      38.529818      15997.934    
     29000   387.2823       0.0145         0.19762707     0.2039603      0.20630527    -1999.8113      709.34613      709.34613      709.34613      3.5692306e+08  1.6841169     -41766495      -41766495       1153.2606     -41765342      -1950.4275     -2012.9317     -2036.0747      28.498714     -26.256452      37.786423      16138.222    
     30000   389.92002      0.015          0.20222717     0.20847199     0.21077943    -2044.5056      709.69573      709.69573      709.69573      3.5745105e+08  1.6816293     -41751395      -41751395       1161.1152     -41750234      -1995.827      -2057.4586     -2080.2312      27.460672     -25.031382      37.169752      16018.436    
     31000   392.1422       0.0155         0.20686813     0.2131316      0.21520314    -2089.655       710.04533      710.04533      710.04533      3.5797956e+08  1.6791465     -41735935      -41735935       1167.7325     -41734767      -2041.6297     -2103.4454     -2123.8899      27.216376     -23.759904      36.277727      16182.17     
     32000   393.82106      0.016          0.21164651     0.21777042     0.21967795    -2135.3562      710.39494      710.39494      710.39494      3.5850859e+08  1.6766687     -41720116      -41720116       1172.7319     -41718943      -2088.7887     -2149.2269     -2168.0528      27.368867     -23.702497      35.514797      16043.375    
     33000   395.75292      0.0165         0.21635781     0.22211565     0.22416929    -2179.9252      710.74454      710.74454      710.74454      3.5903815e+08  1.6741958     -41703948      -41703948       1178.4846     -41702770      -2135.2856     -2192.111      -2212.3789      27.517002     -24.050574      35.319184      15999.64     
     34000   398.11704      0.017          0.22081255     0.22623764     0.22856308    -2222.5949      711.09414      711.09414      711.09414      3.5956823e+08  1.6717277     -41687441      -41687441       1185.5246     -41686255      -2179.2505     -2232.7919     -2255.7422      27.469943     -23.122386      35.037467      16086.554    
     35000   400.56163      0.0175         0.22503904     0.23028323     0.23279439    -2263.7278      711.44375      711.44375      711.44375      3.6009882e+08  1.6692644     -41670600      -41670600       1192.8041     -41669407      -2220.9626     -2272.7187     -2297.502       27.537878     -20.999227      34.276207      16027.485    
     36000   402.91042      0.018          0.22917516     0.23430151     0.23686415    -2303.9422      711.79335      711.79335      711.79335      3.6062994e+08  1.666806      -41653437      -41653437       1199.7984     -41652237      -2261.783      -2312.3761     -2337.6674      27.156412     -19.879188      33.609711      16004.809    
     37000   405.15174      0.0185         0.23327645     0.23821212     0.24077945    -2343.1796      712.14296      712.14296      712.14296      3.6116158e+08  1.6643524     -41635958      -41635958       1206.4727     -41634751      -2302.2595     -2350.9708     -2376.3085      25.262055     -19.946483      33.53665       16155.591    
     38000   407.42775      0.019          0.23729953     0.2418694      0.24435429    -2380.2064      712.49256      712.49256      712.49256      3.6169375e+08  1.6619036     -41618177      -41618177       1213.2503     -41616963      -2341.9643     -2387.0654     -2411.5894      23.598269     -19.906554      32.975298      16034.017    
     39000   409.81661      0.0195         0.24109708     0.24522496     0.24767658    -2414.6677      712.84216      712.84216      712.84216      3.6222643e+08  1.6594596     -41600106      -41600106       1220.3639     -41598886      -2379.4431     -2420.1822     -2444.3778      23.784476     -19.489291      31.485314      16140.496    
     40000   411.74138      0.02           0.24475718     0.24856543     0.25105724    -2448.8193      713.19177      713.19177      713.19177      3.6275964e+08  1.6570205     -41581751      -41581751       1226.0955     -41580525      -2415.5655     -2453.1501     -2477.7424      24.219293     -18.417009      29.960549      15952.235    
     41000   413.30105      0.0205         0.24838674     0.25200578     0.254599      -2483.729       713.54137      713.54137      713.54137      3.6329337e+08  1.654586      -41563114      -41563114       1230.74       -41561883      -2451.3866     -2487.1037     -2512.6967      23.482407     -17.333489      29.081792      15901.722    
     42000   415.01113      0.021          0.25190826     0.25549164     0.25822911    -2518.7236      713.89097      713.89097      713.89097      3.6382763e+08  1.6521564     -41544200      -41544200       1235.8323     -41542964      -2486.1412     -2521.5065     -2548.5231      22.236622     -17.179676      29.370449      16119.795    
     43000   416.87287      0.0215         0.2551202      0.25891407     0.26163977    -2551.7692      714.24058      714.24058      714.24058      3.6436241e+08  1.6497315     -41525019      -41525019       1241.3762     -41523778      -2517.8406     -2555.2832     -2582.1838      21.679606     -17.132273      29.730532      16051.088    
     44000   418.98944      0.022          0.25815835     0.2619517      0.26459217    -2581.4696      714.59018      714.59018      714.59018      3.6489771e+08  1.6473114     -41505591      -41505591       1247.679      -41504343      -2547.8248     -2585.2623     -2611.3217      21.882395     -16.267232      29.57781       16143.533    
     45000   421.22761      0.0225         0.26134518     0.26477113     0.26738885    -2610.429       714.93979      714.93979      714.93979      3.6543353e+08  1.644896      -41485921      -41485921       1254.3439     -41484666      -2579.2764     -2613.0879     -2638.9228      22.284598     -15.253614      28.811937      16119.323    
     46000   422.93046      0.023          0.26464206     0.26765391     0.27026406    -2640.2172      715.28939      715.28939      715.28939      3.6596988e+08  1.6424853     -41466001      -41466001       1259.4147     -41464741      -2611.814      -2641.5388     -2667.2989      22.596755     -14.284372      28.445774      15970.816    
     47000   424.24431      0.0235         0.26776075     0.27041212     0.27307871    -2668.8102      715.63899      715.63899      715.63899      3.6650676e+08  1.6400793     -41445827      -41445827       1263.3271     -41444563      -2642.5932     -2668.7601     -2695.0773      22.984925     -13.32744       28.351627      16028.106    
     48000   425.74422      0.024          0.27057614     0.27299626     0.27591402    -2695.9007      715.9886       715.9886       715.9886       3.6704416e+08  1.637678      -41425419      -41425419       1267.7936     -41424151      -2670.3789     -2694.2636     -2723.0596      22.365829     -12.787554      27.471037      15988.496    
     49000   427.18489      0.0245         0.27332899     0.27554647     0.27877911    -2722.7719      716.3382       716.3382       716.3382       3.6758208e+08  1.6352814     -41404796      -41404796       1272.0836     -41403524      -2697.5474     -2719.4322     -2751.3359      21.172403     -12.70582       26.553648      16014.598    
     50000   428.50734      0.025          0.27596137     0.27799915     0.281256      -2747.6487      716.68781      716.68781      716.68781      3.6812053e+08  1.6328895     -41383967      -41383967       1276.0217     -41382691      -2723.527      -2743.6383     -2775.7809      20.358341     -12.690909      26.5519        13918.19     
     51000   430.23588      0.0255         0.27845703     0.28038126     0.28338404    -2770.696       717.03741      717.03741      717.03741      3.6865951e+08  1.6305022     -41362939      -41362939       1281.169      -41361658      -2748.1572     -2767.1479     -2796.783       20.076054     -12.350648      26.695591      15411.445    
     52000   431.86865      0.026          0.28089741     0.28272395     0.28559099    -2793.6914      717.38701      717.38701      717.38701      3.6919901e+08  1.6281196     -41341718      -41341718       1286.0311     -41340432      -2772.2419     -2790.2685     -2818.5639      20.039937     -11.259571      25.813331      15904.15     
     53000   433.01853      0.0265         0.28314296     0.28488905     0.28784032    -2815.601       717.73662      717.73662      717.73662      3.6973904e+08  1.6257416     -41320297      -41320297       1289.4552     -41319008      -2794.4037     -2811.6363     -2840.7631      19.846098     -9.8387693      25.49191       16113.984    
     54000   434.23387      0.027          0.2853476      0.28684355     0.28996765    -2836.282       718.08622      718.08622      718.08622      3.7027959e+08  1.6233683     -41298689      -41298689       1293.0743     -41297396      -2816.1619     -2830.9258     -2861.7582      18.928844     -8.6681061      25.611024      15572.38     
     55000   435.37922      0.0275         0.28762078     0.28883789     0.29207105    -2857.2406      718.43582      718.43582      718.43582      3.7082067e+08  1.6209995     -41276905      -41276905       1296.485      -41275609      -2838.5964     -2850.6084     -2882.5172      17.685889     -8.3887127      24.681911      16147.488    
     56000   436.1349       0.028          0.28982939     0.29081626     0.2941272     -2877.7789      718.78543      718.78543      718.78543      3.7136228e+08  1.6186354     -41254939      -41254939       1298.7352     -41253640      -2860.3936     -2870.1334     -2902.8098      17.889599     -7.5248657      23.890217      16026.264    
     57000   436.89921      0.0285         0.29188087     0.29264513     0.29614005    -2897.1661      719.13503      719.13503      719.13503      3.7190442e+08  1.6162759     -41232800      -41232800       1301.0112     -41231499      -2880.6403     -2888.1829     -2922.675       18.94413      -6.1924689      23.119992      15931.255    
     58000   437.8658       0.029          0.29371363     0.29447359     0.29797112    -2915.2343      719.48464      719.48464      719.48464      3.7244708e+08  1.613921      -41210506      -41210506       1303.8896     -41209202      -2898.7282     -2906.2283     -2940.7463      19.464493     -5.7898791      21.728908      16141.322    
     59000   439.08956      0.0295         0.29539563     0.29618651     0.29944247    -2931.2431      719.83424      719.83424      719.83424      3.7299027e+08  1.6115706     -41188062      -41188062       1307.5337     -41186754      -2915.3282     -2923.1336     -2955.2674      18.872752     -6.3029763      21.235525      16068.728    
     60000   440.43098      0.03           0.29706638     0.29769489     0.30090946    -2946.5276      720.18384      720.18384      720.18384      3.7353399e+08  1.6092248     -41165471      -41165471       1311.5283     -41164159      -2931.8172     -2938.0202     -2969.7455      17.758113     -7.4766769      22.265627      16025.921    
     61000   441.41661      0.0305         0.29867078     0.2990692      0.30241199    -2961.2697      720.53345      720.53345      720.53345      3.7407823e+08  1.6068835     -41142743      -41142743       1314.4633     -41141428      -2947.6514     -2951.5835     -2984.5743      17.240761     -7.0167218      22.999808      16087.683    
     62000   442.0598       0.031          0.30026052     0.30040183     0.30387625    -2975.7006      720.88305      720.88305      720.88305      3.7462301e+08  1.6045468     -41119881      -41119881       1316.3786     -41118564      -2963.341      -2964.7355     -2999.0254      16.74611      -4.6226541      22.159962      15980.972    
     63000   442.48726      0.0315         0.30173346     0.30173773     0.30507043    -2988.8696      721.23265      721.23265      721.23265      3.7516831e+08  1.6022146     -41096896      -41096896       1317.6515     -41095578      -2977.8778     -2977.9199     -3010.8111      15.670638     -2.6805058      20.809549      16131.278    
     64000   442.90447      0.032          0.30303941     0.30304369     0.30609801    -3000.8426      721.58226      721.58226      721.58226      3.7571414e+08  1.5998869     -41073793      -41073793       1318.8939     -41072474      -2990.7665     -2990.8087     -3020.9525      14.029695     -1.8437641      19.466026      16069.026    
     65000   442.99802      0.0325         0.30430288     0.3041951      0.30727997    -3012.6753      721.93186      721.93186      721.93186      3.762605e+08   1.5975638     -41050567      -41050567       1319.1724     -41049248      -3003.2359     -3002.1723     -3032.6176      12.931074     -1.8366725      18.121968      16012.975    
     66000   443.02263      0.033          0.30549295     0.30522555     0.30843281    -3023.7727      722.28147      722.28147      722.28147      3.7680739e+08  1.5952451     -41027230      -41027230       1319.2457     -41025911      -3014.981      -3012.342      -3043.9951      12.542447     -1.9922482      17.727252      16005.843    
     67000   443.58024      0.0335         0.30652689     0.30629292     0.30945673    -3034.0539      722.63107      722.63107      722.63107      3.7735481e+08  1.5929309     -41003796      -41003796       1320.9062     -41002475      -3025.1852     -3022.8761     -3054.1005      12.945613     -1.7843372      18.364242      15977.835    
     68000   444.24395      0.034          0.30750153     0.30749222     0.31046368    -3044.5182      722.98067      722.98067      722.98067      3.7790276e+08  1.5906212     -40980268      -40980268       1322.8826     -40978945      -3034.8042     -3034.7123     -3064.0383      13.734797     -1.2167717      18.55403       15992.585    
     69000   444.67457      0.0345         0.30829863     0.30844189     0.31139585    -3053.3313      723.33028      723.33028      723.33028      3.7845124e+08  1.588316      -40956644      -40956644       1324.1649     -40955319      -3042.6709     -3044.0848     -3073.2381      13.628199     -0.68316255     17.549058      16163.22     
     70000   445.03609      0.035          0.30904701     0.30898799     0.31215291    -3060.0803      723.67988      723.67988      723.67988      3.7900025e+08  1.5860152     -40932935      -40932935       1325.2415     -40931609      -3050.0568     -3049.4743     -3080.7097      12.296676      0.071865582    15.798305      16035.105    
     71000   445.52211      0.0355         0.30990093     0.3094534      0.31269859    -3066.2157      724.02948      724.02948      724.02948      3.7954979e+08  1.5837188     -40909152      -40909152       1326.6888     -40907826      -3058.4844     -3054.0676     -3086.0952      11.128504      1.2591975      14.067258      16079.884    
     72000   445.7433       0.036          0.31079129     0.31005147     0.31317451    -3072.6779      724.37909      724.37909      724.37909      3.8009986e+08  1.5814269     -40885293      -40885293       1327.3474     -40883965      -3067.2715     -3059.9701     -3090.7921      10.588362      1.6891595      13.010544      15935.991    
     73000   445.22591      0.0365         0.31149654     0.31073638     0.31365346    -3078.8268      724.72869      724.72869      724.72869      3.8065047e+08  1.5791394     -40861358      -40861358       1325.8067     -40860033      -3074.2319     -3066.7297     -3095.519       9.6730244      1.2567378      13.143579      15925.616    
     74000   444.4477       0.037          0.31182383     0.31131145     0.31388874    -3082.5694      725.0783       725.0783       725.0783       3.812016e+08   1.5768563     -40837365      -40837365       1323.4894     -40836042      -3077.4619     -3072.4052     -3097.841       8.5352056      1.1409454      13.734256      16200.181    
     75000   444.51367      0.0375         0.31190683     0.31156377     0.31402311    -3084.1145      725.4279       725.4279       725.4279       3.8175327e+08  1.5745776     -40813334      -40813334       1323.6858     -40812010      -3078.2811     -3074.8953     -3099.1672      8.2489637      0.98799392     12.935822      16037.148    
     76000   445.08313      0.038          0.31216924     0.31158332     0.31433275    -3086.0607      725.7775       725.7775       725.7775       3.8230547e+08  1.5723033     -40789268      -40789268       1325.3816     -40787943      -3080.8709     -3075.0883     -3102.223       8.4684488      1.8413209      10.908258      15616.381    
     77000   445.08011      0.0385         0.31264618     0.31172731     0.3146861     -3089.2658      726.12711      726.12711      726.12711      3.828582e+08   1.5700334     -40765158      -40765158       1325.3726     -40763833      -3085.5779     -3076.5093     -3105.7103      8.5819957      3.5859536      9.2735994      16084.66     
     78000   444.70326      0.039          0.31304279     0.31201765     0.3148111     -3091.937       726.47671      726.47671      726.47671      3.8341146e+08  1.5677678     -40741004      -40741004       1324.2504     -40739680      -3089.4921     -3079.3748     -3106.944       8.209943       4.2832141      8.5705834      16077.906    
     79000   444.5002       0.0395         0.31314201     0.31210922     0.31469653    -3092.1877      726.82632      726.82632      726.82632      3.8396526e+08  1.5655066     -40716818      -40716818       1323.6457     -40715495      -3090.4713     -3080.2785     -3105.8133      7.3717725      3.7668299      7.5152969      16070.327    
     80000   444.30186      0.04           0.31304188     0.31208006     0.31448279    -3091.0592      727.17592      727.17592      727.17592      3.8451959e+08  1.5632497     -40692612      -40692612       1323.0551     -40691289      -3089.4831     -3079.9907     -3103.7038      5.9880172      3.4521764      6.0853755      15917.644    
     81000   443.62969      0.0405         0.31287766     0.31207495     0.31425582    -3089.7555      727.52552      727.52552      727.52552      3.8507445e+08  1.5609972     -40668386      -40668386       1321.0535     -40667065      -3087.8624     -3079.9403     -3101.4638      4.1383656      2.7927293      5.4144328      15794.966    
     82000   442.55334      0.041          0.31273689     0.3119419      0.31406731    -3088.2346      727.87513      727.87513      727.87513      3.8562984e+08  1.558749      -40644139      -40644139       1317.8483     -40642822      -3086.4731     -3078.6272     -3099.6033      3.5111633      1.9024747      5.477054       16150.134    
     83000   441.70521      0.0415         0.3126514      0.31161495     0.31385154    -3086.1679      728.22473      728.22473      728.22473      3.8618577e+08  1.5565051     -40619885      -40619885       1315.3227     -40618570      -3085.6294     -3075.4004     -3097.4739      3.5413702      2.0740855      5.3366787      16052.018    
     84000   441.504        0.042          0.312406       0.31114477     0.31348213    -3082.5986      728.57433      728.57433      728.57433      3.8674224e+08  1.5542656     -40595642      -40595642       1314.7235     -40594327      -3083.2075     -3070.7601     -3093.8281      3.4868279      3.3240993      4.1654368      16049.693    
     85000   441.50923      0.0425         0.31188087     0.31066015     0.31304435    -3077.8365      728.92394      728.92394      728.92394      3.8729923e+08  1.5520303     -40571414      -40571414       1314.7391     -40570099      -3078.0248     -3065.9773     -3089.5075      3.9849558      4.7053157      2.7942707      15947.516    
     86000   441.12063      0.043          0.31132184     0.31020822     0.31260823    -3073.0761      729.27354      729.27354      729.27354      3.8785677e+08  1.5497993     -40547199      -40547199       1313.5819     -40545885      -3072.5077     -3061.5171     -3085.2034      3.6585625      5.5545986      1.9626759      15689.982    
     87000   440.38728      0.0435         0.31095408     0.3096743      0.3121487     -3068.598       729.62315      729.62315      729.62315      3.8841483e+08  1.5475726     -40522988      -40522988       1311.3981     -40521676      -3068.8782     -3056.2477     -3080.6682      1.5362625      5.1800564      1.0722632      16134.929    
     88000   439.63831      0.044          0.31063987     0.30910245     0.31152203    -3063.6215      729.97275      729.97275      729.97275      3.8897344e+08  1.5453501     -40498789      -40498789       1309.1678     -40497480      -3065.7772     -3050.604      -3074.4834     -0.86312954     4.4675174      0.11838565     16054.65     
     89000   438.81785      0.0445         0.31018071     0.30855176     0.31077645    -3057.8466      730.32235      730.32235      730.32235      3.8953257e+08  1.5431319     -40474614      -40474614       1306.7246     -40473308      -3061.2456     -3045.1691     -3067.1251     -1.349308       4.6069517     -0.074101205    16057.701    
     90000   437.61017      0.045          0.30962638     0.3079158      0.30998856    -3051.3389      730.67196      730.67196      730.67196      3.9009225e+08  1.5409179     -40450467      -40450467       1303.1284     -40449164      -3055.7748     -3038.8926     -3059.3492     -0.34271906     5.6713473     -0.058117782    15946.765    
     91000   436.40699      0.0455         0.30893567     0.30710538     0.30905709    -3043.3362      731.02156      731.02156      731.02156      3.9065246e+08  1.5387082     -40426351      -40426351       1299.5455     -40425051      -3048.958      -3030.8945     -3050.1563     -0.68076592     6.5754342     -0.9528147      15943.949    
     92000   435.55468      0.046          0.3080298      0.30617068     0.30808057    -3034.0688      731.37116      731.37116      731.37116      3.912132e+08   1.5365027     -40402275      -40402275       1297.0075     -40400978      -3040.0178     -3021.6697     -3040.5188     -2.0905339      6.0251167     -2.1602267      16030.415    
     93000   434.5479       0.0465         0.30709331     0.30519192     0.30722       -3024.937       731.72077      731.72077      731.72077      3.9177448e+08  1.5343014     -40378245      -40378245       1294.0094     -40376951      -3030.7753     -3012.01       -3032.0257     -2.3475529      4.9617965     -2.878273       16224.997    
     94000   433.35981      0.047          0.30621632     0.30403657     0.306331      -3015.3265      732.07037      732.07037      732.07037      3.923363e+08   1.5321043     -40354268      -40354268       1290.4715     -40352978      -3022.1201     -3000.6076     -3023.2519     -1.6326876      5.5937428     -3.3583519      16037.306    
     95000   432.62291      0.0475         0.30542052     0.30280451     0.30536558    -3005.4794      732.41998      732.41998      732.41998      3.9289866e+08  1.5299114     -40330352      -40330352       1288.2771     -40329063      -3014.2662     -2988.4482     -3013.724      -1.1660545      6.8365159     -3.4090326      15956.458    
     96000   432.08973      0.048          0.30462197     0.30170622     0.30447825    -2996.3202      732.76958      732.76958      732.76958      3.9346155e+08  1.5277227     -40306491      -40306491       1286.6894     -40305204      -3006.3851     -2977.6089     -3004.9667     -1.3709228      6.9417215     -3.7372805      15766.07     
     97000   430.93612      0.0485         0.30379315     0.30081039     0.30356043    -2987.6272      733.11918      733.11918      733.11918      3.9402498e+08  1.5255382     -40282673      -40282673       1283.2542     -40281389      -2998.2053     -2968.7677     -2995.9085     -2.1407353      6.4295062     -4.6357358      16022.444    
     98000   429.36242      0.049          0.30270713     0.29977028     0.3022902     -2976.454       733.46879      733.46879      733.46879      3.9458894e+08  1.5233578     -40258909      -40258909       1278.568      -40257630      -2987.4871     -2958.5027     -2983.3724     -3.5456517      5.7741802     -5.0159749      16162.006    
     99000   428.18299      0.0495         0.30139437     0.29842418     0.3007587     -2962.6688      733.81839      733.81839      733.81839      3.9515345e+08  1.5211816     -40235225      -40235225       1275.0558     -40233950      -2974.5312     -2945.2177     -2968.2576     -4.7879029      5.6966945     -5.1091214      15991.752    
    100000   427.03629      0.05           0.30004554     0.29690377     0.29926788    -2948.3253      734.168        734.168        734.168        3.9571849e+08  1.5190095     -40211630      -40211630       1271.6411     -40210358      -2961.2193     -2930.2124     -2953.5443     -4.9359165      6.1942216     -5.8017994      14640.505    
    101000   425.59702      0.0505         0.29879232     0.29537863     0.29782199    -2934.4286      734.5176       734.5176       734.5176       3.9628407e+08  1.5168415     -40188115      -40188115       1267.3552     -40186848      -2948.8509     -2915.1604     -2939.2745     -4.4248656      7.1355475     -6.5678504      15974.972    
    102000   424.18679      0.051          0.29766842     0.2939941      0.29635874    -2921.3628      734.8672       734.8672       734.8672       3.9685019e+08  1.5146777     -40164679      -40164679       1263.1558     -40163416      -2937.7589     -2901.4962     -2924.8333     -4.020726       7.3516409     -6.8233711      16046.278    
    103000   423.04198      0.0515         0.29649361     0.29274246     0.29499241    -2908.8855      735.21681      735.21681      735.21681      3.9741685e+08  1.512518      -40141328      -40141328       1259.7468     -40140068      -2926.1644     -2889.1435     -2911.3487     -4.1139008      6.5152376     -6.5179285      16170.397    
    104000   421.77649      0.052          0.29512895     0.29148047     0.29374227    -2896.1319      735.56641      735.56641      735.56641      3.9798405e+08  1.5103624     -40118066      -40118066       1255.9784     -40116810      -2912.6962     -2876.6886     -2899.0108     -4.6183128      6.3197279     -6.1689129      15939.785    
    105000   420.27004      0.0525         0.29358814     0.29004773     0.29249149    -2882.2349      735.91601      735.91601      735.91601      3.9855179e+08  1.5082109     -40094889      -40094889       1251.4924     -40093637      -2897.4896     -2862.5485     -2886.6665     -4.5384161      6.7244956     -6.0523778      15977.859    
    106000   418.83854      0.053          0.29196544     0.28839552     0.29101409    -2866.6011      736.26562      736.26562      736.26562      3.9912006e+08  1.5060635     -40071800      -40071800       1247.2297     -40070553      -2881.4748     -2846.2425     -2872.0858     -4.4091759      6.8774603     -6.6628309      16175.449    
    107000   417.85652      0.0535         0.29032149     0.28661328     0.28929522    -2849.6751      736.61522      736.61522      736.61522      3.9968888e+08  1.5039201     -40048814      -40048814       1244.3054     -40047570      -2865.2504     -2828.6531     -2855.1219     -5.0393856      7.004789      -7.347496       16062.446    
    108000   417.04736      0.054          0.28873488     0.28488422     0.28751453    -2832.9094      736.96483      736.96483      736.96483      4.0025824e+08  1.5017808     -40025944      -40025944       1241.8958     -40024702      -2849.5918     -2811.5886     -2837.5478     -5.7239243      6.801925      -7.5123442      16048.485    
    109000   415.61486      0.0545         0.28723208     0.28330044     0.28591629    -2817.4975      737.31443      737.31443      737.31443      4.0082814e+08  1.4996456     -40003183      -40003183       1237.6301     -40001946      -2834.7602     -2795.958      -2821.7744     -5.8802156      5.7993978     -7.7437221      16171.095    
    110000   413.80059      0.055          0.28578022     0.28173917     0.28427914    -2802.1993      737.66403      737.66403      737.66403      4.0139858e+08  1.4975144     -39980527      -39980527       1232.2275     -39979295      -2820.4315     -2780.5495     -2805.617      -6.3692469      4.5534388     -8.354305       15896.73     
    111000   412.27788      0.0555         0.28426598     0.28005333     0.28242576    -2785.5747      738.01364      738.01364      738.01364      4.0196955e+08  1.4953872     -39957979      -39957979       1227.6931     -39956751      -2805.4871     -2763.9114     -2787.3255     -6.7822083      4.3715858     -9.6217584      16049.438    
    112000   410.78498      0.056          0.28262608     0.27833038     0.28060982    -2768.5378      738.36324      738.36324      738.36324      4.0254108e+08  1.4932641     -39935535      -39935535       1223.2475     -39934312      -2789.3026     -2746.9073     -2769.4036     -6.4894226      5.2643725     -10.949045      15995.304    
    113000   409.14214      0.0565         0.28080672     0.27661567     0.27893355    -2751.3971      738.71284      738.71284      738.71284      4.0311314e+08  1.491145      -39913203      -39913203       1218.3554     -39911984      -2771.3469     -2729.9844     -2752.8601     -6.1314926      6.4920369     -10.323838      16053.313    
    114000   407.7603       0.057          0.27889173     0.27485379     0.2772963     -2733.915       739.06245      739.06245      739.06245      4.0368574e+08  1.4890299     -39890995      -39890995       1214.2406     -39889780      -2752.4474     -2712.596      -2736.7017     -6.1254491      7.9049911     -9.2622129      16182.559    
    115000   406.55949      0.0575         0.27707277     0.2730302      0.27554322    -2716.1648      739.41205      739.41205      739.41205      4.0425889e+08  1.4869188     -39868915      -39868915       1210.6647     -39867705      -2734.4956     -2694.5986     -2719.4001     -6.4758127      8.6196052     -9.939529       15909.155    
    116000   405.19089      0.058          0.27534729     0.2711039      0.27367419    -2698.0027      739.76166      739.76166      739.76166      4.0483258e+08  1.4848117     -39846955      -39846955       1206.5893     -39845748      -2717.4665     -2675.5875     -2700.9542     -7.2725993      8.1576408     -11.46561       15632.985    
    117000   403.8299       0.0585         0.27355992     0.26912549     0.27180988    -2679.4811      740.11126      740.11126      740.11126      4.0540681e+08  1.4827086     -39825119      -39825119       1202.5365     -39823917      -2699.8265     -2656.0621     -2682.5549     -7.5497419      7.0517307     -11.487377      16126.783    
    118000   402.66042      0.059          0.27163206     0.26725679     0.26996076    -2660.9083      740.46086      740.46086      740.46086      4.0598158e+08  1.4806094     -39803415      -39803415       1199.054      -39802216      -2680.8        -2637.6195     -2664.3055     -6.7418898      5.8991471     -10.974436      16019.598    
    119000   401.05324      0.0595         0.26968319     0.26558128     0.26811751    -2642.9212      740.81047      740.81047      740.81047      4.065569e+08   1.4785142     -39781835      -39781835       1194.2681     -39780641      -2661.5662     -2621.0834     -2646.1141     -5.9324704      4.9642001     -11.343034      15990.474    
    120000   399.08701      0.06           0.26769981     0.2638877      0.26617532    -2624.4356      741.16007      741.16007      741.16007      4.0713275e+08  1.476423      -39760383      -39760383       1188.413      -39759194      -2641.9917     -2604.3691     -2626.9461     -6.1879253      4.6172592     -12.102792      15839.165    
    121000   397.55455      0.0605         0.26568352     0.26196387     0.26421704    -2605.0314      741.50968      741.50968      741.50968      4.0770916e+08  1.4743356     -39739066      -39739066       1183.8496     -39737883      -2622.0925     -2585.3824     -2607.6194     -7.0778259      5.3833852     -12.322008      16032.998    
    122000   396.24849      0.061          0.26374295     0.25992711     0.26231764    -2585.6985      741.85928      741.85928      741.85928      4.082861e+08   1.4722523     -39717887      -39717887       1179.9604     -39716707      -2602.9405     -2565.2811     -2588.8738     -7.3620631      6.7703642     -11.73191       16143.273    
    123000   394.55188      0.0615         0.26195652     0.25800947     0.26045163    -2567.3744      742.20888      742.20888      742.20888      4.088636e+08   1.4701728     -39696836      -39696836       1174.9081     -39695661      -2585.3098     -2546.3555     -2570.4578     -6.3778686      7.3144544     -10.772657      15957.727    
    124000   392.5115       0.062          0.26016779     0.25615863     0.25845625    -2548.8368      742.55849      742.55849      742.55849      4.0944163e+08  1.4680973     -39675915      -39675915       1168.8322     -39674746      -2567.6564     -2528.0891     -2550.7648     -4.9523082      6.7362206     -9.5884186      15829.175    
    125000   390.68425      0.0625         0.25821728     0.25428231     0.2563065     -2529.1754      742.90809      742.90809      742.90809      4.1002021e+08  1.4660256     -39655126      -39655126       1163.391      -39653963      -2548.4065     -2509.5713     -2529.5485     -5.0045961      5.384212      -9.0510544      16137.676    
    126000   389.08001      0.063          0.25619237     0.25237585     0.25424737    -2509.4682      743.25769      743.25769      743.25769      4.1059933e+08  1.4639579     -39634476      -39634476       1158.6138     -39633318      -2528.4221     -2490.756      -2509.2264     -5.7190099      4.3313403     -10.099603      16048.795    
    127000   387.82968      0.0635         0.25413687     0.25039001     0.25234756    -2489.9233      743.6073       743.6073       743.6073       4.11179e+08    1.4618941     -39613971      -39613971       1154.8906     -39612816      -2508.1359     -2471.1572     -2490.4768     -5.4771014      4.7101707     -11.680215      16124.887    
    128000   386.90702      0.064          0.25213664     0.24840962     0.25047714    -2470.6749      743.9569       743.9569       743.9569       4.1175922e+08  1.4598341     -39593612      -39593612       1152.143      -39592460      -2488.3951     -2451.6123     -2472.0172     -4.4777607      5.864623      -12.445165      15710.016    
    129000   385.76823      0.0645         0.2501362      0.24651101     0.24869151    -2451.9737      744.30651      744.30651      744.30651      4.1233998e+08  1.457778      -39573388      -39573388       1148.7519     -39572240      -2468.6524     -2432.8745     -2454.3943     -3.3860648      6.2576995     -12.305912      15957.884    
    130000   384.2124       0.065          0.24808844     0.24460156     0.24693427    -2433.1747      744.65611      744.65611      744.65611      4.1292129e+08  1.4557257     -39553293      -39553293       1144.1189     -39552149      -2448.4426     -2414.0298     -2437.0517     -3.0395977      6.009694      -11.408351      16166.901    
    131000   382.65164      0.0655         0.24609429     0.2427287      0.24513804    -2414.5441      745.00571      745.00571      745.00571      4.1350314e+08  1.4536773     -39533324      -39533324       1139.4712     -39532184      -2428.7618     -2395.5461     -2419.3244     -2.6875771      4.7884688     -10.049559      15981.209    
    132000   381.10978      0.066          0.24422186     0.24094491     0.24314186    -2395.9491      745.35532      745.35532      745.35532      4.1408554e+08  1.4516328     -39513488      -39513488       1134.8798     -39512353      -2410.2823     -2377.9414     -2399.6236     -1.5698687      3.3742076     -8.8084249      16010.559    
    133000   379.61066      0.0665         0.24237025     0.23911599     0.24091117    -2376.5027      745.70492      745.70492      745.70492      4.1466848e+08  1.4495921     -39493796      -39493796       1130.4157     -39492665      -2392.0084     -2359.8914     -2377.6084     -0.84369895     3.2181963     -8.6985008      15925.882    
    134000   378.09934      0.067          0.24044739     0.23726651     0.23869349    -2356.7971      746.05452      746.05452      746.05452      4.1525197e+08  1.4475552     -39474251      -39474251       1125.9153     -39473126      -2373.0312     -2341.6384     -2355.7216     -0.593495       4.7621283     -9.7913012      15938.28     
    135000   376.31924      0.0675         0.23839558     0.2354469      0.23676111    -2337.7041      746.40413      746.40413      746.40413      4.1583601e+08  1.4455221     -39454843      -39454843       1120.6144     -39453722      -2352.7814     -2323.6802     -2336.6505     -0.28377811     5.9510531     -10.578374      16176.086    
    136000   374.35557      0.068          0.23628942     0.23365818     0.23514106    -2319.5613      746.75373      746.75373      746.75373      4.164206e+08   1.4434928     -39435556      -39435556       1114.767      -39434442      -2331.9953     -2306.0269     -2320.6618      0.40153218     5.5954036     -9.9851736      15939.295    
    137000   372.72501      0.0685         0.23435199     0.23187539     0.23361841    -2302.3136      747.10334      747.10334      747.10334      4.1700573e+08  1.4414673     -39416401      -39416401       1109.9114     -39415291      -2312.8743     -2288.4321     -2305.6344      0.61344901     4.2667973     -9.2984801      15868.279    
    138000   371.44934      0.069          0.23261455     0.23015011     0.23201657    -2285.6525      747.45294      747.45294      747.45294      4.1759142e+08  1.4394456     -39397377      -39397377       1106.1127     -39396271      -2295.7272     -2271.405      -2289.8255      0.65548515     3.2339532     -9.8946011      16035.066    
    139000   370.33178      0.0695         0.23091492     0.22843507     0.23031403    -2268.8182      747.80254      747.80254      747.80254      4.1817765e+08  1.4374277     -39378472      -39378472       1102.7848     -39377369      -2278.9531     -2254.4789     -2273.0227      1.4323482      3.5640853     -10.337901      16050.551    
    140000   369.28213      0.07           0.22909461     0.22675168     0.22855882    -2251.5178      748.15215      748.15215      748.15215      4.1876443e+08  1.4354136     -39359683      -39359683       1099.6591     -39358584      -2260.988      -2237.8651     -2255.7001      1.927942       4.1435272     -9.8590537      16154.514    
    141000   367.9474       0.0705         0.22720766     0.22518678     0.22677132    -2234.2816      748.50175      748.50175      748.50175      4.1935175e+08  1.4334032     -39341013      -39341013       1095.6845     -39339918      -2242.3652     -2222.4207     -2238.0589      2.3592624      4.0066914     -9.7937071      16096.367    
    142000   366.46805      0.071          0.22542735     0.22366394     0.22492149    -2217.3296      748.85136      748.85136      748.85136      4.1993963e+08  1.4313966     -39322464      -39322464       1091.2793     -39321373      -2224.7949     -2207.3914     -2219.8025      3.449299       3.5276833     -10.03153       15973.899    
    143000   365.02016      0.0715         0.2237952      0.22204693     0.22318511    -2200.9285      749.20096      749.20096      749.20096      4.2052805e+08  1.4293937     -39304042      -39304042       1086.9677     -39302955      -2208.6869     -2191.4328     -2202.6658      5.4868896      3.0583249     -9.6709204      16054.416    
    144000   363.56878      0.072          0.22216802     0.22032524     0.221615      -2184.7463      749.55056      749.55056      749.55056      4.2111703e+08  1.4273945     -39285747      -39285747       1082.6457     -39284664      -2192.6279     -2174.4411     -2187.17        7.076419       2.7511464     -9.5014678      15983.813    
    145000   362.24881      0.0725         0.22047214     0.21859598     0.22008913    -2168.4588      749.90017      749.90017      749.90017      4.2170655e+08  1.4253991     -39267563      -39267563       1078.7151     -39266484      -2175.8909     -2157.3746     -2172.1108      6.9375447      2.2436221     -9.760478       16088.694    
    146000   361.29995      0.073          0.21880287     0.21709961     0.21859603    -2153.1327      750.24977      750.24977      750.24977      4.2229663e+08  1.4234074     -39249485      -39249485       1075.8896     -39248410      -2159.4165     -2142.6065     -2157.3751      5.5653484      2.1035092     -9.8711128      16179.693    
    147000   360.33574      0.0735         0.21724486     0.21585708     0.21716626    -2139.2161      750.59937      750.59937      750.59937      4.2288725e+08  1.4214194     -39231513      -39231513       1073.0183     -39230440      -2144.0401     -2130.3437     -2143.2644      4.1323873      2.6615855     -9.509132       16020.287    
    148000   358.84917      0.074          0.21578867     0.2145605      0.21583005    -2125.7644      750.94898      750.94898      750.94898      4.2347843e+08  1.4194351     -39213633      -39213633       1068.5916     -39212565      -2129.6686     -2117.5475     -2130.077       4.4591564      3.0664277     -8.5809475      16075.354    
    149000   357.44888      0.0745         0.21430086     0.21302256     0.21443       -2111.2046      751.29858      751.29858      751.29858      4.2407015e+08  1.4174545     -39195849      -39195849       1064.4217     -39194785      -2114.9851     -2102.3692     -2116.2595      6.0304697      2.5322673     -7.7359354      15938.809    
    150000   356.51895      0.075          0.21276506     0.21137109     0.21295237    -2095.8583      751.64819      751.64819      751.64819      4.2466243e+08  1.4154776     -39178177      -39178177       1061.6526     -39177116      -2099.8278     -2086.0705     -2101.6765      7.0623294      1.9236074     -7.9628425      15609.601    
    151000   355.35289      0.0755         0.2113407      0.20996064     0.2114874     -2081.7131      751.99779      751.99779      751.99779      4.2525526e+08  1.4135043     -39160613      -39160613       1058.1802     -39159555      -2085.7705     -2072.1504     -2087.2183      7.2983957      2.4149472     -8.9797939      16182.17     
    152000   353.88746      0.076          0.21002494     0.2087957      0.21009497    -2068.9715      752.34739      752.34739      752.34739      4.2584864e+08  1.4115347     -39143144      -39143144       1053.8164     -39142090      -2072.785      -2060.6533     -2073.4762      7.7787398      3.3190972     -9.2293045      16034.765    
    153000   352.63154      0.0765         0.20865367     0.20761579     0.20879385    -2056.2984      752.697        752.697        752.697        4.2644257e+08  1.4095688     -39125767      -39125767       1050.0765     -39124717      -2059.2517     -2049.0086     -2060.635       8.2759841      3.4965403     -7.9415688      15960.009    
    154000   351.71895      0.077          0.20729651     0.20640384     0.2074992     -2043.5876      753.0466       753.0466       753.0466       4.2703705e+08  1.4076065     -39108474      -39108474       1047.359      -39107427      -2045.8574     -2037.0476     -2047.8579      8.4175196      3.0424955     -6.8988149      16019.256    
    155000   350.91397      0.0775         0.20612848     0.20525536     0.20630687    -2032.0444      753.3962       753.3962       753.3962       4.2763209e+08  1.4056479     -39091257      -39091257       1044.9619     -39090212      -2034.3299     -2025.7129     -2036.0905      8.0977154      2.0980617     -7.2254439      15934.868    
    156000   350.08516      0.078          0.20506422     0.20411207     0.20520895    -2021.1703      753.74581      753.74581      753.74581      4.2822767e+08  1.4036929     -39074113      -39074113       1042.4938     -39073070      -2023.8265     -2014.4295     -2025.2549      7.5732396      1.5456985     -8.1409255      16143.276    
    157000   349.32787      0.0785         0.20391229     0.20291031     0.20413919    -2009.908       754.09541      754.09541      754.09541      4.2882382e+08  1.4017415     -39057054      -39057054       1040.2387     -39056013      -2012.4578     -2002.5691     -2014.6971      7.3639595      2.1195929     -8.7040677      16072.393    
    158000   348.343        0.079          0.20272098     0.20174106     0.20301605    -1998.4475      754.44502      754.44502      754.44502      4.2942051e+08  1.3997938     -39040083      -39040083       1037.306      -39039046      -2000.7006     -1991.0294     -2003.6126      7.5180261      3.0347794     -9.0772918      16061.074    
    159000   347.03183      0.0795         0.20152241     0.2005987      0.20178642    -1986.7013      754.79462      754.79462      754.79462      4.3001776e+08  1.3978496     -39023188      -39023188       1033.4015     -39022154      -1988.8715     -1979.7552     -1991.4771      7.7399196      3.2438636     -7.9198747      16105.328    
    160000   345.85808      0.08           0.20038587     0.19950078     0.20065932    -1975.6426      755.14422      755.14422      755.14422      4.3061556e+08  1.395909      -39006361      -39006361       1029.9063     -39005331      -1977.6548     -1968.9196     -1980.3535      8.1286417      2.7218844     -5.8750993      15927.16     
    161000   344.99157      0.0805         0.19931209     0.19847869     0.19962121    -1965.3327      755.49383      755.49383      755.49383      4.3121391e+08  1.3939721     -38989602      -38989602       1027.326      -38988575      -1967.0574     -1958.8324     -1970.1082      8.2559363      1.9176293     -5.0066128      16015.775    
    162000   344.22099      0.081          0.19824794     0.19747808     0.19857779    -1955.1075      755.84343      755.84343      755.84343      4.3181282e+08  1.3920387     -38972919      -38972919       1025.0313     -38971894      -1956.555      -1948.9571     -1959.8105      7.8087649      1.4673132     -5.6530334      16166.809    
    163000   343.1168       0.0815         0.19720157     0.19641762     0.1975194     -1944.6948      756.19304      756.19304      756.19304      4.3241228e+08  1.3901089     -38956311      -38956311       1021.7432     -38955290      -1946.2282     -1938.4912     -1949.3649      7.2774643      1.4901034     -6.6002608      16056.812    
    164000   341.87836      0.082          0.19630825     0.19539415     0.19652199    -1935.1078      756.54264      756.54264      756.54264      4.330123e+08   1.3881826     -38939773      -38939773       1018.0554     -38938755      -1937.4118     -1928.3903     -1939.5212      7.3789834      1.7012339     -6.6536181      16183.74     
    165000   340.90451      0.0825         0.19548506     0.19446696     0.19559195    -1926.2899      756.89224      756.89224      756.89224      4.3361287e+08  1.3862599     -38923294      -38923294       1015.1554     -38922279      -1929.2875     -1919.2396     -1930.3425      7.9170453      1.7931982     -5.5570733      16027.12     
    166000   340.45054      0.083          0.19450785     0.19364392     0.19466097    -1917.3048      757.24185      757.24185      757.24185      4.34214e+08    1.3843408     -38906872      -38906872       1013.8036     -38905858      -1919.6432     -1911.1169     -1921.1544      8.1553741      1.3487327     -4.6968427      15931.38     
    167000   340.28459      0.0835         0.19342128     0.19280875     0.19376455    -1908.0338      757.59145      757.59145      757.59145      4.3481568e+08  1.3824252     -38890507      -38890507       1013.3094     -38889494      -1908.9196     -1902.8744     -1912.3074      7.8139114      0.11580391    -4.7323567      16031.383    
    168000   339.54709      0.084          0.1926172      0.19188656     0.19294228    -1899.6498      757.94105      757.94105      757.94105      4.3541792e+08  1.3805131     -38874195      -38874195       1011.1133     -38873184      -1900.984      -1893.7731     -1904.1923      7.3314444     -0.71988064    -4.6944442      15710.096    
    169000   338.40374      0.0845         0.19202417     0.1908822      0.19209603    -1891.6108      758.29066      758.29066      758.29066      4.3602071e+08  1.3786046     -38857934      -38857934       1007.7085     -38856927      -1895.1312     -1883.8609     -1895.8404      7.5100272      0.29686549    -4.2311124      15984.869    
    170000   337.31186      0.085          0.19128089     0.19002871     0.19127103    -1883.6438      758.64026      758.64026      758.64026      4.3662406e+08  1.3766995     -38841735      -38841735       1004.4571     -38840731      -1887.7956     -1875.4376     -1887.6983      8.3118553      2.2977762     -3.8483552      16183.07     
    171000   336.38047      0.0855         0.19038323     0.18939655     0.19042255    -1875.8198      758.98987      758.98987      758.98987      4.3722796e+08  1.374798      -38825589      -38825589       1001.6836     -38824588      -1878.9364     -1869.1986     -1879.3245      8.7315027      3.1348195     -3.5473243      15977.278    
    172000   335.71349      0.086          0.1894817      0.1887376      0.18958754    -1867.9393      759.33947      759.33947      759.33947      4.3783243e+08  1.3729        -38809489      -38809489       999.69744     -38808489      -1870.039      -1862.6953     -1871.0836      8.0665633      2.1813324     -3.2963753      16111.128    
    173000   335.67824      0.0865         0.1885851      0.18785179     0.18884161    -1859.6217      759.68907      759.68907      759.68907      4.3843745e+08  1.3710055     -38793437      -38793437       999.59248     -38792438      -1861.1903     -1853.953      -1863.7218      7.1262754      0.47525526    -3.0585557      15777.887    
    174000   335.77829      0.087          0.18780276     0.1870089      0.18822375    -1852.2425      760.03868      760.03868      760.03868      4.3904302e+08  1.3691144     -38777438      -38777438       999.8904      -38776438      -1853.4692     -1845.6343     -1857.624       6.2029474     -0.026937223   -3.0026379      15952.135    
    175000   335.24398      0.0875         0.18721959     0.18633108     0.18762276    -1846.117       760.38828      760.38828      760.38828      4.3964916e+08  1.3672269     -38761485      -38761485       998.29932     -38760487      -1847.7137     -1838.9447     -1851.6927      5.6758302      0.80281823    -3.076037       16203.84     
    176000   334.27995      0.088          0.18657946     0.18563648     0.1869667     -1839.5679      760.73788      760.73788      760.73788      4.4025585e+08  1.3653428     -38745576      -38745576       995.42861     -38744581      -1841.3961     -1832.0896     -1845.2179      5.8524409      0.74429442    -3.3206985      16037.864    
    177000   333.55534      0.0885         0.18573473     0.18487509     0.18620975    -1831.794       761.08749      761.08749      761.08749      4.408631e+08   1.3634621     -38729711      -38729711       993.27085     -38728717      -1833.0593     -1824.5753     -1837.7473      6.1684485     -0.37387253    -3.1673351      15987.175    
    178000   333.32974      0.089          0.1849124      0.18407723     0.18536275    -1823.6775      761.43709      761.43709      761.43709      4.4147091e+08  1.361585      -38713893      -38713893       992.59904     -38712901      -1824.9435     -1816.701      -1829.3881      6.491523      -0.74578986    -2.2411492      16005.86     
    179000   333.13388      0.0895         0.18437563     0.18350217     0.18457606    -1817.4319      761.7867       761.7867       761.7867       4.4207927e+08  1.3597112     -38698117      -38698117       992.01581     -38697125      -1819.646      -1811.0256     -1821.6241      7.0476305     -0.176077      -1.2045189      16056.763    
    180000   332.48184      0.09           0.18399932     0.18303091     0.18391455    -1812.4674      762.1363       762.1363       762.1363       4.426882e+08   1.3578409     -38682374      -38682374       990.07414     -38681384      -1815.9321     -1806.3746     -1815.0954      7.3684867      0.19404357    -0.5464677      16215.385    
    181000   331.9312       0.0905         0.18341917     0.18232595     0.18329096    -1806.1883      762.4859       762.4859       762.4859       4.4329768e+08  1.355974      -38666670      -38666670       988.43445     -38665682      -1810.2064     -1799.4172     -1808.9411      6.9361117      0.15163054    -0.38258101     16019.008    
    182000   331.74298      0.091          0.18261476     0.18147637     0.18279397    -1799.1121      762.83551      762.83551      762.83551      4.4390772e+08  1.3541106     -38651013      -38651013       987.87395     -38650025      -1802.2675     -1791.0325     -1804.0362      6.1542869      0.38166515    -0.58588081     15963.113    
    183000   331.62         0.0915         0.1818297      0.1807467      0.18239875    -1792.8289      763.18511      763.18511      763.18511      4.4451832e+08  1.3522505     -38635398      -38635398       987.50773     -38634411      -1794.5196     -1783.8313     -1800.1357      5.4044252      0.48871002    -0.86982764     16071.822    
    184000   331.27676      0.092          0.18118664     0.18023681     0.18180753    -1787.091       763.53472      763.53472      763.53472      4.4512949e+08  1.3503939     -38619815      -38619815       986.48562     -38618829      -1788.1731     -1778.799      -1794.3008      5.2726187      0.65647292    -1.1716356      16008.937    
    185000   330.68283      0.0925         0.18066505     0.17990428     0.18102167    -1781.6959      763.88432      763.88432      763.88432      4.4574121e+08  1.3485407     -38604258      -38604258       984.717       -38603273      -1783.0254     -1775.5172     -1786.545       5.4032278      1.1418819     -2.1412839      16012.479    
    186000   330.08511      0.093          0.18022801     0.17949293     0.18023705    -1776.3237      764.23392      764.23392      764.23392      4.4635349e+08  1.3466908     -38588732      -38588732       982.93709     -38587750      -1778.7122     -1771.4575     -1778.8013      5.7554934      0.8177023     -2.3744475      16055.609    
    187000   329.95875      0.0935         0.17973875     0.17886409     0.17953179    -1770.3253      764.58353      764.58353      764.58353      4.4696633e+08  1.3448443     -38573251      -38573251       982.56082     -38572268      -1773.8836     -1765.2513     -1771.841       6.0109282     -0.26557866    -1.7011751      15989.516    
    188000   329.98103      0.094          0.17908161     0.17815583     0.17896204    -1763.9591      764.93313      764.93313      764.93313      4.4757973e+08  1.3430013     -38557810      -38557810       982.62716     -38556827      -1767.3981     -1758.2614     -1766.218       5.8753932     -0.77698421    -0.85794845     16069.414    
    189000   329.49837      0.0945         0.17836242     0.17744601     0.17844568    -1757.5594      765.28273      765.28273      765.28273      4.481937e+08   1.3411615     -38542402      -38542402       981.18989     -38541421      -1760.3003     -1751.256      -1761.1219      5.5280919     -0.71817163     0.26495047     16040.009    
    190000   328.79292      0.095          0.17776101     0.17677115     0.17784675    -1751.3904      765.63234      765.63234      765.63234      4.4880822e+08  1.3393252     -38527031      -38527031       979.08916     -38526052      -1754.3648     -1744.5956     -1755.211       5.4513945     -0.69734354     1.0824373      16050.352    
    191000   328.38667      0.0955         0.17728785     0.17624103     0.17729605    -1746.2783      765.98194      765.98194      765.98194      4.4942331e+08  1.3374921     -38511699      -38511699       977.87942     -38510721      -1749.6951     -1739.3637     -1749.7759      6.0249137     -0.85660607     0.8399356      16096.024    
    192000   328.29608      0.096          0.17678817     0.17580666     0.1770116     -1742.2697      766.33155      766.33155      766.33155      4.5003896e+08  1.3356625     -38496396      -38496396       977.60966     -38495418      -1744.7636     -1735.0768     -1746.9687      6.4072721     -0.64144766     0.40007274     15929.876    
    193000   328.21442      0.0965         0.17630537     0.17536691     0.176715      -1738.259       766.68115      766.68115      766.68115      4.5065517e+08  1.3338361     -38481110      -38481110       977.3665      -38480133      -1739.9987     -1730.7369     -1744.0415      6.2774215      0.044985455    0.60353793     16090.96     
    194000   328.21823      0.097          0.17578383     0.17483935     0.17607561    -1732.7043      767.03075      767.03075      767.03075      4.5127194e+08  1.3320131     -38465847      -38465847       977.37784     -38464870      -1734.8515     -1725.5303     -1737.7312      6.4704173      0.33882895     0.66090629     16102.304    
    195000   328.36841      0.0975         0.17520063     0.17424451     0.17534631    -1726.4296      767.38036      767.38036      767.38036      4.5188928e+08  1.3301934     -38450620      -38450620       977.82507     -38449643      -1729.0957     -1719.6596     -1730.5336      6.3526374      0.041795767   -0.28008593     16081.438    
    196000   328.3515       0.098          0.17462284     0.17368634     0.17474096    -1720.7012      767.72996      767.72996      767.72996      4.5250717e+08  1.3283771     -38435436      -38435436       977.7747      -38434458      -1723.3935     -1714.1509     -1724.5592      5.6677194     -0.47139462    -0.93058197     16226.148    
    197000   328.1123       0.0985         0.1740779      0.17320465     0.17423946    -1715.674       768.07956      768.07956      768.07956      4.5312563e+08  1.326564      -38420288      -38420288       977.06239     -38419310      -1718.0153     -1709.397      -1719.6098      5.3345862     -0.79659752    -0.52842065     15942.32     
    198000   327.66282      0.099          0.17359706     0.17271929     0.17380518    -1711.0668      768.42917      768.42917      768.42917      4.5374466e+08  1.3247542     -38405170      -38405170       975.72392     -38404195      -1713.2698     -1704.6069     -1715.3237      5.6441161     -0.9974847      0.45692164     15790.913    
    199000   327.08937      0.0995         0.17315825     0.1721499      0.17329094    -1706.0583      768.77877      768.77877      768.77877      4.5436425e+08  1.3229477     -38390079      -38390079       974.01628     -38389105      -1708.939      -1698.9874     -1710.2486      5.9222494     -1.3333292      1.1243342      16199.919    
    200000   326.83976      0.1            0.17271653     0.17153936     0.17257274    -1700.234       769.12838      769.12838      769.12838      4.549844e+08   1.3211445     -38375019      -38375019       973.273       -38374046      -1704.5796     -1692.9618     -1703.1605      5.7781745     -1.1587687      1.0240177      14754.611    
    201000   326.85668      0.1005         0.17221981     0.17099958     0.17195893    -1694.8049      769.47798      769.47798      769.47798      4.5560511e+08  1.3193446     -38359990      -38359990       973.32338     -38359017      -1699.6774     -1687.6346     -1697.1027      5.6157065      0.17014345     0.53024892     15905.146    
    202000   326.65914      0.101          0.17162855     0.17064448     0.17161361    -1690.5556      769.82758      769.82758      769.82758      4.5622639e+08  1.3175479     -38344983      -38344983       972.73514     -38344011      -1693.8421     -1684.13       -1693.6947      5.8344262      1.3534008      0.33687442     15890.381    
    203000   326.57662      0.1015         0.17104485     0.17028774     0.17136676    -1686.6497      770.17719      770.17719      770.17719      4.5684824e+08  1.3157545     -38330002      -38330002       972.48941     -38329029      -1688.0814     -1680.6093     -1691.2585      5.9448779      1.2208021      0.44356319     16018.759    
    204000   326.93973      0.102          0.17061089     0.16986695     0.17096776    -1682.5252      770.52679      770.52679      770.52679      4.5747065e+08  1.3139644     -38315058      -38315058       973.57069     -38314084      -1683.7985     -1676.4565     -1687.3206      6.0631749     -0.13804279     0.84141698     16190.629    
    205000   327.0011       0.1025         0.17035902     0.16937993     0.1704536     -1678.403       770.8764       770.8764       770.8764       4.5809362e+08  1.3121775     -38300140      -38300140       973.75343     -38299166      -1681.3128     -1671.65       -1682.2462      6.3215113     -1.975877       1.1425082      16073.288    
    206000   326.63303      0.103          0.17003952     0.16888377     0.16987077    -1673.8023      771.226        771.226        771.226        4.5871716e+08  1.3103939     -38285237      -38285237       972.65737     -38284265      -1678.1596     -1666.7533     -1676.4941      6.2502489     -2.6984158      1.2035298      16032.508    
    207000   326.45378      0.1035         0.16949459     0.16842589     0.16930962    -1668.6573      771.5756       771.5756       771.5756       4.5934126e+08  1.3086134     -38270357      -38270357       972.1236      -38269385      -1672.7815     -1662.2343     -1670.956       5.4933398     -1.5960969      1.0543359      16084.516    
    208000   326.23678      0.104          0.16884297     0.16799874     0.16884244    -1663.5715      771.92521      771.92521      771.92521      4.5996593e+08  1.3068362     -38255507      -38255507       971.47743     -38254536      -1666.3506     -1658.0187     -1666.3453      4.9527658      0.039475541    0.56411959     16024.312    
    209000   325.67217      0.1045         0.16823752     0.1675334      0.16838309    -1658.5377      772.27481      772.27481      772.27481      4.6059117e+08  1.3050622     -38240691      -38240691       969.79612     -38239721      -1660.3752     -1653.4261     -1661.8119      5.6913893      0.53462504    -0.01761797     16116.33     
    210000   325.41132      0.105          0.16773432     0.16701065     0.1679265     -1653.6605      772.62441      772.62441      772.62441      4.6121697e+08  1.3032915     -38225906      -38225906       969.01935     -38224937      -1655.409      -1648.267      -1657.3057      6.7417058     -0.3613891      0.3831149      15959.935    
    211000   325.55087      0.1055         0.16729149     0.1665346      0.16746397    -1649.1161      772.97402      772.97402      772.97402      4.6184334e+08  1.3015239     -38211148      -38211148       969.43489     -38210179      -1651.0387     -1643.5687     -1652.7408      6.7386361     -1.3873716      1.4442978      16042.584    
    212000   325.7234       0.106          0.16690209     0.16609507     0.1669878     -1644.8226      773.32362      773.32362      773.32362      4.6247028e+08  1.2997595     -38196415      -38196415       969.94867     -38195445      -1647.1956     -1639.2309     -1648.0414      6.0801195     -1.2707285      2.1611282      16181.436    
    213000   325.60938      0.1065         0.16659771     0.16567832     0.16659911    -1641.1716      773.67323      773.67323      773.67323      4.6309778e+08  1.2979983     -38181711      -38181711       969.60913     -38180742      -1644.1915     -1635.1179     -1644.2054      6.2229497     -0.63758782     2.5926353      15975.633    
    214000   325.43225      0.107          0.16620726     0.16522568     0.16622493    -1637.1671      774.02283      774.02283      774.02283      4.6372585e+08  1.2962403     -38167027      -38167027       969.08167     -38166058      -1640.3381     -1630.6507     -1640.5125      6.902081      -0.65164169     2.3176693      15980.705    
    215000   325.60128      0.1075         0.1657096      0.16468912     0.16574453    -1632.1844      774.37243      774.37243      774.37243      4.6435449e+08  1.2944855     -38152368      -38152368       969.58501     -38151398      -1635.4266     -1625.3552     -1635.7713      6.9623241     -0.96331007     1.4160429      16073.897    
    216000   326.1232       0.108          0.16524594     0.16414555     0.16524692    -1627.2339      774.72204      774.72204      774.72204      4.649837e+08   1.2927338     -38137739      -38137739       971.13921     -38136768      -1630.8507     -1619.9907     -1630.8603      6.4179682     -0.62449385     1.0110459      16048.791    
    217000   326.10897      0.1085         0.16488319     0.16376184     0.16487368    -1623.5503      775.07164      775.07164      775.07164      4.6561347e+08  1.2909853     -38123138      -38123138       971.09683     -38122167      -1627.2706     -1616.2037     -1627.1767      5.8172901     -0.38163866     1.5964741      16202.776    
[...]
   3256000   322.37816      1.628          0.012346138    0.012174446    0.012187471   -120.76011      1837.5176      1837.5176      1837.5176      6.2043249e+09  0.096884054   -11172553      -11172553       959.98712     -11171593      -121.8469      -120.15244     -120.28099      0.7949599      0.1236716      0.30182405     15655.504    
   3257000   322.33931      1.6285         0.012335356    0.012166056    0.012182802   -120.68168      1837.8672      1837.8672      1837.8672      6.2078668e+09  0.096828776   -11166459      -11166459       959.87141     -11165499      -121.7405      -120.06964     -120.23491      0.78979307     0.11757822     0.3077282      15719.981    
   3258000   322.26452      1.629          0.012322318    0.012156977    0.012177546   -120.59163      1838.2168      1838.2168      1838.2168      6.2114101e+09  0.09677354    -11160367      -11160367       959.6487      -11159408      -121.61182     -119.98003     -120.18303      0.77184598     0.092086612    0.31793202     15549.804    
   3259000   322.20017      1.6295         0.012310372    0.012147343    0.012168241   -120.49002      1838.5664      1838.5664      1838.5664      6.2149548e+09  0.096718346   -11154278      -11154278       959.4571      -11153318      -121.49392     -119.88495     -120.0912       0.7565994      0.059282083    0.32265985     15612.589    
   3260000   322.16899      1.63           0.01230221     0.012138804    0.012156509   -120.39649      1838.916       1838.916       1838.916       6.2185008e+09  0.096663194   -11148191      -11148191       959.36423     -11147232      -121.41337     -119.80068     -119.97541      0.75605837     0.038671992    0.32659098     15754.078    
   3261000   322.15673      1.6305         0.01229759     0.012133796    0.012146817   -120.33293      1839.2656      1839.2656      1839.2656      6.2220481e+09  0.096608083   -11142106      -11142106       959.32773     -11141147      -121.36778     -119.75126     -119.87976      0.76598219     0.042559414    0.33641771     15610.843    
   3262000   322.15408      1.631          0.012292392    0.012128384    0.012140912   -120.2786       1839.6152      1839.6152      1839.6152      6.2255968e+09  0.096553015   -11136022      -11136022       959.31985     -11135062      -121.31647     -119.69784     -119.82148      0.77346202     0.062176119    0.35386702     15613.004    
   3263000   322.15935      1.6315         0.012283849    0.012118707    0.012135652   -120.20136      1839.9648      1839.9648      1839.9648      6.2291469e+09  0.096497989   -11129938      -11129938       959.33554     -11128978      -121.23217     -119.60234     -119.76958      0.76602113     0.07851426     0.37563243     15875.648    
   3264000   322.15971      1.632          0.012272761    0.012108113    0.012127962   -120.10473      1840.3144      1840.3144      1840.3144      6.2326983e+09  0.096443004   -11123856      -11123856       959.33661     -11122897      -121.12274     -119.49778     -119.69368      0.74844878     0.076089383    0.39245846     15717.184    
   3265000   322.13855      1.6325         0.012261986    0.012100114    0.012118021   -120.01027      1840.664       1840.664       1840.664       6.236251e+09   0.096388061   -11117777      -11117777       959.27359     -11116818      -121.01639     -119.41884     -119.59557      0.73728019     0.061102692    0.39514986     15738.179    
   3266000   322.09972      1.633          0.012254079    0.012092383    0.012107987   -119.92581      1841.0136      1841.0136      1841.0136      6.2398051e+09  0.09633316    -11111701      -11111701       959.15797     -11110742      -120.93836     -119.34254     -119.49654      0.73807775     0.053343271    0.38970133     15859.035    
   3267000   322.07775      1.6335         0.012247865    0.012081412    0.012099135   -119.84016      1841.3633      1841.3633      1841.3633      6.2433606e+09  0.096278301   -11105626      -11105626       959.09254     -11104667      -120.87703     -119.23426     -119.40918      0.74942508     0.058286761    0.37745755     15668.965    
   3268000   322.09671      1.634          0.012240991    0.012069073    0.012091828   -119.75292      1841.7129      1841.7129      1841.7129      6.2469173e+09  0.096223483   -11099553      -11099553       959.149       -11098594      -120.80919     -119.11249     -119.33706      0.76899575     0.068104715    0.35956355     15822.066    
   3269000   322.13938      1.6345         0.012235681    0.012059393    0.012085711   -119.68348      1842.0625      1842.0625      1842.0625      6.2504755e+09  0.096168707   -11093483      -11093483       959.27607     -11092524      -120.75679     -119.01696     -119.27669      0.78662041     0.071659328    0.34297687     15575.949    
   3270000   322.18722      1.635          0.012231032    0.012054115    0.012079839   -119.6315       1842.4121      1842.4121      1842.4121      6.254035e+09   0.096113972   -11087413      -11087413       959.41851     -11086454      -120.7109      -118.96486     -119.21875      0.79230097     0.068975307    0.34055551     15565.146    
   3271000   322.2366       1.6355         0.012223732    0.012052051    0.012072728   -119.5773       1842.7617      1842.7617      1842.7617      6.2575958e+09  0.096059279   -11081344      -11081344       959.56557     -11080384      -120.63885     -118.94449     -119.14856      0.77748633     0.068064746    0.34530658     15659.016    
   3272000   322.28752      1.636          0.012214055    0.012049578    0.012064351   -119.50978      1843.1113      1843.1113      1843.1113      6.261158e+09   0.096004627   -11075275      -11075275       959.71721     -11074315      -120.54336     -118.92009     -119.06589      0.74901287     0.06953316     0.34398143     15618.96     
   3273000   322.34173      1.6365         0.012204313    0.012043578    0.012056821   -119.43322      1843.4609      1843.4609      1843.4609      6.2647216e+09  0.095950017   -11069208      -11069208       959.87862     -11068248      -120.4472      -118.86087     -118.99157      0.73212141     0.077089439    0.3364206      15581.399    
   3274000   322.39631      1.637          0.012194733    0.012033652    0.012050764   -119.34912      1843.8105      1843.8105      1843.8105      6.2682865e+09  0.095895449   -11063143      -11063143       960.04116     -11062183      -120.35266     -118.76291     -118.9318       0.73042737     0.082979326    0.33104726     15745.056    
   3275000   322.44336      1.6375         0.01218547     0.012022066    0.012042859   -119.25452      1844.1601      1844.1601      1844.1601      6.2718527e+09  0.095840921   -11057081      -11057081       960.18127     -11056121      -120.26123     -118.64856     -118.85378      0.74064081     0.079917502    0.32990276     15551.041    
   3276000   322.46074      1.638          0.01217736     0.012011092    0.012032013   -119.15606      1844.5097      1844.5097      1844.5097      6.2754203e+09  0.095786435   -11051021      -11051021       960.23303     -11050061      -120.1812      -118.54026     -118.74673      0.76014414     0.067827329    0.33139807     15604.157    
   3277000   322.4338       1.6385         0.012169117    0.012002068    0.012020693   -119.06203      1844.8593      1844.8593      1844.8593      6.2789893e+09  0.09573199    -11044964      -11044964       960.15279     -11044004      -120.09985     -118.45121     -118.63502      0.77592379     0.052468356    0.34162209     15617.142    
   3278000   322.37192      1.639          0.012160422    0.011994277    0.012010884   -118.97552      1845.2089      1845.2089      1845.2089      6.2825596e+09  0.095677587   -11038909      -11038909       959.96853     -11037949      -120.01404     -118.37431     -118.5382       0.77256158     0.038576802    0.35873669     15581.28     
   3279000   322.30205      1.6395         0.012153323    0.011986299    0.012001961   -118.89656      1845.5585      1845.5585      1845.5585      6.2861313e+09  0.095623225   -11032856      -11032856       959.76046     -11031896      -119.94398     -118.29558     -118.45014      0.75151897     0.035116443    0.37542933     15781.207    
   3280000   322.24065      1.64           0.012147181    0.011979148    0.01199216    -118.82059      1845.9081      1845.9081      1845.9081      6.2897043e+09  0.095568904   -11026804      -11026804       959.57764     -11025845      -119.88336     -118.225       -118.35342      0.72752922     0.039342586    0.39084609     15650.907    
   3281000   322.19942      1.6405         0.012138681    0.011971667    0.011980892   -118.73095      1846.2577      1846.2577      1846.2577      6.2932787e+09  0.095514624   -11020754      -11020754       959.45486     -11019795      -119.79947     -118.15117     -118.24221      0.71896209     0.042668043    0.40409871     15515.644    
   3282000   322.17661      1.641          0.012127957    0.011962336    0.011970652   -118.63128      1846.6073      1846.6073      1846.6073      6.2968544e+09  0.095460385   -11014707      -11014707       959.38692     -11013748      -119.69363     -118.05908     -118.14114      0.72524582     0.047234579    0.40637672     15691.279    
   3283000   322.14407      1.6415         0.012116174    0.011951215    0.01196399    -118.53402      1846.9569      1846.9569      1846.9569      6.3004315e+09  0.095406187   -11008662      -11008662       959.29004     -11007703      -119.57734     -117.94932     -118.07541      0.73746409     0.059741427    0.38974217     15565.137    
   3284000   322.10326      1.642          0.012103774    0.011940138    0.011959779   -118.44293      1847.3065      1847.3065      1847.3065      6.3040099e+09  0.09535203    -11002621      -11002621       959.16851     -11001661      -119.45497     -117.84        -118.03384      0.75489617     0.080010398    0.36079947     15600.394    
   3285000   322.09037      1.6425         0.012092809    0.011931473    0.011956124   -118.36633      1847.6561      1847.6561      1847.6561      6.3075897e+09  0.095297914   -10996581      -10996581       959.13011     -10995622      -119.34675     -117.75448     -117.99777      0.77101544     0.093442688    0.33477995     15701.415    
   3286000   322.12311      1.643          0.01208449     0.011923892    0.011949848   -118.29338      1848.0057      1848.0057      1848.0057      6.3111709e+09  0.09524384    -10990542      -10990542       959.2276      -10989583      -119.26464     -117.67966     -117.93583      0.78488973     0.088149508    0.32823101     15548.952    
   3287000   322.18329      1.6435         0.012077919    0.011915831    0.011941518   -118.21784      1848.3553      1848.3553      1848.3553      6.3147534e+09  0.095189806   -10984505      -10984505       959.40682     -10983546      -119.19979     -117.60011     -117.85362      0.79800762     0.075841776    0.33900393     15528.456    
   3288000   322.2429       1.644          0.012070831    0.011907772    0.011932891   -118.13963      1848.7049      1848.7049      1848.7049      6.3183372e+09  0.095135813   -10978471      -10978471       959.58432     -10977511      -119.12984     -117.52058     -117.76848      0.80090901     0.062674809    0.34568536     15571.988    
   3289000   322.29073      1.6445         0.012062095    0.011899486    0.011923191   -118.05172      1849.0545      1849.0545      1849.0545      6.3219224e+09  0.09508186    -10972438      -10972438       959.72676     -10971478      -119.04362     -117.4388      -117.67274      0.78915618     0.050619565    0.33843588     15491.365    
   3290000   322.32999      1.645          0.01205295     0.011890981    0.011912803   -117.95948      1849.4041      1849.4041      1849.4041      6.325509e+09   0.095027949   -10966407      -10966407       959.84367     -10965447      -118.95336     -117.35486     -117.57023      0.76854243     0.052005844    0.32191053     15654.1      
   3291000   322.35331      1.6455         0.012045365    0.011882682    0.011903498   -117.87662      1849.7537      1849.7537      1849.7537      6.3290969e+09  0.094974078   -10960379      -10960379       959.91312     -10959420      -118.87851     -117.27295     -117.4784       0.74844289     0.065917378    0.31247263     15676.151    
   3292000   322.34031      1.646          0.012038971    0.011874633    0.011895948   -117.80426      1850.1033      1850.1033      1850.1033      6.3326862e+09  0.094920248   -10954353      -10954353       959.8744      -10953393      -118.8154      -117.19352     -117.40388      0.73579398     0.077386657    0.31248635     15662.326    
   3293000   322.29713      1.6465         0.012032085    0.011866728    0.011889178   -117.73334      1850.453       1850.453       1850.453       6.3362768e+09  0.094866459   -10948328      -10948328       959.74583     -10947369      -118.74745     -117.1155      -117.33707      0.73872803     0.078766331    0.31810296     15760.441    
   3294000   322.25298      1.647          0.012023278    0.011860071    0.011883648   -117.66427      1850.8026      1850.8026      1850.8026      6.3398688e+09  0.09481271    -10942305      -10942305       959.61434     -10941345      -118.66053     -117.0498      -117.28248      0.74955586     0.072322679    0.3305917      15730.767    
   3295000   322.21889      1.6475         0.012012482    0.011854648    0.011878675   -117.59455      1851.1522      1851.1522      1851.1522      6.3434622e+09  0.094759002   -10936282      -10936282       959.51284     -10935323      -118.55398     -116.99628     -117.23341      0.75436734     0.066119292    0.34703965     15684.715    
   3296000   322.18944      1.648          0.012002363    0.011848071    0.011871703   -117.5167       1851.5018      1851.5018      1851.5018      6.3470569e+09  0.094705334   -10930261      -10930261       959.42514     -10929301      -118.45412     -116.93137     -117.1646       0.7449792      0.063635406    0.36648173     15861.849    
   3297000   322.16035      1.6485         0.011994454    0.011839431    0.011861064   -117.42725      1851.8514      1851.8514      1851.8514      6.3506529e+09  0.094651707   -10924242      -10924242       959.33851     -10923282      -118.37606     -116.8461      -117.0596       0.72537478     0.059035252    0.38270906     15634.572    
   3298000   322.13195      1.649          0.011988244    0.011830682    0.011848156   -117.33558      1852.201       1852.201       1852.201       6.3542504e+09  0.094598121   -10918225      -10918225       959.25394     -10917265      -118.31477     -116.75975     -116.93221      0.70880301     0.058455376    0.37969242     15649.768    
   3299000   322.09851      1.6495         0.011981983    0.011822803    0.011835476   -117.24734      1852.5506      1852.5506      1852.5506      6.3578492e+09  0.094544575   -10912210      -10912210       959.15436     -10911251      -118.25298     -116.68199     -116.80706      0.7054852      0.060167025    0.35942954     15739.155    
   3300000   322.06023      1.65           0.011973781    0.01181608     0.011823891   -117.16013      1852.9002      1852.9002      1852.9002      6.3614493e+09  0.094491069   -10906198      -10906198       959.04037     -10905239      -118.17203     -116.61564     -116.69274      0.71750888     0.057546076    0.33571802     14530.161    
   3301000   322.04038      1.6505         0.011963377    0.011809299    0.011814526   -117.07279      1853.2498      1853.2498      1853.2498      6.3650508e+09  0.094437604   -10900188      -10900188       958.98127     -10899229      -118.06935     -116.54871     -116.6003       0.73827453     0.058764721    0.32352908     15515.284    
   3302000   322.05193      1.651          0.011952464    0.011802228    0.011807846   -116.99165      1853.5994      1853.5994      1853.5994      6.3686537e+09  0.094384179   -10894180      -10894180       959.01564     -10893221      -117.96164     -116.47894     -116.53438      0.75807567     0.074837227    0.32055316     15720.567    
   3303000   322.08358      1.6515         0.0119423      0.011794304    0.011802523   -116.91464      1853.949       1853.949       1853.949       6.3722579e+09  0.094330794   -10888174      -10888174       959.10989     -10887215      -117.86134     -116.40073     -116.48185      0.77246502     0.096143336    0.31701458     15596.98     
   3304000   322.11849      1.652          0.011934037    0.011784246    0.011797125   -116.83661      1854.2986      1854.2986      1854.2986      6.3758634e+09  0.09427745    -10882170      -10882170       959.21386     -10881211      -117.77979     -116.30147     -116.42857      0.77806154     0.10442966     0.31068525     15706.073    
   3305000   322.15283      1.6525         0.011927901    0.011772543    0.011791142   -116.75824      1854.6482      1854.6482      1854.6482      6.3794704e+09  0.094224145   -10876168      -10876168       959.31612     -10875208      -117.71923     -116.18597     -116.36952      0.77648059     0.097301033    0.30868167     15640.123    
   3306000   322.19934      1.653          0.01192282     0.011760858    0.011784303   -116.68058      1854.9978      1854.9978      1854.9978      6.3830787e+09  0.094170881   -10870167      -10870167       959.45461     -10869208      -117.66908     -116.07064     -116.30203      0.77061184     0.084584701    0.31169261     15584.435    
   3307000   322.2633       1.6535         0.011916628    0.011750129    0.0117774     -116.60221      1855.3474      1855.3474      1855.3474      6.3866883e+09  0.094117657   -10864169      -10864169       959.64509     -10863209      -117.60798     -115.96476     -116.2339       0.75631478     0.072494748    0.31637952     15657.516    
   3308000   322.33872      1.654          0.01190815     0.011741402    0.011771089   -116.52485      1855.697       1855.697       1855.697       6.3902994e+09  0.094064473   -10858172      -10858172       959.86966     -10857212      -117.52431     -115.87863     -116.17162      0.73486113     0.06984742     0.32098959     15597.598    
   3309000   322.40133      1.6545         0.011899448    0.011734738    0.011765311   -116.45529      1856.0466      1856.0466      1856.0466      6.3939117e+09  0.09401133    -10852177      -10852177       960.05612     -10851217      -117.43843     -115.81286     -116.11459      0.71970295     0.072425557    0.31748851     15614.874    
   3310000   322.42517      1.655          0.011891404    0.011728904    0.011757582   -116.38421      1856.3962      1856.3962      1856.3962      6.3975255e+09  0.093958226   -10846184      -10846184       960.12711     -10845224      -117.35903     -115.75528     -116.03831      0.7249053      0.069379929    0.30833717     15740.317    
   3311000   322.40275      1.6555         0.011883694    0.011723287    0.011748164   -116.30939      1856.7458      1856.7458      1856.7458      6.4011406e+09  0.093905162   -10840192      -10840192       960.06035     -10839232      -117.28294     -115.69985     -115.94537      0.74666075     0.056584606    0.29950815     15595.351    
   3312000   322.34777      1.656          0.011876035    0.011716041    0.011737654   -116.22577      1857.0954      1857.0954      1857.0954      6.404757e+09   0.093852138   -10834202      -10834202       959.89662     -10833242      -117.20735     -115.62833     -115.84164      0.76958725     0.037191464    0.29537331     15541.077    
   3313000   322.29773      1.6565         0.011867915    0.011705981    0.011726766   -116.13015      1857.445       1857.445       1857.445       6.4083749e+09  0.093799155   -10828214      -10828214       959.74761     -10827254      -117.12721     -115.52905     -115.73418      0.79384254     0.025651622    0.29145797     15678.793    
   3314000   322.27636      1.657          0.01185808     0.011694615    0.011716849   -116.02778