LAMMPS (23 Jun 2022 - Update 1)
OMP_NUM_THREADS environment is not set. Defaulting to 1 thread. (src/comm.cpp:98)
  using 1 OpenMP thread(s) per MPI task
###

# Read restart info
read_restart ${read_res}
read_restart ./trial5/9010/equpmf71.res
Reading restart file ...
  restart file = 23 Jun 2022, LAMMPS = 23 Jun 2022
  restoring atom style atomic from restart
  orthogonal box = (1733.4267 1733.4267 1733.4267) to (2266.5733 2266.5733 2266.5733)
  1 by 2 by 2 MPI processor grid
  restoring pair style table from restart
  1000 atoms
  read_restart CPU = 0.037 seconds

# Settings
pair_style table/pgn spline 10941
pair_coeff 1 1 N20e.txt DE_GNP 308 72.9   # 1.35 * r
pair_coeff 2 2 N100e.txt DE_GNP 473.9 111.78
WARNING: 20 of 10941 force values in table DE_GNP are inconsistent with -dE/dr.
WARNING:  Should only be flagged at inflection points (src/pair_table_pgn.cpp:478)
pair_coeff 1 2 mixed_potentiale.txt DE_GNP 391.2 92.95
WARNING: 1564 of 10941 force values in table DE_GNP are inconsistent with -dE/dr.
WARNING:  Should only be flagged at inflection points (src/pair_table_pgn.cpp:478)

# Neighbor list
neighbor 2.0 bin
neigh_modify delay 0 every 1 check no once yes

# Temperature
variable T equal ${Temp}
variable T equal 300

# Deformation
reset_timestep 0
variable tmp equal "lx"
variable L0 equal ${tmp}
variable L0 equal 533.146642051865
variable strain equal "(lx - v_L0)/v_L0"
variable stp equal "step"
variable tmpe equal "temp"
variable p1 equal "v_strain"
variable p2 equal "-pxx*1.01325/10000"
variable p3 equal "-pyy*1.01325/10000"
variable p4 equal "-pzz*1.01325/10000"
variable p5 equal "lx"
variable p6 equal "ly"
variable p7 equal "lz"
variable p8 equal "press"
variable p9 equal "epair"
variable p10 equal "etotal"

# Thermo
thermo_style custom step temp v_p1 v_p2 v_p3 v_p4 press lx ly lz vol density epair pe ke etotal pxx pyy pzz pxy pxz pyz spcpu
thermo ${ts_save}
thermo 1000

# Dump
# dump 1 all custom 2000 ./${N20}${N100}/tensile/trajectory/trajectory_${usic}_${trial}_*.tensile.custom id type x y z ix iy iz
# dump_modify 1 sort id
dump 2 all cfg 50000 ./trial${trial}/${N20}${N100}/tensile/trajectory/dumpten.tens_${usic}_${trial}_*.cfg mass type xs ys zs fx fy fz
dump 2 all cfg 50000 ./trial5/${N20}${N100}/tensile/trajectory/dumpten.tens_${usic}_${trial}_*.cfg mass type xs ys zs fx fy fz
dump 2 all cfg 50000 ./trial5/90${N100}/tensile/trajectory/dumpten.tens_${usic}_${trial}_*.cfg mass type xs ys zs fx fy fz
dump 2 all cfg 50000 ./trial5/9010/tensile/trajectory/dumpten.tens_${usic}_${trial}_*.cfg mass type xs ys zs fx fy fz
dump 2 all cfg 50000 ./trial5/9010/tensile/trajectory/dumpten.tens_1_${trial}_*.cfg mass type xs ys zs fx fy fz
dump 2 all cfg 50000 ./trial5/9010/tensile/trajectory/dumpten.tens_1_5_*.cfg mass type xs ys zs fx fy fz
dump_modify 2 element N20 N100

fix 1 all nvt temp ${T} ${T} 100
fix 1 all nvt temp 300 ${T} 100
fix 1 all nvt temp 300 300 100
fix 2 all deform 1 x erate ${strain_rate} y erate ${strain_rate} z erate ${strain_rate} units box
fix 2 all deform 1 x erate 5e-6 y erate ${strain_rate} z erate ${strain_rate} units box
fix 2 all deform 1 x erate 5e-6 y erate 5e-6 z erate ${strain_rate} units box
fix 2 all deform 1 x erate 5e-6 y erate 5e-6 z erate 5e-6 units box
fix             def1 all print ${ts_save} "${p1} ${p2} ${p3} ${p4}" file ./tensile/${trial}/tensile${N20}${N100}_${usic}_${trial}.txt screen no
fix             def1 all print 1000 "${p1} ${p2} ${p3} ${p4}" file ./tensile/${trial}/tensile${N20}${N100}_${usic}_${trial}.txt screen no
fix             def1 all print 1000 "${p1} ${p2} ${p3} ${p4}" file ./tensile/5/tensile${N20}${N100}_${usic}_${trial}.txt screen no
fix             def1 all print 1000 "${p1} ${p2} ${p3} ${p4}" file ./tensile/5/tensile90${N100}_${usic}_${trial}.txt screen no
fix             def1 all print 1000 "${p1} ${p2} ${p3} ${p4}" file ./tensile/5/tensile9010_${usic}_${trial}.txt screen no
fix             def1 all print 1000 "${p1} ${p2} ${p3} ${p4}" file ./tensile/5/tensile9010_1_${trial}.txt screen no
fix             def1 all print 1000 "${p1} ${p2} ${p3} ${p4}" file ./tensile/5/tensile9010_1_5.txt screen no

timestep       		${ts}
timestep       		0.1
run				${steps_tensile}
run				6000000
Generated 0 of 1 mixed pair_coeff terms from geometric mixing rule
Unused restart file global fix info:
  fix style: npt, fix ID: 5
Neighbor list info ...
  update every 1 steps, delay 0 steps, check no
  max neighbors/atom: 2000, page size: 100000
  master list distance cutoff = 113.78
  ghost atom cutoff = 113.78
  binsize = 56.89, bins = 10 10 10
  1 neighbor lists, perpetual/occasional/extra = 1 0 0
  (1) pair table/pgn, perpetual
      attributes: half, newton on
      pair build: half/bin/atomonly/newton
      stencil: half/bin/3d
      bin: standard
Per MPI rank memory allocation (min/avg/max) = 3.859 | 3.86 | 3.861 Mbytes
   Step          Temp           v_p1           v_p2           v_p3           v_p4          Press            Lx             Ly             Lz           Volume        Density         E_pair         PotEng         KinEng         TotEng          Pxx            Pyy            Pzz            Pxy            Pxz            Pyz           S/CPU     
         0   304.27655     -4.2647493e-16  0.015798881    0.016858415    0.0044501427  -122.07398      533.14664      533.14664      533.14664      1.5154445e+08  2.6502865     -8654572.5     -8654572.5      906.0836      -8653666.4     -155.92283     -166.37962     -43.919493     -38.8899        46.682037     -26.80101       0            
      1000   322.15199      0.0005         0.028477118    0.029325334    0.017248247   -246.8976       533.41322      533.41322      533.41322      1.5177188e+08  2.646315      -8654019.2     -8654019.2      959.31362     -8653059.8     -281.0473      -289.41854     -170.22697     -39.665341      47.545631     -24.246063      11269.186    
      2000   359.63434      0.001          0.038591506    0.03924542     0.027585599   -346.81314      533.67979      533.67979      533.67979      1.5199954e+08  2.6423515     -8653235.9     -8653235.9      1070.9297     -8652165       -380.86855     -387.32218     -272.24869     -39.487844      47.784367     -23.18236       11376.815    
      3000   399.90795      0.0015         0.045519572    0.046530871    0.035132095   -418.39802      533.94636      533.94636      533.94636      1.5222742e+08  2.6383959     -8652275.9     -8652275.9      1190.8576     -8651085       -449.24324     -459.22399     -346.72682     -37.887319      47.720695     -23.877895      11404.076    
      4000   427.93113      0.002          0.051463721    0.053318901    0.041711738   -481.92897      534.21294      534.21294      534.21294      1.5245554e+08  2.6344482     -8651148.2     -8651148.2      1274.3058     -8649873.9     -507.90744     -526.21664     -411.66285     -37.000175      47.190343     -24.53464       11250.423    
      5000   439.8922       0.0025         0.058544805    0.060732453    0.048829359   -553.02777      534.47951      534.47951      534.47951      1.5268388e+08  2.6305083     -8649821.5     -8649821.5      1309.9239     -8648511.5     -577.7923      -599.38271     -481.9083      -36.033197      46.343914     -21.488904      11480.264    
      6000   439.51314      0.003          0.067120063    0.068626328    0.056810636   -633.46337      534.74608      534.74608      534.74608      1.5291245e+08  2.6265763     -8648252.1     -8648252.1      1308.7951     -8646943.3     -662.42351     -677.2892      -560.67738     -36.714684      46.723155     -16.262968      13295.249    
      7000   432.66091      0.0035         0.076348078    0.076901015    0.065590867   -719.92749      535.01266      535.01266      535.01266      1.5314124e+08  2.6226522     -8646416.5     -8646416.5      1288.3903     -8645128.1     -753.49694     -758.954       -647.33153     -38.106004      49.443255     -14.467629      13295.073    
      8000   423.2482       0.004          0.085325364    0.085642642    0.074976242   -809.09367      535.27923      535.27923      535.27923      1.5337027e+08  2.6187358     -8644290.9     -8644290.9      1260.3609     -8643030.5     -842.09587     -845.22716     -739.95798     -36.257295      51.312983     -16.689945      13291.002    
      9000   412.98801      0.0045         0.093778498    0.094407534    0.084293914   -896.38933      535.5458       535.5458       535.5458       1.5359952e+08  2.6148272     -8641855.6     -8641855.6      1229.8078     -8640625.8     -925.52182     -931.72992     -831.91625     -33.322664      48.638802     -19.598112      13250.343    
     10000   403.11052      0.005          0.1015052      0.10259484     0.092473961   -975.65259      535.81238      535.81238      535.81238      1.53829e+08    2.6109265     -8639113.1     -8639113.1      1200.3943     -8637912.7     -1001.7784     -1012.5323     -912.64704     -32.856972      44.979004     -20.228692      13118.14     
     11000   394.25096      0.0055         0.10877474     0.11007523     0.099319934   -1046.6976      536.07895      536.07895      536.07895      1.5405871e+08  2.6070334     -8636091.7     -8636091.7      1174.012      -8634917.7     -1073.5233     -1086.3581     -980.21154     -33.584328      43.345887     -18.935249      13233.794    
     12000   386.53421      0.006          0.11570164     0.1169987      0.10576366    -1113.46        536.34552      536.34552      536.34552      1.5428865e+08  2.6031481     -8632827.6     -8632827.6      1151.0329     -8631676.5     -1141.8864     -1154.6873     -1043.8062     -33.520749      43.895121     -17.575142      13293.785    
     13000   379.68233      0.0065         0.12225707     0.12394408     0.11292116    -1181.4205      536.6121       536.6121       536.6121       1.5451882e+08  2.5992706     -8629330.5     -8629330.5      1130.6291     -8628199.9     -1206.5835     -1223.233      -1114.4452     -30.852374      46.026895     -15.426592      13305.746    
     14000   373.74701      0.007          0.1289714      0.1307282      0.12053011    -1250.8585      536.87867      536.87867      536.87867      1.5474921e+08  2.5954007     -8625594.3     -8625594.3      1112.9548     -8624481.4     -1272.8487     -1290.187      -1189.5397     -27.328303      48.597863     -11.776291      13308.838    
     15000   369.36662      0.0075         0.13586358     0.13722481     0.12779955    -1318.8188      537.14524      537.14524      537.14524      1.5497984e+08  2.5915385     -8621621.3     -8621621.3      1099.9107     -8620521.4     -1340.8693     -1354.3036     -1261.2835     -26.124118      49.060295     -9.6428149      13311.768    
     16000   366.48668      0.008          0.1426304      0.14379291     0.13438367    -1384.3473      537.41182      537.41182      537.41182      1.5521069e+08  2.5876839     -8617413.2     -8617413.2      1091.3348     -8616321.9     -1407.6526     -1419.1257     -1326.2637     -27.540206      47.539967     -9.5788907      13313.061    
     17000   364.50333      0.0085         0.14937474     0.15049999     0.14061063    -1449.0842      537.67839      537.67839      537.67839      1.5544177e+08  2.583837      -8612972.6     -8612972.6      1085.4287     -8611887.1     -1474.2141     -1485.3194     -1387.719      -30.313489      44.694269     -11.248883      13325.183    
     18000   363.0634       0.009          0.15589188     0.15682277     0.14684107    -1511.8208      537.94496      537.94496      537.94496      1.5567309e+08  2.5799977     -8608306.3     -8608306.3      1081.1408     -8607225.2     -1538.5333     -1547.7204     -1449.2087     -31.518232      43.327145     -13.948646      13319.259    
     19000   362.57254      0.0095         0.16183432     0.1626541      0.1527942     -1570.1377      538.21154      538.21154      538.21154      1.5590463e+08  2.5761661     -8603431.1     -8603431.1      1079.6791     -8602351.4     -1597.1805     -1605.2712     -1507.9615     -30.344473      44.281345     -14.292411      13320.255    
     20000   363.09416      0.01           0.1673527      0.16836864     0.15848057    -1625.7979      538.47811      538.47811      538.47811      1.561364e+08   2.572342      -8598364.7     -8598364.7      1081.2324     -8597283.4     -1651.6427     -1661.6692     -1564.0816     -27.846287      45.70644      -10.891027      13300.565    
     21000   363.89012      0.0105         0.17303784     0.17448684     0.16455676    -1684.6169      538.74468      538.74468      538.74468      1.563684e+08   2.5685254     -8593112.4     -8593112.4      1083.6026     -8592028.8     -1707.7507     -1722.0512     -1624.049      -26.096453      47.238569     -7.0791978      13292.036    
     22000   364.09122      0.011          0.17879792     0.18106154     0.17093138    -1746.1661      539.01126      539.01126      539.01126      1.5660063e+08  2.5647165     -8587656.9     -8587656.9      1084.2015     -8586572.7     -1764.5983     -1786.9385     -1686.9616     -24.693846      49.289317     -5.5283911      13298.693    
     23000   364.35745      0.0115         0.18442981     0.18707578     0.17684458    -1803.9318      539.27783      539.27783      539.27783      1.5683309e+08  2.560915      -8581983.2     -8581983.2      1084.9943     -8580898.2     -1820.1807     -1846.2944     -1745.3203     -22.969827      50.514887     -4.1599228      13301.204    
     24000   365.30201      0.012          0.18978418     0.19195757     0.18226077    -1855.424       539.5444       539.5444       539.5444       1.5706578e+08  2.5571211     -8576118.8     -8576118.8      1087.807      -8575031       -1873.0242     -1894.4739     -1798.7739     -22.377458      48.640268     -4.5941932      13278.454    
     25000   366.87589      0.0125         0.19469544     0.19589185     0.18703169    -1900.2187      539.81098      539.81098      539.81098      1.572987e+08   2.5533346     -8570094.7     -8570094.7      1092.4937     -8569002.2     -1921.4946     -1933.3022     -1845.8592     -23.647111      43.440682     -6.4802385      13277.519    
     26000   368.97157      0.013          0.19940305     0.19998096     0.19175685    -1944.7022      540.07755      540.07755      540.07755      1.5753185e+08  2.5495556     -8563925.9     -8563925.9      1098.7343     -8562827.1     -1967.9551     -1973.6586     -1892.4929     -25.536021      40.466256     -5.0273235      13288.436    
     27000   371.2157       0.0135         0.20409005     0.20467374     0.19662568    -1991.5765      540.34412      540.34412      540.34412      1.5776523e+08  2.5457841     -8557606.4     -8557606.4      1105.417      -8556500.9     -2014.2122     -2019.9728     -1940.5446     -26.554882      42.171582     -1.7454986      13288.699    
     28000   373.3665       0.014          0.20870754     0.20981313     0.20153431    -2039.8223      540.6107       540.6107       540.6107       1.5799884e+08  2.54202       -8551123.9     -8551123.9      1111.8217     -8550012.1     -2059.7833     -2070.6946     -1988.989      -25.791474      45.546574     -0.70690202     13296.475    
     29000   375.19113      0.0145         0.2130251      0.21503711     0.20632142    -2086.9599      540.87727      540.87727      540.87727      1.5823268e+08  2.5382633     -8544477.9     -8544477.9      1117.2551     -8543360.7     -2102.3943     -2122.2513     -2036.2341     -22.000993      46.651988     -1.8142399      13288.436    
     30000   377.09412      0.015          0.21720447     0.21974992     0.2107494     -2130.7798      541.14384      541.14384      541.14384      1.5846675e+08  2.534514      -8537677.1     -8537677.1      1122.9219     -8536554.2     -2143.6415     -2168.763      -2079.9349     -16.689245      45.948305     -3.6136535      13294.491    
     31000   379.12402      0.0155         0.22171943     0.22404979     0.21464556    -2172.5957      541.41042      541.41042      541.41042      1.5870106e+08  2.5307721     -8530729.2     -8530729.2      1128.9666     -8529600.2     -2188.2007     -2211.1995     -2118.387      -13.715226      47.185752     -4.9959654      13297.935    
     32000   381.04701      0.016          0.22654333     0.22801909     0.21851283    -2214.2454      541.67699      541.67699      541.67699      1.5893559e+08  2.5270376     -8523637.7     -8523637.7      1134.6929     -8522503       -2235.8088     -2250.3735     -2156.554      -14.403358      48.55123      -4.7499516      13307.599    
     33000   383.20694      0.0165         0.23092765     0.23172364     0.22287291    -2255.1993      541.94356      541.94356      541.94356      1.5917035e+08  2.5233104     -8516409.5     -8516409.5      1141.1248     -8515268.4     -2279.0788     -2286.9346     -2199.5846     -18.052293      46.695881     -1.9068837      13221.097    
     34000   385.51768      0.017          0.23490297     0.23540111     0.22762075    -2295.9942      542.21013      542.21013      542.21013      1.5940535e+08  2.5195905     -8509044       -8509044        1148.0058     -8507896       -2318.312      -2323.2284     -2246.4422     -21.133394      44.360523      1.8768752      13196.954    
     35000   387.97833      0.0175         0.23840245     0.23884175     0.23164156    -2332.0528      542.47671      542.47671      542.47671      1.5964058e+08  2.515878      -8501546.7     -8501546.7      1155.3332     -8500391.3     -2352.8493     -2357.1848     -2286.1244     -20.138579      42.390861      3.8992077      13221.196    
     36000   390.90512      0.018          0.24162032     0.24243426     0.23484429    -2364.9934      542.74328      542.74328      542.74328      1.5987603e+08  2.5121727     -8493928.1     -8493928.1      1164.0487     -8492764.1     -2384.6071     -2392.6402     -2317.7329     -17.115905      41.080293      2.6700266      13210.926    
     37000   393.39039      0.0185         0.244877       0.24656918     0.2380491     -2399.8529      543.00985      543.00985      543.00985      1.6011172e+08  2.5084747     -8486194.9     -8486194.9      1171.4494     -8485023.4     -2416.7481     -2433.4486     -2349.3619     -14.497497      42.041125     -0.22247153     13233.902    
     38000   394.93582      0.019          0.24817141     0.25056812     0.24141746    -2434.9272      543.27643      543.27643      543.27643      1.6034765e+08  2.504784      -8478341.1     -8478341.1      1176.0514     -8477165       -2449.2614     -2472.9151     -2382.6051     -13.961945      43.24608      -2.5389744      13304.033    
     39000   396.28392      0.0195         0.25136598     0.25369278     0.24450847    -2465.8845      543.543        543.543        543.543        1.605838e+08   2.5011005     -8470380.9     -8470380.9      1180.0659     -8469200.8     -2480.7893     -2503.7531     -2413.111      -14.954746      44.648968     -3.0782205      13327.293    
     40000   398.01604      0.02           0.25414981     0.2560243      0.24732384    -2491.9745      543.80957      543.80957      543.80957      1.6082018e+08  2.4974242     -8462327.2     -8462327.2      1185.2238     -8461142       -2508.2636     -2526.7634     -2440.8965     -16.022927      45.900263     -0.67749334     13294.771    
     41000   399.67675      0.0205         0.25693977     0.25839996     0.25063961    -2519.8761      544.07615      544.07615      544.07615      1.610568e+08   2.4937551     -8454173.7     -8454173.7      1190.1691     -8452983.5     -2535.7984     -2550.2094     -2473.6206     -13.304695      45.348908      1.0150423      13298.243    
     42000   400.72825      0.021          0.26013567     0.26121272     0.25387488    -2550.2863      544.34272      544.34272      544.34272      1.6129365e+08  2.4900932     -8445910.7     -8445910.7      1193.3003     -8444717.4     -2567.3395     -2577.9692     -2505.5503     -10.367766      42.819257      2.9778998      13311.4      
     43000   402.09102      0.0215         0.26335131     0.26408801     0.25649034    -2578.9281      544.60929      544.60929      544.60929      1.6153073e+08  2.4864384     -8437539.5     -8437539.5      1197.3584     -8436342.1     -2599.0754     -2606.346      -2531.3629     -10.993795      40.435648      6.5326166      13322.523    
     44000   404.10356      0.022          0.26623453     0.26685569     0.25877924    -2605.048       544.87587      544.87587      544.87587      1.6176804e+08  2.4827909     -8429079.7     -8429079.7      1203.3514     -8427876.3     -2627.5306     -2633.6609     -2553.9526     -11.661673      40.923133      8.4925008      13300.04     
     45000   405.86344      0.0225         0.2688296      0.26947949     0.2615644     -2631.3792      545.14244      545.14244      545.14244      1.6200558e+08  2.4791504     -8420534.4     -8420534.4      1208.592      -8419325.8     -2653.1419     -2659.5558     -2581.4399     -11.005238      41.16736       7.0875425      13303.939    
     46000   407.02716      0.023          0.27132933     0.2717405      0.26444094    -2656.5039      545.40901      545.40901      545.40901      1.6224336e+08  2.4755171     -8411895.3     -8411895.3      1212.0574     -8410683.2     -2677.8123     -2681.8702     -2609.8292     -10.116712      39.474086      3.4574285      13316.406    
     47000   408.39385      0.0235         0.27364866     0.27357583     0.26685974    -2678.1289      545.67559      545.67559      545.67559      1.6248137e+08  2.4718908     -8403173.7     -8403173.7      1216.1271     -8401957.6     -2700.7023     -2699.9835     -2633.7009     -9.8174164      37.250941     -0.91429353     13317.456    
     48000   410.27579      0.024          0.27569705     0.27566449     0.26941725    -2700.1522      545.94216      545.94216      545.94216      1.6271961e+08  2.4682716     -8394377.4     -8394377.4      1221.7313     -8393155.7     -2720.9183     -2720.597      -2658.9415     -10.501483      36.135459     -2.1756752      13324.359    
     49000   411.88549      0.0245         0.27754456     0.27840296     0.27203245    -2723.8423      546.20873      546.20873      546.20873      1.6295809e+08  2.4646595     -8385499.9     -8385499.9      1226.5247     -8384273.3     -2739.1518     -2747.6236     -2684.7515     -11.303593      38.601694      1.7149783      13323.063    
     50000   412.87179      0.025          0.27942946     0.28108382     0.2740174     -2745.3925      546.47531      546.47531      546.47531      1.631968e+08   2.4610545     -8376543.3     -8376543.3      1229.4617     -8375313.8     -2757.7544     -2774.0817     -2704.3415     -10.720757      41.998334      6.1016289      9160.8346    
     51000   413.28268      0.0255         0.28131561     0.28308164     0.27547949    -2762.9797      546.74188      546.74188      546.74188      1.6343574e+08  2.4574565     -8367507.9     -8367507.9      1230.6852     -8366277.2     -2776.3693     -2793.7986     -2718.7712     -9.1819053      41.26916       7.3998297      9989.0762    
     52000   413.68281      0.026          0.28302656     0.28419183     0.27674966    -2776.439       547.00845      547.00845      547.00845      1.6367491e+08  2.4538654     -8358408       -8358408        1231.8768     -8357176.1     -2793.2549     -2804.7553     -2731.3068     -7.3999966      38.867969      5.1401947      13185.159    
     53000   414.7252       0.0265         0.28474182     0.2852444      0.27816817    -2790.211       547.27503      547.27503      547.27503      1.6391432e+08  2.4502814     -8349260.4     -8349260.4      1234.9808     -8348025.4     -2810.1832     -2815.1434     -2745.3064     -6.0927484      38.224471      2.4365527      12986.905    
     54000   415.89044      0.027          0.28669148     0.28672626     0.2799138     -2807.2425      547.5416       547.5416       547.5416       1.6415396e+08  2.4467044     -8340063.9     -8340063.9      1238.4507     -8338825.5     -2829.4249     -2829.7682     -2762.5344     -5.7327778      38.498042      2.3926812      13294.483    
     55000   416.85604      0.0275         0.28850157     0.28840536     0.28178463    -2824.8756      547.80817      547.80817      547.80817      1.6439383e+08  2.4431343     -8330801.2     -8330801.2      1241.3261     -8329559.9     -2847.2891     -2846.3396     -2780.9981     -7.6650006      38.566657      3.3009003      13289.393    
     56000   417.8477       0.028          0.2899948      0.2901285      0.28336529    -2840.6566      548.07475      548.07475      548.07475      1.6463394e+08  2.4395711     -8321472.4     -8321472.4      1244.2791     -8320228.1     -2862.0262     -2863.3457     -2796.598      -10.266702      38.66689       3.2425677      13296.496    
     57000   419.09972      0.0285         0.29096112     0.29185068     0.28507025    -2855.11        548.34132      548.34132      548.34132      1.6487428e+08  2.4360149     -8312090.8     -8312090.8      1248.0074     -8310842.8     -2871.563      -2880.3423     -2813.4247     -9.1379819      38.146727      3.1291428      13305.456    
     58000   420.1889       0.029          0.29165832     0.29309978     0.28695884    -2867.7258      548.60789      548.60789      548.60789      1.6511486e+08  2.4324656     -8302658.5     -8302658.5      1251.2508     -8301407.3     -2878.4439     -2892.67       -2832.0636     -5.6025509      37.73157       2.860439       13303.191    
     59000   420.92911      0.0295         0.29283565     0.29389139     0.28840902    -2878.9738      548.87447      548.87447      548.87447      1.6535567e+08  2.4289231     -8293170.9     -8293170.9      1253.455      -8291917.4     -2890.0632     -2900.4825     -2846.3757     -3.6882645      36.346065      4.0516165      13314.288    
     60000   421.57651      0.03           0.29440414     0.29465491     0.28918787    -2889.2077      549.14104      549.14104      549.14104      1.6559671e+08  2.4253876     -8283646.1     -8283646.1      1255.3829     -8282390.7     -2905.543      -2908.0179     -2854.0624     -4.9136712      35.297255      5.1388545      13294.948    
     61000   422.83099      0.0305         0.29543201     0.29574465     0.28961       -2897.5628      549.40761      549.40761      549.40761      1.6583799e+08  2.4218589     -8274093.6     -8274093.6      1259.1185     -8272834.5     -2915.6872     -2918.7727     -2858.2285     -6.5490939      35.586453      2.6671502      13298.864    
     62000   424.20073      0.031          0.29592054     0.29685902     0.29062335    -2906.1696      549.67419      549.67419      549.67419      1.660795e+08   2.418337      -8264506       -8264506        1263.1973     -8263242.8     -2920.5086     -2929.7707     -2868.2295     -5.394736       34.603647     -1.3870527      13296.697    
     63000   424.86884      0.0315         0.29625836     0.29740995     0.29171718    -2912.6918      549.94076      549.94076      549.94076      1.6632125e+08  2.414822      -8254877.7     -8254877.7      1265.1868     -8253612.5     -2923.8427     -2935.208      -2879.0247     -2.9955904      32.79764      -2.3281058      13197.515    
     64000   425.07973      0.032          0.29698708     0.29764306     0.2923554     -2917.9555      550.20733      550.20733      550.20733      1.6656323e+08  2.4113138     -8245217       -8245217        1265.8149     -8243951.2     -2931.0346     -2937.5086     -2885.3234     -3.1097677      31.861466      1.7205383      13233.18     
     65000   424.38021      0.0325         0.29831933     0.29827553     0.29327858    -2927.456       550.47391      550.47391      550.47391      1.6680544e+08  2.4078124     -8235524.5     -8235524.5      1263.7318     -8234260.8     -2944.1828     -2943.7506     -2894.4346     -5.1945214      30.9757        6.1482908      13319.661    
     66000   423.01166      0.033          0.29931285     0.29923457     0.29412045    -2936.649       550.74048      550.74048      550.74048      1.6704789e+08  2.4043177     -8225791.6     -8225791.6      1259.6565     -8224531.9     -2953.9881     -2953.2156     -2902.7432     -6.5601493      31.014477      5.5472943      13312.603    
     67000   423.04403      0.0335         0.29943832     0.29966188     0.29437438    -2939.3029      551.00705      551.00705      551.00705      1.6729058e+08  2.4008298     -8216037.1     -8216037.1      1259.7529     -8214777.4     -2955.2265     -2957.4328     -2905.2492     -5.6649102      31.639521      1.6589604      13312.653    
     68000   424.45541      0.034          0.29925702     0.29962889     0.29462581    -2939.425       551.27363      551.27363      551.27363      1.675335e+08   2.3973487     -8206277       -8206277        1263.9557     -8205013       -2953.4372     -2957.1072     -2907.7306     -2.9066028      31.201032     -0.696675       13303.86     
     69000   425.71578      0.0345         0.29900651     0.29991421     0.29496123    -2940.643       551.5402       551.5402       551.5402       1.6777665e+08  2.3938743     -8196501.4     -8196501.4      1267.7089     -8195233.7     -2950.9648     -2959.9232     -2911.0411      0.17687319     30.939107     -0.6740484      13358.815    
     70000   426.52904      0.035          0.29878849     0.30023648     0.29486519    -2940.67        551.80677      551.80677      551.80677      1.6802004e+08  2.3904066     -8186716.5     -8186716.5      1270.1307     -8185446.4     -2948.8131     -2963.1037     -2910.0932     -0.089050416    30.241085      1.4619555      13247.712    
     71000   427.58772      0.0355         0.29865881     0.30022296     0.29472713    -2939.7447      552.07335      552.07335      552.07335      1.6826367e+08  2.3869456     -8176934       -8176934        1273.2832     -8175660.7     -2947.5333     -2962.9702     -2908.7306     -4.5107722      28.479939      4.2356567      13233.746    
     72000   428.19127      0.036          0.29901583     0.30034206     0.29541069    -2943.5598      552.33992      552.33992      552.33992      1.6850753e+08  2.3834912     -8167139.2     -8167139.2      1275.0805     -8165864.1     -2951.0568     -2964.1457     -2915.4769     -8.7469213      25.478267      4.1554193      13235.837    
     73000   427.37943      0.0365         0.29964515     0.30037998     0.29616881    -2948.2489      552.60649      552.60649      552.60649      1.6875162e+08  2.3800436     -8157313.4     -8157313.4      1272.663      -8156040.8     -2957.2677     -2964.5199     -2922.9589     -6.9923901      22.572327     -0.60921917     13232.887    
     74000   426.14959      0.037          0.30024666     0.30025711     0.2964128     -2950.6261      552.87307      552.87307      552.87307      1.6899595e+08  2.3766025     -8147467.6     -8147467.6      1269.0007     -8146198.6     -2963.2042     -2963.3073     -2925.3669     -1.3220945      20.979873     -6.172075       13300.087    
     75000   426.04086      0.0375         0.30020338     0.30010606     0.29616189    -2949.1614      553.13964      553.13964      553.13964      1.6924052e+08  2.3731681     -8137617.7     -8137617.7      1268.6769     -8136349.1     -2962.777      -2961.8166     -2922.8906      2.7595474      20.484036     -6.7924084      13327.656    
     76000   427.43564      0.038          0.29950773     0.29984123     0.29561881    -2944.215       553.40621      553.40621      553.40621      1.6948532e+08  2.3697404     -8127774.3     -8127774.3      1272.8303     -8126501.4     -2955.9115     -2959.2028     -2917.5308      3.3746753      19.896248     -0.96630989     13309.801    
     77000   428.96657      0.0385         0.29876793     0.29957742     0.29532257    -2939.9389      553.67279      553.67279      553.67279      1.6973036e+08  2.3663192     -8117937.8     -8117937.8      1277.3892     -8116660.4     -2948.6102     -2956.5993     -2914.6072      1.9284882      20.589225      3.8363827      13313.238    
     78000   429.02544      0.039          0.29821294     0.29942345     0.29524894    -2937.3644      553.93936      553.93936      553.93936      1.6997564e+08  2.3629046     -8108105.4     -8108105.4      1277.5645     -8106827.8     -2943.1329     -2955.0797     -2913.8805     -0.36291916     22.379778      2.3474971      13308.266    
     79000   427.79535      0.0395         0.29757051     0.29861149     0.29476358    -2930.9831      554.20593      554.20593      554.20593      1.7022115e+08  2.3594965     -8098285       -8098285        1273.9015     -8097011.1     -2936.7926     -2947.0663     -2909.0903     -3.1695203      21.997512      0.41240442     13267.655    
     80000   426.71643      0.04           0.29657428     0.29725977     0.29366125    -2919.6325      554.47251      554.47251      554.47251      1.704669e+08   2.3560951     -8088488.3     -8088488.3      1270.6887     -8087217.6     -2926.9606     -2933.7259     -2898.2112     -5.1011379      20.428489      0.71708747     13313.114    
     81000   426.36386      0.0405         0.29548543     0.29616197     0.29243937    -2908.4193      554.73908      554.73908      554.73908      1.7071288e+08  2.3527001     -8078724.8     -8078724.8      1269.6388     -8077455.2     -2916.2144     -2922.8914     -2886.1522     -7.2163802      19.292776      0.4782133      13324.132    
     82000   426.15566      0.041          0.29518072     0.29571291     0.29200854    -2904.5223      555.00565      555.00565      555.00565      1.709591e+08   2.3493117     -8068966.6     -8068966.6      1269.0188     -8067697.6     -2913.2072     -2918.4595     -2881.9002     -5.5519144      17.111419     -1.8125402      13313.066    
     83000   425.57978      0.0415         0.29550134     0.29561393     0.29214839    -2905.7115      555.27223      555.27223      555.27223      1.7120556e+08  2.3459297     -8059188.4     -8059188.4      1267.3039     -8057921       -2916.3714     -2917.4826     -2883.2805      0.45835391     15.017041     -4.016702       13305.014    
     84000   425.75606      0.042          0.29535264     0.29533603     0.2918898     -2903.4574      555.5388       555.5388       555.5388       1.7145225e+08  2.3425543     -8049411       -8049411        1267.8288     -8048143.2     -2914.9039     -2914.74       -2880.7283      3.8364066      15.969001     -3.1826844      13316.145    
     85000   426.94601      0.0425         0.29444113     0.29484467     0.29146101    -2897.4317      555.80537      555.80537      555.80537      1.7169918e+08  2.3391853     -8039666.7     -8039666.7      1271.3723     -8038395.3     -2905.908      -2909.8907     -2876.4966      2.7785677      18.077101     -1.091032       13311.246    
     86000   427.57897      0.043          0.2931876      0.29394543     0.29094352    -2888.6473      556.07195      556.07195      556.07195      1.7194635e+08  2.3358228     -8029952.4     -8029952.4      1273.2571     -8028679.1     -2893.5366     -2901.0158     -2871.3893      0.11852346     18.427867     -0.84640469     13307.492    
     87000   427.10846      0.0435         0.291988       0.29249751     0.28994004    -2876.6364      556.33852      556.33852      556.33852      1.7219375e+08  2.3324668     -8020253.2     -8020253.2      1271.8561     -8018981.4     -2881.6975     -2886.726      -2861.4857     -2.4892724      15.740112     -2.1393021      13316.775    
     88000   425.62357      0.044          0.29081621     0.29064275     0.28861631    -2862.3251      556.60509      556.60509      556.60509      1.724414e+08   2.3291171     -8010578.4     -8010578.4      1267.4343     -8009311       -2870.1328     -2868.4209     -2848.4215     -3.3040266      10.874951     -2.3097725      13306.714    
     89000   423.88219      0.0445         0.28925987     0.28906054     0.2870439     -2846.8273      556.87167      556.87167      556.87167      1.7268928e+08  2.3257739     -8000939.1     -8000939.1      1262.2488     -7999676.9     -2854.773      -2852.8058     -2832.903      -1.9887348      7.161527      -1.3820847      13319.799    
     90000   423.00446      0.045          0.2876365      0.28815494     0.28557299    -2833.6687      557.13824      557.13824      557.13824      1.7293739e+08  2.3224371     -7991337.1     -7991337.1      1259.6351     -7990077.4     -2838.7516     -2843.8682     -2818.3863      0.43074357     7.0228068     -0.98042819     13302.903    
     91000   423.25374      0.0455         0.28681696     0.28731272     0.28456137    -2824.8739      557.40481      557.40481      557.40481      1.7318575e+08  2.3191066     -7981767.6     -7981767.6      1260.3774     -7980507.2     -2830.6633     -2835.5561     -2808.4024      0.4632519      10.155246     -2.4039222      13327.751    
     92000   423.90793      0.046          0.28674749     0.28649873     0.28405822    -2820.3123      557.67139      557.67139      557.67139      1.7343434e+08  2.3157825     -7972227.1     -7972227.1      1262.3254     -7970964.7     -2829.9776     -2827.5226     -2803.4367     -0.64064797     12.348837     -4.704372       13331.982    
     93000   423.80616      0.0465         0.28614695     0.2856516      0.2837125     -2814.4125      557.93796      557.93796      557.93796      1.7368317e+08  2.3124648     -7962706.7     -7962706.7      1262.0224     -7961444.7     -2824.0508     -2819.1621     -2800.0247     -1.6259681      11.888767     -5.1727699      13327.622    
     94000   422.95791      0.047          0.28420898     0.28408482     0.28301367    -2800.5838      558.20453      558.20453      558.20453      1.7393224e+08  2.3091534     -7953214.3     -7953214.3      1259.4964     -7951954.8     -2804.9245     -2803.6992     -2793.1278     -0.97383665     11.024926     -2.3758131      13324.006    
     95000   422.49879      0.0475         0.2818667      0.28181876     0.28127818    -2779.7143      558.47111      558.47111      558.47111      1.7418154e+08  2.3058483     -7943764.6     -7943764.6      1258.1293     -7942506.5     -2781.8081     -2781.3349     -2775.9998      0.51864643     10.946428      2.1600656      13306.287    
     96000   422.20171      0.048          0.28031833     0.28011894     0.27935432    -2762.6995      558.73768      558.73768      558.73768      1.7443109e+08  2.3025495     -7934358.4     -7934358.4      1257.2446     -7933101.1     -2766.5268     -2764.559      -2757.0128      1.7262756      11.537613      2.4751472      13329.566    
     97000   420.96536      0.0485         0.27934103     0.27933        0.27805804    -2752.6246      559.00425      559.00425      559.00425      1.7468087e+08  2.299257      -7924983.2     -7924983.2      1253.5629     -7923729.7     -2756.8816     -2756.7727     -2744.2195      2.1336835      9.4033557     -2.1170967      13337.94     
     98000   419.28581      0.049          0.27840684     0.27871323     0.27683063    -2743.4845      559.27083      559.27083      559.27083      1.7493089e+08  2.2959708     -7915642.3     -7915642.3      1248.5615     -7914393.8     -2747.6618     -2750.6857     -2732.1059      2.7059228      6.5365823     -6.7077319      13308.924    
     99000   418.59916      0.0495         0.27712213     0.27757345     0.27550514    -2731.148       559.5374       559.5374       559.5374       1.7518115e+08  2.2926908     -7906340.2     -7906340.2      1246.5168     -7905093.7     -2734.9828     -2739.4369     -2719.0244      3.8391971      4.2031756     -6.1286879      13299.333    
    100000   418.90474      0.05           0.27559852     0.27599992     0.27439012    -2717.2911      559.80397      559.80397      559.80397      1.7543164e+08  2.2894171     -7897078       -7897078        1247.4268     -7895830.6     -2719.9459     -2723.9075     -2708.0199      3.3051949      2.4791818     -1.4110374      12479.347    
    101000   418.64577      0.0505         0.2736989      0.27428032     0.27330705    -2701.8218      560.07055      560.07055      560.07055      1.7568238e+08  2.2861496     -7887857.2     -7887857.2      1246.6556     -7886610.5     -2701.1981     -2706.9363     -2697.3308      1.1596091      2.1885799      1.9289804      13295.718    
    102000   417.40825      0.051          0.27155667     0.27233222     0.27150971    -2682.4529      560.33712      560.33712      560.33712      1.7593335e+08  2.2828884     -7878684.1     -7878684.1      1242.9705     -7877441.1     -2680.056      -2687.7101     -2679.5925     -0.3515452      4.8221159      2.6989424      13321.288    
    103000   416.14397      0.0515         0.26981776     0.27018851     0.26928918    -2662.375       560.60369      560.60369      560.60369      1.7618457e+08  2.2796333     -7869569.9     -7869569.9      1239.2057     -7868330.7     -2662.8942     -2666.5533     -2657.6775      0.66041656     6.7063097      0.61581052     13312.232    
    104000   414.81894      0.052          0.26860904     0.26836872     0.26749212    -2646.5001      560.87027      560.87027      560.87027      1.7643602e+08  2.2763844     -7860504.9     -7860504.9      1235.26       -7859269.7     -2650.9651     -2648.5933     -2639.9419      2.3728362      5.766326      -3.0431826      13298.578    
    105000   413.47639      0.0525         0.26719346     0.26704386     0.26621982    -2633.2993      561.13684      561.13684      561.13684      1.7668771e+08  2.2731417     -7851482.8     -7851482.8      1231.2621     -7850251.5     -2636.9945     -2635.518      -2627.3854      3.8050409      6.2805683     -3.5058077      13266.321    
    106000   412.45295      0.053          0.26562762     0.26609459     0.26499759    -2621.0044      561.40341      561.40341      561.40341      1.7693964e+08  2.2699052     -7842495.2     -7842495.2      1228.2144     -7841267       -2621.5408     -2626.1494     -2615.3228      3.570561       7.3312867     -0.61605132     13306.523    
    107000   411.38642      0.0535         0.26419525     0.26516783     0.26379844    -2609.2985      561.66999      561.66999      561.66999      1.7719181e+08  2.2666747     -7833543.1     -7833543.1      1225.0385     -7832318.1     -2607.4044     -2617.003      -2603.4882      0.98848328     5.86871        0.39698671     13303.82     
    108000   410.44058      0.054          0.26234758     0.26371564     0.26253852    -2594.298       561.93656      561.93656      561.93656      1.7744422e+08  2.2634505     -7824630.4     -7824630.4      1222.222      -7823408.2     -2589.1693     -2602.671      -2591.0537     -0.58975423     2.9559526     -1.1661827      13251.835    
    109000   409.83645      0.0545         0.26044258     0.26167193     0.26103135    -2576.3495      562.20313      562.20313      562.20313      1.7769687e+08  2.2602323     -7815768       -7815768        1220.423      -7814547.6     -2570.3684     -2582.5011     -2576.1791      2.13864       -0.2963213     -1.8924909      13223.529    
    110000   409.60666      0.055          0.25875752     0.25932223     0.2590166     -2556.4482      562.46971      562.46971      562.46971      1.7794976e+08  2.2570202     -7806966.5     -7806966.5      1219.7387     -7805746.8     -2553.7382     -2559.3114     -2556.2951      5.1344833     -1.0255086      0.54066187     13208.38     
    111000   409.20871      0.0555         0.257126       0.25714535     0.25720391    -2537.9563      562.73628      562.73628      562.73628      1.7820289e+08  2.2538142     -7798220.5     -7798220.5      1218.5537     -7797001.9     -2537.6363     -2537.8273     -2538.4052      4.6107448      2.1622874      2.9345704      13206.943    
    112000   407.77531      0.056          0.25565572     0.25558535     0.25590405    -2523.7112      563.00285      563.00285      563.00285      1.7845626e+08  2.2506143     -7789522       -7789522        1214.2852     -7788307.7     -2523.1258     -2522.4312     -2525.5766      2.129016       4.9595671      2.9862799      13206.136    
    113000   405.82725      0.0565         0.25441621     0.2545231      0.25454891    -2511.6809      563.26943      563.26943      563.26943      1.7870987e+08  2.2474204     -7780863.5     -7780863.5      1208.4842     -7779655       -2510.8928     -2511.9477     -2512.2024      0.19454156     4.1038085      1.8897349      13264.81     
    114000   404.5705       0.057          0.252827       0.25343563     0.25293659    -2497.5712      563.536        563.536        563.536        1.7896372e+08  2.2442326     -7772241.8     -7772241.8      1204.7419     -7771037.1     -2495.2085     -2501.2152     -2496.29       -0.45679807     1.8271577      1.3179788      13313.498    
    115000   403.84985      0.0575         0.25100115     0.2520154      0.25133257    -2481.6157      563.80257      563.80257      563.80257      1.7921781e+08  2.2410508     -7763660.2     -7763660.2      1202.5959     -7762457.6     -2477.1888     -2487.1986     -2480.4596      0.54172174     1.8402314     -0.15774073     13288.966    
    116000   402.89786      0.058          0.24922131     0.24994771     0.24948412    -2462.8773      564.06915      564.06915      564.06915      1.7947214e+08  2.237875      -7755127.5     -7755127.5      1199.761      -7753927.7     -2459.623      -2466.7921     -2462.2168      1.3212937      2.0560311     -3.3297604      13291.277    
    117000   401.79846      0.0585         0.24751135     0.24743159     0.24759434    -2442.7577      564.33572      564.33572      564.33572      1.7972671e+08  2.2347052     -7746660.6     -7746660.6      1196.4872     -7745464.1     -2442.7471     -2441.9599     -2443.5661      0.10043902     0.83184093    -3.5947905      13285.096    
    118000   400.79128      0.059          0.24582186     0.24513189     0.24586072    -2423.9311      564.60229      564.60229      564.60229      1.7998152e+08  2.2315414     -7738259.4     -7738259.4      1193.488      -7737066       -2426.0731     -2419.2636     -2426.4567     -1.0413553     -0.11223517    -0.24844348     13309.387    
    119000   399.50208      0.0595         0.2440188      0.24352554     0.24431963    -2407.6453      564.86887      564.86887      564.86887      1.8023657e+08  2.2283835     -7729905.5     -7729905.5      1189.649      -7728715.8     -2408.2783     -2403.4102     -2411.2473     -1.1329646     -0.46671445     4.4669547      13300.5      
    120000   398.21716      0.06           0.24201473     0.24231575     0.24279587    -2392.0597      565.13544      565.13544      565.13544      1.8049186e+08  2.2252317     -7721592.1     -7721592.1      1185.8227     -7720406.3     -2388.4997     -2391.4705     -2396.2089     -1.2742664      0.39316999     7.6101635      13297.369    
    121000   397.15783      0.0605         0.24021512     0.24113476     0.2415476     -2378.1478      565.40201      565.40201      565.40201      1.807474e+08   2.2220857     -7713327       -7713327        1182.6682     -7712144.3     -2370.7389     -2379.815      -2383.8894     -0.8026957      1.638476       7.7214734      12862.656    
    122000   396.02726      0.061          0.239079       0.23983518     0.24046879    -2366.586       565.66859      565.66859      565.66859      1.8100317e+08  2.2189457     -7705104.6     -7705104.6      1179.3016     -7703925.3     -2359.5263     -2366.9892     -2373.2424      0.17496034     1.4781944      4.5618498      13295.84     
    123000   394.65947      0.0615         0.23812661     0.2384354      0.23883412    -2353.4703      565.93516      565.93516      565.93516      1.8125919e+08  2.2158116     -7696913.4     -7696913.4      1175.2285     -7695738.2     -2350.127      -2353.1744     -2357.1095      0.27010623     0.93299739     1.4913846      13297.365    
    124000   393.10846      0.062          0.23660944     0.23700037     0.23692191    -2337.4676      566.20173      566.20173      566.20173      1.8151545e+08  2.2126834     -7688756.8     -7688756.8      1170.6099     -7687586.2     -2335.1536     -2339.0118     -2338.2374      0.097715628    0.67086181     0.8451168      13282.063    
    125000   391.7993       0.0625         0.23466219     0.23529615     0.23513095    -2319.5634      566.46831      566.46831      566.46831      1.8177194e+08  2.2095611     -7680659.7     -7680659.7      1166.7114     -7679493       -2315.9357     -2322.1924     -2320.5621      0.98748114    -0.092988129    0.80931771     13296.583    
    126000   390.94353      0.063          0.23290025     0.23335036     0.23342131    -2301.7417      566.73488      566.73488      566.73488      1.8202868e+08  2.2064446     -7672623       -7672623        1164.1631     -7671458.9     -2298.5468     -2302.989      -2303.6892      2.8971705     -2.5825389      0.60148591     13327.901    
    127000   390.09653      0.0635         0.23132848     0.23165683     0.2317399     -2285.4683      567.00145      567.00145      567.00145      1.8228567e+08  2.203334      -7664631       -7664631        1161.6408     -7663469.4     -2283.0346     -2286.2752     -2287.095       2.5196394     -3.9364408      1.7109131      13328.452    
    128000   388.62256      0.064          0.22994656     0.23011023     0.23031935    -2271.1609      567.26803      567.26803      567.26803      1.8254289e+08  2.2002293     -7656672.9     -7656672.9      1157.2516     -7655515.6     -2269.3961     -2271.0114     -2273.0753     -1.4327624     -2.0404855      2.2273576      13181.696    
    129000   386.36449      0.0645         0.22851973     0.22845839     0.22914145    -2257.1579      567.5346       567.5346       567.5346       1.8280035e+08  2.1971304     -7648753.1     -7648753.1      1150.5275     -7647602.5     -2255.3143     -2254.709      -2261.4503     -5.9002851      0.77831957     1.3175882      13285.031    
    130000   384.49378      0.065          0.2269429      0.22663035     0.22772279    -2241.2897      567.80117      567.80117      567.80117      1.8305806e+08  2.1940373     -7640879.9     -7640879.9      1144.9568     -7639734.9     -2239.7523     -2236.6677     -2247.4492     -8.7454831      2.5602348      0.51336906     13286.953    
    131000   383.31149      0.0655         0.22541003     0.22485068     0.22619217    -2225.357       568.06775      568.06775      568.06775      1.8331601e+08  2.19095       -7633058.2     -7633058.2      1141.4362     -7631916.8     -2224.6241     -2219.1036     -2232.3432     -8.3893532      1.8499412      0.73349406     13300.985    
    132000   382.50435      0.066          0.223998       0.223291       0.22456326    -2210.2221      568.33432      568.33432      568.33432      1.835742e+08   2.1878685     -7625284.1     -7625284.1      1139.0326     -7624145.1     -2210.6883     -2203.7108     -2216.2671     -6.3366439     -0.50897478     2.5329839      13285.143    
    133000   382.49399      0.0665         0.22232256     0.22191094     0.22293683    -2194.8198      568.60089      568.60089      568.60089      1.8383264e+08  2.1847927     -7617566.2     -7617566.2      1139.0018     -7616427.2     -2194.1531     -2190.0907     -2200.2155     -3.2314431     -2.49994        4.3128695      13281.88     
    134000   382.61215      0.067          0.22066952     0.22117865     0.22172452    -2182.9844      568.86747      568.86747      568.86747      1.8409131e+08  2.1817228     -7609895.4     -7609895.4      1139.3536     -7608756       -2177.8388     -2182.8636     -2188.2508     -0.72483392    -5.6420544      3.657285       13303.524    
    135000   381.35658      0.0675         0.21950464     0.22077908     0.22088466    -2175.0749      569.13404      569.13404      569.13404      1.8435023e+08  2.1786586     -7602244       -7602244        1135.6148     -7601108.4     -2166.3423     -2178.9202     -2179.9621      0.10587368    -7.5683953      0.16968117     13300.797    
    136000   379.27602      0.068          0.21845304     0.21955382     0.2196853     -2163.639       569.40061      569.40061      569.40061      1.8460939e+08  2.1756001     -7594604       -7594604        1129.4192     -7593474.6     -2155.9639     -2166.8277     -2168.1253     -0.24322639    -5.8522471     -3.4637886      13307.38     
    137000   377.65372      0.0685         0.2169673      0.21746499     0.21787501    -2145.9242      569.66719      569.66719      569.66719      1.848688e+08   2.1725473     -7587004.3     -7587004.3      1124.5883     -7585879.7     -2141.3007     -2146.2126     -2150.2592     -3.0803869     -2.8374021     -5.1489133      13295.374    
    138000   376.26016      0.069          0.21525467     0.21532556     0.21600098    -2127.0868      569.93376      569.93376      569.93376      1.8512844e+08  2.1695003     -7579468.8     -7579468.8      1120.4385     -7578348.3     -2124.3984     -2125.098      -2131.764      -5.9256166     -1.6637285     -4.305342       13318.597    
    139000   374.69143      0.0695         0.21382847     0.21367158     0.21444828    -2111.8458      570.20033      570.20033      570.20033      1.8538833e+08  2.1664589     -7571992.6     -7571992.6      1115.7671     -7570876.9     -2110.3229     -2108.7746     -2116.4399     -4.5086037     -1.38105       -1.7093753      13309.463    
    140000   372.84946      0.07           0.21289565     0.21264176     0.21340404    -2101.954       570.46691      570.46691      570.46691      1.8564847e+08  2.1634232     -7564549.1     -7564549.1      1110.282      -7563438.8     -2101.1167     -2098.611      -2106.1342     -1.117507      -1.8633612      0.94017187     13303.606    
    141000   370.9997       0.0705         0.2122681      0.21201967     0.21260408    -2095.2113      570.73348      570.73348      570.73348      1.8590884e+08  2.1603932     -7557114       -7557114        1104.7738     -7556009.2     -2094.9233     -2092.4715     -2098.2391     -0.61750712    -5.1180113      2.5534327      13300.393    
    142000   370.00055      0.071          0.21128844     0.21139625     0.21140534    -2085.994       571.00005      571.00005      571.00005      1.8616946e+08  2.1573689     -7549692.4     -7549692.4      1101.7985     -7548590.6     -2085.2548     -2086.3188     -2086.4085     -3.1008067     -8.8772192      1.1265382      13320.139    
    143000   369.90906      0.0715         0.20985435     0.21037448     0.20994905    -2073.1241      571.26663      571.26663      571.26663      1.8643033e+08  2.1543502     -7542304.3     -7542304.3      1101.526      -7541202.8     -2071.1014     -2076.2347     -2072.036      -5.1921039     -9.2543823     -3.2287399      13289.188    
    144000   370.00051      0.072          0.20800291     0.20856973     0.20842883    -2056.095       571.5332       571.5332       571.5332       1.8669143e+08  2.1513371     -7534973.3     -7534973.3      1101.7983     -7533871.5     -2052.8291     -2058.4232     -2057.0326     -6.3254424     -5.3507578     -6.189352       13311.238    
    145000   369.69846      0.0725         0.20596051     0.2063862      0.20683805    -2036.9595      571.79977      571.79977      571.79977      1.8695278e+08  2.1483296     -7527712       -7527712        1100.8989     -7526611.1     -2032.6722     -2036.8734     -2041.3328     -7.2720865     -1.119776      -6.0476162      13026.066    
    146000   368.40364      0.073          0.20445326     0.20467275     0.20545647    -2021.8191      572.06635      572.06635      572.06635      1.8721438e+08  2.1453278     -7520504.9     -7520504.9      1097.0431     -7519407.8     -2017.7968     -2019.963      -2027.6977     -7.227052       0.36128378    -3.9831549      13276.143    
    147000   366.15582      0.0735         0.20361638     0.2037232      0.20437745    -2012.3926      572.33292      572.33292      572.33292      1.8747622e+08  2.1423315     -7513317.2     -7513317.2      1090.3495     -7512226.9     -2009.5375     -2010.5917     -2017.0486     -5.040916      -0.7129656     -2.1310422      13252.226    
    148000   363.81838      0.074          0.20304175     0.20332021     0.20337273    -2005.8712      572.59949      572.59949      572.59949      1.877383e+08   2.1393408     -7506137       -7506137        1083.389      -7505053.6     -2003.8663     -2006.6145     -2007.1328     -2.7586051     -3.9969713     -1.7002186      13292.204    
    149000   362.28518      0.0745         0.20223511     0.20280652     0.20252435    -1998.7367      572.86607      572.86607      572.86607      1.8800063e+08  2.1363557     -7498976.8     -7498976.8      1078.8234     -7497898       -1995.9054     -2001.5447     -1998.7599     -2.3100108     -8.8282996     -2.1586787      13317.251    
    150000   361.61574      0.075          0.20134023     0.2017718      0.20194335    -1990.4774      573.13264      573.13264      573.13264      1.882632e+08   2.1333761     -7491842.8     -7491842.8      1076.8299     -7490766       -1987.0735     -1991.3328     -1993.0259     -4.4560959     -11.657661     -1.8788464      13030.129    
    151000   361.31342      0.0755         0.20025705     0.20019229     0.20087734    -1978.211       573.39921      573.39921      573.39921      1.8852601e+08  2.1304021     -7484739.7     -7484739.7      1075.9297     -7483663.8     -1976.3834     -1975.7443     -1982.5053     -7.6903509     -10.8391       -1.2917898      13284.759    
    152000   360.62525      0.076          0.19895202     0.19872481     0.1991151     -1963.2928      573.66579      573.66579      573.66579      1.8878907e+08  2.1274336     -7477671.5     -7477671.5      1073.8804     -7476597.6     -1963.5038     -1961.2614     -1965.1132     -8.4491648     -6.3968383     -1.7561483      13298.616    
    153000   359.19427      0.0765         0.19761109     0.19776442     0.1973787     -1950.0097      573.93236      573.93236      573.93236      1.8905237e+08  2.1244706     -7470641.8     -7470641.8      1069.6192     -7469572.2     -1950.2699     -1951.783      -1947.9763     -6.8019412     -1.9990184     -4.3304668      13325.587    
    154000   357.6666       0.077          0.19632546     0.19686314     0.19595252    -1938.1236      574.19893      574.19893      574.19893      1.8931592e+08  2.1215131     -7463648.2     -7463648.2      1065.0701     -7462583.1     -1937.5816     -1942.8881     -1933.901      -5.2832309     -1.1477453     -7.1900556      13310.577    
    155000   356.74235      0.0775         0.19508101     0.19594807     0.19499509    -1927.8696      574.46551      574.46551      574.46551      1.8957972e+08  2.1185611     -7456693.7     -7456693.7      1062.3178     -7455631.3     -1925.2999     -1933.8571     -1924.4519     -3.1968155     -2.4357679     -8.0628252      13276.235    
    156000   356.19087      0.078          0.1940497      0.19490564     0.19449892    -1919.4153      574.73208      574.73208      574.73208      1.8984376e+08  2.1156145     -7449772.1     -7449772.1      1060.6756     -7448711.4     -1915.1216     -1923.5691     -1919.5551     -0.86986239    -2.4380707     -6.008272       13290.164    
    157000   355.30984      0.0785         0.19354636     0.19392233     0.19418496    -1913.4917      574.99865      574.99865      574.99865      1.9010804e+08  2.1126735     -7442859.4     -7442859.4      1058.052      -7441801.3     -1910.154      -1913.8646     -1916.4566     -2.1025351     -2.7875379     -3.0976515      13285.354    
    158000   354.31407      0.079          0.19308295     0.19296614     0.19354555    -1906.7181      575.26523      575.26523      575.26523      1.9037257e+08  2.1097378     -7435951.2     -7435951.2      1055.0868     -7434896.1     -1905.5806     -1904.4277     -1910.1461     -7.0471042     -5.6311835     -1.7205495      13303.497    
    159000   353.76193      0.0795         0.19229471     0.19201185     0.19250176    -1897.5519      575.5318       575.5318       575.5318       1.9063734e+08  2.1068076     -7429067.6     -7429067.6      1053.4426     -7428014.1     -1897.8013     -1895.0097     -1899.8447     -10.069699     -7.5000423     -2.6029096      13282.714    
    160000   353.37155      0.08           0.19135515     0.19113869     0.19139392    -1887.9439      575.79837      575.79837      575.79837      1.9090236e+08  2.1038829     -7422217.5     -7422217.5      1052.2801     -7421165.2     -1888.5285     -1886.3922     -1888.9111     -9.6897486     -6.1836588     -3.6238909      13282.06     
    161000   352.5112       0.0805         0.19040555     0.19039167     0.19010086    -1878.1087      576.06495      576.06495      576.06495      1.9116763e+08  2.1009635     -7415400.4     -7415400.4      1049.7182     -7414350.7     -1879.1567     -1879.0197     -1876.1496     -7.4453406     -4.1651846     -4.6568317      13274.652    
    162000   351.44563      0.081          0.18907625     0.18946387     0.1886574     -1865.9348      576.33152      576.33152      576.33152      1.9143314e+08  2.0980496     -7408609.8     -7408609.8      1046.5451     -7407563.3     -1866.0375     -1869.8631     -1861.9038     -4.597892      -3.9873114     -4.8920582      13302.646    
    163000   350.55849      0.0815         0.18757094     0.1883145      0.187538      -1853.519       576.59809      576.59809      576.59809      1.9169889e+08  2.095141      -7401850.2     -7401850.2      1043.9033     -7400806.3     -1851.1813     -1858.5196     -1850.8561     -1.9482082     -4.5992629     -3.8786178      13279.325    
    164000   349.95109      0.082          0.18641394     0.18730808     0.18705577    -1844.8155      576.86467      576.86467      576.86467      1.919649e+08   2.0922378     -7395119.3     -7395119.3      1042.0946     -7394077.2     -1839.7625     -1848.587      -1846.0969     -1.6659953     -3.8541452     -2.7145853      13287.714    
    165000   349.20413      0.0825         0.18584999     0.18663902     0.18698315    -1840.5203      577.13124      577.13124      577.13124      1.9223114e+08  2.08934       -7388410       -7388410        1039.8703     -7387370.2     -1834.1968     -1841.984      -1845.3802     -3.8744541     -2.2493187     -2.6056917      13283.823    
    166000   348.1904       0.083          0.18534259     0.18610649     0.18654879    -1835.6703      577.39781      577.39781      577.39781      1.9249764e+08  2.0864475     -7381714.3     -7381714.3      1036.8516     -7380677.5     -1829.1892     -1836.7282     -1841.0934     -7.6912032     -2.2158778     -3.2572176      13293.69     
    167000   347.40991      0.0835         0.18457563     0.18556735     0.18543205    -1827.6998      577.66439      577.66439      577.66439      1.9276438e+08  2.0835603     -7375028.1     -7375028.1      1034.5274     -7373993.6     -1821.6198     -1831.4074     -1830.0721     -9.4848738     -3.6879604     -3.4051058      13299.864    
    168000   347.00962      0.084          0.18394338     0.18462467     0.18408108    -1818.0743      577.93096      577.93096      577.93096      1.9303136e+08  2.0806785     -7368359       -7368359        1033.3354     -7367325.7     -1815.38       -1822.1038     -1816.739      -7.9615874     -4.7392575     -3.0944887      13293.3      
    169000   346.43139      0.0845         0.18349214     0.18354824     0.18302948    -1809.5892      578.19753      578.19753      578.19753      1.932986e+08   2.077802      -7361716.9     -7361716.9      1031.6135     -7360685.3     -1810.9267     -1811.4803     -1806.3605     -5.6117126     -3.9776601     -3.6115334      13285.353    
    170000   345.64556      0.085          0.18277749     0.18270818     0.18235416    -1802.2529      578.46411      578.46411      578.46411      1.9356608e+08  2.0749308     -7355105.8     -7355105.8      1029.2735     -7354076.5     -1803.8736     -1803.1895     -1799.6957     -3.0723173     -1.6888888     -3.4384572      13276.37     
    171000   345.04592      0.0855         0.18192569     0.18219516     0.18173747    -1795.7342      578.73068      578.73068      578.73068      1.938338e+08   2.0720648     -7348510.9     -7348510.9      1027.4878     -7347483.4     -1795.4669     -1798.1264     -1793.6093     -2.1619619     -0.32535003    -2.3349975      13299.255    
    172000   344.76047      0.086          0.18120654     0.18160188     0.18115934    -1789.5148      578.99725      578.99725      578.99725      1.9410178e+08  2.0692042     -7341924.8     -7341924.8      1026.6378     -7340898.1     -1788.3695     -1792.2712     -1787.9037     -3.0957079      0.43415122    -0.35551288     13280.351    
    173000   344.29917      0.0865         0.18059403     0.18087151     0.18068761    -1783.5452      579.26383      579.26383      579.26383      1.9437e+08     2.0663488     -7335354.8     -7335354.8      1025.2641     -7334329.6     -1782.3245     -1785.063      -1783.248      -3.7738548      1.0759994     -0.21782513     13283.723    
    174000   343.21853      0.087          0.17973288     0.18026142     0.17996744    -1776.336       579.5304       579.5304       579.5304       1.9463846e+08  2.0634987     -7328807.3     -7328807.3      1022.0462     -7327785.2     -1773.8256     -1779.0419     -1776.1406     -3.0482875      0.88990066    -2.5173007      13180.203    
    175000   342.37702      0.0875         0.17853475     0.17944273     0.17887096    -1766.0941      579.79697      579.79697      579.79697      1.9490718e+08  2.0606538     -7322284       -7322284        1019.5403     -7321264.5     -1762.001      -1770.962      -1765.3192     -2.2765466      0.1353791     -5.6352633      13191.554    
    176000   341.99506      0.088          0.17749358     0.17849037     0.17789977    -1756.3409      580.06355      580.06355      580.06355      1.9517614e+08  2.0578141     -7315787       -7315787        1018.4029     -7314768.5     -1751.7254     -1761.563      -1755.7342     -2.6239669     -0.98276797    -7.5307158      13186.706    
    177000   341.72986      0.0885         0.17693472     0.17754331     0.17698631    -1748.3817      580.33012      580.33012      580.33012      1.9544535e+08  2.0549796     -7309314.5     -7309314.5      1017.6132     -7308296.9     -1746.2099     -1752.2162     -1746.7191     -3.6268049     -3.284226      -7.4197864      13203.4      
    178000   341.40235      0.089          0.17681427     0.17685335     0.17630063    -1743.46        580.59669      580.59669      580.59669      1.957148e+08   2.0521504     -7302865.9     -7302865.9      1016.6379     -7301849.3     -1745.0212     -1745.4068     -1739.9519     -5.6734256     -4.9043942     -4.8589379      13278.507    
    179000   340.82649      0.0895         0.17666871     0.17637044     0.17581676    -1739.8007      580.86327      580.86327      580.86327      1.9598451e+08  2.0493263     -7296424.9     -7296424.9      1014.9231     -7295410       -1743.5846     -1740.6409     -1735.1765     -5.8140369     -3.6637171     -1.336824       13298.566    
    180000   340.19916      0.09           0.17604577     0.1758596      0.17527735    -1734.2963      581.12984      581.12984      581.12984      1.9625446e+08  2.0465075     -7289987       -7289987        1013.055      -7288974       -1737.4366     -1735.5993     -1729.853      -4.5017298     -0.54112639     1.9116068      13302.838    
    181000   339.9181       0.0905         0.1747879      0.1751451      0.17468795    -1725.8688      581.39641      581.39641      581.39641      1.9652466e+08  2.0436937     -7283572.4     -7283572.4      1012.2181     -7282560.2     -1725.0225     -1728.5478     -1724.036      -4.1628099      1.3991105      2.2797618      13293.015    
    182000   339.91254      0.091          0.17337512     0.17434769     0.17419421    -1716.9735      581.66299      581.66299      581.66299      1.967951e+08   2.0408852     -7277187.8     -7277187.8      1012.2015     -7276175.6     -1711.0794     -1720.6779     -1719.1631     -4.263978       1.6631788      0.50406468     13301.582    
    183000   339.64744      0.0915         0.17266156     0.17362351     0.17350713    -1709.9834      581.92956      581.92956      581.92956      1.970658e+08   2.0380818     -7270817.7     -7270817.7      1011.4121     -7269806.3     -1704.0372     -1713.5308     -1712.3822     -4.5621537      0.83198266    -2.8953734      13285.407    
    184000   338.79124      0.092          0.17274385     0.17305557     0.17296516    -1706.6028      582.19613      582.19613      582.19613      1.9733674e+08  2.0352835     -7264456.4     -7264456.4      1008.8625     -7263447.5     -1704.8492     -1707.9257     -1707.0334     -3.3509377      0.47897016    -6.2714424      13301.92     
    185000   337.51481      0.0925         0.17253385     0.17250261     0.17251028    -1702.5964      582.46271      582.46271      582.46271      1.9760793e+08  2.0324903     -7258101.5     -7258101.5      1005.0615     -7257096.4     -1702.7767     -1702.4684     -1702.5441     -0.85680822     2.6570733     -6.2916295      13245.904    
    186000   336.80738      0.093          0.17150002     0.17183616     0.17152484    -1693.7611      582.72928      582.72928      582.72928      1.9787937e+08  2.0297023     -7251768.2     -7251768.2      1002.9549     -7250765.3     -1692.5736     -1695.8911     -1692.8186      0.76272        5.8765282     -2.4920236      13254.639    
    187000   337.063        0.0935         0.17029046     0.17102308     0.17015479    -1682.6         582.99585      582.99585      582.99585      1.9815106e+08  2.0269193     -7245471.2     -7245471.2      1003.716      -7244467.5     -1680.6361     -1687.8666     -1679.2972     -0.3791978      5.8047652     -0.60281044     13298.762    
    188000   337.18847      0.094          0.16955226     0.17012317     0.16931123    -1674.4359      583.26243      583.26243      583.26243      1.98423e+08    2.0241415     -7239205.9     -7239205.9      1004.0897     -7238201.8     -1673.3507     -1678.9852     -1670.9719     -3.198717       1.0411864     -1.0449007      13284.287    
    189000   336.92539      0.0945         0.1692394      0.16944887     0.16916087    -1670.6938      583.529        583.529        583.529        1.9869518e+08  2.0213687     -7232950       -7232950        1003.3063     -7231946.7     -1670.2631     -1672.3303     -1669.488      -5.3380831     -3.853286       0.85942501     13310.213    
    190000   336.75812      0.095          0.16913326     0.16925137     0.16896376    -1669.0464      583.79557      583.79557      583.79557      1.9896761e+08  2.0186009     -7226694.6     -7226694.6      1002.8082     -7225691.8     -1669.2155     -1670.3811     -1667.5426     -6.7686907     -5.2166964      2.8717076      13306.301    
    191000   336.36273      0.0955         0.16924535     0.16930492     0.16853543    -1668.1822      584.06215      584.06215      584.06215      1.992403e+08   2.0158382     -7220437.2     -7220437.2      1001.6308     -7219435.6     -1670.3217     -1670.9096     -1663.3154     -6.6703567     -4.1056705      1.6697071      13316.589    
    192000   335.32376      0.096          0.16915026     0.1689656      0.16781719    -1664.3903      584.32872      584.32872      584.32872      1.9951323e+08  2.0130806     -7214178.5     -7214178.5      998.53688     -7213179.9     -1669.3833     -1667.5608     -1656.2269     -5.2709068     -2.4742762     -0.413948       13286.847    
    193000   334.65791      0.0965         0.16801274     0.16793679     0.16680719    -1653.941       584.59529      584.59529      584.59529      1.9978641e+08  2.010328      -7207940.1     -7207940.1      996.55412     -7206943.6     -1658.1568     -1657.4072     -1646.259      -3.3425047      0.16084152    -1.0879309      13276.693    
    194000   334.71712      0.097          0.16628929     0.16666906     0.16624119    -1642.2388      584.86187      584.86187      584.86187      2.0005984e+08  2.0075804     -7201743.2     -7201743.2      996.73043     -7200746.5     -1641.1477     -1644.8958     -1640.673      -1.4785376      3.1590945     -1.2372039      13292.477    
    195000   334.47355      0.0975         0.16511484     0.16576444     0.16604655    -1634.7589      585.12844      585.12844      585.12844      2.0033352e+08  2.0048378     -7195577.4     -7195577.4      996.00513     -7194581.4     -1629.5568     -1635.9678     -1638.752      -0.34106921     4.7279136     -1.129056       13300.851    
    196000   333.99551      0.098          0.16473065     0.16523813     0.16546088    -1629.8369      585.39501      585.39501      585.39501      2.0060745e+08  2.0021002     -7189425.6     -7189425.6      994.58161     -7188431       -1625.7651     -1630.7736     -1632.9719     -1.1183713      4.9648342     -1.6474631      13323.149    
    197000   333.97474      0.0985         0.16484294     0.16485273     0.16461724    -1626.163       585.66159      585.66159      585.66159      2.0088163e+08  1.9993676     -7183280.6     -7183280.6      994.51975     -7182286.1     -1626.8733     -1626.9699     -1624.6459     -4.0180778      4.5759723     -3.135764       13304.389    
    198000   334.24157      0.099          0.16492561     0.16462037     0.16396797    -1623.5347      585.92816      585.92816      585.92816      2.0115606e+08  1.9966399     -7177142.7     -7177142.7      995.31431     -7176147.4     -1627.6892     -1624.6767     -1618.238      -6.5811791      3.0227752     -3.7912646      13324.248    
    199000   334.03663      0.0995         0.16464526     0.16476926     0.16370873    -1622.2494      586.19473      586.19473      586.19473      2.0143073e+08  1.9939172     -7171005.6     -7171005.6      994.70404     -7170010.9     -1624.9223     -1626.1462     -1615.6796     -7.0610811      0.3835409     -3.0613803      13308.266    
    200000   333.5347       0.1            0.16398594     0.16466284     0.16322515    -1618.1394      586.46131      586.46131      586.46131      2.0170566e+08  1.9911995     -7164873.5     -7164873.5      993.20937     -7163880.3     -1618.4154     -1625.0959     -1610.907      -5.95919       -1.6968582     -0.43937948     12549.618    
    201000   333.43347      0.1005         0.1632113      0.16368196     0.16237238    -1609.5588      586.72788      586.72788      586.72788      2.0198084e+08  1.9884867     -7158762.3     -7158762.3      992.90794     -7157769.4     -1610.7703     -1615.4154     -1602.4908     -4.5285895     -1.9012706      2.4050511      13245.732    
    202000   333.4587       0.101          0.16252762     0.16246469     0.16170698    -1601.1162      586.99445      586.99445      586.99445      2.0225627e+08  1.9857788     -7152679.5     -7152679.5      992.98306     -7151686.5     -1604.0229     -1603.4018     -1595.9238     -3.2384675     -0.27159229     1.5461168      13266.859    
    203000   332.72729      0.1015         0.1619083      0.16166703     0.16141393    -1595.4906      587.26103      587.26103      587.26103      2.0253195e+08  1.9830758     -7146615.3     -7146615.3      990.80505     -7145624.5     -1597.9107     -1595.5295     -1593.0316     -2.3723493      2.1524028     -1.3133734      13276.948    
    204000   331.78091      0.102          0.16115327     0.16114588     0.1610024     -1589.9385      587.5276       587.5276       587.5276       2.0280788e+08  1.9803778     -7140557.3     -7140557.3      987.9869      -7139569.3     -1590.4591     -1590.3862     -1588.9702     -2.8698205      3.0833659     -2.3791537      13266.638    
    205000   331.66589      0.1025         0.16024995     0.16078692     0.16033789    -1583.5998      587.79417      587.79417      587.79417      2.0308406e+08  1.9776846     -7134515.8     -7134515.8      987.64438     -7133528.1     -1581.544      -1586.8435     -1582.412      -2.5870262      3.6350758     -0.42016823     13262.959    
    206000   332.07341      0.103          0.15976346     0.16041336     0.15991343    -1579.3741      588.06075      588.06075      588.06075      2.0336049e+08  1.9749963     -7128494       -7128494        988.8579      -7127505.1     -1576.7427     -1583.1567     -1578.2228     -0.63398996     5.2067033      2.1882326      13263.781    
    207000   332.10112      0.1035         0.15981636     0.15997213     0.15985045    -1577.8894      588.32732      588.32732      588.32732      2.0363717e+08  1.9723129     -7122480.4     -7122480.4      988.94043     -7121491.5     -1577.2649     -1578.8021     -1577.6013     -0.29936782     4.9783273      2.3235945      13234.833    
    208000   331.80936      0.104          0.15978733     0.15947532     0.1596053     -1575.353       588.59389      588.59389      588.59389      2.039141e+08   1.9696343     -7116465.9     -7116465.9      988.07163     -7115477.8     -1576.9783     -1573.899      -1575.1818     -2.1740876      3.1089031      0.92763381     13183.589    
    209000   331.72676      0.1045         0.15933705     0.15896106     0.15877006    -1569.4323      588.86047      588.86047      588.86047      2.0419128e+08  1.9669606     -7110464.4     -7110464.4      987.82564     -7109476.6     -1572.5345     -1568.8237     -1566.9387     -4.6868734      1.9532396      0.22495445     13168.978    
    210000   331.93011      0.105          0.1585817      0.15834884     0.15754442    -1560.9012      589.12704      589.12704      589.12704      2.0446872e+08  1.9642917     -7104483       -7104483        988.4312      -7103494.6     -1565.0797     -1562.7815     -1554.8425     -6.4544953      1.7291986      0.0094149383   13173.195    
    211000   332.13065      0.1055         0.15782166     0.15783864     0.15642561    -1553.0419      589.39361      589.39361      589.39361      2.047464e+08   1.9616277     -7098523.3     -7098523.3      989.02837     -7097534.3     -1557.5787     -1557.7463     -1543.8007     -5.0269901      0.66945769    -0.30357176     13216.184    
    212000   331.66877      0.106          0.15721694     0.15762753     0.15605103    -1549.1257      589.66019      589.66019      589.66019      2.0502434e+08  1.9589685     -7092581.5     -7092581.5      987.65295     -7091593.9     -1551.6106     -1555.6627     -1540.1039     -2.2660156     -0.051776274   -1.4337108      13258.348    
    213000   330.94892      0.1065         0.15671447     0.15721581     0.1560144     -1545.9978      589.92676      589.92676      589.92676      2.0530252e+08  1.956314      -7086652.6     -7086652.6      985.50938     -7085667.1     -1546.6516     -1551.5994     -1539.7424     -1.2429575     -0.49595467    -1.6057805      13268.576    
    214000   331.09715      0.107          0.15618224     0.15644805     0.15573279    -1540.7947      590.19333      590.19333      590.19333      2.0558096e+08  1.9536644     -7080740.5     -7080740.5      985.95078     -7079754.6     -1541.3989     -1544.0222     -1536.9631     -1.691055      -0.25341847     0.66502974     13271.665    
    215000   331.31414      0.1075         0.15573842     0.15598434     0.15546687    -1536.9344      590.45991      590.45991      590.45991      2.0585965e+08  1.9510195     -7074839.2     -7074839.2      986.59695     -7073852.6     -1537.0187     -1539.4458     -1534.3387     -2.5283415      2.0702124      3.5288448      13275.044    
    216000   330.70682      0.108          0.15543425     0.15590894     0.15527191    -1535.0443      590.72648      590.72648      590.72648      2.061386e+08   1.9483795     -7068932.7     -7068932.7      984.78844     -7067948       -1534.0168     -1538.7016     -1532.4146     -3.1526255      5.1874168      4.490424       13290.807    
    217000   330.43222      0.1085         0.15515406     0.15564835     0.15474833    -1531.5429      590.99305      590.99305      590.99305      2.0641779e+08  1.9457441     -7063027.1     -7063027.1      983.97072     -7062043.1     -1531.2516     -1536.1297     -1527.2473     -2.8750743      6.5700664      2.7059561      13273.686    
[...]
   2945000   320.07519      1.4725         0.0043868897   0.0041623641   0.0037064161  -40.318019      1318.2051      1318.2051      1318.2051      2.2905983e+09  0.17534118    -1562851.7     -1562851.7      953.12925     -1561898.6     -43.295235     -41.07934      -36.579483     -0.74354555     1.5048125      2.0032451      11729.033    
   2946000   320.0703       1.473          0.0043867592   0.0041649861   0.0037028559  -40.314504      1318.4716      1318.4716      1318.4716      2.2919882e+09  0.17523485    -1562161.1     -1562161.1      953.11471     -1561208       -43.293948     -41.105217     -36.544346     -0.79243781     1.5019042      1.9466539      11739.832    
   2947000   320.0616       1.4735         0.0043820403   0.0041623953   0.003698711   -40.276821      1318.7382      1318.7382      1318.7382      2.2933787e+09  0.1751286     -1561470.4     -1561470.4      953.08878     -1560517.3     -43.247376     -41.079648     -36.503439     -0.79171399     1.5050796      1.8895777      11745.027    
   2948000   320.04718      1.474          0.0043723585   0.0041560776   0.003695313   -40.213008      1319.0048      1319.0048      1319.0048      2.2947698e+09  0.17502244    -1560780.4     -1560780.4      953.04586     -1559827.3     -43.151824     -41.017297     -36.469904     -0.74268313     1.4987091      1.858531       11681.626    
   2949000   320.01545      1.4745         0.0043597363   0.00414913     0.0036934337  -40.142446      1319.2714      1319.2714      1319.2714      2.2961614e+09  0.17491637    -1560091.5     -1560091.5      952.95136     -1559138.6     -43.027252     -40.948729     -36.451357     -0.67512662     1.489481       1.8557147      11598.068    
   2950000   319.96051      1.475          0.0043475706   0.0041435345   0.0036928294  -40.082028      1319.5379      1319.5379      1319.5379      2.2975536e+09  0.17481038    -1559403.7     -1559403.7      952.78775     -1558450.9     -42.907186     -40.893506     -36.445393     -0.61708551     1.487482       1.8551063      11292.864    
   2951000   319.8893       1.4755         0.0043369857   0.0041396246   0.0036916446  -40.030446      1319.8045      1319.8045      1319.8045      2.2989463e+09  0.17470448    -1558716.6     -1558716.6      952.57572     -1557764.1     -42.802721     -40.854918     -36.4337       -0.58636796     1.4880387      1.8528339      11486.027    
   2952000   319.82431      1.476          0.0043272313   0.0041341688   0.0036875052  -39.966791      1320.0711      1320.0711      1320.0711      2.3003396e+09  0.17459866    -1558030.2     -1558030.2      952.38217     -1557077.8     -42.706453     -40.801074     -36.392847     -0.58159001     1.4874815      1.8496655      11498.103    
   2953000   319.79862      1.4765         0.0043203173   0.004127064    0.0036811048  -39.899617      1320.3377      1320.3377      1320.3377      2.3017335e+09  0.17449293    -1557344.8     -1557344.8      952.30569     -1556392.5     -42.638216     -40.730955     -36.32968      -0.58230594     1.4874352      1.8565969      11488.649    
   2954000   319.82114      1.477          0.0043195224   0.0041208827   0.0036758684  -39.859441      1320.6042      1320.6042      1320.6042      2.3031279e+09  0.17438728    -1556660.3     -1556660.3      952.37273     -1555707.9     -42.630371     -40.66995      -36.278001     -0.57826907     1.4856969      1.8853993      11498.462    
   2955000   319.87634      1.4775         0.0043277659   0.0041175167   0.003673317   -39.867093      1320.8708      1320.8708      1320.8708      2.3045229e+09  0.17428172    -1555975.8     -1555975.8      952.53713     -1555023.3     -42.711729     -40.63673      -36.252821     -0.57997188     1.4776384      1.9320227      11497.616    
   2956000   319.94552      1.478          0.004342426    0.0041166479   0.0036711138  -39.905215      1321.1374      1321.1374      1321.1374      2.3059184e+09  0.17417624    -1555290.5     -1555290.5      952.74311     -1554337.7     -42.856412     -40.628156     -36.231077     -0.58618185     1.461635       1.9803463      11516.936    
   2957000   320.00675      1.4785         0.0043524293   0.0041161665   0.0036659056  -39.919406      1321.404       1321.404       1321.404       2.3073145e+09  0.17407085    -1554604       -1554604        952.92545     -1553651.1     -42.955138     -40.623404     -36.179676     -0.58812913     1.4483402      2.0115564      11440.293    
   2958000   320.043        1.479          0.0043481354   0.0041116458   0.0036558251  -39.857246      1321.6705      1321.6705      1321.6705      2.3087112e+09  0.17396555    -1553917.7     -1553917.7      953.03341     -1552964.7     -42.91276      -40.578789     -36.080189     -0.57915776     1.4415059      2.0205502      11425.85     
   2959000   320.04245      1.4795         0.0043305619   0.0041048584   0.0036453614  -39.742682      1321.9371      1321.9371      1321.9371      2.3101085e+09  0.17386032    -1553233.2     -1553233.2      953.03176     -1552280.2     -42.739323     -40.511803     -35.97692      -0.54966203     1.4391729      2.0300859      11432.189    
   2960000   320.01027      1.48           0.0043082066   0.0041007088   0.003636783   -39.627267      1322.2037      1322.2037      1322.2037      2.3115063e+09  0.17375519    -1552550.9     -1552550.9      952.93593     -1551597.9     -42.518693     -40.47085      -35.892258     -0.5025006      1.4425909      2.040048       11428.303    
   2961000   319.97836      1.4805         0.004290535    0.0040992148   0.00363125    -39.546015      1322.4702      1322.4702      1322.4702      2.3129046e+09  0.17365014    -1551870.4     -1551870.4      952.84091     -1550917.6     -42.344288     -40.456105     -35.837651     -0.45791539     1.456143       2.0297227      11384.933    
   2962000   319.97402      1.481          0.0042837296   0.0041001818   0.003629374   -39.520636      1322.7368      1322.7368      1322.7368      2.3143036e+09  0.17354517    -1551190.7     -1551190.7      952.82798     -1550237.9     -42.277125     -40.465648     -35.819136     -0.42742156     1.4756737      1.9970356      11352.782    
   2963000   320.00137      1.4815         0.0042855591   0.0041034482   0.0036305366  -39.541225      1323.0034      1323.0034      1323.0034      2.3157031e+09  0.17344029    -1550510.7     -1550510.7      952.90945     -1549557.7     -42.29518      -40.497885     -35.83061      -0.4060512      1.495193       1.9610722      11359.306    
   2964000   320.03826      1.482          0.0042916106   0.004105158    0.0036335195  -39.576571      1323.27        1323.27        1323.27        2.3171031e+09  0.17333549    -1549829.5     -1549829.5      953.01928     -1548876.5     -42.354903     -40.51476      -35.860049     -0.39983212     1.5031007      1.9476117      11368.076    
   2965000   320.05986      1.4825         0.0042974689   0.0041031821   0.0036362371  -39.598283      1323.5365      1323.5365      1323.5365      2.3185038e+09  0.17323078    -1549147.4     -1549147.4      953.08362     -1548194.3     -42.41272      -40.495258     -35.88687      -0.39599928     1.4947356      1.9506131      11424.437    
   2966000   320.04566      1.483          0.0042999299   0.0040958058   0.0036370248  -39.584704      1323.8031      1323.8031      1323.8031      2.319905e+09   0.17312615    -1548464.7     -1548464.7      953.04133     -1547511.7     -42.437008     -40.422461     -35.894644     -0.37503175     1.4733925      1.939921       11414.27     
   2967000   319.98471      1.4835         0.0042978226   0.0040843096   0.0036357542  -39.535772      1324.0697      1324.0697      1324.0697      2.3213067e+09  0.1730216     -1547782.4     -1547782.4      952.85982     -1546829.6     -42.416211     -40.309001     -35.882105     -0.34041809     1.4533879      1.8997919      11356.041    
   2968000   319.88477      1.484          0.004291007    0.0040704308   0.0036342522  -39.462752      1324.3363      1324.3363      1324.3363      2.322709e+09   0.17291714    -1547100.9     -1547100.9      952.56223     -1546148.3     -42.348947     -40.172028     -35.867281     -0.33019626     1.4459831      1.8564219      11352.82     
   2969000   319.77431      1.4845         0.0042815576   0.0040566984   0.003634025   -39.385742      1324.6028      1324.6028      1324.6028      2.3241119e+09  0.17281277    -1546420.3     -1546420.3      952.2333      -1545468       -42.255688     -40.0365       -35.865038     -0.36289937     1.4398357      1.8412716      11358.083    
   2970000   319.69176      1.485          0.0042730442   0.0040462156   0.0036315753  -39.315191      1324.8694      1324.8694      1324.8694      2.3255154e+09  0.17270847    -1545740.5     -1545740.5      951.98747     -1544788.5     -42.171667     -39.933043     -35.840861     -0.42605851     1.4208512      1.8556866      11432.358    
   2971000   319.66824      1.4855         0.0042686219   0.0040419205   0.0036240323  -39.261698      1325.136       1325.136       1325.136       2.3269194e+09  0.17260426    -1545061.8     -1545061.8      951.91742     -1544109.9     -42.128023     -39.890654     -35.766418     -0.49234028     1.3932997      1.8837633      11498.744    
   2972000   319.70666      1.486          0.0042685365   0.0040441352   0.0036145089  -39.237374      1325.4026      1325.4026      1325.4026      2.328324e+09   0.17250014    -1544383.8     -1544383.8      952.03185     -1543431.8     -42.12718      -39.912512     -35.672429     -0.5426575      1.3667721      1.9059451      11579.202    
   2973000   319.78348      1.4865         0.004270851    0.0040483351   0.0036093627  -39.241874      1325.6691      1325.6691      1325.6691      2.3297291e+09  0.1723961     -1543705.9     -1543705.9      952.26058     -1542753.6     -42.150022     -39.953961     -35.62164      -0.56294108     1.3568456      1.9134216      11564.302    
   2974000   319.86911      1.487          0.0042737857   0.0040515453   0.0036105337  -39.265942      1325.9357      1325.9357      1325.9357      2.3311348e+09  0.17229214    -1543027.5     -1543027.5      952.51558     -1542075       -42.178985     -39.985644     -35.633198     -0.57439509     1.381713       1.9046964      11529.384    
   2975000   319.94661      1.4875         0.0042760697   0.0040514307   0.0036144005  -39.285799      1326.2023      1326.2023      1326.2023      2.3325411e+09  0.17218827    -1542348.4     -1542348.4      952.74637     -1541395.6     -42.201526     -39.984512     -35.671359     -0.59577522     1.4327623      1.882812       11597.89     
   2976000   320.01335      1.488          0.0042778334   0.0040477316   0.00361907    -39.294794      1326.4688      1326.4688      1326.4688      2.3339479e+09  0.17208448    -1541668.7     -1541668.7      952.94511     -1540715.8     -42.218933     -39.948005     -35.717444     -0.60681361     1.4853375      1.8621346      11591.988    
   2977000   320.06334      1.4885         0.0042788874   0.0040430868   0.0036218799  -39.292225      1326.7354      1326.7354      1326.7354      2.3353553e+09  0.17198077    -1540988.7     -1540988.7      953.09399     -1540035.6     -42.229335     -39.902164     -35.745175     -0.59142117     1.5273456      1.8474949      11559.6      
   2978000   320.08407      1.489          0.0042777485   0.0040406083   0.0036206586  -39.276307      1327.002       1327.002       1327.002       2.3367633e+09  0.17187715    -1540308.6     -1540308.6      953.1557      -1539355.5     -42.218095     -39.877703     -35.733122     -0.55370474     1.5481312      1.831557       11571.269    
   2979000   320.06651      1.4895         0.0042737129   0.0040425387   0.003616654   -39.256207      1327.2686      1327.2686      1327.2686      2.3381718e+09  0.17177361    -1539628.4     -1539628.4      953.10341     -1538675.2     -42.178267     -39.896755     -35.6936       -0.51327123     1.5403133      1.8210029      11579.127    
   2980000   320.01819      1.49           0.0042657252   0.0040474795   0.0036105893  -39.226233      1327.5351      1327.5351      1327.5351      2.3395809e+09  0.17167015    -1538948       -1538948        952.95953     -1537995       -42.099434     -39.945517     -35.633746     -0.4916994      1.5067669      1.8287984      11534.659    
   2981000   319.96464      1.4905         0.0042541555   0.004049069    0.0036001733  -39.159134      1327.8017      1327.8017      1327.8017      2.3409906e+09  0.17156677    -1538268.2     -1538268.2      952.80005     -1537315.4     -41.985251     -39.961204     -35.530948     -0.49029423     1.4585591      1.8477382      11540.088    
   2982000   319.9313       1.491          0.0042420112   0.0040437173   0.0035873962  -39.059544      1328.0683      1328.0683      1328.0683      2.3424009e+09  0.17146348    -1537590.1     -1537590.1      952.70079     -1536637.4     -41.865395     -39.908387     -35.404848     -0.50669552     1.4099094      1.8739236      11540.737    
   2983000   319.9148       1.4915         0.0042339308   0.0040351152   0.0035778093  -38.973124      1328.3349      1328.3349      1328.3349      2.3438117e+09  0.17136027    -1536913.8     -1536913.8      952.65163     -1535961.1     -41.785648     -39.823491     -35.310233     -0.52911024     1.3843583      1.9049666      11535.987    
   2984000   319.8873       1.492          0.0042331272   0.0040281849   0.0035746127  -38.937165      1328.6014      1328.6014      1328.6014      2.345223e+09   0.17125715    -1536238.3     -1536238.3      952.56976     -1535285.7     -41.777717     -39.755094     -35.278684     -0.53999173     1.3857331      1.9247987      11489.242    
   2985000   319.83115      1.4925         0.0042370734   0.0040229177   0.0035746707  -38.933011      1328.868       1328.868       1328.868       2.346635e+09   0.17115411    -1535562.6     -1535562.6      952.40254     -1534610.2     -41.816664     -39.703111     -35.279257     -0.53882248     1.4014574      1.9355867      11495.618    
   2986000   319.75173      1.493          0.0042386583   0.0040169871   0.0035748196  -38.919204      1329.1346      1329.1346      1329.1346      2.3480475e+09  0.17105115    -1534886.5     -1534886.5      952.16604     -1533934.4     -41.832305     -39.64458      -35.280726     -0.54838827     1.4262106      1.9505786      11434.978    
   2987000   319.66299      1.4935         0.0042337566   0.0040085374   0.0035741007  -38.872916      1329.4012      1329.4012      1329.4012      2.3494605e+09  0.17094827    -1534210.4     -1534210.4      951.9018      -1533258.5     -41.783928     -39.561188     -35.273631     -0.5836303      1.4501308      1.969835       11394.741    
   2988000   319.5653       1.494          0.0042233229   0.004000123    0.0035711972  -38.801359      1329.6677      1329.6677      1329.6677      2.3508742e+09  0.17084547    -1533535       -1533535        951.61091     -1532583.4     -41.680956     -39.478145     -35.244976     -0.64126355     1.4660995      1.9735081      11353.332    
   2989000   319.46505      1.4945         0.0042095533   0.0039951541   0.0035652208  -38.720053      1329.9343      1329.9343      1329.9343      2.3522884e+09  0.17074276    -1532860.5     -1532860.5      951.31236     -1531909.2     -41.545061     -39.429105     -35.185993     -0.69849647     1.4636373      1.9496161      11342.194    
   2990000   319.39431      1.495          0.0041951022   0.0039912509   0.0035564139  -38.6307        1330.2009      1330.2009      1330.2009      2.3537031e+09  0.17064013    -1532187.1     -1532187.1      951.10172     -1531236       -41.40244      -39.390584     -35.099076     -0.72398333     1.4410861      1.9067802      11383.964    
   2991000   319.38545      1.4955         0.0041856179   0.0039874821   0.0035471583  -38.556652      1330.4674      1330.4674      1330.4674      2.3551185e+09  0.17053758    -1531515.1     -1531515.1      951.07533     -1530564.1     -41.308836     -39.353389     -35.00773      -0.69810259     1.4158892      1.8649303      11423.511    
   2992000   319.43923      1.496          0.0041832434   0.0039838483   0.0035397832  -38.512624      1330.734       1330.734       1330.734       2.3565344e+09  0.17043512    -1530844.2     -1530844.2      951.23547     -1529893       -41.285403     -39.317525     -34.934944     -0.6304077      1.4061751      1.8353021      11429.504    
   2993000   319.53232      1.4965         0.0041858766   0.0039803404   0.0035354822  -38.495597      1331.0006      1331.0006      1331.0006      2.3579508e+09  0.17033273    -1530173.9     -1530173.9      951.51269     -1529222.4     -41.31139      -39.282906     -34.892497     -0.55062375     1.4079397      1.8212866      11453.795    
   2994000   319.63658      1.497          0.0041900436   0.0039807865   0.0035349166  -38.508912      1331.2672      1331.2672      1331.2672      2.3593679e+09  0.17023043    -1529503.5     -1529503.5      951.82315     -1528551.7     -41.352515     -39.287308     -34.886914     -0.49397174     1.4000288      1.8261601      11470.014    
   2995000   319.73848      1.4975         0.0041905063   0.0039841719   0.0035355691  -38.523719      1331.5337      1331.5337      1331.5337      2.3607855e+09  0.17012821    -1528832.6     -1528832.6      952.1266      -1527880.5     -41.357082     -39.32072      -34.893354     -0.46963571     1.3820138      1.8417819      11500.098    
   2996000   319.83531      1.498          0.0041863936   0.0039855231   0.0035362116  -38.516747      1331.8003      1331.8003      1331.8003      2.3622037e+09  0.17002607    -1528161.4     -1528161.4      952.41495     -1527208.9     -41.316492     -39.334054     -34.899695     -0.46296707     1.3777794      1.8521168      11402.775    
   2997000   319.91709      1.4985         0.0041805103   0.003980905    0.0035355375  -38.479983      1332.0669      1332.0669      1332.0669      2.3636224e+09  0.16992402    -1527490.3     -1527490.3      952.65847     -1526537.6     -41.258429     -39.288478     -34.893042     -0.46467061     1.4020505      1.8429502      11454.44     
   2998000   319.98384      1.499          0.0041750792   0.0039723485   0.0035337316  -38.428026      1332.3335      1332.3335      1332.3335      2.3650417e+09  0.16982204    -1526820       -1526820        952.85725     -1525867.1     -41.204828     -39.204031     -34.875219     -0.47884647     1.4367896      1.8269592      11485.77     
   2999000   320.04223      1.4995         0.0041703766   0.0039658057   0.0035310073  -38.38207       1332.6         1332.6         1332.6         2.3664616e+09  0.16972015    -1526150.6     -1526150.6      953.03111     -1525197.5     -41.158417     -39.13946      -34.848333     -0.49628605     1.4493022      1.8298912      11507.19     
   3000000   320.09018      1.5            0.0041663603   0.003964375    0.0035281393  -38.354715      1332.8666      1332.8666      1332.8666      2.367882e+09   0.16961834    -1525481.8     -1525481.8      953.17391     -1524528.6     -41.118779     -39.125339     -34.820027     -0.49342754     1.430909       1.8521106      10897.84     
   3001000   320.12668      1.5005         0.0041639786   0.0039663003   0.003525115   -38.343265      1333.1332      1333.1332      1333.1332      2.369303e+09   0.16951661    -1524813.4     -1524813.4      953.2826      -1523860.1     -41.095274     -39.144341     -34.790181     -0.46934831     1.3901         1.8784393      11492.935    
   3002000   320.15476      1.501          0.0041643426   0.0039687876   0.0035233345  -38.346788      1333.3998      1333.3998      1333.3998      2.3707246e+09  0.16941496    -1524145       -1524145        953.36621     -1523191.6     -41.098866     -39.168888     -34.772608     -0.45401807     1.356318