LAMMPS (23 Jun 2022 - Update 1)
OMP_NUM_THREADS environment is not set. Defaulting to 1 thread. (src/comm.cpp:98)
  using 1 OpenMP thread(s) per MPI task
###

# Read restart info
read_restart ${read_res}
read_restart ./trial5/7030/equpmf71.res
Reading restart file ...
  restart file = 23 Jun 2022, LAMMPS = 23 Jun 2022
  restoring atom style atomic from restart
  orthogonal box = (1701.8019 1701.8019 1701.8019) to (2298.1981 2298.1981 2298.1981)
  1 by 2 by 2 MPI processor grid
  restoring pair style table from restart
  1000 atoms
  read_restart CPU = 0.060 seconds

# Settings
pair_style table/pgn spline 10941
pair_coeff 1 1 N20e.txt DE_GNP 308 72.9   # 1.35 * r
pair_coeff 2 2 N100e.txt DE_GNP 473.9 111.78
WARNING: 20 of 10941 force values in table DE_GNP are inconsistent with -dE/dr.
WARNING:  Should only be flagged at inflection points (src/pair_table_pgn.cpp:478)
pair_coeff 1 2 mixed_potentiale.txt DE_GNP 391.2 92.95
WARNING: 1564 of 10941 force values in table DE_GNP are inconsistent with -dE/dr.
WARNING:  Should only be flagged at inflection points (src/pair_table_pgn.cpp:478)

# Neighbor list
neighbor 2.0 bin
neigh_modify delay 0 every 1 check no once yes

# Temperature
variable T equal ${Temp}
variable T equal 300

# Deformation
reset_timestep 0
variable tmp equal "lx"
variable L0 equal ${tmp}
variable L0 equal 596.396192494112
variable strain equal "(lx - v_L0)/v_L0"
variable stp equal "step"
variable tmpe equal "temp"
variable p1 equal "v_strain"
variable p2 equal "-pxx*1.01325/10000"
variable p3 equal "-pyy*1.01325/10000"
variable p4 equal "-pzz*1.01325/10000"
variable p5 equal "lx"
variable p6 equal "ly"
variable p7 equal "lz"
variable p8 equal "press"
variable p9 equal "epair"
variable p10 equal "etotal"

# Thermo
thermo_style custom step temp v_p1 v_p2 v_p3 v_p4 press lx ly lz vol density epair pe ke etotal pxx pyy pzz pxy pxz pyz spcpu
thermo ${ts_save}
thermo 1000

# Dump
# dump 1 all custom 2000 ./${N20}${N100}/tensile/trajectory/trajectory_${usic}_${trial}_*.tensile.custom id type x y z ix iy iz
# dump_modify 1 sort id
dump 2 all cfg 50000 ./trial${trial}/${N20}${N100}/tensile/trajectory/dumpten.tens_${usic}_${trial}_*.cfg mass type xs ys zs fx fy fz
dump 2 all cfg 50000 ./trial5/${N20}${N100}/tensile/trajectory/dumpten.tens_${usic}_${trial}_*.cfg mass type xs ys zs fx fy fz
dump 2 all cfg 50000 ./trial5/70${N100}/tensile/trajectory/dumpten.tens_${usic}_${trial}_*.cfg mass type xs ys zs fx fy fz
dump 2 all cfg 50000 ./trial5/7030/tensile/trajectory/dumpten.tens_${usic}_${trial}_*.cfg mass type xs ys zs fx fy fz
dump 2 all cfg 50000 ./trial5/7030/tensile/trajectory/dumpten.tens_1_${trial}_*.cfg mass type xs ys zs fx fy fz
dump 2 all cfg 50000 ./trial5/7030/tensile/trajectory/dumpten.tens_1_5_*.cfg mass type xs ys zs fx fy fz
dump_modify 2 element N20 N100

fix 1 all nvt temp ${T} ${T} 100
fix 1 all nvt temp 300 ${T} 100
fix 1 all nvt temp 300 300 100
fix 2 all deform 1 x erate ${strain_rate} y erate ${strain_rate} z erate ${strain_rate} units box
fix 2 all deform 1 x erate 5e-6 y erate ${strain_rate} z erate ${strain_rate} units box
fix 2 all deform 1 x erate 5e-6 y erate 5e-6 z erate ${strain_rate} units box
fix 2 all deform 1 x erate 5e-6 y erate 5e-6 z erate 5e-6 units box
fix             def1 all print ${ts_save} "${p1} ${p2} ${p3} ${p4}" file ./tensile/${trial}/tensile${N20}${N100}_${usic}_${trial}.txt screen no
fix             def1 all print 1000 "${p1} ${p2} ${p3} ${p4}" file ./tensile/${trial}/tensile${N20}${N100}_${usic}_${trial}.txt screen no
fix             def1 all print 1000 "${p1} ${p2} ${p3} ${p4}" file ./tensile/5/tensile${N20}${N100}_${usic}_${trial}.txt screen no
fix             def1 all print 1000 "${p1} ${p2} ${p3} ${p4}" file ./tensile/5/tensile70${N100}_${usic}_${trial}.txt screen no
fix             def1 all print 1000 "${p1} ${p2} ${p3} ${p4}" file ./tensile/5/tensile7030_${usic}_${trial}.txt screen no
fix             def1 all print 1000 "${p1} ${p2} ${p3} ${p4}" file ./tensile/5/tensile7030_1_${trial}.txt screen no
fix             def1 all print 1000 "${p1} ${p2} ${p3} ${p4}" file ./tensile/5/tensile7030_1_5.txt screen no

timestep       		${ts}
timestep       		0.1
run				${steps_tensile}
run				6000000
Generated 0 of 1 mixed pair_coeff terms from geometric mixing rule
Unused restart file global fix info:
  fix style: npt, fix ID: 5
Neighbor list info ...
  update every 1 steps, delay 0 steps, check no
  max neighbors/atom: 2000, page size: 100000
  master list distance cutoff = 113.78
  ghost atom cutoff = 113.78
  binsize = 56.89, bins = 11 11 11
  1 neighbor lists, perpetual/occasional/extra = 1 0 0
  (1) pair table/pgn, perpetual
      attributes: half, newton on
      pair build: half/bin/atomonly/newton
      stencil: half/bin/3d
      bin: standard
Per MPI rank memory allocation (min/avg/max) = 3.857 | 3.858 | 3.858 Mbytes
   Step          Temp           v_p1           v_p2           v_p3           v_p4          Press            Lx             Ly             Lz           Volume        Density         E_pair         PotEng         KinEng         TotEng          Pxx            Pyy            Pzz            Pxy            Pxz            Pyz           S/CPU     
         0   297.90543     -3.8124602e-16  0.024916171    0.0052755852   0.021713181   -170.75397      596.39619      596.39619      596.39619      2.1213122e+08  2.2067671     -18596565      -18596565       887.11149     -18595678      -245.90349     -52.065978     -214.29243     -4.0176967      82.690265      18.438132      0            
      1000   334.77869      0.0005         0.035365083    0.016261059    0.032199046   -275.76343      596.69439      596.69439      596.69439      2.1244957e+08  2.2034602     -18595641      -18595641       996.91377     -18594644      -349.02624     -160.48417     -317.77988     -4.414456       80.634631      19.103269      12255.385    
      2000   402.80396      0.001          0.044171022    0.025571998    0.041198577   -364.96947      596.99259      596.99259      596.99259      2.1276825e+08  2.20016       -18594490      -18594490       1199.4814     -18593291      -435.93409     -252.37599     -406.59834     -4.7930852      78.674912      18.533428      14837.836    
      3000   469.91334      0.0015         0.051283026    0.032833532    0.048498316   -436.26901      597.29079      597.29079      597.29079      2.1308724e+08  2.1968663     -18593144      -18593144       1399.3217     -18591745      -506.12411     -324.04176     -478.64116     -5.1307951      77.312137      16.469687      14711.921    
      4000   510.53064      0.002          0.057857418    0.039521765    0.055353325   -502.45088      597.58898      597.58898      597.58898      2.1340655e+08  2.1935793     -18591579      -18591579       1520.2731     -18590058      -571.00832     -390.04949     -546.29484     -5.7975086      76.478302      14.506678      14681.169    
      5000   522.60669      0.0025         0.065071376    0.04702911     0.062601359   -574.72438      597.88718      597.88718      597.88718      2.1372618e+08  2.1902987     -18589724      -18589724       1556.2335     -18588168      -642.20455     -464.14123     -617.82737     -5.8915438      76.417062      13.521821      14813.406    
      6000   515.52462      0.003          0.07292034     0.055509187    0.070400135   -654.09873      598.18538      598.18538      598.18538      2.1404613e+08  2.1870247     -18587510      -18587510       1535.1443     -18585975      -719.6678      -547.83308     -694.79531     -6.7618233      75.093675      12.740882      14723.666    
      7000   499.47246      0.0035         0.080624972    0.064045445    0.078313927   -733.56146      598.48358      598.48358      598.48358      2.143664e+08   2.1837573     -18584911      -18584911       1487.3437     -18583423      -795.70661     -632.0794      -772.89836     -8.1759868      71.35383       11.773469      14718.955    
      8000   481.31675      0.004          0.088114879    0.072043846    0.085987753   -809.75896      598.78178      598.78178      598.78178      2.1468699e+08  2.1804963     -18581926      -18581926       1433.2791     -18580493      -869.62624     -711.01748     -848.63314     -8.5649651      67.467371      11.382084      14885.173    
      9000   464.22275      0.0045         0.095763409    0.079667057    0.093633373   -885.15121      599.07998      599.07998      599.07998      2.150079e+08   2.1772418     -18578565      -18578565       1382.3761     -18577182      -945.11137     -786.25272     -924.08955     -8.2202858      66.904848      11.532546      14711.102    
     10000   449.19034      0.005          0.1033527      0.08704109     0.10128484    -959.54811      599.37817      599.37817      599.37817      2.1532912e+08  2.1739938     -18574830      -18574830       1337.6121     -18573492      -1020.0119     -859.02877     -999.60369     -8.2262811      68.666688      10.965662      14705.937    
     11000   436.413        0.0055         0.11046451     0.094289542    0.10856355    -1030.7348      599.67637      599.67637      599.67637      2.1565067e+08  2.1707523     -18570725      -18570725       1299.5634     -18569426      -1090.1999     -930.56543     -1071.4389     -8.6820363      69.350115      10.046875      14604.284    
     12000   425.59702      0.006          0.11718598     0.10158213     0.11550648    -1099.6779      599.97457      599.97457      599.97457      2.1597254e+08  2.1675172     -18566260      -18566260       1267.3552     -18564992      -1156.5357     -1002.5377     -1139.9603     -10.018546      69.581273      8.7678329      14731.094    
     13000   416.26768      0.0065         0.12363581     0.10886894     0.12209745    -1166.5505      600.27277      600.27277      600.27277      2.1629472e+08  2.1642885     -18561455      -18561455       1239.5741     -18560216      -1220.1906     -1074.4529     -1205.0082     -10.738437      69.242172      6.8055596      14680.709    
     14000   408.33806      0.007          0.12992762     0.11586732     0.12841882    -1231.0676      600.57097      600.57097      600.57097      2.1661723e+08  2.1610663     -18556327      -18556327       1215.961      -18555111      -1282.286      -1143.5216     -1267.3952     -10.635449      65.287406      6.0241555      14750.165    
     15000   401.60233      0.0075         0.13640783     0.12253488     0.1349622     -1295.8464      600.86916      600.86916      600.86916      2.1694006e+08  2.1578504     -18550875      -18550875       1195.9032     -18549679      -1346.2406     -1209.3253     -1331.9734     -10.777268      61.517896      6.7556062      14821.164    
     16000   396.02269      0.008          0.14301225     0.12894361     0.14159409    -1360.4736      601.16736      601.16736      601.16736      2.1726321e+08  2.1546409     -18545094      -18545094       1179.288      -18543915      -1411.4212     -1272.5745     -1397.425      -12.057401      61.385058      7.4353862      14687.298    
     17000   392.02775      0.0085         0.14917199     0.13495773     0.14759208    -1420.2543      601.46556      601.46556      601.46556      2.1758667e+08  2.1514378     -18539006      -18539006       1167.3917     -18537838      -1472.213      -1331.9293     -1456.6206     -13.677596      61.909185      7.410998       14695.567    
     18000   389.24403      0.009          0.15481789     0.14070025     0.15294681    -1475.335       601.76376      601.76376      601.76376      2.1791046e+08  2.148241      -18532637      -18532637       1159.1022     -18531478      -1527.9338     -1388.6035     -1509.4677     -14.750882      60.498597      7.4379561      14910.056    
     19000   386.63308      0.0095         0.16043133     0.14657394     0.15832164    -1530.8065      602.06196      602.06196      602.06196      2.1823457e+08  2.1450505     -18525995      -18525995       1151.3273     -18524844      -1583.3341     -1446.5724     -1562.5131     -14.140396      58.695958      7.9052095      14764.481    
     20000   384.21193      0.01           0.16588157     0.15238858     0.16386746    -1586.1094      602.36015      602.36015      602.36015      2.1855901e+08  2.1418664     -18519083      -18519083       1144.1175     -18517939      -1637.1238     -1503.9584     -1617.2461     -13.163427      58.228945      7.7336355      14725.251    
     21000   383.01223      0.0105         0.17087219     0.15815155     0.16944413    -1639.8318      602.65835      602.65835      602.65835      2.1888376e+08  2.1386885     -18511908      -18511908       1140.545      -18510767      -1686.3774     -1560.8344     -1672.2835     -13.187272      58.162179      6.6487257      14842.192    
     22000   383.06329      0.011          0.17576782     0.16419285     0.175143      -1694.5593      602.95655      602.95655      602.95655      2.1920883e+08  2.135517      -18504469      -18504469       1140.6971     -18503328      -1734.6936     -1620.4574     -1728.527      -13.599119      58.102339      4.1035025      14717.697    
     23000   383.45542      0.0115         0.18105121     0.17014435     0.18086386    -1750.3394      603.25475      603.25475      603.25475      2.1953423e+08  2.1323517     -18496754      -18496754       1141.8648     -18495612      -1786.8365     -1679.1942     -1784.9875     -14.196933      57.571528      2.1143056      14752.029    
     24000   383.78686      0.012          0.18661412     0.17562535     0.18607908    -1803.8278      603.55295      603.55295      603.55295      2.1985995e+08  2.1291926     -18488770      -18488770       1142.8517     -18487627      -1841.7382     -1733.2875     -1836.4577     -15.567871      56.355016      3.7202613      14865.626    
     25000   384.2307       0.0125         0.19185092     0.18059492     0.19073387    -1852.7172      603.85114      603.85114      603.85114      2.2018599e+08  2.1260398     -18480542      -18480542       1144.1734     -18479398      -1893.4214     -1782.3333     -1882.397      -16.138443      55.031102      6.6128401      14691.074    
     26000   385.30037      0.013          0.19648529     0.18516276     0.19501189    -1897.0637      604.14934      604.14934      604.14934      2.2051235e+08  2.1228933     -18472094      -18472094       1147.3587     -18470947      -1939.159      -1827.4143     -1924.6177     -14.990867      53.788994      7.2629704      14696.116    
     27000   387.26833      0.0135         0.20046566     0.18948877     0.19918127    -1938.1058      604.44754      604.44754      604.44754      2.2083904e+08  2.1197529     -18463446      -18463446       1153.219      -18462293      -1978.4423     -1870.1087     -1965.7663     -14.769736      53.242815      5.982329       14854.77     
     28000   389.11398      0.014          0.20437102     0.19396063     0.20342897    -1979.6385      604.74574      604.74574      604.74574      2.2116604e+08  2.1166187     -18454597      -18454597       1158.715      -18453438      -2016.9851     -1914.2426     -2007.6878     -15.467745      53.060005      4.2898961      14761.863    
     29000   390.19467      0.0145         0.20853055     0.19872324     0.20780537    -2023.3873      605.04394      605.04394      605.04394      2.2149337e+08  2.1134907     -18445534      -18445534       1161.9331     -18444372      -2058.0365     -1961.2459     -2050.8796     -14.687123      51.558084      3.239151       14785.233    
     30000   391.30725      0.015          0.21293149     0.20370659     0.21249326    -2069.6812      605.34214      605.34214      605.34214      2.2182103e+08  2.1103689     -18436247      -18436247       1165.2462     -18435082      -2101.4704     -2010.4277     -2097.1454     -13.879914      50.844227      3.4502638      14799.057    
     31000   393.24913      0.0155         0.21740863     0.20852422     0.21719256    -2115.7181      605.64033      605.64033      605.64033      2.22149e+08    2.1072532     -18426738      -18426738       1171.0288     -18425567      -2145.6564     -2057.974      -2143.5239     -13.743696      51.717303      3.6690578      14694.792    
     32000   395.82534      0.016          0.2216904      0.21271262     0.22137972    -2157.3575      605.93853      605.93853      605.93853      2.224773e+08   2.1041436     -18417025      -18417025       1178.7003     -18415846      -2187.9141     -2099.3103     -2184.848      -15.382713      52.345446      3.2586382      14756.132    
     33000   398.74581      0.0165         0.22569614     0.21643086     0.22496525    -2194.5629      606.23673      606.23673      606.23673      2.2280592e+08  2.1010401     -18407130      -18407130       1187.3969     -18405943      -2227.4477     -2136.0065     -2220.2344     -17.993561      50.691958      3.7653706      14874.091    
     34000   401.64767      0.017          0.22951908     0.22013952     0.22848953    -2230.9339      606.53493      606.53493      606.53493      2.2313487e+08  2.0979428     -18397061      -18397061       1196.0382     -18395865      -2265.1772     -2172.6081     -2255.0164     -18.999385      48.442113      4.5654326      14678.514    
     35000   404.01462      0.0175         0.23292803     0.2240948      0.23229706    -2267.6862      606.83313      606.83313      606.83313      2.2346414e+08  2.0948515     -18386814      -18386814       1203.0865     -18385611      -2298.821      -2211.6437     -2292.5938     -18.7902        47.36688       4.5694773      14744.456    
     36000   405.75136      0.018          0.23606584     0.22810228     0.23577203    -2302.6241      607.13132      607.13132      607.13132      2.2379373e+08  2.0917663     -18376384      -18376384       1208.2583     -18375176      -2329.7887     -2251.1945     -2326.889      -17.136307      47.549988      3.8158084      14894.758    
     37000   407.38929      0.0185         0.23923298     0.23190733     0.23888103    -2335.7886      607.42952      607.42952      607.42952      2.2412365e+08  2.0886872     -18365779      -18365779       1213.1357     -18364566      -2361.0459     -2288.7474     -2357.5725     -15.372774      47.08203       2.6815086      14723.602    
     38000   408.99172      0.019          0.24236305     0.2354882      0.2421454     -2368.6048      607.72772      607.72772      607.72772      2.2445389e+08  2.085614      -18355015      -18355015       1217.9075     -18353797      -2391.9373     -2324.0879     -2389.7893     -15.489089      44.606927      2.5825099      14705.689    
     39000   410.68505      0.0195         0.24542353     0.23864902     0.24527051    -2399.3521      608.02592      608.02592      608.02592      2.2478446e+08  2.082547      -18344099      -18344099       1222.95       -18342876      -2422.1419     -2355.2827     -2420.6317     -16.660867      42.997256      2.4978313      14858.738    
     40000   413.11644      0.02           0.24862177     0.24135086     0.24825673    -2428.5858      608.32412      608.32412      608.32412      2.2511535e+08  2.0794859     -18333040      -18333040       1230.1902     -18331810      -2453.7061     -2381.9478     -2450.1035     -18.181508      42.997378      3.7219863      14799.379    
     41000   415.77844      0.0205         0.25177915     0.24423665     0.25131029    -2458.5117      608.62231      608.62231      608.62231      2.2544656e+08  2.0764308     -18321839      -18321839       1238.1172     -18320601      -2484.867      -2410.4283     -2480.2397     -19.031181      42.505166      6.0740368      14735.603    
     42000   418.21504      0.021          0.25476288     0.24774244     0.25436049    -2489.8949      608.92051      608.92051      608.92051      2.257781e+08   2.0733817     -18310484      -18310484       1245.373      -18309239      -2514.3142     -2445.0277     -2510.3429     -18.785088      42.483596      6.136414       14820.853    
     43000   420.41237      0.0215         0.25768479     0.25148946     0.25747112    -2522.0672      609.21871      609.21871      609.21871      2.2610996e+08  2.0703386     -18298978      -18298978       1251.9162     -18297726      -2543.1512     -2482.008      -2541.0423     -18.157001      43.219708      5.2978407      14741.036    
     44000   422.46935      0.022          0.26036757     0.25495534     0.26043648    -2552.05        609.51691      609.51691      609.51691      2.2644215e+08  2.0673014     -18287323      -18287323       1258.0416     -18286065      -2569.6282     -2516.2135     -2570.3082     -16.725009      42.219899      3.5204993      14772.136    
     45000   424.51124      0.0225         0.26276177     0.25761028     0.26305094    -2577.2612      609.81511      609.81511      609.81511      2.2677467e+08  2.0642702     -18275525      -18275525       1264.122      -18274261      -2593.257      -2542.4158     -2596.1109     -15.683718      38.661635      0.30430846     14873.522    
     46000   426.72377      0.023          0.26509722     0.25954054     0.26528468    -2598.6428      610.1133       610.1133       610.1133       2.2710751e+08  2.0612449     -18263610      -18263610       1270.7105     -18262339      -2616.3061     -2561.466      -2618.1563     -15.853467      35.73719      -1.0340384      14689.05     
     47000   428.97829      0.0235         0.26743635     0.2615058      0.26730351    -2619.4446      610.4115       610.4115       610.4115       2.2744067e+08  2.0582255     -18251587      -18251587       1277.4241     -18250310      -2639.3916     -2580.8616     -2638.0806     -16.043826      35.331444      0.75665999     14712.357    
     48000   430.57744      0.024          0.26978293     0.26418964     0.26955264    -2643.3924      610.7097       610.7097       610.7097       2.2777416e+08  2.055212      -18239449      -18239449       1282.1861     -18238167      -2662.5505     -2607.3491     -2660.2777     -17.027802      36.832845      3.792088       13619.573    
     49000   431.29212      0.0245         0.27204942     0.26716718     0.27194454    -2668.5127      611.0079       611.0079       611.0079       2.2810798e+08  2.0522044     -18227187      -18227187       1284.3143     -18225903      -2684.919      -2636.7351     -2683.884      -17.877987      38.574958      5.8963729      15013.016    
     50000   431.76754      0.025          0.27414484     0.26982315     0.27430135    -2691.8968      611.3061       611.3061       611.3061       2.2844212e+08  2.0492026     -18214801      -18214801       1285.73       -18213515      -2705.5992     -2662.9474     -2707.1438     -16.7275        38.409035      5.2922925      10208.87     
     51000   433.14495      0.0255         0.27596226     0.27194839     0.27644925    -2711.9332      611.6043       611.6043       611.6043       2.2877659e+08  2.0462067     -18202308      -18202308       1289.8317     -18201018      -2723.5358     -2683.9219     -2728.3419     -14.696119      36.015049      3.420704       13111.481    
     52000   435.62801      0.026          0.27780419     0.27388338     0.27846204    -2730.9799      611.90249      611.90249      611.90249      2.2911138e+08  2.0432166     -18189725      -18189725       1297.2258     -18188428      -2741.7142     -2703.0188     -2748.2067     -14.621325      33.604012      1.6224576      14866.551    
     53000   437.88004      0.0265         0.27979586     0.27592006     0.28049497    -2750.92        612.20069      612.20069      612.20069      2.2944651e+08  2.0402324     -18177040      -18177040       1303.932      -18175737      -2761.3705     -2723.1193     -2768.2701     -16.481982      32.17801       0.53258168     14351.737    
     54000   438.89205      0.027          0.28160865     0.27795812     0.28237774    -2769.7821      612.49889      612.49889      612.49889      2.2978195e+08  2.0372539     -18164244      -18164244       1306.9456     -18162937      -2779.2613     -2743.2333     -2786.8517     -17.471071      32.150744      0.18520515     14942.797    
     55000   439.64101      0.0275         0.28307807     0.27973447     0.28385852    -2785.3312      612.79709      612.79709      612.79709      2.3011773e+08  2.0342813     -18151353      -18151353       1309.1758     -18150044      -2793.7634     -2760.7645     -2801.4658     -16.099765      33.764748      0.67074007     14849.918    
     56000   441.02397      0.028          0.28450982     0.28136465     0.28515268    -2799.6616      613.09529      613.09529      613.09529      2.3045383e+08  2.0313144     -18138387      -18138387       1313.2941     -18137074      -2807.8936     -2776.8532     -2814.2382     -14.4641        34.320644      1.3384302      14979.226    
     57000   442.47879      0.0285         0.28595808     0.28327354     0.28653498    -2815.2532      613.39348      613.39348      613.39348      2.3079026e+08  2.0283533     -18125345      -18125345       1317.6263     -18124028      -2822.1868     -2795.6925     -2827.8804     -13.725262      32.453924      1.2466589      14894.619    
     58000   443.60651      0.029          0.28734719     0.28523129     0.28823787    -2831.8656      613.69168      613.69168      613.69168      2.3112702e+08  2.025398      -18112220      -18112220       1320.9844     -18110899      -2835.8963     -2815.014      -2844.6866     -12.526498      29.769264      0.83850487     14916.871    
     59000   444.34086      0.0295         0.2885597      0.28671186     0.28996473    -2846.4061      613.98988      613.98988      613.98988      2.314641e+08   2.0224484     -18099012      -18099012       1323.1712     -18097689      -2847.8628     -2829.626      -2861.7294     -10.33422       26.31439      -0.056325531    15013.764    
     60000   445.16872      0.03           0.28958366     0.28756792     0.29111985    -2856.3909      614.28808      614.28808      614.28808      2.3180151e+08  2.0195045     -18085735      -18085735       1325.6364     -18084409      -2857.9685     -2838.0747     -2873.1295     -9.2802786      24.12465       0.28312633     14853.676    
     61000   446.21502      0.0305         0.29065777     0.28837392     0.29184221    -2864.9524      614.58628      614.58628      614.58628      2.3213925e+08  2.0165663     -18072407      -18072407       1328.7521     -18071078      -2868.5692     -2846.0293     -2880.2587     -9.9332272      24.673014      1.6963016      14936.77     
     62000   446.83322      0.031          0.29178998     0.28959609     0.29267442    -2875.4355      614.88447      614.88447      614.88447      2.3247732e+08  2.0136338     -18059025      -18059025       1330.593      -18057694      -2879.7432     -2858.0912     -2888.4719     -12.208576      25.966559      1.0358855      15060.461    
     63000   447.11458      0.0315         0.29288827     0.29108823     0.29359462    -2886.9845      615.18267      615.18267      615.18267      2.3281571e+08  2.010707      -18045572      -18045572       1331.4309     -18044241      -2890.5824     -2872.8175     -2897.5536     -14.485585      26.509047     -1.0236281      14834.846    
     64000   447.74246      0.032          0.29353873     0.29254033     0.29452891    -2896.975       615.48087      615.48087      615.48087      2.3315443e+08  2.0077859     -18032052      -18032052       1333.3006     -18030718      -2897.002      -2887.1485     -2906.7743     -15.177129      26.353288     -0.69820288     14849.429    
     65000   448.9016       0.0325         0.29391146     0.29359698     0.29553829    -2904.9979      615.77907      615.77907      615.77907      2.3349349e+08  2.0048704     -18018480      -18018480       1336.7523     -18017144      -2900.6806     -2897.5769     -2916.7361     -14.384811      24.914368      0.78619155     15027.821    
     66000   449.96264      0.033          0.29479458     0.29445808     0.29660028    -2914.2296      616.07727      616.07727      616.07727      2.3383287e+08  2.0019606     -18004868      -18004868       1339.9119     -18003528      -2909.3963     -2906.0753     -2927.2172     -12.753931      23.390035     -0.31422728     14885.758    
     67000   450.44698      0.0335         0.29587702     0.29549476     0.29739533    -2923.8165      616.37546      616.37546      616.37546      2.3417257e+08  1.9990564     -17991207      -17991207       1341.3542     -17989866      -2920.0791     -2916.3065     -2935.0637     -11.785613      22.425716     -2.0258564      14840.626    
     68000   450.47854      0.034          0.29649829     0.29654011     0.29789165    -2930.932       616.67366      616.67366      616.67366      2.3451261e+08  1.9961578     -17977485      -17977485       1341.4482     -17976143      -2926.2106     -2926.6233     -2939.962      -11.138928      21.569225     -2.0984263      14989.803    
     69000   450.8283       0.0345         0.29675425     0.29692624     0.298271      -2934.2923      616.97186      616.97186      616.97186      2.3485298e+08  1.9932649     -17963716      -17963716       1342.4897     -17962373      -2928.7368     -2930.4342     -2943.7059     -10.37427       20.959274     -1.5469026      14907.592    
     70000   451.78643      0.035          0.29692189     0.29691173     0.29865962    -2936.0745      617.27006      617.27006      617.27006      2.3519367e+08  1.9903775     -17949935      -17949935       1345.3429     -17948589      -2930.3912     -2930.291      -2947.5413     -10.702539      20.016082     -1.9408878      14709.003    
     71000   452.55719      0.0355         0.29729634     0.29727493     0.29890096    -2939.2951      617.56826      617.56826      617.56826      2.355347e+08   1.9874956     -17936141      -17936141       1347.638      -17934793      -2934.0867     -2933.8755     -2949.9232     -11.76069       17.937468     -2.5925585      15029.047    
     72000   453.09363      0.036          0.29789966     0.29795811     0.29907505    -2944.1001      617.86646      617.86646      617.86646      2.3587605e+08  1.9846194     -17922313      -17922313       1349.2355     -17920964      -2940.041      -2940.6179     -2951.6413     -12.370957      17.787405     -2.0030567      14912.119    
     73000   453.55357      0.0365         0.29834692     0.29858826     0.29965441    -2949.5504      618.16465      618.16465      618.16465      2.3621774e+08  1.9817487     -17908444      -17908444       1350.6051     -17907094      -2944.4551     -2946.837      -2957.3591     -12.804939      19.683969     -2.602773       14803.28     
     74000   453.73602      0.037          0.29839754     0.29902258     0.30030546    -2953.2876      618.46285      618.46285      618.46285      2.3655975e+08  1.9788835     -17894541      -17894541       1351.1484     -17893190      -2944.9548     -2951.1235     -2963.7844     -13.379412      20.345652     -3.7108698      15003.887    
     75000   453.55346      0.0375         0.29814526     0.29923643     0.30045649    -2953.658       618.76105      618.76105      618.76105      2.369021e+08   1.9760238     -17880619      -17880619       1350.6047     -17879268      -2942.4649     -2953.2339     -2965.275      -12.191158      17.915542     -3.8969809      14871.73     
     76000   452.95535      0.038          0.29770151     0.29927851     0.30024001    -2951.6244      619.05925      619.05925      619.05925      2.3724477e+08  1.9731697     -17866695      -17866695       1348.8237     -17865346      -2938.0855     -2953.6493     -2963.1385     -9.4150177      15.402763     -3.5176277      14847.577    
     77000   452.20357      0.0385         0.29716842     0.2990206      0.2996873     -2947.2039      619.35745      619.35745      619.35745      2.3758777e+08  1.970321      -17852768      -17852768       1346.585      -17851421      -2932.8242     -2951.1039     -2957.6837     -8.5087601      14.201485     -2.5427159      14962.961    
     78000   451.48376      0.039          0.29686486     0.29865662     0.29929016    -2943.7014      619.65564      619.65564      619.65564      2.3793111e+08  1.9674779     -17838831      -17838831       1344.4415     -17837486      -2929.8284     -2947.5117     -2953.7642     -9.9942372      13.518554     -1.977509       14839.456    
     79000   450.8534       0.0395         0.29683481     0.2984486      0.29924523    -2942.7704      619.95384      619.95384      619.95384      2.3827477e+08  1.9646401     -17824892      -17824892       1342.5644     -17823549      -2929.5318     -2945.4586     -2953.3208     -12.18371       12.517871     -2.8150226      14917.377    
     80000   450.60288      0.04           0.296808       0.29842877     0.29915427    -2942.3178      620.25204      620.25204      620.25204      2.3861877e+08  1.9618079     -17810952      -17810952       1341.8184     -17809611      -2929.2672     -2945.263      -2952.4231     -13.311162      12.86906      -5.483152       15042.052    
     81000   450.91135      0.0405         0.2966426      0.29828536     0.29862767    -2939.5695      620.55024      620.55024      620.55024      2.389631e+08   1.9589811     -17797018      -17797018       1342.737      -17795676      -2927.6349     -2943.8476     -2947.2259     -11.162838      13.395207     -8.2410993      14840.988    
     82000   451.53087      0.041          0.2962227      0.29802775     0.29779128    -2934.5891      620.84844      620.84844      620.84844      2.3930776e+08  1.9561597     -17783096      -17783096       1344.5818     -17781751      -2923.4908     -2941.3052     -2938.9714     -7.7429053      13.123671     -8.4688672      14850.867    
     83000   451.85305      0.0415         0.29572667     0.29790362     0.29723095    -2930.7056      621.14663      621.14663      621.14663      2.3965275e+08  1.9533437     -17769180      -17769180       1345.5412     -17767835      -2918.5953     -2940.0801     -2933.4414     -6.1526056      12.28863      -6.9491862      15018.952    
     84000   451.26895      0.042          0.29524045     0.29761131     0.29709638    -2927.7017      621.44483      621.44483      621.44483      2.3999807e+08  1.9505332     -17755262      -17755262       1343.8019     -17753918      -2913.7966     -2937.1953     -2932.1133     -8.1062068      10.65868      -5.6673881      14877.765    
     85000   450.05988      0.0425         0.29441129     0.29680806     0.29700032    -2922.0155      621.74303      621.74303      621.74303      2.4034372e+08  1.947728      -17741346      -17741346       1340.2015     -17740006      -2905.6135     -2929.2678     -2931.1653     -11.369505      9.1605305     -6.6229123      14850.381    
     86000   448.9581       0.043          0.29342949     0.29580999     0.29639868    -2913.523       622.04123      622.04123      622.04123      2.406897e+08   1.9449282     -17727450      -17727450       1336.9206     -17726113      -2895.9239     -2919.4176     -2925.2275     -12.527422      9.032076      -8.4460266      14961.371    
     87000   448.41849      0.0435         0.29254308     0.29500745     0.29541135    -2904.7188      622.33943      622.33943      622.33943      2.4103602e+08  1.9421337     -17713585      -17713585       1335.3137     -17712250      -2887.1757     -2911.4972     -2915.4834     -12.244689      10.092411     -8.9458985      14909.093    
     88000   448.25664      0.044          0.291908       0.29461054     0.29451458    -2898.3736      622.63762      622.63762      622.63762      2.4138267e+08  1.9393447     -17699747      -17699747       1334.8317     -17698413      -2880.908      -2907.58       -2906.6329     -11.205511      9.9650324     -7.8441148      14922.668    
     89000   447.91125      0.0445         0.29147371     0.29448624     0.29372906    -2893.9518      622.93582      622.93582      622.93582      2.4172965e+08  1.9365609     -17685929      -17685929       1333.8032     -17684596      -2876.6218     -2906.3532     -2898.8805     -9.237498       6.6529993     -7.2115143      15046.722    
     90000   446.98671      0.045          0.29066319     0.29392029     0.29286208    -2886.5715      623.23402      623.23402      623.23402      2.4207696e+08  1.9337825     -17672123      -17672123       1331.0501     -17670791      -2868.6227     -2900.7677     -2890.324      -7.6301844      3.8542565     -8.891071       14849.276    
     91000   445.98515      0.0455         0.28944712     0.29271662     0.29177513    -2875.0353      623.53222      623.53222      623.53222      2.4242461e+08  1.9310094     -17658343      -17658343       1328.0676     -17657015      -2856.6209     -2888.8884     -2879.5967     -7.7238543      3.6071539     -10.942951      14874.731    
     92000   445.32579      0.046          0.28794052     0.29132782     0.29043093    -2861.0882      623.83042      623.83042      623.83042      2.4277258e+08  1.9282416     -17644619      -17644619       1326.1042     -17643293      -2841.752      -2875.1821     -2866.3304     -7.8027833      3.2106718     -11.690529      14999.163    
     93000   444.63468      0.0465         0.28676249     0.29022996     0.28930996    -2849.9133      624.12862      624.12862      624.12862      2.4312089e+08  1.925479      -17630946      -17630946       1324.0462     -17629621      -2830.1257     -2864.347      -2855.2673     -7.1848213      1.6225035     -12.103641      14909.079    
     94000   443.20688      0.047          0.28613858     0.28916338     0.28848697    -2841.6446      624.42681      624.42681      624.42681      2.4346954e+08  1.9227218     -17617299      -17617299       1319.7944     -17615979      -2823.9682     -2853.8207     -2847.145      -6.4964051      0.55795215    -13.173083      14878.556    
     95000   441.66575      0.0475         0.28539126     0.2880313      0.28740113    -2831.8898      624.72501      624.72501      624.72501      2.4381851e+08  1.9199698     -17603674      -17603674       1315.2052     -17602359      -2816.5927     -2842.6479     -2836.4286     -6.2216285      0.57211532    -14.011247      14979.67     
     96000   440.95788      0.048          0.28406135     0.28693299     0.2860515     -2819.4616      625.02321      625.02321      625.02321      2.4416782e+08  1.9172231     -17590094      -17590094       1313.0973     -17588781      -2803.4675     -2831.8084     -2823.1088     -5.9845101      0.45746237    -14.614113      14908.013    
     97000   441.11649      0.0485         0.28256188     0.28596341     0.2846441     -2806.7091      625.32141      625.32141      625.32141      2.4451747e+08  1.9144816     -17576571      -17576571       1313.5696     -17575258      -2788.669      -2822.2394     -2809.2188     -5.3326864     -1.3555558     -14.217749      14939.785    
     98000   441.10766      0.049          0.28148145     0.28514671     0.28339371    -2796.3545      625.61961      625.61961      625.61961      2.4486745e+08  1.9117453     -17563100      -17563100       1313.5433     -17561786      -2778.0059     -2814.1792     -2796.8785     -4.2253495     -4.8686717     -14.090755      15012.959    
     99000   440.10542      0.0495         0.28057513     0.28408173     0.2822778     -2786.1984      625.9178       625.9178       625.9178       2.4521776e+08  1.9090142     -17549665      -17549665       1310.5588     -17548354      -2769.0613     -2803.6687     -2785.8653     -4.272894      -8.8702325     -15.59631       14831.646    
    100000   438.48262      0.05           0.27916453     0.28265345     0.28121335    -2773.3575      626.216        626.216        626.216        2.455684e+08   1.9062884     -17536257      -17536257       1305.7264     -17534951      -2755.1397     -2789.5726     -2775.36       -6.3800504     -11.867902     -17.182748      14048.156    
    101000   437.13305      0.0505         0.27723192     0.28115739     0.2798815     -2757.6966      626.5142       626.5142       626.5142       2.4591938e+08  1.9035677     -17522902      -17522902       1301.7076     -17521600      -2736.0663     -2774.8077     -2762.2156     -7.903333      -11.354928     -17.740061      14925.567    
    102000   436.25855      0.051          0.27552697     0.27978242     0.27813585    -2741.8217      626.8124       626.8124       626.8124       2.4627069e+08  1.9008522     -17509622      -17509622       1299.1035     -17508323      -2719.2398     -2761.2378     -2744.9874     -6.1253182     -7.5201626     -16.832349      14742.336    
    103000   434.63872      0.0515         0.27433422     0.2785264      0.27640656    -2728.077       627.1106       627.1106       627.1106       2.4662234e+08  1.8981418     -17496410      -17496410       1294.2799     -17495115      -2707.4683     -2748.8419     -2727.9207     -2.228444      -4.2755632     -13.765331      14702.972    
    104000   432.3188       0.052          0.27318813     0.27715907     0.27491985    -2714.9175      627.40879      627.40879      627.40879      2.4697432e+08  1.8954367     -17483238      -17483238       1287.3716     -17481951      -2696.1572     -2735.3473     -2713.248       0.93960246    -4.8379434     -12.046764      14876.94     
    105000   430.21393      0.0525         0.27171933     0.27563187     0.27348414    -2700.3383      627.70699      627.70699      627.70699      2.4732664e+08  1.8927366     -17470114      -17470114       1281.1036     -17468833      -2681.6613     -2720.2751     -2699.0786      1.8574242     -8.3185351     -14.293582      14765.828    
    106000   429.13123      0.053          0.27004208     0.27393666     0.27175491    -2683.555       628.00519      628.00519      628.00519      2.4767929e+08  1.8900417     -17457051      -17457051       1277.8795     -17455774      -2665.1081     -2703.5446     -2682.0124      0.12756702    -12.591738     -17.536832      14820.597    
    107000   428.79487      0.0535         0.26831212     0.27232532     0.26992034    -2666.5278      628.30339      628.30339      628.30339      2.4803228e+08  1.8873519     -17444063      -17444063       1276.8779     -17442786      -2648.0348     -2687.6419     -2663.9066     -2.4944151     -14.735814     -19.171744      14789.701    
    108000   428.49705      0.054          0.26673211     0.27087064     0.26830563    -2651.2324      628.60159      628.60159      628.60159      2.483856e+08   1.8846672     -17431144      -17431144       1275.9911     -17429868      -2632.4412     -2673.2854     -2647.9707     -2.3471483     -15.14043      -20.489509      14804.327    
    109000   427.68527      0.0545         0.26534509     0.26953936     0.26697911    -2637.926       628.89978      628.89978      628.89978      2.4873926e+08  1.8819875     -17418290      -17418290       1273.5737     -17417016      -2618.7524     -2660.1467     -2634.879       0.74398811    -14.847128     -20.480841      14791.82     
    110000   426.4387       0.055          0.26396691     0.26823861     0.26542251    -2623.9922      629.19798      629.19798      629.19798      2.4909325e+08  1.879313      -17405499      -17405499       1269.8616     -17404229      -2605.1509     -2647.3092     -2619.5165      3.0771322     -14.770648     -18.01082       14860.8      
    111000   424.88776      0.0555         0.26250947     0.26667784     0.26340505    -2607.4261      629.49618      629.49618      629.49618      2.4944758e+08  1.8766435     -17392765      -17392765       1265.2432     -17391499      -2590.7671     -2631.9056     -2599.6057      3.0738698     -14.475527     -14.443953      14833.159    
    112000   422.83193      0.056          0.26095679     0.26472676     0.2615908     -2589.9312      629.79438      629.79438      629.79438      2.4980225e+08  1.8739791     -17380086      -17380086       1259.1213     -17378827      -2575.4433     -2612.65       -2581.7005      2.6875799     -13.953107     -12.970102      14733.901    
    113000   420.72603      0.0565         0.25904279     0.26273681     0.26026717    -2572.7338      630.09258      630.09258      630.09258      2.5015725e+08  1.8713197     -17367475      -17367475       1252.8503     -17366222      -2556.5535     -2593.0107     -2568.6373      2.8190548     -13.175576     -15.888833      14735.399    
    114000   419.55475      0.057          0.25699587     0.26106495     0.25904623    -2556.4835      630.39078      630.39078      630.39078      2.5051259e+08  1.8686654     -17354939      -17354939       1249.3624     -17353689      -2536.352      -2576.5108     -2556.5876      3.3462863     -13.83276      -21.076148      14894.846    
    115000   419.07383      0.0575         0.25540454     0.2596982      0.25760544    -2542.0123      630.68897      630.68897      630.68897      2.5086826e+08  1.866016      -17342472      -17342472       1247.9303     -17341224      -2520.6468     -2563.022      -2542.3681      3.5960942     -13.99324      -23.835356      14743.203    
    116000   418.08141      0.058          0.2541867      0.25848068     0.25585905    -2528.2554      630.98717      630.98717      630.98717      2.5122427e+08  1.8633717     -17330059      -17330059       1244.9751     -17328814      -2508.6277     -2551.006      -2525.1325      3.6310551     -14.025037     -23.444513      14709.114    
    117000   416.35244      0.0585         0.25277172     0.25712269     0.25379954    -2512.3578      631.28537      631.28537      631.28537      2.5158061e+08  1.8607323     -17317703      -17317703       1239.8265     -17316464      -2494.6629     -2537.6036     -2504.8067      3.0554766     -15.747244     -20.164436      14832.428    
    118000   414.56212      0.059          0.25103959     0.25530602     0.25188645    -2494.3895      631.58357      631.58357      631.58357      2.519373e+08   1.858098      -17305425      -17305425       1234.4952     -17304190      -2477.5681     -2519.6745     -2485.926       2.7951396     -17.095091     -15.69337       14710.625    
    119000   412.89947      0.0595         0.24904247     0.25319779     0.25009707    -2474.9974      631.88177      631.88177      631.88177      2.5229432e+08  1.8554686     -17293234      -17293234       1229.5441     -17292004      -2457.8581     -2498.8679     -2468.2662      3.8982439     -15.294903     -13.163248      14812.699    
    120000   411.08115      0.06           0.24717031     0.25120313     0.248229      -2456.1311      632.17996      632.17996      632.17996      2.5265168e+08  1.8528442     -17281118      -17281118       1224.1295     -17279893      -2439.3813     -2479.1821     -2449.8298      4.571023      -12.825808     -13.789915      14887.083    
    121000   408.74296      0.0605         0.24555699     0.24927847     0.24641285    -2438.5174      632.47816      632.47816      632.47816      2.5300937e+08  1.8502247     -17269067      -17269067       1217.1667     -17267850      -2423.4591     -2460.1872     -2431.9058      4.6905286     -11.200798     -17.479485      14571.614    
    122000   406.45274      0.061          0.24371812     0.24730345     0.24480127    -2420.6689      632.77636      632.77636      632.77636      2.533674e+08   1.8476102     -17257082      -17257082       1210.3468     -17255872      -2405.3108     -2440.6953     -2416.0007      6.0568425     -11.329066     -21.579086      14769.818    
    123000   404.74064      0.0615         0.2417188      0.24567165     0.24329949    -2403.783       633.07456      633.07456      633.07456      2.5372577e+08  1.8450005     -17245177      -17245177       1205.2485     -17243972      -2385.5791     -2424.5907     -2401.1792      6.2499073     -13.484747     -23.664361      15023.319    
    124000   403.74674      0.062          0.2400235      0.2444808      0.24169016    -2388.9941      633.37276      633.37276      633.37276      2.5408448e+08  1.8423958     -17233350      -17233350       1202.2888     -17232147      -2368.8478     -2412.8379     -2385.2964      4.5808843     -16.885516     -22.535889      14826.484    
    125000   402.88626      0.0625         0.23876972     0.24310408     0.24004164    -2374.9171      633.67095      633.67095      633.67095      2.5444352e+08  1.839796      -17221585      -17221585       1199.7265     -17220385      -2356.4739     -2399.2507     -2369.0268      3.9614083     -19.031185     -18.977798      14750.401    
    126000   401.78848      0.063          0.23758464     0.24126039     0.23841866    -2359.6141      633.96915      633.96915      633.96915      2.5480291e+08  1.8372011     -17209873      -17209873       1196.4575     -17208677      -2344.7781     -2381.0549     -2353.0092      4.7914779     -18.495937     -16.084082      14911.336    
    127000   400.37803      0.0635         0.2361106      0.23930272     0.23682146    -2343.0703      634.26735      634.26735      634.26735      2.5516263e+08  1.8346111     -17198220      -17198220       1192.2574     -17197028      -2330.2305     -2361.7342     -2337.246       5.6360167     -16.555104     -15.676326      14811.004    
    128000   398.79592      0.064          0.23420566     0.23740557     0.2351371     -2325.0212      634.56555      634.56555      634.56555      2.5552269e+08  1.8320259     -17186645      -17186645       1187.5462     -17185458      -2311.4301     -2343.0108     -2320.6228      6.5059513     -15.203512     -17.335723      14788.884    
    129000   397.22264      0.0645         0.23210643     0.23545114     0.23339855    -2305.9663      634.86375      634.86375      634.86375      2.5588309e+08  1.8294456     -17175160      -17175160       1182.8612     -17173977      -2290.7123     -2323.7221     -2303.4646      6.1760418     -15.346921     -19.063221      14864.357    
    130000   395.14295      0.065          0.23034406     0.23359858     0.23178117    -2288.7534      635.16195      635.16195      635.16195      2.5624383e+08  1.8268701     -17163749      -17163749       1176.6682     -17162572      -2273.3192     -2305.4387     -2287.5023      4.393408      -15.944625     -18.99603       14743.371    
    131000   392.79267      0.0655         0.22881401     0.23195495     0.23000968    -2272.485       635.46014      635.46014      635.46014      2.566049e+08   1.8242995     -17152397      -17152397       1169.6695     -17151228      -2258.2187     -2289.2173     -2270.0191      3.3643004     -15.737135     -16.999702      14744.921    
    132000   390.84137      0.066          0.22733791     0.23045846     0.22821942    -2256.8165      635.75834      635.75834      635.75834      2.5696632e+08  1.8217337     -17141110      -17141110       1163.8588     -17139946      -2243.6507     -2274.4482     -2252.3506      4.0964072     -14.887506     -14.295252      14896.466    
    133000   389.32363      0.0665         0.22578648     0.22894277     0.22661902    -2241.4615      636.05654      636.05654      636.05654      2.5732807e+08  1.8191726     -17129894      -17129894       1159.3393     -17128734      -2228.3393     -2259.4894     -2236.5558      5.3328433     -13.698701     -13.009017      14811.775    
    134000   387.68912      0.067          0.22423649     0.22733203     0.22512262    -2226.1408      636.35474      636.35474      636.35474      2.5769017e+08  1.8166164     -17118743      -17118743       1154.472      -17117588      -2213.0421     -2243.5927     -2221.7875      5.6131334     -12.331343     -14.271081      14711.428    
    135000   385.80543      0.0675         0.22284043     0.22557402     0.22360914    -2210.7857      636.65294      636.65294      636.65294      2.580526e+08   1.814065      -17107651      -17107651       1148.8627     -17106502      -2199.264      -2226.2425     -2206.8507      5.3618571     -11.604948     -15.707492      14836.099    
    136000   384.19254      0.068          0.22137539     0.22357264     0.22191613    -2193.8125      636.95113      636.95113      636.95113      2.5841537e+08  1.8115183     -17096628      -17096628       1144.0598     -17095484      -2184.8053     -2206.4904     -2190.1419      5.6214789     -11.790138     -16.17318       14773.729    
    137000   383.07419      0.0685         0.21981447     0.22171415     0.22020692    -2176.9406      637.24933      637.24933      637.24933      2.5877849e+08  1.8089765     -17085680      -17085680       1140.7295     -17084539      -2169.4001     -2188.1485     -2173.2733      5.8241949     -12.243831     -17.043293      14835.3      
    138000   381.90643      0.069          0.21830807     0.22009734     0.21873708    -2161.8307      637.54753      637.54753      637.54753      2.5914194e+08  1.8064393     -17074802      -17074802       1137.2521     -17073664      -2154.5332     -2172.1919     -2158.7671      5.4069224     -13.130418     -16.780629      14824.127    
    139000   380.50867      0.0695         0.21675507     0.21871213     0.21752839    -2148.1885      637.84573      637.84573      637.84573      2.5950573e+08  1.8039069     -17063977      -17063977       1133.0898     -17062843      -2139.2062     -2158.5209     -2146.8383      4.5166483     -13.794667     -14.602156      14725.627    
    140000   379.14829      0.07           0.21510745     0.21752924     0.21629241    -2134.8107      638.14393      638.14393      638.14393      2.5986986e+08  1.8013793     -17053210      -17053210       1129.0389     -17052081      -2122.9455     -2146.8467     -2134.6401      3.0571662     -13.036295     -11.790487      14746.987    
    141000   377.72283      0.0705         0.21337639     0.21634847     0.21467996    -2119.927       638.44212      638.44212      638.44212      2.6023434e+08  1.7988563     -17042508      -17042508       1124.7941     -17041383      -2105.8612     -2135.1934     -2118.7265      2.0791653     -11.224714     -10.11734       14922.322    
    142000   375.90052      0.071          0.21191273     0.21487057     0.21293354    -2104.5048      638.74032      638.74032      638.74032      2.6059915e+08  1.7963381     -17031872      -17031872       1119.3676     -17030752      -2091.416      -2120.6076     -2101.4907      2.7213247     -10.047629     -10.220026      14729.55     
    143000   373.8599       0.0715         0.21081933     0.21312722     0.2113006     -2089.8007      639.03852      639.03852      639.03852      2.6096431e+08  1.7938246     -17021296      -17021296       1113.2909     -17020183      -2080.6251     -2103.4021     -2085.3748      2.6021183     -8.6922868     -11.049863      14741.181    
    144000   372.06065      0.072          0.20970984     0.21144653     0.20972337    -2075.433       639.33672      639.33672      639.33672      2.613298e+08   1.7913157     -17010771      -17010771       1107.9331     -17009663      -2069.6752     -2086.815      -2069.8088      1.0579048     -8.2744284     -10.433153      14870.322    
    145000   370.93879      0.0725         0.20842555     0.20994379     0.20839969    -2061.9098      639.63492      639.63492      639.63492      2.6169564e+08  1.7888116     -17000294      -17000294       1104.5924     -16999189      -2057.0003     -2071.9841     -2056.745       1.068688      -8.7222322     -9.4774668      14773.811    
    146000   369.9173       0.073          0.20713207     0.20867513     0.20737194    -2050.1         639.93311      639.93311      639.93311      2.6206182e+08  1.7863121     -16989879      -16989879       1101.5505     -16988777      -2044.2346     -2059.4634     -2046.6019      3.9678979     -8.3917678     -9.8171964      14812.651    
    147000   368.54133      0.0735         0.20568604     0.20735669     0.20637326    -2037.7202      640.23131      640.23131      640.23131      2.6242834e+08  1.7838172     -16979524      -16979524       1097.4531     -16978426      -2029.9634     -2046.4514     -2036.7457      6.3515813     -8.5898416     -10.34326       14843.83     
    148000   367.04692      0.074          0.2039881      0.20587283     0.20521673    -2023.4482      640.52951      640.52951      640.52951      2.627952e+08   1.781327      -16969230      -16969230       1093.0031     -16968137      -2013.206      -2031.8069     -2025.3317      5.9180909     -9.6284223     -9.3174964      14712.932    
    149000   365.51811      0.0745         0.20246124     0.20446384     0.20391033    -2009.4923      640.82771      640.82771      640.82771      2.631624e+08   1.7788414     -16958987      -16958987       1088.4505     -16957899      -1998.1371     -2017.9012     -2012.4385      2.9484795     -10.54976      -8.0801525      14736.918    
    150000   363.62543      0.075          0.20148551     0.20325033     0.20256613    -1997.8681      641.12591      641.12591      641.12591      2.6352995e+08  1.7763605     -16948783      -16948783       1082.8144     -16947700      -1988.5073     -2005.9248     -1999.1723     -0.39843235    -9.9936283     -8.2829337      14375.328    
    151000   361.8538       0.0755         0.20049278     0.20178346     0.20110057    -1984.9554      641.42411      641.42411      641.42411      2.6389784e+08  1.7738841     -16938625      -16938625       1077.5388     -16937547      -1978.7099     -1991.4479     -1984.7083     -0.88944162    -8.0567802     -8.9176074      14822.253    
    152000   360.76753      0.076          0.19928032     0.20024221     0.19949205    -1970.6048      641.7223       641.7223       641.7223       2.6426607e+08  1.7714124     -16928536      -16928536       1074.3041     -16927461      -1966.7439     -1976.237      -1968.8335      1.1415067     -5.9040409     -8.9833934      14718.818    
    153000   359.87363      0.0765         0.19787039     0.19904428     0.19808944    -1957.4113      642.0205       642.0205       642.0205       2.6463464e+08  1.7689453     -16918517      -16918517       1071.6422     -16917446      -1952.8289     -1964.4143     -1954.9908      3.6293054     -4.9794634     -8.3417468      14757.963    
    154000   358.53042      0.077          0.19648934     0.19827289     0.19711331    -1947.1191      642.3187       642.3187       642.3187       2.6500355e+08  1.7664827     -16908540      -16908540       1067.6424     -16907473      -1939.199      -1956.8013     -1945.3571      4.1807206     -5.4031998     -7.7882899      14884.191    
    155000   357.35154      0.0775         0.19560654     0.19747983     0.19631845    -1938.9911      642.6169       642.6169       642.6169       2.6537281e+08  1.7640247     -16898593      -16898593       1064.1319     -16897529      -1930.4865     -1948.9744     -1937.5124      2.3622576     -6.0722936     -7.3732482      14712.947    
    156000   356.89755      0.078          0.195029       0.19653065     0.19556377    -1931.4859      642.9151       642.9151       642.9151       2.6574241e+08  1.7615712     -16888679      -16888679       1062.78       -16887616      -1924.7866     -1939.6068     -1930.0643      0.47826219    -6.3753112     -6.0855305      14667.916    
    157000   356.31229      0.0785         0.19434225     0.19543057     0.19489347    -1923.4025      643.21329      643.21329      643.21329      2.6611235e+08  1.7591224     -16878790      -16878790       1061.0372     -16877729      -1918.0089     -1928.7498     -1923.449       0.52974366    -6.5077187     -5.0091515      14804.096    
    158000   355.26254      0.079          0.19328362     0.19413542     0.19405253    -1912.8927      643.51149      643.51149      643.51149      2.6648264e+08  1.756678      -16868930      -16868930       1057.9112     -16867872      -1907.561      -1915.9676     -1915.1496      0.93601251    -6.1943578     -5.1249466      14679.753    
    159000   354.23888      0.0795         0.19190002     0.19279088     0.19283551    -1899.9142      643.80969      643.80969      643.80969      2.6685327e+08  1.7542382     -16859126      -16859126       1054.8629     -16858071      -1893.9059     -1902.6981     -1903.1385      0.6921122     -5.2293218     -5.8401103      14707.576    
    160000   353.32414      0.08           0.19052557     0.19157406     0.19145445    -1886.8462      644.10789      644.10789      644.10789      2.6722424e+08  1.7518028     -16849381      -16849381       1052.139      -16848328      -1880.3412     -1890.689      -1889.5085      1.9173776     -3.4369376     -6.9525752      14828.562    
    161000   352.20831      0.0805         0.18947978     0.19054755     0.19024644    -1876.0548      644.40609      644.40609      644.40609      2.6759556e+08  1.749372      -16839683      -16839683       1048.8162     -16838635      -1870.02       -1880.5581     -1877.5864      3.6015577     -2.8763492     -7.8124511      14676.464    
    162000   350.88231      0.081          0.18871862     0.18974666     0.18930259    -1867.811       644.70428      644.70428      644.70428      2.6796722e+08  1.7469457     -16830017      -16830017       1044.8676     -16828972      -1862.5079     -1872.6539     -1868.2713      3.023152      -3.6079143     -7.8690745      14680.028    
    163000   349.69542      0.0815         0.18803588     0.18899348     0.18842864    -1860.2122      645.00248      645.00248      645.00248      2.6833922e+08  1.7445239     -16820384      -16820384       1041.3333     -16819342      -1855.7698     -1865.2207     -1859.6461      1.68347       -4.1206695     -6.6276015      14870.954    
    164000   349.03621      0.082          0.1873021      0.18824127     0.18756799    -1852.4923      645.30068      645.30068      645.30068      2.6871157e+08  1.7421065     -16810787      -16810787       1039.3702     -16809748      -1848.528      -1857.7968     -1851.1521      1.9312353     -3.5171404     -5.0541312      14746.709    
    165000   348.33366      0.0825         0.18643558     0.18752556     0.18681097    -1844.7968      645.59888      645.59888      645.59888      2.6908426e+08  1.7396937     -16801220      -16801220       1037.2782     -16800182      -1839.9761     -1850.7334     -1843.681       2.5487292     -2.626827      -4.7549148      14724.893    
    166000   347.5611       0.083          0.18531424     0.1865663      0.1859425     -1835.0951      645.89708      645.89708      645.89708      2.694573e+08   1.7372852     -16791676      -16791676       1034.9776     -16790641      -1828.9093     -1841.2662     -1835.1098      2.2977666     -2.8949854     -4.6847599      14844.382    
    167000   346.94953      0.0835         0.18437972     0.18547162     0.18507804    -1825.5757      646.19527      646.19527      646.19527      2.6983068e+08  1.7348812     -16782166      -16782166       1033.1564     -16781133      -1819.6863     -1830.4625     -1826.5782      1.2301851     -3.9012394     -4.1921079      14676.042    
    168000   346.24236      0.084          0.18385793     0.18448675     0.1843339     -1818.1712      646.49347      646.49347      646.49347      2.7020441e+08  1.7324817     -16772695      -16772695       1031.0506     -16771664      -1814.5367     -1820.7426     -1819.2342      1.285763      -4.0210411     -4.1255392      14701.861    
    169000   345.45715      0.0845         0.18323045     0.1836662      0.18352249    -1810.7382      646.79167      646.79167      646.79167      2.7057848e+08  1.7300865     -16763260      -16763260       1028.7124     -16762231      -1808.344      -1812.6444     -1811.2261      2.1302639     -2.8282855     -4.4061149      14831.38     
    170000   344.94449      0.085          0.18213666     0.18284184     0.18249382    -1801.0439      647.08987      647.08987      647.08987      2.709529e+08   1.7276958     -16753864      -16753864       1027.1858     -16752837      -1797.5491     -1804.5086     -1801.074       2.2417846     -1.6083519     -4.5130969      14737.15     
    171000   344.67645      0.0855         0.18109207     0.18202138     0.18148174    -1791.5789      647.38807      647.38807      647.38807      2.7132766e+08  1.7253095     -16744504      -16744504       1026.3876     -16743478      -1787.2398     -1796.4114     -1791.0856      2.7892796     -1.2801352     -4.8121978      14657.362    
    172000   344.09679      0.086          0.18054109     0.18130957     0.18077296    -1785.093       647.68627      647.68627      647.68627      2.7170277e+08  1.7229276     -16735175      -16735175       1024.6615     -16734150      -1781.8021     -1789.3864     -1784.0904      3.2770664     -2.1809906     -5.5692514      14764.022    
    173000   343.23818      0.0865         0.18022119     0.18073835     0.18018763    -1780.2357      647.98446      647.98446      647.98446      2.7207822e+08  1.72055       -16725857      -16725857       1022.1047     -16724835      -1778.6448     -1783.7488     -1778.3136      2.9619745     -2.0346334     -6.5983611      14668.643    
    174000   342.39789      0.087          0.17974838     0.18037788     0.17962617    -1775.6475      648.28266      648.28266      648.28266      2.7245402e+08  1.7181768     -16716552      -16716552       1019.6025     -16715532      -1773.9786     -1780.1913     -1772.7725      1.4265707      0.22909885    -7.8513516      14685.858    
    175000   341.76113      0.0875         0.1789414      0.17986219     0.1789519     -1769.078       648.58086      648.58086      648.58086      2.7283016e+08  1.715808      -16707271      -16707271       1017.7063     -16706254      -1766.0143     -1775.1018     -1766.1179     -0.23617233     1.4106426     -7.375468       14813.757    
    176000   341.43499      0.088          0.17783567     0.17901591     0.17832094    -1760.5807      648.87906      648.87906      648.87906      2.7320665e+08  1.7134436     -16698024      -16698024       1016.7351     -16697007      -1755.1017     -1766.7497     -1759.8908     -0.52873823    -0.1789509     -4.4982611      14650.396    
    177000   341.05377      0.0885         0.17674007     0.17799999     0.17783827    -1752.0465      649.17726      649.17726      649.17726      2.7358349e+08  1.7110835     -16688810      -16688810       1015.5999     -16687794      -1744.2888     -1756.7233     -1755.1273      0.74863453    -1.7898416     -1.6487549      14669.79     
    178000   340.40038      0.089          0.17607937     0.17695973     0.17715398    -1744.1996      649.47545      649.47545      649.47545      2.7396067e+08  1.7087277     -16679624      -16679624       1013.6542     -16678611      -1737.7683     -1746.4567     -1748.3738      1.9651722     -2.0269131     -1.0625513      14805.544    
    179000   339.84563      0.0895         0.17585237     0.17593423     0.17623759    -1737.0645      649.77365      649.77365      649.77365      2.743382e+08   1.7063762     -16670471      -16670471       1012.0023     -16669459      -1735.5279     -1736.3359     -1739.3297      2.1228397     -0.89469404    -2.6121733      14649.229    
    180000   339.55107      0.09           0.17567934     0.17524443     0.17540831    -1731.4979      650.07185      650.07185      650.07185      2.7471608e+08  1.7040291     -16661345      -16661345       1011.1251     -16660334      -1733.8203     -1729.528      -1731.1454      1.753553       0.074072882   -4.3624211      14683.739    
    181000   339.11063      0.0905         0.17520728     0.17493732     0.17471832    -1726.6648      650.37005      650.37005      650.37005      2.750943e+08   1.7016862     -16652237      -16652237       1009.8136     -16651227      -1729.1614     -1726.4971     -1724.3357      2.2103183      0.52184793    -5.0963138      14670.561    
    182000   338.43088      0.091          0.17429498     0.17470431     0.17401764    -1720.5919      650.66825      650.66825      650.66825      2.7547287e+08  1.6993477     -16643142      -16643142       1007.7894     -16642134      -1720.1577     -1724.1975     -1717.4206      2.5515554      0.84611582    -5.6403164      14774.185    
    183000   337.74487      0.0915         0.17316915     0.17442214     0.17336642    -1713.8176      650.96644      650.96644      650.96644      2.7585179e+08  1.6970134     -16634068      -16634068       1005.7466     -16633062      -1709.0467     -1721.4127     -1710.9935      1.3309904      1.00884       -6.4154961      14696.37     
    184000   337.46505      0.092          0.17218166     0.17384774     0.17271464    -1706.5352      651.26464      651.26464      651.26464      2.7623105e+08  1.6946834     -16625024      -16625024       1004.9133     -16624020      -1699.3008     -1715.7438     -1704.561       0.088205076    1.966326      -6.262455       14643.215    
    185000   337.81997      0.0925         0.1717744      0.17303084     0.1721271     -1700.5752      651.56284      651.56284      651.56284      2.7661067e+08  1.6923577     -16616013      -16616013       1005.9702     -16615007      -1695.2815     -1707.6816     -1698.7624      0.13602266     2.6318434     -4.7596373      14750.791    
    186000   338.04477      0.093          0.17180484     0.17232608     0.17176191    -1697.1554      651.86104      651.86104      651.86104      2.7699063e+08  1.6900362     -16607019      -16607019       1006.6396     -16606012      -1695.5819     -1700.7261     -1695.1583      1.1205848      2.452564      -3.6080149      14635.835    
    187000   337.42213      0.0935         0.17167333     0.17170127     0.17149152    -1693.7778      652.15924      652.15924      652.15924      2.7737093e+08  1.687719      -16598031      -16598031       1004.7855     -16597026      -1694.284      -1694.5598     -1692.4898      1.5818491      1.3209752     -3.9891305      14658.822    
    188000   336.52838      0.094          0.17103667     0.17096876     0.1708122     -1687.0388      652.45743      652.45743      652.45743      2.7775159e+08  1.685406      -16589059      -16589059       1002.124      -16588057      -1688.0006     -1687.3304     -1685.7853      0.62310616     0.37998359    -4.2199175      14831.54     
    189000   336.03537      0.0945         0.17027582     0.17035538     0.17008003    -1680.1093      652.75563      652.75563      652.75563      2.7813259e+08  1.6830972     -16580116      -16580116       1000.6559     -16579115      -1680.4917     -1681.2769     -1678.5594     -0.30745118     0.56647787    -2.6921184      14618.675    
    190000   335.56143      0.095          0.16961821     0.17000284     0.16967814    -1675.4641      653.05383      653.05383      653.05383      2.7851394e+08  1.6807926     -16571191      -16571191       999.24465     -16570192      -1674.0016     -1677.7976     -1674.5931      0.0047222687   1.6612579     -1.5194777      14634.32     
    191000   335.196        0.0955         0.16901524     0.16963153     0.16919104    -1670.6565      653.35203      653.35203      653.35203      2.7889564e+08  1.6784923     -16562278      -16562278       998.15644     -16561280      -1668.0507     -1674.1331     -1669.7858      0.95525744     2.8535462     -1.1539953      14789.719    
    192000   335.41155      0.096          0.16843025     0.16907409     0.16848426    -1664.5731      653.65023      653.65023      653.65023      2.7927769e+08  1.6761961     -16553387      -16553387       998.79832     -16552388      -1662.2774     -1668.6316     -1662.8104      1.9264187      3.085838      -1.4958172      14667.584    
    193000   335.37834      0.0965         0.16790876     0.16845199     0.16782129    -1658.6299      653.94843      653.94843      653.94843      2.7966009e+08  1.6739042     -16544523      -16544523       998.69942     -16543524      -1657.1306     -1662.4918     -1656.2674      2.3151208      2.8767712     -2.6034523      14655.125    
    194000   334.84944      0.097          0.1674039      0.16791197     0.16726911    -1653.376       654.24662      654.24662      654.24662      2.8004284e+08  1.6716164     -16535680      -16535680       997.12446     -16534683      -1652.148      -1657.1623     -1650.8178      2.7530796      2.594506      -3.7855672      14613.256    
    195000   334.45549      0.0975         0.16686096     0.16740319     0.16663426    -1647.8276      654.54482      654.54482      654.54482      2.8042593e+08  1.6693327     -16526858      -16526858       995.95134     -16525862      -1646.7897     -1652.141      -1644.5522      3.3480222      2.4470004     -4.1073068      14607.865    
    196000   334.25328      0.098          0.16640466     0.16695471     0.16604731    -1642.9203      654.84302      654.84302      654.84302      2.8080938e+08  1.6670533     -16518051      -16518051       995.34919     -16517056      -1642.2863     -1647.7149     -1638.7595      3.6937428      2.6325007     -4.4049106      14630.071    
    197000   333.87516      0.0985         0.16601215     0.16639642     0.16559153    -1638.2929      655.14122      655.14122      655.14122      2.8119317e+08  1.6647779     -16509256      -16509256       994.22322     -16508261      -1638.4125     -1642.205      -1634.2613      2.8418498      3.0442013     -5.4525571      14697.222    
    198000   333.58934      0.099          0.16537768     0.16572643     0.16495297    -1631.9009      655.43942      655.43942      655.43942      2.8157732e+08  1.6625068     -16500488      -16500488       993.37208     -16499495      -1632.1508     -1635.5927     -1627.9593      1.1587647      3.4055281     -6.4165765      14670.271    
    199000   333.937        0.0995         0.16461481     0.16512529     0.16416341    -1624.8162      655.73761      655.73761      655.73761      2.8196181e+08  1.6602397     -16491756      -16491756       994.40737     -16490762      -1624.6219     -1629.6599     -1620.1669      0.22430043     2.8763695     -5.3086047      14568.38     
    200000   334.22609      0.1            0.16397729     0.1647269      0.16375623    -1620.0688      656.03581      656.03581      656.03581      2.8234665e+08  1.6579768     -16483050      -16483050       995.26823     -16482054      -1618.33       -1625.7281     -1616.1483      1.0470388      2.0701671     -2.7696575      13435.476    
    201000   333.92565      0.1005         0.16352186     0.16428331     0.16387677    -1617.5078      656.33401      656.33401      656.33401      2.8273184e+08  1.6557179     -16474347      -16474347       994.37356     -16473352      -1613.8353     -1621.3502     -1617.338       1.5709154      1.9516909     -0.48776207     14675.021    
    202000   333.25602      0.101          0.16328808     0.16376017     0.16388118    -1615.0322      656.63221      656.63221      656.63221      2.8311739e+08  1.6534632     -16465643      -16465643       992.37952     -16464651      -1611.528      -1616.1872     -1617.3814      2.0261698      2.7545573     -0.48906176     14771.095    
    203000   332.78312      0.1015         0.16310632     0.16328069     0.16329077    -1610.9147      656.93041      656.93041      656.93041      2.8350328e+08  1.6512126     -16456947      -16456947       990.97131     -16455956      -1609.7342     -1611.4551     -1611.5546      2.8991582      3.1094647     -1.7573239      14806.388    
    204000   332.63448      0.102          0.16280322     0.1630038      0.16242059    -1606.1439      657.2286       657.2286       657.2286       2.8388953e+08  1.648966      -16448271      -16448271       990.52869     -16447280      -1606.7428     -1608.7224     -1602.9666      3.377261       2.8352766     -2.2304463      14835.737    
    205000   332.39587      0.1025         0.16228327     0.1628043      0.16165441    -1601.2566      657.5268       657.5268       657.5268       2.8427612e+08  1.6467236     -16439615      -16439615       989.81813     -16438625      -1601.6113     -1606.7535     -1595.405       1.8396234      2.5029046     -3.0634701      14725.002    
    206000   332.04093      0.103          0.16151553     0.16230256     0.16097402    -1594.842       657.825        657.825        657.825        2.8466307e+08  1.6444852     -16430979      -16430979       988.76119     -16429990      -1594.0343     -1601.8018     -1588.6901     -0.06092036     2.8012885     -3.7198741      14663.7      
    207000   331.93139      0.1035         0.16082927     0.16154794     0.16045868    -1588.4066      658.1232       658.1232       658.1232       2.8505036e+08  1.6422508     -16422370      -16422370       988.43501     -16421382      -1587.2615     -1594.3542     -1583.604      -0.032081561    3.290437      -3.0013645      14831.15     
    208000   331.7642       0.104          0.16048915     0.16095212     0.16015315    -1584.3225      658.4214       658.4214       658.4214       2.8543801e+08  1.6400205     -16413785      -16413785       987.93713     -16412797      -1583.9048     -1588.4739     -1580.5887      1.1083771      3.4393844     -2.1071466      14704.381    
    209000   331.40631      0.1045         0.16016671     0.16060728     0.15979322    -1580.9432      658.71959      658.71959      658.71959      2.8582601e+08  1.6377942     -16405209      -16405209       986.87141     -16404222      -1580.7225     -1585.0706     -1577.0365      1.7721057      4.1242946     -1.9375238      14672.026    
    210000   331.61492      0.105          0.15964816     0.16011503     0.15930923    -1576.0257      659.01779      659.01779      659.01779      2.8621436e+08  1.635572      -16396642      -16396642       987.49259     -16395654      -1575.6049     -1580.2125     -1572.2599      1.8616596      5.2244407     -2.2650188      14864.607    
    211000   332.13694      0.1055         0.15923711     0.15933611     0.15888331    -1570.7099      659.31599      659.31599      659.31599      2.8660306e+08  1.6333538     -16388096      -16388096       989.0471      -16387107      -1571.5481     -1572.5252     -1568.0563      2.0855569      5.4664994     -2.5923338      14763.354    
    212000   332.23209      0.106          0.1589686      0.15870148     0.15847518    -1566.3961      659.61419      659.61419      659.61419      2.8699212e+08  1.6311395     -16379569      -16379569       989.33042     -16378579      -1568.8981     -1566.2618     -1564.0284      2.1499821      4.339588      -2.1038288      14770.612    
    213000   331.86914      0.1065         0.15852555     0.15841156     0.15801959    -1562.4861      659.91239      659.91239      659.91239      2.8738152e+08  1.6289293     -16371061      -16371061       988.24963     -16370073      -1564.5255     -1563.4005     -1559.5321      2.0433429      3.2996841     -1.5968115      14890.794    
    214000   331.52288      0.107          0.15796612     0.15819267     0.15756955    -1558.4451      660.21059      660.21059      660.21059      2.8777128e+08  1.6267231     -16362570      -16362570       987.21853     -16361583      -1559.0044     -1561.2403     -1555.0906      1.7019595      2.5308597     -2.2214314      14733.139    
    215000   331.05864      0.1075         0.15754985     0.1578743      0.15714971    -1554.6471      660.50878      660.50878      660.50878      2.8816139e+08  1.6245209     -16354095      -16354095       985.8361      -16353109      -1554.8961     -1558.0982     -1550.9471      1.3098143      1.8047733     -3.1046184      14768.885    
    216000   330.47975      0.108          0.15717694     0.15747631     0.15656069    -1550.1733      660.80698      660.80698      660.80698      2.8855185e+08  1.6223226     -16345629      -16345629       984.11226     -16344644      -1551.2158     -1554.1704     -1545.1338      0.68809222     2.2315878     -2.8405371      14942.19     
    217000   330.44737      0.1085         0.156616       0.15679505     0.15592303    -1543.9891      661.10518      661.10518      661.10518      2.8894267e+08  1.6201283     -16337179      -16337179       984.01584     -16336195      -1545.6797     -1547.4469     -1538.8407     -0.40141398     3.838479      -1.7810093      14761.953    
[...]
   3017000   324.90137      1.5085         0.0089178816   0.0089080724   0.0086791976  -87.195169      1496.0598      1496.0598      1496.0598      3.3484738e+09  0.13980226    -4970794.5     -4970794.5      967.5008      -4969827       -88.012648     -87.915839     -85.657021      0.33046786     1.7121626      2.233441       14390.348    
   3018000   324.92575      1.509          0.0089158692   0.0089031203   0.0086734241  -87.153264      1496.358       1496.358       1496.358       3.3504765e+09  0.13971869    -4968408.9     -4968408.9      967.5734      -4967441.3     -87.992788     -87.866965     -85.60004       0.34020784     1.746856       2.2034828      14323.203    
   3019000   324.93525      1.5095         0.0089132729   0.008899783    0.0086679201  -87.115638      1496.6562      1496.6562      1496.6562      3.3524799e+09  0.13963519    -4966023.3     -4966023.3      967.60169     -4965055.7     -87.967165     -87.83403      -85.54572       0.35924207     1.776628       2.2113152      14362.754    
   3020000   324.93144      1.51           0.0089059367   0.0088950443   0.0086604176  -87.051233      1496.9544      1496.9544      1496.9544      3.3544842e+09  0.13955176    -4963637.9     -4963637.9      967.59035     -4962670.3     -87.894761     -87.787261     -85.471676      0.35787831     1.7914646      2.2460705      14269.073    
   3021000   324.91002      1.5105         0.0088945511   0.0088862188   0.0086497944  -86.949796      1497.2526      1497.2526      1497.2526      3.3564893e+09  0.1394684     -4961253.9     -4961253.9      967.52657     -4960286.3     -87.782394     -87.70016      -85.366834      0.34071754     1.7870668      2.2813234      14235.527    
   3022000   324.86337      1.511          0.0088832583   0.008875546    0.0086373971  -86.836751      1497.5508      1497.5508      1497.5508      3.3584951e+09  0.1393851     -4958872       -4958872        967.38765     -4957904.6     -87.670943     -87.594829     -85.244482      0.31938859     1.763867       2.2935508      14311.053    
   3023000   324.80926      1.5115         0.0088754189   0.0088666795   0.0086258735  -86.743884      1497.849       1497.849       1497.849       3.3605018e+09  0.13930187    -4956492.1     -4956492.1      967.2265      -4955524.8     -87.593574     -87.507323     -85.130753      0.29338326     1.7394354      2.280542       14171.427    
   3024000   324.78032      1.512          0.0088703624   0.0088612008   0.0086163158  -86.677783      1498.1472      1498.1472      1498.1472      3.3625093e+09  0.13921871    -4954113.5     -4954113.5      967.14034     -4953146.4     -87.54367      -87.453252     -85.036425      0.25985747     1.7254337      2.2550741      14157.341    
   3025000   324.78063      1.5125         0.0088658094   0.0088600406   0.0086072857  -86.629281      1498.4454      1498.4454      1498.4454      3.3645175e+09  0.13913561    -4951735.5     -4951735.5      967.14127     -4950768.3     -87.498736     -87.441802     -84.947306      0.22449544     1.7246797      2.2406987      14168.039    
   3026000   324.80258      1.513          0.0088601077   0.0088586308   0.0085974873  -86.573652      1498.7436      1498.7436      1498.7436      3.3665266e+09  0.13905257    -4949358.1     -4949358.1      967.20661     -4948390.9     -87.442465     -87.427889     -84.850603      0.20377239     1.7298167      2.2500861      13908.914    
   3027000   324.83724      1.5135         0.0088534809   0.008852272    0.0085885663  -86.501585      1499.0418      1499.0418      1499.0418      3.3685365e+09  0.13896961    -4946981.6     -4946981.6      967.30984     -4946014.3     -87.377063     -87.365132     -84.762559      0.2163028      1.7340041      2.2746854      13865.276    
   3028000   324.87364      1.514          0.0088452996   0.0088419958   0.0085838189  -86.425246      1499.34        1499.34        1499.34        3.3705471e+09  0.13888671    -4944606.4     -4944606.4      967.41824     -4943639       -87.29632      -87.263713     -84.715705      0.26654908     1.7377012      2.2934597      13889.348    
   3029000   324.90053      1.5145         0.0088353165   0.0088309857   0.0085841704  -86.357341      1499.6382      1499.6382      1499.6382      3.3725586e+09  0.13880387    -4942232.3     -4942232.3      967.4983      -4941264.8     -87.197795     -87.155053     -84.719175      0.32089124     1.7402173      2.2916859      14060.048    
   3030000   324.91534      1.515          0.0088264572   0.0088219884   0.0085871422  -86.308374      1499.9364      1499.9364      1499.9364      3.3745709e+09  0.1387211     -4939859       -4939859        967.54241     -4938891.5     -87.11036      -87.066256     -84.748505      0.34079018     1.7439433      2.2927138      13982.038    
   3031000   324.91785      1.5155         0.0088205588   0.0088148905   0.0085890376  -86.271855      1500.2346      1500.2346      1500.2346      3.3765839e+09  0.1386384     -4937486       -4937486        967.54986     -4936518.4     -87.052147     -86.996206     -84.767211      0.3248845      1.7374032      2.2951386      13964.804    
   3032000   324.9099       1.516          0.0088158916   0.008806981    0.0085859426  -86.220298      1500.5328      1500.5328      1500.5328      3.3785978e+09  0.13855576    -4935112.9     -4935112.9      967.52621     -4934145.4     -87.006085     -86.918145     -84.736665      0.29583582     1.7203097      2.2787899      14140.058    
   3033000   324.90634      1.5165         0.0088111875   0.0087978784   0.0085767809  -86.144738      1500.831       1500.831       1500.831       3.3806125e+09  0.13847319    -4932740.7     -4932740.7      967.51559     -4931773.2     -86.95966      -86.828309     -84.646246      0.27089135     1.6984686      2.2484742      13999.044    
   3034000   324.90488      1.517          0.00880467     0.0087905117   0.0085654184  -86.061683      1501.1292      1501.1292      1501.1292      3.382628e+09   0.13839068    -4930370.2     -4930370.2      967.51126     -4929402.6     -86.895337     -86.755605     -84.534107      0.26262675     1.6741094      2.216211       13959.975    
   3035000   324.8925       1.5175         0.008797133    0.0087880244   0.0085566403  -85.999828      1501.4274      1501.4274      1501.4274      3.3846442e+09  0.13830824    -4928000.9     -4928000.9      967.47439     -4927033.4     -86.820952     -86.731057     -84.447474      0.2648507      1.6580736      2.1925346      13878.353    
   3036000   324.8674       1.518          0.0087906846   0.0087896849   0.0085535016  -85.973751      1501.7256      1501.7256      1501.7256      3.3866613e+09  0.13822587    -4925631.8     -4925631.8      967.39964     -4924664.4     -86.757311     -86.747445     -84.416498      0.27722364     1.6632346      2.1892833      14020.563    
   3037000   324.84134      1.5185         0.0087854808   0.0087893768   0.0085536113  -85.95598       1502.0238      1502.0238      1502.0238      3.3886792e+09  0.13814356    -4923261.9     -4923261.9      967.32205     -4922294.6     -86.705954     -86.744405     -84.41758       0.3072722      1.7056685      2.2130035      13899.015    
   3038000   324.82934      1.519          0.0087801928   0.0087818024   0.0085506958  -85.904074      1502.322       1502.322       1502.322       3.3906978e+09  0.13806131    -4920891.8     -4920891.8      967.2863      -4919924.6     -86.653766     -86.669651     -84.388807      0.34603066     1.7612167      2.2394101      13842.857    
   3039000   324.82959      1.5195         0.0087748392   0.0087693678   0.0085435267  -85.821971      1502.6202      1502.6202      1502.6202      3.3927173e+09  0.13797913    -4918522.8     -4918522.8      967.28707     -4917555.5     -86.60093      -86.546931     -84.318053      0.36356574     1.7854946      2.2545275      13930.088    
   3040000   324.80829      1.52           0.0087706343   0.0087566006   0.0085340958  -85.735112      1502.9184      1502.9184      1502.9184      3.3947376e+09  0.13789702    -4916155.3     -4916155.3      967.22363     -4915188.1     -86.559431     -86.420929     -84.224977      0.3478828      1.7691561      2.257493       13819.707    
   3041000   324.73499      1.5205         0.0087655887   0.0087446321   0.0085237819  -85.64521       1503.2166      1503.2166      1503.2166      3.3967587e+09  0.13781497    -4913789.2     -4913789.2      967.00535     -4912822.2     -86.509634     -86.302809     -84.123187      0.32614266     1.7295011      2.2446623      13859.028    
   3042000   324.63104      1.521          0.0087566559   0.00873418     0.0085149271  -85.552308      1503.5148      1503.5148      1503.5148      3.3987805e+09  0.13773298    -4911424.4     -4911424.4      966.6958      -4910457.7     -86.421475     -86.199654     -84.035796      0.32546456     1.6949682      2.2229887      13855.587    
   3043000   324.54021      1.5215         0.0087463534   0.0087278215   0.0085070385  -85.471547      1503.813       1503.813       1503.813       3.4008032e+09  0.13765107    -4909061       -4909061        966.42531     -4908094.6     -86.319797     -86.136901     -83.957942      0.34841557     1.6896367      2.2216331      13958.752    
   3044000   324.49152      1.522          0.0087384125   0.0087255006   0.0084999909  -85.414603      1504.1112      1504.1112      1504.1112      3.4028267e+09  0.13756921    -4906698.7     -4906698.7      966.28034     -4905732.4     -86.241426     -86.113996     -83.888388      0.39310992     1.7052935      2.2516005      13810        
   3045000   324.48487      1.5225         0.008731966    0.0087243555   0.0084943886  -85.371199      1504.4094      1504.4094      1504.4094      3.404851e+09   0.13748742    -4904336.8     -4904336.8      966.26053     -4903370.5     -86.177804     -86.102695     -83.833097      0.43811063     1.7231357      2.2914244      13772.814    
   3046000   324.50153      1.523          0.0087246522   0.0087200544   0.0084891998  -85.315918      1504.7076      1504.7076      1504.7076      3.4068761e+09  0.1374057     -4901975.2     -4901975.2      966.31016     -4901008.9     -86.105622     -86.060246     -83.781888      0.45724493     1.7413689      2.3057165      13759.361    
   3047000   324.53241      1.5235         0.0087164244   0.0087114017   0.008484034   -85.243392      1505.0058      1505.0058      1505.0058      3.408902e+09   0.13732404    -4899614.5     -4899614.5      966.40211     -4898648.1     -86.024421     -85.97485      -83.730905      0.43754627     1.7613514      2.2847576      13845.776    
   3048000   324.57662      1.524          0.0087092536   0.0087021181   0.0084781113  -85.169777      1505.304       1505.304       1505.304       3.4109287e+09  0.13724244    -4897255.1     -4897255.1      966.53375     -4896288.6     -85.95365      -85.883229     -83.672453      0.39064682     1.7717075      2.2563027      13727.019    
   3049000   324.62862      1.5245         0.0087046017   0.0086944081   0.0084723341  -85.110104      1505.6022      1505.6022      1505.6022      3.4129562e+09  0.13716091    -4894897       -4894897        966.68861     -4893930.3     -85.907739     -85.807137     -83.615436      0.3401344      1.759315       2.2400509      13723.377    
   3050000   324.67911      1.525          0.0087020884   0.0086882269   0.0084689138  -85.07025       1505.9004      1505.9004      1505.9004      3.4149845e+09  0.13707945    -4892539.5     -4892539.5      966.83894     -4891572.6     -85.882936     -85.746133     -83.58168       0.31319544     1.7241499      2.2360729      11313.974    
   3051000   324.73041      1.5255         0.0086983051   0.0086832473   0.0084662464  -85.032647      1506.1986      1506.1986      1506.1986      3.4170136e+09  0.13699805    -4890181.9     -4890181.9      966.99171     -4889214.9     -85.845597     -85.696988     -83.555355      0.31635226     1.6918475      2.2306763      13180.866    
   3052000   324.79358      1.526          0.0086913977   0.0086774959   0.0084605341  -84.97221       1506.4968      1506.4968      1506.4968      3.4190435e+09  0.13691671    -4887824.8     -4887824.8      967.17983     -4886857.7     -85.777426     -85.640226     -83.498979      0.33751033     1.6777213      2.2120742      14035.996    
   3053000   324.8729       1.5265         0.0086834372   0.0086719109   0.00845224    -84.900364      1506.795       1506.795       1506.795       3.4210742e+09  0.13683544    -4885469.2     -4885469.2      967.41602     -4884501.8     -85.698862     -85.585106     -83.417123      0.35044211     1.6763008      2.1978528      13938.982    
   3054000   324.95257      1.527          0.0086769061   0.0086680605   0.0084457372  -84.844819      1507.0932      1507.0932      1507.0932      3.4231057e+09  0.13675423    -4883114.7     -4883114.7      967.65327     -4882147       -85.634405     -85.547106     -83.352946      0.34524152     1.6845689      2.2069049      14102.275    
   3055000   325.00831      1.5275         0.0086704781   0.0086636412   0.0084392459  -84.787779      1507.3914      1507.3914      1507.3914      3.425138e+09   0.13667309    -4880760.9     -4880760.9      967.81924     -4879793       -85.570965     -85.50349      -83.288881      0.33000802     1.7022862      2.2287349      14031.338    
   3056000   325.02981      1.528          0.0086642266   0.0086572205   0.0084310387  -84.719092      1507.6896      1507.6896      1507.6896      3.4271712e+09  0.13659201    -4878407.9     -4878407.9      967.88327     -4877440       -85.509268     -85.440124     -83.207883      0.30433398     1.7104756      2.2423901      14009.369    
   3057000   325.03135      1.5285         0.0086590412   0.0086485548   0.0084222496  -84.644611      1507.9878      1507.9878      1507.9878      3.4292051e+09  0.13651099    -4876056.2     -4876056.2      967.88787     -4875088.4     -85.458092     -85.354599     -83.121141      0.27170117     1.7099839      2.2400227      14038.38     
   3058000   325.023        1.529          0.0086543834   0.0086402319   0.0084138817  -84.574379      1508.286       1508.286       1508.286       3.4312398e+09  0.13643004    -4873705.8     -4873705.8      967.863       -4872737.9     -85.412123     -85.272459     -83.038556      0.26253604     1.704085       2.2248171      14153.747    
   3059000   324.99289      1.5295         0.0086507818   0.008635861    0.0084077381  -84.527941      1508.5842      1508.5842      1508.5842      3.4332754e+09  0.13634915    -4871356       -4871356        967.77334     -4870388.3     -85.376579     -85.229321     -82.977923      0.28951572     1.6913163      2.2160951      14013.336    
   3060000   324.93289      1.53           0.0086464879   0.0086349217   0.008403331   -84.496227      1508.8824      1508.8824      1508.8824      3.4353117e+09  0.13626833    -4869006.2     -4869006.2      967.59465     -4868038.6     -85.334201     -85.220052     -82.934428      0.32768511     1.6846692      2.2271792      14034.032    
   3061000   324.84569      1.5305         0.0086398381   0.0086344327   0.0083995841  -84.460416      1509.1806      1509.1806      1509.1806      3.4373489e+09  0.13618757    -4866656       -4866656        967.335       -4865688.7     -85.268573     -85.215225     -82.897449      0.35485752     1.6994527      2.236573       14196.093    
   3062000   324.732        1.531          0.0086317643   0.0086303161   0.0083942186  -84.402661      1509.4788      1509.4788      1509.4788      3.4393868e+09  0.13610687    -4864305.9     -4864305.9      966.99645     -4863338.9     -85.18889      -85.174598     -82.844496      0.36539269     1.7312955      2.2241414      14053.958    
   3063000   324.60378      1.5315         0.0086238699   0.0086204499   0.0083867396  -84.319629      1509.777       1509.777       1509.777       3.4414256e+09  0.13602624    -4861956.5     -4861956.5      966.61463     -4860989.9     -85.110978     -85.077226     -82.770684      0.3614699      1.7538189      2.2040467      14030.154    
   3064000   324.50841      1.532          0.008615831    0.0086055079   0.0083781536  -84.215782      1510.0752      1510.0752      1510.0752      3.4434651e+09  0.13594567    -4859608.8     -4859608.8      966.33064     -4858642.5     -85.031641     -84.92976      -82.685947      0.34933556     1.7458226      2.1886807      14084.965    
   3065000   324.47347      1.5325         0.0086090497   0.0085911638   0.0083710048  -84.122768      1510.3734      1510.3734      1510.3734      3.4455055e+09  0.13586517    -4857263.2     -4857263.2      966.22657     -4856296.9     -84.964715     -84.788195     -82.615394      0.33351622     1.7080596      2.1780055      14236.941    
   3066000   324.48505      1.533          0.0086040267   0.0085809505   0.0083652956  -84.053862      1510.6716      1510.6716      1510.6716      3.4475467e+09  0.13578473    -4854918.9     -4854918.9      966.26106     -4853952.7     -84.915142     -84.687397     -82.559048      0.32245624     1.651759       2.1795999      14148.369    
   3067000   324.52371      1.5335         0.0085994484   0.0085743215   0.0083596127  -83.998298      1510.9698      1510.9698      1510.9698      3.4495887e+09  0.13570435    -4852575.6     -4852575.6      966.37621     -4851609.2     -84.869957     -84.621974     -82.502963      0.32479059     1.5931878      2.1827513      14170.998    
   3068000   324.57605      1.534          0.008595704    0.0085713293   0.0083545693  -83.959545      1511.268       1511.268       1511.268       3.4516315e+09  0.13562404    -4850232.7     -4850232.7      966.53206     -4849266.2     -84.833003     -84.592443     -82.453188      0.33273978     1.558615       2.1664434      14297.399    
   3069000   324.63261      1.5345         0.0085944842   0.0085707517   0.0083503599  -83.939784      1511.5661      1511.5661      1511.5661      3.4536751e+09  0.13554378    -4847889.9     -4847889.9      966.70047     -4846923.2     -84.820964     -84.586742     -82.411645      0.33654909     1.5627876      2.1416409      14258.808    
   3070000   324.67683      1.535          0.0085941071   0.0085689428   0.0083476134  -83.923557      1511.8643      1511.8643      1511.8643      3.4557195e+09  0.1354636     -4845546.5     -4845546.5      966.83216     -4844579.6     -84.817242     -84.56889      -82.384539      0.33598592     1.5961146      2.1274506      14326.471    
   3071000   324.68806      1.5355         0.0085899069   0.0085612221   0.0083426597  -83.868044      1512.1625      1512.1625      1512.1625      3.4577647e+09  0.13538347    -4843202.8     -4843202.8      966.8656      -4842235.9     -84.775789     -84.492693     -82.335649      0.32401254     1.6404702      2.1328376      14427.498    
   3072000   324.66021      1.536          0.008579311    0.0085496082   0.008331303   -83.757619      1512.4607      1512.4607      1512.4607      3.4598107e+09  0.13530341    -4840860.6     -4840860.6      966.78265     -4839893.8     -84.671216     -84.378073     -82.223568      0.30700921     1.6815589      2.1587761      14324.116    
   3073000   324.60208      1.5365         0.008564236    0.0085386703   0.0083164072  -83.62304       1512.7589      1512.7589      1512.7589      3.4618575e+09  0.13522341    -4838521.2     -4838521.2      966.60956     -4837554.6     -84.522438     -84.270124     -82.076558      0.29199671     1.7118545      2.1965992      14288.431    
   3074000   324.53655      1.537          0.0085477704   0.0085300246   0.0083023149  -83.49407       1513.0571      1513.0571      1513.0571      3.4639051e+09  0.13514348    -4836184.7     -4836184.7      966.41443     -4835218.3     -84.359935     -84.1