LAMMPS (23 Jun 2022 - Update 1)
OMP_NUM_THREADS environment is not set. Defaulting to 1 thread. (src/comm.cpp:98)
  using 1 OpenMP thread(s) per MPI task
###

# Read restart info
read_restart ${read_res}
read_restart ./trial5/0100/equpmf189.res
Reading restart file ...
  restart file = 23 Jun 2022, LAMMPS = 23 Jun 2022
  restoring atom style atomic from restart
  orthogonal box = (1627.8372 1627.8372 1627.8372) to (2372.1628 2372.1628 2372.1628)
  1 by 2 by 2 MPI processor grid
  restoring pair style table from restart
  1000 atoms
  read_restart CPU = 0.046 seconds

# Settings
pair_style table/pgn spline 10941
pair_coeff 1 1 N20e.txt DE_GNP 308 72.9   # 1.35 * r
pair_coeff 2 2 N100e.txt DE_GNP 473.9 111.78
WARNING: 20 of 10941 force values in table DE_GNP are inconsistent with -dE/dr.
WARNING:  Should only be flagged at inflection points (src/pair_table_pgn.cpp:478)
pair_coeff 1 2 mixed_potentiale.txt DE_GNP 391.2 92.95
WARNING: 1564 of 10941 force values in table DE_GNP are inconsistent with -dE/dr.
WARNING:  Should only be flagged at inflection points (src/pair_table_pgn.cpp:478)

# Neighbor list
neighbor 2.0 bin
neigh_modify delay 0 every 1 check no once yes

# Temperature
variable T equal ${Temp}
variable T equal 300

# Deformation
reset_timestep 0
variable tmp equal "lx"
variable L0 equal ${tmp}
variable L0 equal 744.325638973905
variable strain equal "(lx - v_L0)/v_L0"
variable stp equal "step"
variable tmpe equal "temp"
variable p1 equal "v_strain"
variable p2 equal "-pxx*1.01325/10000"
variable p3 equal "-pyy*1.01325/10000"
variable p4 equal "-pzz*1.01325/10000"
variable p5 equal "lx"
variable p6 equal "ly"
variable p7 equal "lz"
variable p8 equal "press"
variable p9 equal "epair"
variable p10 equal "etotal"

# Thermo
thermo_style custom step temp v_p1 v_p2 v_p3 v_p4 press lx ly lz vol density epair pe ke etotal pxx pyy pzz pxy pxz pyz spcpu
thermo ${ts_save}
thermo 1000

# Dump
# dump 1 all custom 2000 ./${N20}${N100}/tensile/trajectory/trajectory_${usic}_${trial}_*.tensile.custom id type x y z ix iy iz
# dump_modify 1 sort id
dump 2 all cfg 50000 ./trial${trial}/${N20}${N100}/tensile/trajectory/dumpten.tens_${usic}_${trial}_*.cfg mass type xs ys zs fx fy fz
dump 2 all cfg 50000 ./trial5/${N20}${N100}/tensile/trajectory/dumpten.tens_${usic}_${trial}_*.cfg mass type xs ys zs fx fy fz
dump 2 all cfg 50000 ./trial5/0${N100}/tensile/trajectory/dumpten.tens_${usic}_${trial}_*.cfg mass type xs ys zs fx fy fz
dump 2 all cfg 50000 ./trial5/0100/tensile/trajectory/dumpten.tens_${usic}_${trial}_*.cfg mass type xs ys zs fx fy fz
dump 2 all cfg 50000 ./trial5/0100/tensile/trajectory/dumpten.tens_1_${trial}_*.cfg mass type xs ys zs fx fy fz
dump 2 all cfg 50000 ./trial5/0100/tensile/trajectory/dumpten.tens_1_5_*.cfg mass type xs ys zs fx fy fz
dump_modify 2 element N20 N100

fix 1 all nvt temp ${T} ${T} 100
fix 1 all nvt temp 300 ${T} 100
fix 1 all nvt temp 300 300 100
fix 2 all deform 1 x erate ${strain_rate} y erate ${strain_rate} z erate ${strain_rate} units box
fix 2 all deform 1 x erate 5e-6 y erate ${strain_rate} z erate ${strain_rate} units box
fix 2 all deform 1 x erate 5e-6 y erate 5e-6 z erate ${strain_rate} units box
fix 2 all deform 1 x erate 5e-6 y erate 5e-6 z erate 5e-6 units box
fix             def1 all print ${ts_save} "${p1} ${p2} ${p3} ${p4}" file ./tensile/${trial}/tensile${N20}${N100}_${usic}_${trial}.txt screen no
fix             def1 all print 1000 "${p1} ${p2} ${p3} ${p4}" file ./tensile/${trial}/tensile${N20}${N100}_${usic}_${trial}.txt screen no
fix             def1 all print 1000 "${p1} ${p2} ${p3} ${p4}" file ./tensile/5/tensile${N20}${N100}_${usic}_${trial}.txt screen no
fix             def1 all print 1000 "${p1} ${p2} ${p3} ${p4}" file ./tensile/5/tensile0${N100}_${usic}_${trial}.txt screen no
fix             def1 all print 1000 "${p1} ${p2} ${p3} ${p4}" file ./tensile/5/tensile0100_${usic}_${trial}.txt screen no
fix             def1 all print 1000 "${p1} ${p2} ${p3} ${p4}" file ./tensile/5/tensile0100_1_${trial}.txt screen no
fix             def1 all print 1000 "${p1} ${p2} ${p3} ${p4}" file ./tensile/5/tensile0100_1_5.txt screen no

timestep       		${ts}
timestep       		0.1
run				${steps_tensile}
run				6000000
Generated 0 of 1 mixed pair_coeff terms from geometric mixing rule
Unused restart file global fix info:
  fix style: npt, fix ID: 5
Neighbor list info ...
  update every 1 steps, delay 0 steps, check no
  max neighbors/atom: 2000, page size: 100000
  master list distance cutoff = 113.78
  ghost atom cutoff = 113.78
  binsize = 56.89, bins = 14 14 14
  1 neighbor lists, perpetual/occasional/extra = 1 0 0
  (1) pair table/pgn, perpetual
      attributes: half, newton on
      pair build: half/bin/atomonly/newton
      stencil: half/bin/3d
      bin: standard
Per MPI rank memory allocation (min/avg/max) = 3.84 | 3.84 | 3.84 Mbytes
   Step          Temp           v_p1           v_p2           v_p3           v_p4          Press            Lx             Ly             Lz           Volume        Density         E_pair         PotEng         KinEng         TotEng          Pxx            Pyy            Pzz            Pxy            Pxz            Pyz           S/CPU     
         0   301.94024     -1.5273804e-16 -0.0026389661  -0.031419876   -0.0095034674   143.30886      744.32564      744.32564      744.32564      4.1237178e+08  1.6995152     -58755544      -58755544       899.12649     -58754645       26.044571      310.09007      93.791931      508.52591     -1179.7663     -448.82771      0            
      1000   302.30339      0.0005         0.0091993632  -0.019046835    0.0018363077   26.354681      744.6978       744.6978       744.6978       4.1299065e+08  1.6969685     -58756326      -58756326       900.20787     -58755426      -90.790655      187.97765     -18.122948      500.92251     -1163.0085     -441.85028      16811.828    
      2000   294.7944       0.001          0.020824471   -0.0069342006   0.012950294   -88.298589      745.06996      745.06996      745.06996      4.1361013e+08  1.6944268     -58756072      -58756072       877.84739     -58755194      -205.52154      68.435239     -127.80946      493.35415     -1146.3173     -435.11967      19778.404    
      3000   295.38311      0.0015         0.032214868    0.0049183237   0.023836673   -200.57526      745.44213      745.44213      745.44213      4.1423024e+08  1.6918903     -58754803      -58754803       879.60047     -58753923      -317.93603     -48.54008      -235.24967      485.44662     -1129.2749     -428.71371      20101.152    
      4000   310.14221      0.002          0.043437158    0.016563778    0.034539933   -311.01528      745.81429      745.81429      745.81429      4.1485096e+08  1.6893588     -58752540      -58752540       923.55054     -58751617      -428.69141     -163.47178     -340.88264      477.37941     -1111.9423     -422.43689      20268.535    
      5000   314.68837      0.0025         0.054528154    0.028031501    0.045099836   -419.96708      746.18645      746.18645      746.18645      4.1547231e+08  1.6868323     -58749297      -58749297       937.08823     -58748360      -538.15104     -276.64941     -445.10078      469.56286     -1094.5006     -416.04033      18710.332    
      6000   322.25768      0.003          0.065440657    0.039322404    0.055511998   -527.26395      746.55862      746.55862      746.55862      4.1609427e+08  1.6843109     -58745082      -58745082       959.62833     -58744122      -645.84907     -388.08195     -547.86083      462.01781     -1077.2999     -409.4892       18435.045    
      7000   321.1551       0.0035         0.07611996     0.050427084    0.06578231    -632.71438      746.93078      746.93078      746.93078      4.1671686e+08  1.6817945     -58739903      -58739903       956.34505     -58738947      -751.24559     -497.67663     -649.22093      454.42385     -1060.4453     -403.0184       20373.524    
      8000   320.99653      0.004          0.086570504    0.061338293    0.075869262   -736.17258      747.30294      747.30294      747.30294      4.1734006e+08  1.6792831     -58733776      -58733776       955.87287     -58732820      -854.38445     -605.36188     -748.7714       446.62652     -1043.4472     -396.82081      20818.548    
      9000   321.49774      0.0045         0.096844455    0.072064554    0.085781919   -837.868        747.6751       747.6751       747.6751       4.1796389e+08  1.6767767     -58726716      -58726716       957.36537     -58725759      -955.78045     -711.22185     -846.60171      438.84964     -1025.9218     -390.91801      20691.451    
     10000   322.71612      0.005          0.1069768      0.08262644     0.095608038   -938.27215      748.04727      748.04727      748.04727      4.1858834e+08  1.6742753     -58718738      -58718738       960.99351     -58717777      -1055.7789     -815.45956     -943.57797      431.36028     -1008.3534     -385.21409      19611.099    
     11000   324.27183      0.0055         0.11691849     0.093017194    0.10534073    -1037.1787      748.41943      748.41943      748.41943      4.1921341e+08  1.6717789     -58709856      -58709856       965.62613     -58708890      -1153.8957     -918.00833     -1039.6321      424.10977     -991.22572     -379.57922      19355.912    
     12000   325.81388      0.006          0.12662558     0.10319925     0.11488026    -1133.9916      748.79159      748.79159      748.79159      4.198391e+08   1.6692874     -58700081      -58700081       970.2181      -58699111      -1249.6973     -1018.4974     -1133.78        416.9405      -974.35418     -373.88426      19701.249    
     13000   327.18287      0.0065         0.13608312     0.11318698     0.12412187    -1228.364       749.16376      749.16376      749.16376      4.2046541e+08  1.6668009     -58689428      -58689428       974.29472     -58688454      -1343.0359     -1117.0686     -1224.9876      409.71581     -957.39475     -367.97667      20129.776    
     14000   328.36757      0.007          0.14528852     0.12298907     0.13307596    -1320.3505      749.53592      749.53592      749.53592      4.2109235e+08  1.6643193     -58677915      -58677915       977.82254     -58676937      -1433.8862     -1213.8077     -1313.3576      402.42779     -940.31154     -361.58957      18171.153    
     15000   329.38558      0.0075         0.15428664     0.13259491     0.14186722    -1410.4738      749.90808      749.90808      749.90808      4.2171991e+08  1.6618426     -58665556      -58665556       980.85402     -58664575      -1522.6908     -1308.61       -1400.1206      395.29681     -923.32669     -354.70581      17390.092    
     16000   330.29746      0.008          0.16311007     0.14199734     0.15054023    -1498.9642      750.28024      750.28024      750.28024      4.2234809e+08  1.6593709     -58652367      -58652367       983.56944     -58651383      -1609.7712     -1401.4048     -1485.7165      388.22095     -906.71836     -347.65959      19651.233    
     17000   331.28374      0.0085         0.17174917     0.15121415     0.15911142    -1585.9026      750.65241      750.65241      750.65241      4.2297689e+08  1.656904      -58638364      -58638364       986.50639     -58637378      -1695.0325     -1492.3676     -1570.3076      380.9669      -890.24415     -340.82435      20676.779    
     18000   332.46156      0.009          0.18018627     0.16025942     0.16753624    -1671.1306      751.02457      751.02457      751.02457      4.2360632e+08  1.654442      -58623568      -58623568       990.01377     -58622578      -1778.3002     -1581.6375     -1653.4541      373.54237     -873.54945     -334.39152      20945.11     
     19000   333.76937      0.0095         0.18841352     0.16915193     0.17575094    -1754.4745      751.39673      751.39673      751.39673      4.2423638e+08  1.6519849     -58607992      -58607992       993.90818     -58606999      -1859.4969     -1669.3997     -1734.5269      366.05388     -856.68507     -328.44188      20096.148    
     20000   335.14021      0.01           0.19646411     0.17785992     0.18376912    -1835.9837      751.7689       751.7689       751.7689       4.2486706e+08  1.6495327     -58591652      -58591652       997.99031     -58590654      -1938.95       -1755.3409     -1813.6602      358.79562     -839.8159      -322.8925       19068.075    
     21000   336.50475      0.0105         0.20440531     0.18635352     0.19164906    -1915.973       752.14106      752.14106      752.14106      4.2549836e+08  1.6470853     -58574553      -58574553       1002.0537     -58573551      -2017.3236     -1839.1663     -1891.4291      352.15972     -823.57014     -317.33462      20316.759    
     22000   337.73329      0.011          0.2122193      0.19462546     0.19937712    -1994.3149      752.51322      752.51322      752.51322      4.2613029e+08  1.6446428     -58556703      -58556703       1005.7121     -58555698      -2094.4416     -1920.804      -1967.6992      346.02699     -808.39775     -311.449        20147.539    
     23000   338.8635       0.0115         0.21989987     0.20270979     0.2068839     -2070.8728      752.88538      752.88538      752.88538      4.2676284e+08  1.6422051     -58538119      -58538119       1009.0776     -58537110      -2170.243      -2000.5901     -2041.7853      339.95274     -793.66906     -305.41599      20134.711    
     24000   340.07038      0.012          0.2274365      0.21063282     0.21413746    -2145.5935      753.25755      753.25755      753.25755      4.2739602e+08  1.6397722     -58518830      -58518830       1012.6715     -58517817      -2244.6238     -2078.7843     -2113.3724      333.58199     -778.45425     -299.68707      18607.392    
     25000   341.40612      0.0125         0.23481645     0.21838966     0.22118475    -2218.5734      753.62971      753.62971      753.62971      4.2802983e+08  1.6373441     -58498850      -58498850       1016.6491     -58497834      -2317.4582     -2155.3384     -2182.9237      326.89209     -762.75637     -294.5039       18758.131    
     26000   342.7526       0.013          0.24202457     0.22600309     0.22815274    -2290.2555      754.00187      754.00187      754.00187      4.2866426e+08  1.6349208     -58478186      -58478186       1020.6587     -58477165      -2388.5968     -2230.4771     -2251.6925      320.09922     -747.24701     -290.02967      20833.412    
     27000   343.92408      0.0135         0.24900136     0.23345492     0.23503513    -2360.3632      754.37404      754.37404      754.37404      4.2929932e+08  1.6325023     -58456850      -58456850       1024.1472     -58455825      -2457.4523     -2304.0209     -2319.6164      313.52736     -732.57864     -285.72913      20870.029    
     28000   344.87385      0.014          0.25578961     0.24073794     0.2417502     -2428.7449      754.7462       754.7462       754.7462       4.29935e+08    1.6300885     -58434856      -58434856       1026.9754     -58433830      -2524.4472     -2375.8987     -2385.8889      307.43846     -718.35329     -281.05566      20874.094    
     29000   345.70456      0.0145         0.26253309     0.24788855     0.24830616    -2496.0204      755.11836      755.11836      755.11836      4.3057131e+08  1.6276795     -58412219      -58412219       1029.4492     -58411190      -2591.0001     -2446.4698     -2450.5913      302.0488      -703.71803     -276.02056      20315.718    
     30000   346.50739      0.015          0.26923138     0.2549408      0.25469398    -2562.2705      755.49052      755.49052      755.49052      4.3120825e+08  1.6252753     -58388948      -58388948       1031.8398     -58387916      -2657.1072     -2516.0701     -2513.6341      297.1061      -688.57497     -271.06269      20226.932    
     31000   347.30764      0.0155         0.27572976     0.26186155     0.26093515    -2626.9478      755.86269      755.86269      755.86269      4.3184582e+08  1.6228758     -58365051      -58365051       1034.2228     -58364016      -2721.2412     -2584.3726     -2575.2297      291.7647      -673.51888     -266.20977      21127.964    
     32000   348.01995      0.016          0.28196478     0.26860784     0.26709227    -2689.9083      756.23485      756.23485      756.23485      4.3248402e+08  1.620481      -58340539      -58340539       1036.344      -58339503      -2782.776      -2650.9532     -2635.9957      285.53752     -658.86436     -261.24013      20915.548    
     33000   348.66586      0.0165         0.28797584     0.27516419     0.27304589    -2750.8378      756.60701      756.60701      756.60701      4.3312284e+08  1.6180909     -58315432      -58315432       1038.2674     -58314394      -2842.1006     -2715.6594     -2694.7534      278.76251     -644.25388     -255.85343      21015.735    
     34000   349.40991      0.017          0.29382707     0.28153669     0.27870534    -2809.6689      756.97917      756.97917      756.97917      4.3376229e+08  1.6157055     -58289745      -58289745       1040.483      -58288704      -2899.8478     -2778.5511     -2750.6078      272.21399     -629.33277     -250.01284      20229.379    
     35000   350.27257      0.0175         0.29950225     0.28772972     0.2841549     -2866.6399      757.35134      757.35134      757.35134      4.3440237e+08  1.6133248     -58263493      -58263493       1043.0519     -58262450      -2955.8574     -2839.6715     -2804.3908      266.40654     -614.47415     -243.85078      20251.42     
     36000   351.18282      0.018          0.30498927     0.29376806     0.2895211     -2922.2089      757.7235       757.7235       757.7235       4.3504309e+08  1.6109487     -58236693      -58236693       1045.7625     -58235647      -3010.0101     -2899.2654     -2857.3511      261.17964     -599.82963     -238.22479      20233.993    
     37000   352.11681      0.0185         0.31032342     0.29970858     0.29484353    -2976.8091      758.09566      758.09566      758.09566      4.3568443e+08  1.6085774     -58209354      -58209354       1048.5437     -58208305      -3062.6541     -2957.8937     -2909.8794      255.77231     -585.2341      -233.70535      19790.096    
     38000   352.95741      0.019          0.3155728      0.30558366     0.30010299    -3030.7079      758.46783      758.46783      758.46783      4.363264e+08   1.6062107     -58181487      -58181487       1051.0469     -58180436      -3114.4614     -3015.8762     -2961.7862      249.89515     -570.50998     -229.75076      19009.485    
     39000   353.58123      0.0195         0.32076264     0.31132834     0.3052161     -3083.5006      758.83999      758.83999      758.83999      4.36969e+08    1.6038486     -58153105      -58153105       1052.9045     -58152052      -3165.6811     -3072.5718     -3012.2487      243.99777     -555.59085     -225.06032      19285.231    
     40000   354.10515      0.02           0.32589704     0.31684645     0.31010463    -3134.6266      759.21215      759.21215      759.21215      4.3761223e+08  1.6014911     -58124219      -58124219       1054.4647     -58123164      -3216.3537     -3127.0313     -3060.4948      238.52129     -540.60697     -219.22532      19219.948    
     41000   354.60134      0.0205         0.3308929      0.32214078     0.31475105    -3183.7642      759.58431      759.58431      759.58431      4.3825609e+08  1.5991383     -58094842      -58094842       1055.9422     -58093786      -3265.6591     -3179.2823     -3106.3514      233.23525     -525.67329     -213.12597      20829.735    
     42000   355.22069      0.021          0.33559494     0.32724265     0.31919218    -3230.6268      759.95648      759.95648      759.95648      4.3890059e+08  1.5967901     -58064984      -58064984       1057.7865     -58063927      -3312.0645     -3229.6339     -3150.1819      227.51505     -510.89624     -207.92313      19014.817    
     43000   356.09304      0.0215         0.34003612     0.33223315     0.32354991    -3275.9904      760.32864      760.32864      760.32864      4.3954571e+08  1.5944465     -58034656      -58034656       1060.3843     -58033596      -3355.8955     -3278.8863     -3193.1894      221.56837     -496.53263     -203.78559      19568.816    
     44000   356.93018      0.022          0.34437234     0.3371697      0.32781452    -3320.5249      760.7008       760.7008       760.7008       4.4019147e+08  1.5921074     -58003874      -58003874       1062.8771     -58002811      -3398.6908     -3327.6062     -3235.2777      215.86563     -482.60564     -200.08237      19317.885    
     45000   357.60071      0.0225         0.34868355     0.34197003     0.33183297    -3363.7192      761.07297      761.07297      761.07297      4.4083786e+08  1.589773      -57972658      -57972658       1064.8739     -57971593      -3441.2391     -3374.9818     -3274.9368      210.61863     -468.39487     -195.95444      19065.762    
     46000   358.38097      0.023          0.35292216     0.34655098     0.33556851    -3405.0223      761.44513      761.44513      761.44513      4.4148488e+08  1.5874431     -57941023      -57941023       1067.1973     -57939956      -3483.0709     -3420.1922     -3311.8037      205.66421     -453.59118     -191.03172      19453.194    
     47000   359.26526      0.0235         0.35704059     0.35095839     0.33915796    -3444.8785      761.81729      761.81729      761.81729      4.4213254e+08  1.5851177     -57908978      -57908978       1069.8306     -57907908      -3523.7166     -3463.69       -3347.2288      200.63812     -438.73225     -185.65755      19460.803    
     48000   359.99993      0.024          0.36101194     0.35526687     0.342772      -3484.0063      762.18945      762.18945      762.18945      4.4278083e+08  1.5827969     -57876525      -57876525       1072.0183     -57875453      -3562.9108     -3506.2114     -3382.8966      195.48143     -423.98849     -180.75325      19391.828    
     49000   360.59301      0.0245         0.36480625     0.35949488     0.34634621    -3522.1559      762.56162      762.56162      762.56162      4.4342975e+08  1.5804806     -57843676      -57843676       1073.7844     -57842602      -3600.3578     -3547.9386     -3418.1713      190.32294     -409.01962     -176.67326      18964.084    
     50000   361.27788      0.025          0.36840338     0.36364601     0.34967367    -3558.5922      762.93378      762.93378      762.93378      4.440793e+08   1.5781688     -57810446      -57810446       1075.8238     -57809370      -3635.8586     -3588.9071     -3451.0108      185.18144     -393.79544     -172.8601       18525.676    
     51000   362.18158      0.0255         0.37184077     0.3676619      0.35267955    -3593.0002      763.30594      763.30594      763.30594      4.4472949e+08  1.5758616     -57776857      -57776857       1078.5149     -57775779      -3669.7831     -3628.5409     -3480.6765      180.06091     -378.35574     -168.58943      18761.543    
     52000   363.09067      0.026          0.37512169     0.3714874      0.35541887    -3625.3901      763.67811      763.67811      763.67811      4.4538032e+08  1.5735588     -57742926      -57742926       1081.222      -57741845      -3702.1632     -3666.2956     -3507.7115      175.0466      -362.80156     -163.88401      19405.658    
     53000   363.76812      0.0265         0.37825543     0.37513369     0.35807181    -3656.4222      764.05027      764.05027      764.05027      4.4603177e+08  1.5712605     -57708661      -57708661       1083.2394     -57707578      -3733.0909     -3702.2817     -3533.894       170.24033     -347.0387      -159.18946      18456.182    
     54000   364.23835      0.027          0.38122415     0.37869216     0.3607282     -3686.6338      764.42243      764.42243      764.42243      4.4668387e+08  1.5689667     -57674069      -57674069       1084.6396     -57672984      -3762.3899     -3737.401      -3560.1106      165.85685     -331.00554     -154.94617      18618.451    
     55000   364.84657      0.0275         0.38403225     0.38219569     0.36330242    -3715.866       764.79459      764.79459      764.79459      4.473366e+08   1.5666773     -57639159      -57639159       1086.4508     -57638073      -3790.1036     -3771.9782     -3585.5161      161.64391     -314.67907     -151.29704      19467.959    
     56000   365.81814      0.028          0.38672728     0.38564073     0.36566127    -3743.8253      765.16676      765.16676      765.16676      4.4798996e+08  1.5643925     -57603948      -57603948       1089.3439     -57602859      -3816.7015     -3805.9781     -3608.7962      157.34493     -298.20706     -147.8796       19488.031    
     57000   366.79296      0.0285         0.38936933     0.38895861     0.36777051    -3770.3707      765.53892      765.53892      765.53892      4.4864396e+08  1.562112      -57568452      -57568452       1092.2468     -57567360      -3842.7765     -3838.723      -3629.6127      152.4889      -281.70371     -143.93169      19049.099    
     58000   367.43352      0.029          0.39194472     0.39208407     0.3696799     -3795.4065      765.91108      765.91108      765.91108      4.492986e+08   1.559836      -57532681      -57532681       1094.1543     -57531587      -3868.1936     -3869.5689     -3648.4569      147.25917     -264.82723     -139.24866      19580.321    
     59000   367.98229      0.0295         0.39438543     0.39503195     0.37143793    -3818.917       766.28325      766.28325      766.28325      4.4995387e+08  1.5575644     -57496649      -57496649       1095.7884     -57495553      -3892.2816     -3898.6622     -3665.8074      142.45627     -246.87503     -134.31894      19452.124    
     60000   368.63659      0.03           0.39656444     0.39787868     0.37304603    -3840.7407      766.65541      766.65541      766.65541      4.5060978e+08  1.5552972     -57460367      -57460367       1097.7368     -57459269      -3913.7867     -3926.7572     -3681.6781      138.25056     -228.68992     -129.72589      19395.876    
     61000   369.14548      0.0305         0.39850332     0.40065455     0.37452357    -3861.1117      767.02757      767.02757      767.02757      4.5126632e+08  1.5530344     -57423846      -57423846       1099.2522     -57422747      -3932.922      -3954.153      -3696.2602      134.076       -211.40815     -125.72122      19080.112    
     62000   369.39034      0.031          0.40029752     0.40330828     0.37580475    -3879.959       767.39973      767.39973      767.39973      4.5192351e+08  1.550776      -57387106      -57387106       1099.9814     -57386006      -3950.6294     -3980.3433     -3708.9045      129.37049     -194.51922     -122.11642      19417.925    
     63000   369.72688      0.0315         0.40203306     0.40576083     0.37681822    -3897.0709      767.7719       767.7719       767.7719       4.5258133e+08  1.5485219     -57350158      -57350158       1100.9835     -57349057      -3967.7578     -4004.5481     -3718.9067      124.30744     -177.12607     -118.06036      19450.832    
     64000   370.28358      0.032          0.40371608     0.40798424     0.3776097     -3912.5258      768.14406      768.14406      768.14406      4.5323979e+08  1.5462723     -57313016      -57313016       1102.6413     -57311914      -3984.3679     -4026.4914     -3726.7179      119.17574     -159.37509     -112.88123      19403.439    
     65000   370.77706      0.0325         0.40529011     0.41002152     0.37829155    -3926.6492      768.51622      768.51622      768.51622      4.5389889e+08  1.5440269     -57275702      -57275702       1104.1108     -57274598      -3999.9024     -4046.5977     -3733.4474      113.78927     -141.44935     -106.84443      19173.56     
     66000   371.09742      0.033          0.40666042     0.41194307     0.37891096    -3939.5163      768.88839      768.88839      768.88839      4.5455862e+08  1.541786      -57238234      -57238234       1105.0647     -57237129      -4013.4263     -4065.562      -3739.5605      108.08631     -123.10488     -101.1981       19420.077    
     67000   371.42267      0.0335         0.40784779     0.41378596     0.37947764    -3951.3493      769.26055      769.26055      769.26055      4.55219e+08    1.5395493     -57200612      -57200612       1106.0333     -57199506      -4025.1448     -4083.7499     -3745.1531      102.39688     -104.74703     -96.333176      19469.345    
     68000   371.76553      0.034          0.40897593     0.41553337     0.37994489    -3962.3462      769.63271      769.63271      769.63271      4.5588001e+08  1.537317      -57162838      -57162838       1107.0543     -57161731      -4036.2786     -4100.9955     -3749.7645      97.128366     -87.164918     -91.856362      19421.402    
     69000   372.0764       0.0345         0.41005313     0.4171356      0.38029079    -3972.2988      770.00487      770.00487      770.00487      4.5654167e+08  1.535089      -57124924      -57124924       1107.98       -57123816      -4046.9097     -4116.8083     -3753.1783      91.948625     -70.826207     -87.091705      19270.37     
     70000   372.3719       0.035          0.41099672     0.41854416     0.38054736    -3980.8808      770.37704      770.37704      770.37704      4.5720396e+08  1.5328653     -57086891      -57086891       1108.8599     -57085782      -4056.2222     -4130.7097     -3755.7104      86.180798     -54.85661      -82.008675      19569.902    
     71000   372.68336      0.0355         0.41175417     0.41974402     0.38069004    -3987.7893      770.7492       770.7492       770.7492       4.578669e+08   1.5306459     -57048756      -57048756       1109.7874     -57047646      -4063.6977     -4142.5514     -3757.1186      80.038415     -37.675066     -77.026976      19498.477    
     72000   373.06312      0.036          0.41232684     0.42071216     0.38065493    -3992.7426      771.12136      771.12136      771.12136      4.5853047e+08  1.5284308     -57010529      -57010529       1110.9183     -57009418      -4069.3496     -4152.1062     -3756.7721      74.178911     -19.848261     -72.194876      18278.683    
     73000   373.44028      0.0365         0.41283595     0.42148426     0.38058663    -3996.7328      771.49352      771.49352      771.49352      4.5919469e+08  1.52622       -56972212      -56972212       1112.0414     -56971100      -4074.3741     -4159.7262     -3756.098       68.472358     -2.938554      -67.213368      19406.309    
     74000   373.66421      0.037          0.41333447     0.42208408     0.38047874    -3999.9911      771.86569      771.86569      771.86569      4.5985955e+08  1.5240134     -56933818      -56933818       1112.7082     -56932705      -4079.2941     -4165.646      -3755.0332      62.538425      12.401926     -61.55127       19056.479    
     75000   373.97136      0.0375         0.41373669     0.42255326     0.38024675    -4002.0946      772.23785      772.23785      772.23785      4.6052504e+08  1.5218111     -56895365      -56895365       1113.6229     -56894251      -4083.2637     -4170.2764     -3752.7436      56.344842      27.220599     -55.148139      19588.703    
     76000   374.58502      0.038          0.41396001     0.42290691     0.3799587     -4003.0451      772.61001      772.61001      772.61001      4.6119118e+08  1.519613      -56856868      -56856868       1115.4502     -56855752      -4085.4676     -4173.7667     -3749.9009      49.902919      42.215153     -48.443633      19148.383    
     77000   375.30206      0.0385         0.41397585     0.42306937     0.37967673    -4002.704       772.98218      772.98218      772.98218      4.6185797e+08  1.5174191     -56818338      -56818338       1117.5855     -56817221      -4085.6239     -4175.3701     -3747.118       43.035648      57.621549     -41.911407      20025.403    
     78000   376.07264      0.039          0.41378069     0.42292682     0.37930935    -4000.3844      773.35434      773.35434      773.35434      4.6252539e+08  1.5152295     -56779790      -56779790       1119.8801     -56778670      -4083.6979     -4173.9632     -3743.4922      35.592316      73.240386     -35.6185        20890.746    
     79000   376.92562      0.0395         0.41339717     0.4224575      0.37879628    -3995.8909      773.7265       773.7265       773.7265       4.6319346e+08  1.5130441     -56741240      -56741240       1122.4201     -56740117      -4079.9128     -4169.3313     -3738.4286      27.939262      88.42443      -29.018926      21228.048    
     80000   377.7433       0.04           0.41285053     0.42172855     0.37809602    -3989.3909      774.09866      774.09866      774.09866      4.6386217e+08  1.5108628     -56702707      -56702707       1124.855      -56701582      -4074.5179     -4162.1372     -3731.5176      20.408547      102.41142     -21.592648      21087.38     
     81000   378.34856      0.0405         0.41215955     0.42084279     0.37724743    -3981.4122      774.47083      774.47083      774.47083      4.6453152e+08  1.5086858     -56664206      -56664206       1126.6574     -56663079      -4067.6985     -4153.3954     -3723.1427      12.757673      115.6963      -13.34951       21043.033    
     82000   378.8803       0.041          0.41130921     0.41981711     0.37629227    -3972.0983      774.84299      774.84299      774.84299      4.6520152e+08  1.5065129     -56625756      -56625756       1128.2408     -56624628      -4059.3063     -4143.2728     -3713.7159      4.4940765      129.11023     -4.9392385      19265.265    
     83000   379.74267      0.0415         0.41026569     0.4185847      0.37527742    -3961.2725      775.21515      775.21515      775.21515      4.6587216e+08  1.5043443     -56587378      -56587378       1130.8088     -56586247      -4049.0075     -4131.1098     -3703.7001     -4.0642215      142.87111      2.8833047      17308.994    
     84000   381.07726      0.042          0.40899587     0.41706379     0.37423735    -3948.6701      775.58732      775.58732      775.58732      4.6654345e+08  1.5021797     -56549083      -56549083       1134.783      -56547948      -4036.4754     -4116.0996     -3693.4355     -12.512338      156.27998      10.095976      20915.111    
     85000   382.41803      0.0425         0.40755939     0.41521371     0.37321143    -3934.4832      775.95948      775.95948      775.95948      4.6721538e+08  1.5000194     -56510885      -56510885       1138.7756     -56509746      -4022.2985     -4097.8407     -3683.3104     -21.121413      168.63655      17.465247      21255.603    
     86000   383.26909      0.043          0.40595494     0.41302641     0.37205746    -3918.213       776.33164      776.33164      776.33164      4.6788795e+08  1.4978631     -56472806      -56472806       1141.3099     -56471665      -4006.4638     -4076.2537     -3671.9216     -30.506461      180.04465      25.516278      21048.121    
     87000   383.86896      0.0435         0.40416247     0.41054825     0.37061144    -3899.4067      776.7038       776.7038       776.7038       4.6856117e+08  1.495711      -56434872      -56434872       1143.0962     -56433729      -3988.7735     -4051.7962     -3657.6505     -40.164664      191.54434      34.186176      21011.915    
     88000   384.88673      0.044          0.40222947     0.40781525     0.36892609    -3878.5124      777.07597      777.07597      777.07597      4.6923504e+08  1.493563      -56397096      -56397096       1146.127      -56395950      -3969.6962     -4024.8236     -3641.0175     -49.467404      203.57998      43.138293      20329.861    
     89000   386.34921      0.0445         0.40019802     0.40491166     0.36723231    -3856.7053      777.44813      777.44813      777.44813      4.6990955e+08  1.4914192     -56359490      -56359490       1150.482      -56358340      -3949.6474     -3996.1674     -3624.3011     -58.875428      215.15485      52.013163      19684.331    
     90000   387.64245      0.045          0.39805296     0.4019066      0.36562831    -3834.486       777.82029      777.82029      777.82029      4.7058471e+08  1.4892794     -56322067      -56322067       1154.333      -56320913      -3928.4773     -3966.5097     -3608.4709     -68.777752      225.72123      60.335081      18358.885    
     91000   388.43399      0.0455         0.39570795     0.39869581     0.36398396    -3810.7993      778.19246      778.19246      778.19246      4.7126051e+08  1.4871437     -56284846      -56284846       1156.6901     -56283689      -3905.3338     -3934.8217     -3592.2424     -78.777791      235.40735      68.155885      20136.398    
     92000   388.97196      0.046          0.39303312     0.39511814     0.36214214    -3784.1711      778.56462      778.56462      778.56462      4.7193696e+08  1.4850121     -56247849      -56247849       1158.2921     -56246690      -3878.9353     -3899.5129     -3574.065      -88.574869      244.27453      76.088678      19024.279    
     93000   389.43226      0.0465         0.39008345     0.39118744     0.36007585    -3754.7388      778.93678      778.93678      778.93678      4.7261406e+08  1.4828846     -56211095      -56211095       1159.6628     -56209935      -3849.8243     -3860.7198     -3553.6723     -97.735681      252.89383      84.434045      21021.092    
     94000   389.61211      0.047          0.38697931     0.38704274     0.35788772    -3723.6936      779.30894      779.30894      779.30894      4.732918e+08   1.4807611     -56174600      -56174600       1160.1983     -56173439      -3819.1888     -3819.8149     -3532.0772     -106.38044      261.62626      93.145979      20214.797    
     95000   389.60165      0.0475         0.3837697      0.3827894      0.35573156    -3692.0492      779.68111      779.68111      779.68111      4.7397019e+08  1.4786417     -56138374      -56138374       1160.1672     -56137214      -3787.5125     -3777.8377     -3510.7976     -115.0956       270.16329      101.80745      20108.845    
     96000   389.62514      0.048          0.38049556     0.37850545     0.3537059     -3660.5211      780.05327      780.05327      780.05327      4.7464923e+08  1.4765264     -56102427      -56102427       1160.2371     -56101267      -3755.1992     -3735.5584     -3490.8059     -124.04765      277.96558      109.79904      20399.965    
     97000   389.65337      0.0485         0.37717901     0.3741963      0.35170951    -3628.8669      780.42543      780.42543      780.42543      4.7532892e+08  1.474415      -56066767      -56066767       1160.3212     -56065607      -3722.4674     -3693.0304     -3471.103      -132.85315      284.59974      116.62137      20198.81     
     98000   389.59516      0.049          0.37374884     0.36979107     0.34958547    -3596.1029      780.7976       780.7976       780.7976       4.7600926e+08  1.4723077     -56031404      -56031404       1160.1479     -56030244      -3688.6143     -3649.5542     -3450.1403     -140.63613      290.68381      122.06597      20759.887    
     99000   389.24955      0.0495         0.37010323     0.36520907     0.3473002     -3561.5182      781.16976      781.16976      781.16976      4.7669025e+08  1.4702044     -55996344      -55996344       1159.1187     -55995185      -3652.6349     -3604.3333     -3427.5865     -146.82613      296.94384      126.65649      20404.903    
    100000   388.52498      0.05           0.36612515     0.36046039     0.34496406    -3525.1241      781.54192      781.54192      781.54192      4.7737188e+08  1.4681051     -55961598      -55961598       1156.961      -55960441      -3613.3743     -3557.4674     -3404.5306     -151.82586      303.25087      130.91477      19422.56     
    101000   387.65387      0.0505         0.36193768     0.35568905     0.3427069     -3488.2264      781.91408      781.91408      781.91408      4.7805417e+08  1.4660098     -55927177      -55927177       1154.367      -55926022      -3572.0472     -3510.378      -3382.2542     -156.28865      308.71016      134.72978      20001.89     
    102000   386.84929      0.051          0.3577611      0.35102432     0.34061133    -3452.2469      782.28625      782.28625      782.28625      4.787371e+08   1.4639185     -55893085      -55893085       1151.9711     -55891933      -3530.8275     -3464.3407     -3361.5725     -159.9977       312.60004      137.54925      20539.697    
    103000   386.11315      0.0515         0.35376385     0.3465234      0.33855605    -3417.5287      782.65841      782.65841      782.65841      4.7942068e+08  1.4618312     -55859321      -55859321       1149.779      -55858171      -3491.3777     -3419.92       -3341.2884     -162.39116      315.41505      138.69746      20005.315    
    104000   385.2767       0.052          0.34989359     0.34212327     0.33641884    -3383.2904      783.03057      783.03057      783.03057      4.8010492e+08  1.4597478     -55825873      -55825873       1147.2882     -55824726      -3453.1813     -3376.4942     -3320.1958     -163.35076      318.10435      138.50792      15854.939    
    105000   384.09903      0.0525         0.34593583     0.33776534     0.33414402    -3348.4503      783.40274      783.40274      783.40274      4.8078981e+08  1.4576684     -55792740      -55792740       1143.7813     -55791596      -3414.1212     -3333.4847     -3297.745      -163.29         321.11998      137.99452      20669.829    
    106000   382.79047      0.053          0.34162521     0.33337361     0.33177884    -3312.041       783.7749       783.7749       783.7749       4.8147534e+08  1.4555929     -55759924      -55759924       1139.8846     -55758785      -3371.5787     -3290.1417     -3274.4026     -162.9333       323.68609      137.6496       20164.981    
    107000   381.79863      0.0535         0.33700351     0.32897036     0.32944102    -3274.6604      784.14706      784.14706      784.14706      4.8216153e+08  1.4535214     -55727436      -55727436       1136.9311     -55726300      -3325.9661     -3246.6851     -3251.3301     -161.95294      324.66974      137.37963      20374.633    
    108000   380.94092      0.054          0.33238149     0.32470133     0.32720214    -3238.0457      784.51922      784.51922      784.51922      4.8284837e+08  1.4514538     -55695283      -55695283       1134.377      -55694149      -3280.3502     -3204.553      -3229.234      -159.2962       323.81297      136.57638      19837.144    
    109000   379.63099      0.0545         0.32796259     0.32063597     0.32495024    -3202.7265      784.89139      784.89139      784.89139      4.8353586e+08  1.4493901     -55663459      -55663459       1130.4763     -55662329      -3236.7391     -3164.431      -3207.0095     -155.19364      321.90688      134.93286      20367.258    
    110000   378.02986      0.055          0.32368643     0.31667785     0.32250186    -3167.5833      785.26355      785.26355      785.26355      4.8422401e+08  1.4473304     -55631959      -55631959       1125.7084     -55630834      -3194.5367     -3125.3674     -3182.8459     -150.86006      320.24125      132.79681      19789.752    
    111000   376.75696      0.0555         0.31940018     0.31275328     0.31981998    -3131.7491      785.63571      785.63571      785.63571      4.849128e+08   1.4452745     -55600785      -55600785       1121.9179     -55599663      -3152.2347     -3086.6349     -3156.3778     -147.19494      318.99025      130.93796      20690.185    
    112000   375.58067      0.056          0.31504324     0.30889324     0.31711772    -3095.8276      786.00787      786.00787      786.00787      4.8560225e+08  1.4432225     -55569932      -55569932       1118.4151     -55568814      -3109.2351     -3048.5392     -3129.7086     -144.01705      317.17362      129.56534      19672.67     
    113000   374.18087      0.0565         0.31059511     0.30504402     0.31449103    -3059.8903      786.38004      786.38004      786.38004      4.8629235e+08  1.4411744     -55539401      -55539401       1114.2467     -55538287      -3065.3354     -3010.5504     -3103.7852     -140.40433      313.65097      128.03758      20337.296    
    114000   372.83843      0.057          0.30611001     0.30120662     0.31187567    -3023.9076      786.7522       786.7522       786.7522       4.8698311e+08  1.4391302     -55509198      -55509198       1110.2492     -55508088      -3021.071      -2972.6782     -3077.9735     -135.29673      308.02799      125.72163      19898.059    
    115000   371.66976      0.0575         0.30173438     0.29750875     0.30916078    -2988.4165      787.12436      787.12436      787.12436      4.8767452e+08  1.4370899     -55479331      -55479331       1106.7691     -55478224      -2977.8868     -2936.1831     -3051.1796     -129.32019      301.71398      122.70503      20565.943    
    116000   370.3648       0.058          0.2974848      0.29399337     0.30623102    -2953.2336      787.49653      787.49653      787.49653      4.8836658e+08  1.4350534     -55449798      -55449798       1102.8831     -55448695      -2935.9467     -2901.489      -3022.2652     -124.1574       295.70365      119.4927       20168.421    
    117000   368.81912      0.0585         0.29335537     0.29055179     0.30311387    -2918.0723      787.86869      787.86869      787.86869      4.890593e+08   1.4330207     -55420585      -55420585       1098.2804     -55419487      -2895.1924     -2867.5232     -2991.5013     -120.58345      289.93967      115.94373      20737.918    
    118000   367.30427      0.059          0.28941216     0.28711647     0.29999646    -2883.5433      788.24085      788.24085      788.24085      4.8975268e+08  1.4309919     -55391685      -55391685       1093.7694     -55390591      -2856.2759     -2833.6193     -2960.7348     -117.19095      283.97698      111.72582      20806.965    
    119000   365.94422      0.0595         0.28569822     0.28372901     0.29702464    -2850.4051      788.61301      788.61301      788.61301      4.904467e+08   1.4289669     -55363089      -55363089       1089.7194     -55361999      -2819.6222     -2800.1877     -2931.4053     -112.77017      277.02273      107.31975      19958.724    
    120000   364.57536      0.06           0.28217465     0.28046638     0.29420607    -2818.8078      788.98518      788.98518      788.98518      4.9114139e+08  1.4269457     -55334791      -55334791       1085.6432     -55333705      -2784.8473     -2767.9879     -2903.5881     -107.05689      269.00246      103.21016      18866.081    
    121000   363.17815      0.0605         0.27879488     0.27730281     0.29142132    -2788.1208      789.35734      789.35734      789.35734      4.9183673e+08  1.4249284     -55306783      -55306783       1081.4825     -55305701      -2751.4915     -2736.766      -2876.1048     -101.18574      260.32878      99.323215      20228.813    
    122000   361.88906      0.061          0.27550668     0.27420665     0.28845254    -2757.3513      789.7295       789.7295       789.7295       4.9253272e+08  1.4229148     -55279060      -55279060       1077.6438     -55277982      -2719.0395     -2706.2092     -2846.8052     -96.137478      251.47674      95.166847      19843.764    
    123000   360.64791      0.0615         0.27235946     0.27119869     0.28523196    -2726.5075      790.10167      790.10167      790.10167      4.9322937e+08  1.4209051     -55251617      -55251617       1073.9479     -55250543      -2687.9789     -2676.523      -2815.0206     -92.09434       243.16509      90.081097      19973.283    
    124000   359.32009      0.062          0.26938078     0.2682545      0.28192264    -2696.1359      790.47383      790.47383      790.47383      4.9392668e+08  1.4188991     -55224450      -55224450       1069.9939     -55223380      -2658.5816     -2647.4661     -2782.3601     -88.468883      234.86287      85.009633      19950.47     
    125000   357.95932      0.0625         0.2665884      0.26537144     0.2787959     -2667.179       790.84599      790.84599      790.84599      4.9462465e+08  1.4168969     -55197545      -55197545       1065.9417     -55196479      -2631.023      -2619.0125     -2751.5016     -84.390455      226.14821      81.151598      20439.547    
    126000   356.55167      0.063          0.26397727     0.26263994     0.27601517    -2640.4552      791.21815      791.21815      791.21815      4.9532327e+08  1.4148984     -55170892      -55170892       1061.75       -55169831      -2605.2531     -2592.0547     -2724.0579     -79.435797      217.46168      78.349952      19989.971    
    127000   354.98568      0.0635         0.26141066     0.26003354     0.27340694    -2614.857       791.59032      791.59032      791.59032      4.9602255e+08  1.4129037     -55144484      -55144484       1057.0868     -55143427      -2579.9227     -2566.3315     -2698.3167     -74.320116      209.15252      75.678216      19915.898    
    128000   353.51613      0.064          0.25878463     0.25746319     0.27067581    -2588.7775      791.96248      791.96248      791.96248      4.9672249e+08  1.4109128     -55118319      -55118319       1052.7107     -55117266      -2554.0057     -2540.9642     -2671.3626     -70.338747      201.13993      72.531571      20127.77     
    129000   352.39801      0.0645         0.25611757     0.25493978     0.26770953    -2561.9438      792.33464      792.33464      792.33464      4.9742308e+08  1.4089256     -55092399      -55092399       1049.3811     -55091349      -2527.6839     -2516.06       -2642.0876     -67.488177      193.29739      69.264268      20006.711    
    130000   351.24504      0.065          0.25360366     0.25255368     0.26476766    -2536.1461      792.70681      792.70681      792.70681      4.9812434e+08  1.4069421     -55066712      -55066712       1045.9477     -55065667      -2502.8735     -2492.511      -2613.0536     -64.346829      185.68262      66.458312      20941.174    
    131000   349.6619       0.0655         0.25135105     0.2503198      0.2621028     -2512.62        793.07897      793.07897      793.07897      4.9882625e+08  1.4049624     -55041240      -55041240       1041.2334     -55040199      -2480.642      -2470.4644     -2586.7535     -59.790751      178.22326      63.848914      20071.797    
    132000   347.98081      0.066          0.24922099     0.24817419     0.2596904     -2490.6179      793.45113      793.45113      793.45113      4.9952882e+08  1.4029863     -55015972      -55015972       1036.2274     -55014935      -2459.6199     -2449.2889     -2562.945      -54.991764      170.95632      60.692595      18689.162    
    133000   346.57941      0.0665         0.24706503     0.24609508     0.25739149    -2469.1228      793.82329      793.82329      793.82329      5.0023205e+08  1.401014      -54990906      -54990906       1032.0543     -54989874      -2438.3423     -2428.7696     -2540.2565     -51.517822      163.66535      57.138404      20232.299    
    134000   345.2338       0.067          0.24490504     0.2440331      0.25507297    -2447.6062      794.19546      794.19546      794.19546      5.0093594e+08  1.3990454     -54966045      -54966045       1028.0473     -54965017      -2417.0248     -2408.4194     -2517.3745     -49.657711      155.98994      54.042479      19319.454    
    135000   343.95911      0.0675         0.24284126     0.24195754     0.25268311    -2426.1268      794.56762      794.56762      794.56762      5.016405e+08   1.3970804     -54941375      -54941375       1024.2515     -54940351      -2396.6569     -2387.9352     -2493.7884     -47.726726      148.58021      51.640957      18538.638    
    136000   342.78406      0.068          0.24095973     0.23996703     0.25030932    -2405.5797      794.93978      794.93978      794.93978      5.0234571e+08  1.3951191     -54916883      -54916883       1020.7524     -54915862      -2378.0877     -2368.2904     -2470.3609     -44.252696      142.08176      49.474508      18917.493    
    137000   341.49628      0.0685         0.23919795     0.23816513     0.24804153    -2386.3956      795.31195      795.31195      795.31195      5.0305158e+08  1.3931615     -54892558      -54892558       1016.9176     -54891541      -2360.7002     -2350.5071     -2447.9796     -39.976778      136.46614      47.141258      20765.988    
    138000   340.02117      0.069          0.23747427     0.23654201     0.24587287    -2368.2512      795.68411      795.68411      795.68411      5.0375811e+08  1.3912076     -54868395      -54868395       1012.525      -54867383      -2343.6889     -2334.4881     -2426.5765     -36.612911      130.9022       44.231395      20562.768    
    139000   338.72059      0.0695         0.23582816     0.23493979     0.24373151    -2350.5205      796.05627      796.05627      796.05627      5.0446531e+08  1.3892573     -54844394      -54844394       1008.6521     -54843385      -2327.443      -2318.6754     -2405.443      -34.753407      124.58106      40.681334      19380.698    
    140000   337.75361      0.07           0.23429928     0.23327629     0.24160537    -2333.0239      796.42843      796.42843      796.42843      5.0517316e+08  1.3873107     -54820551      -54820551       1005.7726     -54819545      -2312.3541     -2302.2579     -2384.4596     -33.10819       117.93795      36.988543      18867.736    
    141000   336.57189      0.0705         0.23280841     0.23159294     0.2395469     -2315.8097      796.8006       796.8006       796.8006       5.0588168e+08  1.3853676     -54796857      -54796857       1002.2536     -54795855      -2297.6404     -2285.6446     -2364.1441     -30.49624       111.72871      34.024098      20601.132    
    142000   334.93161      0.071          0.23123096     0.22992601     0.23756724    -2298.6239      797.17276      797.17276      797.17276      5.0659086e+08  1.3834283     -54773309      -54773309       997.36915     -54772311      -2282.0721     -2269.1933     -2344.6063     -27.383435      106.17107      32.168764      19949.893    
    143000   333.42933      0.0715         0.22958616     0.22835305     0.23559563    -2281.5522      797.54492      797.54492      797.54492      5.073007e+08   1.3814925     -54749909      -54749909       992.89561     -54748916      -2265.8392     -2253.6694     -2325.1481     -24.862969      101.23933      30.734981      19175.844    
    144000   332.41688      0.072          0.22804389     0.22693028     0.23363613    -2265.3518      797.91708      797.91708      797.91708      5.0801121e+08  1.3795603     -54726650      -54726650       989.88072     -54725660      -2250.6182     -2239.6277     -2305.8093     -23.300086      96.649392      29.011481      18332.614    
    145000   331.59399      0.0725         0.2267829      0.22561679     0.23178681    -2250.7986      798.28925      798.28925      798.28925      5.0872237e+08  1.3776318     -54703522      -54703522       987.43027     -54702535      -2238.1732     -2226.6646     -2287.5579     -22.088775      92.055943      26.669632      19499.21     
    146000   330.74353      0.073          0.22571564     0.22431666     0.23005449    -2237.3116      798.66141      798.66141      798.66141      5.0943421e+08  1.3757068     -54680524      -54680524       984.89776     -54679539      -2227.6402     -2213.8333     -2270.4613     -20.638256      87.375286      23.998587      20637.061    
    147000   329.78119      0.0735         0.22455833     0.22298633     0.22837726    -2223.6102      799.03357      799.03357      799.03357      5.101467e+08   1.3737854     -54657653      -54657653       982.03208     -54656671      -2216.2184     -2200.704      -2253.9083     -18.765251      82.570253      21.585988      20969.475    
    148000   328.71911      0.074          0.22317765     0.22164771     0.2267549     -2209.3273      799.40574      799.40574      799.40574      5.1085986e+08  1.3718676     -54634902      -54634902       978.86938     -54633924      -2202.5921     -2187.4928     -2237.8969     -16.826446      78.131462      19.997984      19351.693    
    149000   327.68544      0.0745         0.22176547     0.22037839     0.22519439    -2195.3721      799.7779       799.7779       799.7779       5.1157368e+08  1.3699534     -54612268      -54612268       975.79128     -54611292      -2188.655      -2174.9656     -2222.4958     -14.843105      74.245944      18.940995      19115.661    
    150000   326.72727      0.075          0.2205714      0.21921332     0.22369576    -2182.6811      800.15006      800.15006      800.15006      5.1228817e+08  1.3680427     -54589741      -54589741       972.93801     -54588768      -2176.8705     -2163.4672     -2207.7055     -12.982832      70.895142      17.20215       19753.702    
    151000   325.96349      0.0755         0.21963505     0.21810686     0.22222645    -2171.1271      800.52222      800.52222      800.52222      5.1300333e+08  1.3661356     -54567311      -54567311       970.66362     -54566340      -2167.6294     -2152.5474     -2193.2045     -11.644422      68.215739      14.269783      20137.896    
    152000   325.24115      0.076          0.21878477     0.21700816     0.22078272    -2159.966       800.89439      800.89439      800.89439      5.1371914e+08  1.364232      -54544976      -54544976       968.5126      -54544007      -2159.2378     -2141.704      -2178.9561     -11.138436      65.866003      11.416304      17944.476    
    153000   324.39429      0.0765         0.21782442     0.21589764     0.21942375    -2148.6826      801.26655      801.26655      801.26655      5.1443563e+08  1.362332      -54522737      -54522737       965.99079     -54521771      -2149.7599     -2130.744      -2165.5441     -11.16343       63.240157      10.287776      18257.486    
    154000   323.39122      0.077          0.21673699     0.21474752     0.21818472    -2137.2456      801.63871      801.63871      801.63871      5.1515278e+08  1.3604355     -54500599      -54500599       963.00384     -54499636      -2139.0278     -2119.3933     -2153.3157     -10.604814      59.8615        10.727985      19005.799    
    155000   322.52778      0.0775         0.21556225     0.21357691     0.21694049    -2125.4368      802.01088      802.01088      802.01088      5.1587059e+08  1.3585425     -54478554      -54478554       960.43265     -54477594      -2127.434      -2107.8402     -2141.0362     -9.1147605      56.500022      11.238169      20763.078    
    156000   321.88642      0.078          0.21441279     0.21247933     0.21564027    -2113.7672      802.38304      802.38304      802.38304      5.1658908e+08  1.356653      -54456598      -54456598       958.5228      -54455640      -2116.0897     -2097.008      -2128.204      -7.1544177      54.098193      10.500082      20813.32     
    157000   321.13993      0.0785         0.21339227     0.21149873     0.21434461    -2102.9217      802.7552       802.7552       802.7552       5.1730823e+08  1.354767      -54434730      -54434730       956.29987     -54433774      -2106.018      -2087.3302     -2115.4168     -5.9819566      52.910605      8.7213519      19940.654    
    158000   320.25189      0.079          0.21251324     0.21054456     0.21317362    -2093.0387      803.12736      803.12736      803.12736      5.1802804e+08  1.3528845     -54412947      -54412947       953.65545     -54411994      -2097.3426     -2077.9133     -2103.8601     -6.0014396      51.851221      6.7541716      19765.702    
    159000   319.55426      0.0795         0.21175271     0.20958055     0.21217527    -2084.081       803.49953      803.49953      803.49953      5.1874853e+08  1.3510055     -54391244      -54391244       951.57801     -54390293      -2089.8368     -2068.3992     -2094.0071     -6.4562331      49.996799      5.3635803      20985.771    
    160000   319.10724      0.08           0.21105209     0.20861577     0.21121214    -2075.4338      803.87169      803.87169      803.87169      5.1946968e+08  1.34913       -54369616      -54369616       950.24686     -54368666      -2082.9221     -2058.8775     -2084.5018     -6.0100153      47.658137      4.7538347      20586.068    
    161000   318.62552      0.0805         0.21029339     0.2077081      0.2101972     -2066.613       804.24385      804.24385      804.24385      5.201915e+08   1.3472579     -54348057      -54348057       948.81239     -54347108      -2075.4344     -2049.9195     -2074.485      -4.7766484      45.863447      4.4487343      20972.278    
    162000   317.99628      0.081          0.20935125     0.20683255     0.2091989     -2057.3491      804.61602      804.61602      804.61602      5.2091399e+08  1.3453893     -54326570      -54326570       946.93862     -54325623      -2066.1362     -2041.2786     -2064.6326     -3.7218289      45.11112       3.9645273      20812.834    
    163000   317.39525      0.0815         0.20826529     0.20595777     0.20828043    -2047.8773      804.98818      804.98818      804.98818      5.2163714e+08  1.3435242     -54305156      -54305156       945.14887     -54304211      -2055.4186     -2032.6451     -2055.5681     -3.2309707      44.73227       3.2128677      20352.194    
    164000   316.96461      0.082          0.20721973     0.20507181     0.20738531    -2038.5784      805.36034      805.36034      805.36034      5.2236097e+08  1.3416625     -54283814      -54283814       943.86649     -54282870      -2045.0997     -2023.9014     -2046.7339     -3.0695899      43.895032      2.1851264      19966.688    
    165000   316.71775      0.0825         0.20643443     0.20422666     0.20647097    -2030.2066      805.7325       805.7325       805.7325       5.2308546e+08  1.3398042     -54262542      -54262542       943.13138     -54261599      -2037.3494     -2015.5604     -2037.71       -2.6969673      42.256382      1.0618646      20078.546    
    166000   316.36932      0.083          0.2058641      0.20339215     0.20559497    -2022.7032      806.10467      806.10467      806.10467      5.2381063e+08  1.3379494     -54241337      -54241337       942.09382     -54240395      -2031.7207     -2007.3244     -2029.0646     -1.9665592      40.278536      0.31246281     19920.777    
    167000   315.926        0.0835         0.20523048     0.20253265     0.20476075    -2015.0469      806.47683      806.47683      806.47683      5.2453646e+08  1.336098      -54220193      -54220193       940.77369     -54219252      -2025.4673     -1998.8418     -2020.8315     -0.9710624      38.988672      0.05124375     20560.921    
    168000   315.62563      0.084          0.20438592     0.20165982     0.20392557    -2006.6496      806.84899      806.84899      806.84899      5.2526297e+08  1.33425       -54199110      -54199110       939.87924     -54198170      -2017.1322     -1990.2276     -2012.5889      0.0043516645   38.637936     -0.02949511     20215.412    
    169000   315.40633      0.0845         0.20346621     0.20080604     0.20310397    -1998.1124      807.22116      807.22116      807.22116      5.2599014e+08  1.3324054     -54178090      -54178090       939.22618     -54177151      -2008.0554     -1981.8015     -2004.4803      0.78544948     38.422236     -0.42540781     20191.943    
    170000   315.2145       0.085          0.2027376      0.19999771     0.20231921    -1990.4746      807.59332      807.59332      807.59332      5.2671799e+08  1.3305642     -54157132      -54157132       938.65495     -54156194      -2000.8645     -1973.824      -1996.7354      1.0596513      37.568934     -1.2833399      20023.113    
    171000   315.03571      0.0855         0.20217713     0.19924986     0.20157724    -1983.7297      807.96548      807.96548      807.96548      5.2744651e+08  1.3287264     -54136231      -54136231       938.12256     -54135293      -1995.3331     -1966.4433     -1989.4127      0.65952847     36.390435     -1.7580302      20461.761    
    172000   314.69593      0.086          0.20156542     0.19857594     0.20086387    -1977.1535      808.33764      808.33764      808.33764      5.281757e+08   1.326892      -54115385      -54115385       937.11075     -54114448      -1989.296      -1959.7921     -1982.3723      0.19671656     35.509463     -1.3119111      20186.614    
    173000   314.23556      0.0865         0.20068553     0.19786475     0.20010984    -1969.4387      808.70981      808.70981      808.70981      5.2890556e+08  1.325061      -54094601      -54094601       935.73983     -54093665      -1980.6122     -1952.7732     -1974.9306      0.46342419     35.245208     -0.72405314     20356.182    
    174000   314.14086      0.087          0.19962052     0.19702357     0.19927168    -1960.4105      809.08197      809.08197      809.08197      5.2963609e+08  1.3232333     -54073880      -54073880       935.45782     -54072945      -1970.1014     -1944.4715     -1966.6586      1.2424335      35.22582      -0.91710099     19096.28     
    175000   314.31153      0.0875         0.19868515     0.19613804     0.19841783    -1951.6112      809.45413      809.45413      809.45413      5.3036729e+08  1.321409      -54053223      -54053223       935.96606     -54052287      -1960.8699     -1935.732      -1958.2317      1.9092135      34.960195     -1.4551271      20670.002    
    176000   314.15553      0.088          0.1980353      0.19534862     0.19761953    -1944.2502      809.8263       809.8263       809.8263       5.3109917e+08  1.319588      -54032627      -54032627       935.50153     -54031691      -1954.4565     -1927.941      -1950.3531      2.0845094      34.270285     -1.5457917      19397.462    
    177000   313.71255      0.0885         0.19750337     0.19466037     0.19689668    -1937.8581      810.19846      810.19846      810.19846      5.3183172e+08  1.3177704     -54012088      -54012088       934.18242     -54011154      -1949.2067     -1921.1485     -1943.2192      1.7835302      33.273918     -1.2334765      18696.972    
    178000   313.54401      0.089          0.19690283     0.19396906     0.19623234    -1931.4227      810.57062      810.57062      810.57062      5.3256494e+08  1.3159561     -53991605      -53991605       933.68052     -53990672      -1943.2799     -1914.3257     -1936.6626      1.4311692      32.511068     -1.1464416      19062.036    
    179000   313.67639      0.0895         0.1962174      0.19319743     0.19558329    -1924.4942      810.94278      810.94278      810.94278      5.3329884e+08  1.3141452     -53971176      -53971176       934.07474     -53970242      -1936.5152     -1906.7104     -1930.257       1.3808924      32.134626     -1.5540576      20750.519    
    180000   313.68969      0.09           0.19552978     0.19236942     0.19492563    -1917.3446      811.31495      811.31495      811.31495      5.3403341e+08  1.3123376     -53950798      -53950798       934.11434     -53949864      -1929.7289     -1898.5386     -1923.7664      1.3680392      32.155695     -2.1811234      20618.531    
    181000   313.50895      0.0905         0.19487765     0.19159071     0.19423428    -1910.3632      811.68711      811.68711      811.68711      5.3476866e+08  1.3105333     -53930471      -53930471       933.57611     -53929538      -1923.2929     -1890.8533     -1916.9433      1.4846857      32.175422     -2.8045752      19313.146    
    182000   313.31605      0.091          0.19420144     0.1909033      0.19353811    -1903.5869      812.05927      812.05927      812.05927      5.3550458e+08  1.3087322     -53910197      -53910197       933.00171     -53909264      -1916.6192     -1884.069      -1910.0726      1.915442       31.505114     -3.1457049      19009.447    
    183000   313.26103      0.0915         0.19348512     0.19026803     0.19289426    -1897.0225      812.43143      812.43143      812.43143      5.3624117e+08  1.3069345     -53889976      -53889976       932.83785     -53889043      -1909.5497     -1877.7995     -1903.7184      2.6507499      30.525443     -3.2992856      20597.462    
    184000   313.33668      0.092          0.19278137     0.18960647     0.19226057    -1890.4463      812.8036       812.8036       812.8036       5.3697844e+08  1.3051401     -53869810      -53869810       933.06314     -53868877      -1902.6042     -1871.2704     -1897.4643      3.1746198      30.044604     -3.5498579      20000.47     
    185000   313.36981      0.0925         0.1921641      0.18890562     0.19161303    -1883.9798      813.17576      813.17576      813.17576      5.3771639e+08  1.303349      -53849693      -53849693       933.16178     -53848759      -1896.5122     -1864.3535     -1891.0736      3.0715177      30.135812     -3.9282671      19073.964    
    186000   313.32448      0.093          0.19159341     0.18816341     0.19092571    -1877.3996      813.54792      813.54792      813.54792      5.3845501e+08  1.3015611     -53829624      -53829624       933.02679     -53828691      -1890.8799     -1857.0285     -1884.2902      2.6493073      29.992286     -4.0708056      18299.308    
    187000   313.35771      0.0935         0.1910069      0.18741112     0.19024992    -1870.7721      813.92009      813.92009      813.92009      5.3919431e+08  1.2997765     -53809608      -53809608       933.12576     -53808675      -1885.0915     -1849.604      -1877.6207      2.522103       29.194716     -3.8341617      19589.015    
    188000   313.40204      0.094          0.19036733     0.18669026     0.18962233    -1864.232       814.29225      814.29225      814.29225      5.3993428e+08  1.2979952     -53789647      -53789647       933.25777     -53788714      -1878.7794     -1842.4896     -1871.4269      3.1970074      28.285409     -3.45958        20455.259    
    189000   313.27645      0.0945         0.18967703     0.18602145     0.18899006    -1857.6809      814.66441      814.66441      814.66441      5.4067493e+08  1.2962171     -53769740      -53769740       932.88378     -53768807      -1871.9667     -1835.889      -1865.1869      4.3069995      27.8905       -3.2378345      19156.013    
    190000   313.09828      0.095          0.18893535     0.18536998     0.18834161    -1850.9645      815.03657      815.03657      815.03657      5.4141626e+08  1.2944423     -53749882      -53749882       932.3532      -53748950      -1864.6469     -1829.4594     -1858.7872      4.83187        27.94918      -3.3014624      19347.469    
    191000   313.13205      0.0955         0.18820268     0.1847674      0.18771961    -1844.5257      815.40874      815.40874      815.40874      5.4215826e+08  1.2926707     -53730069      -53730069       932.45376     -53729137      -1857.4161     -1823.5125     -1852.6485      4.472019       28.085547     -3.5505287      19061.083    
    192000   313.29307      0.096          0.18756684     0.18421394     0.18717707    -1838.8283      815.7809       815.7809       815.7809       5.4290095e+08  1.2909024     -53710301      -53710301       932.93326     -53709368      -1851.1408     -1818.0502     -1847.294       3.9408861      28.024389     -3.8039703      19614.492    
    193000   313.36333      0.0965         0.18704835     0.18364118     0.18671797    -1833.7281      816.15306      816.15306      816.15306      5.4364431e+08  1.2891372     -53690578      -53690578       933.14248     -53689644      -1846.0237     -1812.3975     -1842.7631      4.028097       27.571534     -3.9736274      20109.782    
    194000   313.3081       0.097          0.18654715     0.18298204     0.1862204     -1828.274       816.52523      816.52523      816.52523      5.4438835e+08  1.2873753     -53670903      -53670903       932.97801     -53669970      -1841.0772     -1805.8923     -1837.8524      4.6857578      26.750137     -4.0370436      19019.043    
    195000   313.34857      0.0975         0.18591546     0.18226146     0.18555227    -1821.6274      816.89739      816.89739      816.89739      5.4513306e+08  1.2856166     -53651277      -53651277       933.09855     -53650344      -1834.8429     -1798.7808     -1831.2585      5.3232837      26.176717     -3.9251105      18640.063    
    196000   313.44774      0.098          0.18517684     0.18159726     0.1848113     -1814.5749      817.26955      817.26955      817.26955      5.4587846e+08  1.2838611     -53631697      -53631697       933.39384     -53630763      -1827.5533     -1792.2257     -1823.9457      5.5518739      26.079541     -3.9078021      19247.014    
    197000   313.51607      0.0985         0.18448086     0.18105056     0.18418111    -1808.4136      817.64171      817.64171      817.64171      5.4662453e+08  1.2821088     -53612163      -53612163       933.59731     -53611229      -1820.6845     -1786.8301     -1817.7262      5.4513233      25.983558     -4.1731862      20936.584    
    198000   313.48192      0.099          0.1839302      0.18055442     0.18368154    -1803.3265      818.01388      818.01388      818.01388      5.4737129e+08  1.2803596     -53592677      -53592677       933.49563     -53591743      -1815.25       -1781.9336     -1812.7958      5.5783541      25.625614     -4.5958968      20781.966    
    199000   313.40724      0.0995         0.183444       0.17997055     0.18317825    -1798.1505      818.38604      818.38604      818.38604      5.4811872e+08  1.2786137     -53573239      -53573239       933.27325     -53572305      -1810.4515     -1776.1713     -1807.8287      6.1014748      25.017372     -4.8567651      19935.044    
    200000   313.48457      0.1            0.1829037      0.17928682     0.18260049    -1792.2231      818.7582       818.7582       818.7582       5.4886684e+08  1.2768709     -53553847      -53553847       933.50353     -53552913      -1805.1192     -1769.4234     -1802.1268      6.7405129      24.258451     -5.0132629      18173.094    
    201000   313.63682      0.1005         0.18228842     0.17863486     0.18197845    -1786.0078      819.13037      819.13037      819.13037      5.4961563e+08  1.2751313     -53534497      -53534497       933.95691     -53533564      -1799.0468     -1762.989      -1795.9877      7.138662       23.548438     -5.1739263      20474.73     
    202000   313.71672      0.101          0.1817117      0.17812135     0.18142587    -1780.6034      819.50253      819.50253      819.50253      5.5036511e+08  1.2733949     -53515184      -53515184       934.19484     -53514250      -1793.355      -1757.921      -1790.5341      7.1792041      23.127443     -5.5200511      19745.786    
    203000   313.73441      0.1015         0.1812695      0.17771201     0.18098237    -1776.343       819.87469      819.87469      819.87469      5.5111527e+08  1.2716616     -53495904      -53495904       934.2475      -53494969      -1788.9909     -1753.8811     -1786.1571      7.1213678      23.020103     -6.0322618      19855.193    
    204000   313.85155      0.102          0.18085602     0.17724365     0.18055418    -1772.0334      820.24685      820.24685      820.24685      5.518661e+08   1.2699314     -53476659      -53476659       934.59632     -53475725      -1784.9102     -1749.2588     -1781.9312      7.0190999      22.873329     -6.3412537      18377.797    
    205000   314.03331      0.1025         0.18030821     0.17660527     0.18002645    -1766.3951      820.61902      820.61902      820.61902      5.5261762e+08  1.2682044     -53457458      -53457458       935.13758     -53456523      -1779.5037     -1742.9585     -1776.7229      6.9474725      22.355253     -6.0591623      18839.504    
    206000   314.04565      0.103          0.1796139      0.17584948     0.1793507     -1759.4015      820.99118      820.99118      820.99118      5.5336983e+08  1.2664805     -53438306      -53438306       935.17431     -53437370      -1772.6514     -1735.4994     -1770.0538      7.235289       21.46027      -5.3124201      20435.516    
    207000   313.90148      0.1035         0.17890624     0.17512662     0.17863903    -1752.3543      821.36334      821.36334      821.36334      5.5412271e+08  1.2647598     -53419204      -53419204       934.745       -53418269      -1765.6673     -1728.3653     -1763.0301      7.693425       20.532789     -4.8917039      21109.042    
    208000   313.83977      0.104          0.17828669     0.17457428     0.17798972    -1746.363       821.73551      821.73551      821.73551      5.5487628e+08  1.2630421     -53400146      -53400146       934.56126     -53399211      -1759.5529     -1722.9142     -1756.622       7.913686       19.833575     -5.0483054      20347.366    
    209000   313.87518      0.1045         0.17783816     0.17419663     0.17749702    -1742.0242      822.10767      822.10767      822.10767      5.5563053e+08  1.2613276     -53381124      -53381124       934.66668     -53380189      -1755.1262     -1719.1871     -1751.7593      7.9337389      19.497122     -5.3432259      18950.867    
    210000   313.97536      0.105          0.17746551     0.17381542     0.17709284    -1738.2146      822.47983      822.47983      822.47983      5.5638546e+08  1.2596162     -53362139      -53362139       934.96502     -53361204      -1751.4484     -1715.4249     -1747.7704      7.8630514      19.457198     -5.5478544      18862.468    
    211000   314.19412      0.1055         0.17704392     0.17330163     0.17663533    -1733.6323      822.85199      822.85199      822.85199      5.5714107e+08  1.2579078     -53343193      -53343193       935.61643     -53342258      -1747.2876     -1710.3541     -1743.2551      7.8725014      19.554805     -5.6426497      19204.586    
    212000   314.38866      0.106          0.17650605     0.17269998     0.17609184    -1728.0956      823.22416      823.22416      823.22416      5.5789737e+08  1.2562026     -53324288      -53324288       936.19574     -53323351      -1741.9793     -1704.4163     -1737.8913      8.0138457      19.354901     -5.5898108      20056.856    
    213000   314.41536      0.1065         0.17587345     0.17210172     0.1755041     -1722.1129      823.59632      823.59632      823.59632      5.5865436e+08  1.2545004     -53305424      -53305424       936.27525     -53304488      -1735.736      -1698.512      -1732.0908      7.9946765      18.678215     -5.5068339      18274.212    
    214000   314.28783      0.107          0.17527838     0.17152231     0.17492163    -1716.333       823.96848      823.96848      823.96848      5.5941203e+08  1.2528013     -53286600      -53286600       935.89549     -53285665      -1729.8631     -1692.7936     -1726.3422      7.8616951      17.939647     -5.5298486      18143.241    
    215000   314.19574      0.1075         0.17483443     0.17096173     0.17441849    -1711.3731      824.34065      824.34065      824.34065      5.6017038e+08  1.2511053     -53267815      -53267815       935.62125     -53266879      -1725.4816     -1687.2611     -1721.3766      7.8678589      17.789628     -5.7692999      20072.703    
    216000   314.34484      0.108          0.17445607     0.17041849     0.17397773    -1706.8913      824.71281      824.71281      824.71281      5.6092942e+08  1.2494123     -53249070      -53249070       936.06526     -53248134      -1721.7475     -1681.8997     -1717.0267      8.2053806      17.887377     -6.0079572      20892.142    
    217000   314.66794      0.1085         0.17401286     0.16993696     0.17355893    -1702.4714      825.08497      825.08497      825.08497      5.6168914e+08  1.2477224     -53230362      -53230362       937.02738     -53229425      -1717.3734     -1677.1474     -1712.8934      8.7928702      17.548901     -6.0661765      20752.25     
[...]
   4310000   321.1107       2.155          0.0070523889   0.0072132662   0.0073317775  -71.050029      2348.3474      2348.3474      2348.3474      1.2950515e+10  0.054116159   -9283196.3     -9283196.3      956.21282     -9282240.1     -69.601667     -71.189403     -72.359018     -0.59816987     1.0172098     -1.0327762      19901.966    
   4311000   321.10072      2.1555         0.0070474195   0.0072074744   0.0073265056  -70.997284      2348.7196      2348.7196      2348.7196      1.2956673e+10  0.054090439   -9276951       -9276951        956.1831      -9275994.8     -69.552623     -71.132242     -72.306988     -0.60198735     1.0184931     -1.0351126      19730.013    
   4312000   321.08296      2.156          0.0070417619   0.0072020754   0.0073198225  -70.938925      2349.0917      2349.0917      2349.0917      1.2962833e+10  0.054064734   -9270708.7     -9270708.7      956.13023     -9269752.6     -69.496787     -71.078958     -72.241032     -0.6051227      1.0257415     -1.0375536      19862.764    
   4313000   321.07126      2.1565         0.0070348797   0.0071964648   0.0073127875  -70.874684      2349.4639      2349.4639      2349.4639      1.2968995e+10  0.054039046   -9264469.9     -9264469.9      956.0954      -9263513.8     -69.428865     -71.023585     -72.171601     -0.60255498     1.0341456     -1.0409743      19865.42     
   4314000   321.06556      2.157          0.0070276915   0.0071905977   0.0073065963  -70.811368      2349.836       2349.836       2349.836       1.2975159e+10  0.054013374   -9258235       -9258235        956.07842     -9257278.9     -69.357923     -70.965682     -72.110499     -0.60053565     1.040424      -1.0463078      19497.667    
   4315000   321.05524      2.1575         0.0070216233   0.0071842428   0.007301249   -70.752908      2350.2082      2350.2082      2350.2082      1.2981325e+10  0.053987719   -9252003.6     -9252003.6      956.04767     -9251047.5     -69.298034     -70.902964     -72.057725     -0.59705309     1.0444155     -1.0507602      19791.714    
   4316000   321.03152      2.158          0.0070167762   0.0071779723   0.0072961817  -70.699663      2350.5804      2350.5804      2350.5804      1.2987493e+10  0.05396208    -9245775.1     -9245775.1      955.97703     -9244819.1     -69.250197     -70.841079     -72.007715     -0.58736504     1.0433292     -1.0522481      19915.42     
   4317000   320.99643      2.1585         0.0070122603   0.0071721256   0.0072911487  -70.649016      2350.9525      2350.9525      2350.9525      1.2993662e+10  0.053936457   -9239549.1     -9239549.1      955.87257     -9238593.3     -69.205628     -70.783376     -71.958043     -0.57357435     1.0356702     -1.0502747      19939.692    
   4318000   320.96547      2.159          0.0070077375   0.0071665738   0.0072860571  -70.599123      2351.3247      2351.3247      2351.3247      1.2999834e+10  0.05391085    -9233325.6     -9233325.6      955.78036     -9232369.9     -69.160992     -70.728584     -71.907793     -0.56056046     1.025052      -1.0454835      19913.143    
   4319000   320.9552       2.1595         0.0070025445   0.0071607004   0.0072805368  -70.544557      2351.6969      2351.6969      2351.6969      1.3006008e+10  0.053885259   -9227104.7     -9227104.7      955.74978     -9226148.9     -69.10974      -70.670618     -71.853312     -0.55859583     1.0181158     -1.0432041      19865.729    
   4320000   320.98089      2.16           0.0069962228   0.0071543936   0.0072752448  -70.485603      2352.069       2352.069       2352.069       1.3012184e+10  0.053859685   -9220887.1     -9220887.1      955.82628     -9219931.2     -69.047351     -70.608375     -71.801084     -0.5678578      1.0156658     -1.0454515      19835.123    
   4321000   321.02641      2.1605         0.0069894341   0.0071484535   0.0072706095  -70.42848       2352.4412      2352.4412      2352.4412      1.3018361e+10  0.053834127   -9214672.8     -9214672.8      955.96182     -9213716.9     -68.980351     -70.549751     -71.755337     -0.57936203     1.0130377     -1.0468776      19815.509    
   4322000   321.06741      2.161          0.0069831093   0.007143015    0.007265842   -70.374097      2352.8133      2352.8133      2352.8133      1.3024541e+10  0.053808585   -9208461.7     -9208461.7      956.08393     -9207505.6     -68.917931     -70.496077     -71.708285     -0.58322314     1.0085472     -1.043472       19812.734    
   4323000   321.09799      2.1615         0.006977699    0.0071384731   0.0072605528  -70.323957      2353.1855      2353.1855      2353.1855      1.3030722e+10  0.053783059   -9202253.4     -9202253.4      956.17497     -9201297.2     -68.864535     -70.451252     -71.656085     -0.57992576     1.0054524     -1.0352982      19914.868    
   4324000   321.12742      2.162          0.0069734228   0.0071343146   0.0072558157  -70.280625      2353.5577      2353.5577      2353.5577      1.3036906e+10  0.053757549   -9196047.5     -9196047.5      956.26263     -9195091.3     -68.822332     -70.410211     -71.609334     -0.57616463     1.0036256     -1.027558       19562.627    
   4325000   321.15806      2.1625         0.0069697799   0.0071296934   0.0072519467  -70.240711      2353.9298      2353.9298      2353.9298      1.3043091e+10  0.053732055   -9189843.2     -9189843.2      956.35385     -9188886.9     -68.786379     -70.364603     -71.571149     -0.57519981     1.0001705     -1.02534        19848.527    
   4326000   321.18798      2.163          0.0069657139   0.0071244447   0.0072479085  -70.196783      2354.302       2354.302       2354.302       1.3049279e+10  0.053706578   -9183640.7     -9183640.7      956.44294     -9182684.2     -68.746252     -70.312802     -71.531296     -0.57399368     0.9903473     -1.0279571      19801.85     
   4327000   321.20487      2.1635         0.0069607971   0.0071190558   0.0072427733  -70.145986      2354.6742      2354.6742      2354.6742      1.3055468e+10  0.053681116   -9177440.4     -9177440.4      956.49326     -9176483.9     -68.697727     -70.259618     -71.480615     -0.57192723     0.97664513    -1.0267915      19846.057    
   4328000   321.19334      2.164          0.0069552704   0.0071135573   0.0072363844  -70.088698      2355.0463      2355.0463      2355.0463      1.306166e+10   0.053655671   -9171243.1     -9171243.1      956.45891     -9170286.6     -68.643182     -70.205352     -71.417561     -0.56930307     0.96848436    -1.0198021      19793.089    
   4329000   321.15805      2.1645         0.0069498092   0.0071082724   0.0072296804  -70.031292      2355.4185      2355.4185      2355.4185      1.3067853e+10  0.053630242   -9165049.1     -9165049.1      956.35383     -9164092.7     -68.589284     -70.153194     -71.351398     -0.56381018     0.97091307    -1.0121987      19869.949    
   4330000   321.10842      2.165          0.0069447053   0.0071040424   0.0072237265  -69.980999      2355.7906      2355.7906      2355.7906      1.3074048e+10  0.053604829   -9158857.9     -9158857.9      956.20604     -9157901.7     -68.538913     -70.111447     -71.292637     -0.55312127     0.97895675    -1.0107166      19823.352    
   4331000   321.05292      2.1655         0.0069393785   0.0071007659   0.0072184151  -69.935224      2356.1628      2356.1628      2356.1628      1.3080245e+10  0.053579432   -9152668.9     -9152668.9      956.04079     -9151712.8     -68.486341     -70.079111     -71.240218     -0.54086183     0.98470759    -1.0200767      19851.906    
   4332000   321.00897      2.166          0.0069337055   0.0070973962   0.0072132046  -69.888334      2356.535       2356.535       2356.535       1.3086445e+10  0.053554051   -9146481.8     -9146481.8      955.90988     -9145525.9     -68.430353     -70.045855     -71.188794     -0.53667674     0.98629506    -1.034287       20048.718    
   4333000   320.98478      2.1665         0.0069282117   0.0070928726   0.0072081363  -69.838706      2356.9071      2356.9071      2356.9071      1.3092646e+10  0.053528686   -9140297.1     -9140297.1      955.83787     -9139341.3     -68.376133     -70.00121      -71.138774     -0.54361202     0.98485065    -1.0413204      20059.851    
   4334000   320.97725      2.167          0.0069228207   0.0070872586   0.0072031324  -69.78604       2357.2793      2357.2793      2357.2793      1.3098849e+10  0.053503337   -9134115       -9134115        955.81543     -9133159.2     -68.322928     -69.945804     -71.089389     -0.55765983     0.98696497    -1.0406798      19484.636    
   4335000   320.98163      2.1675         0.0069179559   0.007080663    0.0071981789  -69.732043      2357.6515      2357.6515      2357.6515      1.3105054e+10  0.053478004   -9127935.9     -9127935.9      955.82849     -9126980       -68.274916     -69.88071      -71.040503     -0.56746705     0.99207342    -1.0389636      19872.152    
   4336000   320.99529      2.168          0.0069137706   0.0070733162   0.0071931837  -69.677673      2358.0236      2358.0236      2358.0236      1.3111261e+10  0.053452687   -9121759.7     -9121759.7      955.86916     -9120803.8     -68.233611     -69.808204     -70.991203     -0.56930317     0.99474934    -1.0416628      20047.189    
   4337000   321.01788      2.1685         0.0069094279   0.0070666097   0.0071886002  -69.626245      2358.3958      2358.3958      2358.3958      1.311747e+10   0.053427385   -9115586.4     -9115586.4      955.93642     -9114630.5     -68.190751     -69.742015     -70.945968     -0.56699237     0.98967863    -1.0479513      19955.404    
   4338000   321.0433       2.169          0.0069047007   0.0070610692   0.0071842012  -69.577995      2358.7679      2358.7679      2358.7679      1.3123681e+10  0.0534021     -9109415.7     -9109415.7      956.01212     -9108459.6     -68.144097     -69.687335     -70.902553     -0.5623532      0.97821057    -1.055453       19652.026    
   4339000   321.07397      2.1695         0.0068998447   0.0070563345   0.0071791841  -69.529939      2359.1401      2359.1401      2359.1401      1.3129894e+10  0.053376831   -9103247.3     -9103247.3      956.10346     -9102291.2     -68.096173     -69.640607     -70.853038     -0.55977992     0.96999524    -1.0604487      19956.516    
   4340000   321.11211      2.17           0.0068948109   0.0070516358   0.0071731937  -69.478215      2359.5123      2359.5123      2359.5123      1.3136108e+10  0.053351578   -9097081.5     -9097081.5      956.21703     -9096125.2     -68.046493     -69.594234     -70.793917     -0.55862187     0.96850524    -1.0609728      19659.521    
   4341000   321.16192      2.1705         0.0068889201   0.0070469478   0.0071666451  -69.42187       2359.8844      2359.8844      2359.8844      1.3142325e+10  0.053326341   -9090918.8     -9090918.8      956.36537     -9089962.4     -67.988355     -69.547967     -70.729288     -0.55514448     0.96982532    -1.0583056      20166.743    
   4342000   321.20312      2.171          0.0068833814   0.0070429313   0.0071602641  -69.369444      2360.2566      2360.2566      2360.2566      1.3148544e+10  0.053301119   -9084759.3     -9084759.3      956.48805     -9083802.8     -67.933692     -69.508327     -70.666312     -0.55214985     0.9690375     -1.0548264      19838.184    
   4343000   321.2149       2.1715         0.0068786212   0.0070385107   0.0071550745  -69.32217       2360.6288      2360.6288      2360.6288      1.3154765e+10  0.053275914   -9078602.3     -9078602.3      956.52311     -9077645.7     -67.886713     -69.4647       -70.615095     -0.55036124     0.96659955    -1.053036       19938.38     
   4344000   321.20364      2.172          0.006873033    0.0070330854   0.0071508496  -69.272039      2361.0009      2361.0009      2361.0009      1.3160987e+10  0.053250724   -9072447.5     -9072447.5      956.4896      -9071491       -67.831562     -69.411156     -70.573399     -0.54797846     0.96248279    -1.051376       19911.256    
   4345000   321.1875       2.1725         0.0068666961   0.0070269717   0.007146496   -69.216757      2361.3731      2361.3731      2361.3731      1.3167212e+10  0.053225551   -9066295.6     -9066295.6      956.44153     -9065339.2     -67.769021     -69.350819     -70.530432     -0.54522051     0.95499142    -1.0492931      19884.461    
   4346000   321.17451      2.173          0.0068607201   0.0070210911   0.007141428   -69.16108       2361.7453      2361.7453      2361.7453      1.3173439e+10  0.053200393   -9060146.9     -9060146.9      956.40284     -9059190.5     -67.710043     -69.292782     -70.480415     -0.5409106      0.94667764    -1.0480649      19793.788    
   4347000   321.17851      2.1735         0.0068556118   0.0070155403   0.0071357712  -69.107404      2362.1174      2362.1174      2362.1174      1.3179667e+10  0.053175251   -9054001.3     -9054001.3      956.41477     -9053044.9     -67.659628     -69.237999     -70.424586     -0.5387406      0.93980459    -1.0467305      19953.938    
   4348000   321.19848      2.174          0.0068510653   0.0070101582   0.0071302435  -69.056557      2362.4896      2362.4896      2362.4896      1.3185898e+10  0.053150125   -9047858.4     -9047858.4      956.47424     -9046902       -67.614758     -69.184883     -70.370032     -0.53952439     0.93465646    -1.043295       19687.617    
   4349000   321.21976      2.1745         0.006846528    0.0070046033   0.007125292   -69.007067      2362.8617      2362.8617      2362.8617      1.319213e+10   0.053125015   -9041718.2     -9041718.2      956.53758     -9040761.7     -67.569978     -69.13006      -70.321164     -0.53810824     0.93053876    -1.0414995      19760.68     
   4350000   321.23773      2.175          0.0068416544   0.0069989217   0.0071209656  -68.958111      2363.2339      2363.2339      2363.2339      1.3198365e+10  0.05309992    -9035580.6     -9035580.6      956.59109     -9034624       -67.521879     -69.073987     -70.278466     -0.53070698     0.9271975     -1.0445001      19322.779    
   4351000   321.24978      2.1755         0.0068367222   0.0069941624   0.0071162343  -68.910663      2363.6061      2363.6061      2363.6061      1.3204601e+10  0.053074841   -9029445.4     -9029445.4      956.62699     -9028488.8     -67.473202     -69.027016     -70.231772     -0.5212315      0.924804      -1.0507188      20062.134    
   4352000   321.25451      2.176          0.0068322373   0.006989791    0.0071107235  -68.863399      2363.9782      2363.9782      2363.9782      1.321084e+10   0.053049779   -9023312.6     -9023312.6      956.64108     -9022355.9     -67.42894      -68.983874     -70.177385     -0.51603168     0.92131052    -1.0559242      19733.788    
   4353000   321.25512      2.1765         0.0068280975   0.0069849413   0.0071046581  -68.813873      2364.3504      2364.3504      2364.3504      1.321708e+10   0.053024731   -9017182.1     -9017182.1      956.64289     -9016225.5     -67.388083     -68.936011     -70.117524     -0.5136011      0.9157778     -1.0549551      19452.2      
   4354000   321.25246      2.177          0.0068237768   0.006979531    0.0070987991  -68.762585      2364.7226      2364.7226      2364.7226      1.3223322e+10  0.0529997     -9011054.3     -9011054.3      956.63497     -9010097.7     -67.345441     -68.882615     -70.0597       -0.51370519     0.91340574    -1.0501808      19469.963    
   4355000   321.23496      2.1775         0.0068183746   0.0069745861   0.0070934404  -68.710917      2365.0947      2365.0947      2365.0947      1.3229567e+10  0.052974684   -9004929.2     -9004929.2      956.58284     -9003972.6     -67.292126     -68.833813     -70.006814     -0.51625423     0.91777373    -1.0496166      19885.145    
   4356000   321.20793      2.178          0.0068113206   0.0069699664   0.0070882932  -68.655581      2365.4669      2365.4669      2365.4669      1.3235813e+10  0.052949685   -8998806.9     -8998806.9      956.50236     -8997850.4     -67.222507     -68.78822      -69.956015     -0.51997348     0.92422844    -1.0586077      19782.404    
   4357000   321.18335      2.1785         0.0068044158   0.0069647832   0.0070832287  -68.599154      2365.839       2365.839       2365.839       1.3242061e+10  0.0529247     -8992687.9     -8992687.9      956.42918     -8991731.5     -67.154363     -68.737066     -69.906032     -0.52111969     0.92306571    -1.0712167      19903.385    
   4358000   321.15506      2.179          0.006798787    0.0069590524   0.0070778496  -68.544087      2366.2112      2366.2112      2366.2112      1.3248311e+10  0.052899732   -8986571.8     -8986571.8      956.34492     -8985615.5     -67.098811     -68.680507     -69.852945     -0.51769038     0.91471162    -1.0797187      19638.801    
   4359000   321.13999      2.1795         0.0067939149   0.0069524524   0.0070723119  -68.48813       2366.5834      2366.5834      2366.5834      1.3254563e+10  0.052874779   -8980458.9     -8980458.9      956.30004     -8979502.6     -67.050727     -68.61537      -69.798292     -0.5139038      0.90513433    -1.083894       19856.415    
   4360000   321.15316      2.18           0.0067889079   0.0069456244   0.0070672922  -68.432682      2366.9555      2366.9555      2366.9555      1.3260817e+10  0.052849842   -8974349.1     -8974349.1      956.33928     -8973392.8     -67.001312     -68.547983     -69.748751     -0.51653666     0.90017263    -1.0840565      19879.068    
   4361000   321.18063      2.1805         0.0067834279   0.0069394039   0.0070629876  -68.380029      2367.3277      2367.3277      2367.3277      1.3267074e+10  0.052824921   -8968242.5     -8968242.5      956.42108     -8967286.1     -66.947229     -68.486591     -69.706268     -0.52446972     0.90018193    -1.0805666      19886.974    
   4362000   321.19764      2.181          0.0067781478   0.0069340124   0.0070585809  -68.330426      2367.6999      2367.6999      2367.6999      1.3273332e+10  0.052800015   -8962138.5     -8962138.5      956.47174     -8961182       -66.895118     -68.433382     -69.662778     -0.53020134     0.90007485    -1.074041       19935.209    
   4363000   321.2055       2.1815         0.0067729971   0.0069287416   0.0070531479  -68.278268      2368.072       2368.072       2368.072       1.3279592e+10  0.052775125   -8956037.2     -8956037.2      956.49513     -8955080.7     -66.844284     -68.381363     -69.609158     -0.53032344     0.8963738     -1.0667361      19897.006    
   4364000   321.21505      2.182          0.0067682675   0.0069236666   0.007047716   -68.228144      2368.4442      2368.4442      2368.4442      1.3285854e+10  0.052750251   -8949938.7     -8949938.7      956.52356     -8948982.2     -66.797607     -68.331277     -69.555549     -0.52287851     0.88960185    -1.0607304      19767.073    
   4365000   321.22349      2.1825         0.0067640196   0.0069193518   0.0070429593  -68.184327      2368.8163      2368.8163      2368.8163      1.3292118e+10  0.052725392   -8943842.7     -8943842.7      956.54871     -8942886.1     -66.755683     -68.288693     -69.508604     -0.51459524     0.8837733     -1.0588524      19678.548    
   4366000   321.24171      2.183          0.0067594223   0.0069161289   0.0070387465  -68.144741      2369.1885      2369.1885      2369.1885      1.3298383e+10  0.052700549   -8937748.6     -8937748.6      956.60295     -8936792       -66.710311     -68.256886     -69.467027     -0.50833272     0.87912611    -1.0601597      19807.637    
   4367000   321.2587       2.1835         0.0067541599   0.006913284    0.0070350126  -68.105786      2369.5607      2369.5607      2369.5607      1.3304651e+10  0.052675722   -8931655.9     -8931655.9      956.65355     -8930699.2     -66.658375     -68.228808     -69.430176     -0.50801677     0.87529362    -1.0623019      19759.185    
   4368000   321.27768      2.184          0.0067480622   0.0069097439   0.007031