LAMMPS (23 Jun 2022 - Update 1)
OMP_NUM_THREADS environment is not set. Defaulting to 1 thread. (src/comm.cpp:98)
  using 1 OpenMP thread(s) per MPI task
###

# Read restart info
read_restart ${read_res}
read_restart ./trial5/4060/equpmf71.res
Reading restart file ...
  restart file = 23 Jun 2022, LAMMPS = 23 Jun 2022
  restoring atom style atomic from restart
  orthogonal box = (1662.576 1662.576 1662.576) to (2337.424 2337.424 2337.424)
  1 by 2 by 2 MPI processor grid
  restoring pair style table from restart
  1000 atoms
  read_restart CPU = 0.050 seconds

# Settings
pair_style table/pgn spline 10941
pair_coeff 1 1 N20e.txt DE_GNP 308 72.9   # 1.35 * r
pair_coeff 2 2 N100e.txt DE_GNP 473.9 111.78
WARNING: 20 of 10941 force values in table DE_GNP are inconsistent with -dE/dr.
WARNING:  Should only be flagged at inflection points (src/pair_table_pgn.cpp:478)
pair_coeff 1 2 mixed_potentiale.txt DE_GNP 391.2 92.95
WARNING: 1564 of 10941 force values in table DE_GNP are inconsistent with -dE/dr.
WARNING:  Should only be flagged at inflection points (src/pair_table_pgn.cpp:478)

# Neighbor list
neighbor 2.0 bin
neigh_modify delay 0 every 1 check no once yes

# Temperature
variable T equal ${Temp}
variable T equal 300

# Deformation
reset_timestep 0
variable tmp equal "lx"
variable L0 equal ${tmp}
variable L0 equal 674.847975341754
variable strain equal "(lx - v_L0)/v_L0"
variable stp equal "step"
variable tmpe equal "temp"
variable p1 equal "v_strain"
variable p2 equal "-pxx*1.01325/10000"
variable p3 equal "-pyy*1.01325/10000"
variable p4 equal "-pzz*1.01325/10000"
variable p5 equal "lx"
variable p6 equal "ly"
variable p7 equal "lz"
variable p8 equal "press"
variable p9 equal "epair"
variable p10 equal "etotal"

# Thermo
thermo_style custom step temp v_p1 v_p2 v_p3 v_p4 press lx ly lz vol density epair pe ke etotal pxx pyy pzz pxy pxz pyz spcpu
thermo ${ts_save}
thermo 1000

# Dump
# dump 1 all custom 2000 ./${N20}${N100}/tensile/trajectory/trajectory_${usic}_${trial}_*.tensile.custom id type x y z ix iy iz
# dump_modify 1 sort id
dump 2 all cfg 50000 ./trial${trial}/${N20}${N100}/tensile/trajectory/dumpten.tens_${usic}_${trial}_*.cfg mass type xs ys zs fx fy fz
dump 2 all cfg 50000 ./trial5/${N20}${N100}/tensile/trajectory/dumpten.tens_${usic}_${trial}_*.cfg mass type xs ys zs fx fy fz
dump 2 all cfg 50000 ./trial5/40${N100}/tensile/trajectory/dumpten.tens_${usic}_${trial}_*.cfg mass type xs ys zs fx fy fz
dump 2 all cfg 50000 ./trial5/4060/tensile/trajectory/dumpten.tens_${usic}_${trial}_*.cfg mass type xs ys zs fx fy fz
dump 2 all cfg 50000 ./trial5/4060/tensile/trajectory/dumpten.tens_1_${trial}_*.cfg mass type xs ys zs fx fy fz
dump 2 all cfg 50000 ./trial5/4060/tensile/trajectory/dumpten.tens_1_5_*.cfg mass type xs ys zs fx fy fz
dump_modify 2 element N20 N100

fix 1 all nvt temp ${T} ${T} 100
fix 1 all nvt temp 300 ${T} 100
fix 1 all nvt temp 300 300 100
fix 2 all deform 1 x erate ${strain_rate} y erate ${strain_rate} z erate ${strain_rate} units box
fix 2 all deform 1 x erate 5e-6 y erate ${strain_rate} z erate ${strain_rate} units box
fix 2 all deform 1 x erate 5e-6 y erate 5e-6 z erate ${strain_rate} units box
fix 2 all deform 1 x erate 5e-6 y erate 5e-6 z erate 5e-6 units box
fix             def1 all print ${ts_save} "${p1} ${p2} ${p3} ${p4}" file ./tensile/${trial}/tensile${N20}${N100}_${usic}_${trial}.txt screen no
fix             def1 all print 1000 "${p1} ${p2} ${p3} ${p4}" file ./tensile/${trial}/tensile${N20}${N100}_${usic}_${trial}.txt screen no
fix             def1 all print 1000 "${p1} ${p2} ${p3} ${p4}" file ./tensile/5/tensile${N20}${N100}_${usic}_${trial}.txt screen no
fix             def1 all print 1000 "${p1} ${p2} ${p3} ${p4}" file ./tensile/5/tensile40${N100}_${usic}_${trial}.txt screen no
fix             def1 all print 1000 "${p1} ${p2} ${p3} ${p4}" file ./tensile/5/tensile4060_${usic}_${trial}.txt screen no
fix             def1 all print 1000 "${p1} ${p2} ${p3} ${p4}" file ./tensile/5/tensile4060_1_${trial}.txt screen no
fix             def1 all print 1000 "${p1} ${p2} ${p3} ${p4}" file ./tensile/5/tensile4060_1_5.txt screen no

timestep       		${ts}
timestep       		0.1
run				${steps_tensile}
run				6000000
Generated 0 of 1 mixed pair_coeff terms from geometric mixing rule
Unused restart file global fix info:
  fix style: npt, fix ID: 5
Neighbor list info ...
  update every 1 steps, delay 0 steps, check no
  max neighbors/atom: 2000, page size: 100000
  master list distance cutoff = 113.78
  ghost atom cutoff = 113.78
  binsize = 56.89, bins = 12 12 12
  1 neighbor lists, perpetual/occasional/extra = 1 0 0
  (1) pair table/pgn, perpetual
      attributes: half, newton on
      pair build: half/bin/atomonly/newton
      stencil: half/bin/3d
      bin: standard
Per MPI rank memory allocation (min/avg/max) = 3.85 | 3.851 | 3.852 Mbytes
   Step          Temp           v_p1           v_p2           v_p3           v_p4          Press            Lx             Ly             Lz           Volume        Density         E_pair         PotEng         KinEng         TotEng          Pxx            Pyy            Pzz            Pxy            Pxz            Pyz           S/CPU     
         0   295.6346       1.6846289e-16  0.0059421644   0.016969444    0.010669194   -110.47225      674.84798      674.84798      674.84798      3.0733912e+08  1.8476533     -35779646      -35779646       880.34934     -35778766      -58.644603     -167.47539     -105.29676     -28.06465      -16.423578     -66.578698      0            
      1000   336.84386      0.0005         0.015685802    0.026558669    0.02034126    -205.89105      675.1854       675.1854       675.1854       3.0780036e+08  1.8448846     -35778723      -35778723       1003.0635     -35777720      -154.80683     -262.11368     -200.75262     -29.119798     -16.869974     -66.724358      13654.252    
      2000   408.92186      0.001          0.024581844    0.035075488    0.028979363   -291.59205      675.52282      675.52282      675.52282      3.0826206e+08  1.8421214     -35777412      -35777412       1217.6995     -35776194      -242.60394     -346.16815     -286.00407     -27.965232     -16.915384     -66.191172      15182.049    
      3000   478.23805      0.0015         0.032544321    0.042661938    0.036652223   -367.9858       675.86025      675.86025      675.86025      3.0872422e+08  1.8393638     -35775720      -35775720       1424.1112     -35774296      -321.18748     -421.04059     -361.72932     -26.059499     -17.316559     -64.265477      15270.553    
      4000   519.0095       0.002          0.04031691     0.050103895    0.044135666   -442.65637      676.19767      676.19767      676.19767      3.0918685e+08  1.8366116     -35773615      -35773615       1545.5217     -35772069      -397.89697     -494.487       -435.58516     -25.124069     -17.819774     -62.396318      15156.622    
      5000   530.64824      0.0025         0.04826868     0.057979245    0.051961218   -520.46762      676.5351       676.5351       676.5351       3.0964993e+08  1.8338649     -35771036      -35771036       1580.1799     -35769456      -476.37484     -572.21066     -512.81735     -25.143215     -17.882399     -60.793065      15237.209    
      6000   523.23647      0.003          0.056323407    0.066227236    0.060109388   -600.90478      676.87252      676.87252      676.87252      3.1011348e+08  1.8311237     -35767931      -35767931       1558.1089     -35766373      -555.86881     -653.612       -593.23353     -25.677881     -18.458189     -59.295766      15229.878    
      7000   507.00559      0.0035         0.064501212    0.074537406    0.068411304   -682.45718      677.20994      677.20994      677.20994      3.1057749e+08  1.828388      -35764271      -35764271       1509.7761     -35762762      -636.57746     -735.627       -675.16708     -26.095126     -19.729551     -58.175976      15177.541    
      8000   488.58944      0.004          0.072637942    0.082455034    0.076617886   -762.26947      677.54737      677.54737      677.54737      3.1104196e+08  1.8256577     -35760043      -35760043       1454.9359     -35758588      -716.88075     -813.76791     -756.15975     -27.003822     -20.604412     -56.645967      15250.073    
      9000   470.98272      0.0045         0.080629546    0.089917973    0.084446261   -838.86431      677.88479      677.88479      677.88479      3.115069e+08   1.8229328     -35755253      -35755253       1402.5061     -35753850      -795.75175     -887.42139     -833.4198      -28.56244      -20.507804     -55.142226      14798.185    
     10000   455.01867      0.005          0.088280534    0.097027024    0.091858687   -911.80605      678.22222      678.22222      678.22222      3.119723e+08   1.8202134     -35749924      -35749924       1354.9679     -35748569      -871.26113     -957.58227     -906.57475     -28.975565     -20.070578     -54.095043      15110.899    
     11000   441.01554      0.0055         0.095418165    0.10405421     0.099017218   -981.95443      678.55964      678.55964      678.55964      3.1243816e+08  1.8174994     -35744073      -35744073       1313.269      -35742760      -941.70407     -1026.9352     -977.22397     -27.384141     -20.529073     -53.472911      15310.257    
     12000   429.07219      0.006          0.10228453     0.11112943     0.10594149    -1050.5978      678.89706      678.89706      678.89706      3.1290449e+08  1.8147907     -35737717      -35737717       1277.7037     -35736440      -1009.4699     -1096.7622     -1045.5613     -25.651557     -22.287779     -52.575356      15138.997    
     13000   419.00017      0.0065         0.10924881     0.11813854     0.11284405    -1119.2743      679.23449      679.23449      679.23449      3.1337128e+08  1.8120874     -35730864      -35730864       1247.711      -35729617      -1078.2019     -1165.9368     -1113.6842     -25.518501     -23.71034      -51.562426      14897.847    
     14000   410.61347      0.007          0.11621435     0.12500586     0.11992984    -1188.0913      679.57191      679.57191      679.57191      3.1383853e+08  1.8093896     -35723524      -35723524       1222.7368     -35722301      -1146.9465     -1233.7119     -1183.6155     -26.582781     -23.956665     -51.362821      15144.929    
     15000   403.95732      0.0075         0.1228977      0.13161467     0.12690943    -1254.7802      679.90934      679.90934      679.90934      3.1430625e+08  1.806697      -35715708      -35715708       1202.9159     -35714505      -1212.906      -1298.9358     -1252.4987     -27.177541     -23.306378     -50.523063      15127.708    
     16000   398.72663      0.008          0.12944184     0.13800367     0.13347028    -1318.9104      680.24676      680.24676      680.24676      3.1477443e+08  1.8040098     -35707424      -35707424       1187.3398     -35706237      -1277.4917     -1361.9904     -1317.2493     -26.680143     -22.281861     -48.408292      15172.978    
     17000   394.35597      0.0085         0.13604391     0.14424199     0.13958879    -1381.2803      680.58418      680.58418      680.58418      3.1524308e+08  1.8013279     -35698688      -35698688       1174.3248     -35697513      -1342.649      -1423.5577     -1377.6342     -25.407758     -22.688738     -46.209476      15314.666    
     18000   390.68198      0.009          0.1425158      0.1503965      0.14552109    -1442.3337      680.92161      680.92161      680.92161      3.1571219e+08  1.7986514     -35689514      -35689514       1163.3842     -35688351      -1406.5216     -1484.2981     -1436.1815     -25.120429     -24.44092      -44.551612      15201.98     
     19000   387.52475      0.0095         0.14867582     0.15635543     0.15151895    -1501.9334      681.25903      681.25903      681.25903      3.1618176e+08  1.7959801     -35679910      -35679910       1153.9825     -35678756      -1467.3163     -1543.1081     -1495.3757     -26.278261     -25.671298     -43.838042      15167.201    
     20000   385.08489      0.01           0.15458676     0.16207407     0.15766916    -1560.4244      681.59646      681.59646      681.59646      3.1665181e+08  1.7933141     -35669883      -35669883       1146.717      -35668736      -1525.6527     -1599.5467     -1556.0737     -27.164519     -25.921845     -43.095686      15195.603    
     21000   383.5502       0.0105         0.16045906     0.16776365     0.16383649    -1618.7489      681.93388      681.93388      681.93388      3.1712231e+08  1.7906534     -35659441      -35659441       1142.147      -35658299      -1583.6078     -1655.6984     -1616.9404     -26.870412     -25.070686     -41.72343       15115.507    
     22000   382.74028      0.011          0.16637837     0.17347207     0.16972308    -1676.3666      682.2713       682.2713       682.2713       3.1759329e+08  1.787998      -35648588      -35648588       1139.7352     -35647448      -1642.0269     -1712.0363     -1675.0366     -26.572597     -23.710027     -40.017213      15174.618    
     23000   382.6761       0.0115         0.17223603     0.17908307     0.17519085    -1732.0831      682.60873      682.60873      682.60873      3.1806473e+08  1.7853478     -35637340      -35637340       1139.5441     -35636201      -1699.8374     -1767.4125     -1728.9993     -26.007035     -23.417177     -38.31092       15319.628    
     24000   383.18429      0.012          0.177825       0.18458468     0.18057004    -1786.2644      682.94615      682.94615      682.94615      3.1853663e+08  1.7827028     -35625712      -35625712       1141.0574     -35624571      -1754.9963     -1821.7092     -1782.0878     -24.868082     -24.432165     -37.805939      15204.555    
     25000   384.0216       0.0125         0.18307148     0.18982202     0.18588167    -1838.2274      683.28358      683.28358      683.28358      3.1900901e+08  1.7800631     -35613713      -35613713       1143.5507     -35612569      -1806.775      -1873.3977     -1834.5095     -24.220083     -25.832848     -37.734312      15177.945    
     26000   385.03737      0.013          0.18813954     0.19477114     0.19098066    -1887.9557      683.621        683.621        683.621        3.1948185e+08  1.7774286     -35601350      -35601350       1146.5755     -35600204      -1856.7929     -1922.2417     -1884.8326     -25.019516     -27.078803     -36.980739      15241.118    
     27000   385.76738      0.0135         0.19301904     0.19959739     0.1958231     -1935.8155      683.95842      683.95842      683.95842      3.1995515e+08  1.7747992     -35588636      -35588636       1148.7494     -35587487      -1904.9498     -1969.8731     -1932.6237     -26.476146     -27.558921     -35.666543      15046.008    
     28000   386.32731      0.014          0.19770116     0.20426461     0.20058462    -1982.2366      684.29585      684.29585      684.29585      3.2042893e+08  1.7721751     -35575583      -35575583       1150.4167     -35574433      -1951.1587     -2015.9349     -1979.6163     -26.936687     -27.51327      -33.806         15115.67     
     29000   387.08432      0.0145         0.20233088     0.20874963     0.20533301    -2027.8428      684.63327      684.63327      684.63327      3.2090317e+08  1.7695561     -35562204      -35562204       1152.671      -35561052      -1996.8505     -2060.1987     -2026.4792     -26.736806     -27.79803      -32.429405      15324.592    
     30000   388.51923      0.015          0.20697337     0.21324727     0.20993868    -2073.063       684.97069      684.97069      684.97069      3.2137787e+08  1.7669423     -35548507      -35548507       1156.9439     -35547351      -2042.6683     -2104.5869     -2071.9337     -26.302713     -27.158937     -32.256407      15200.421    
     31000   390.58555      0.0155         0.21168026     0.21773009     0.2145246     -2118.3813      685.30812      685.30812      685.30812      3.2185305e+08  1.7643336     -35534497      -35534497       1163.0971     -35533334      -2089.1218     -2148.8289     -2117.1931     -25.670918     -25.34277      -32.07575       15171.831    
     32000   392.90626      0.016          0.21629436     0.22205234     0.21895674    -2162.3602      685.64554      685.64554      685.64554      3.223287e+08   1.7617301     -35520166      -35520166       1170.0078     -35518996      -2134.6594     -2191.4862     -2160.935      -25.246087     -25.130824     -31.079235      15237.028    
     33000   395.34006      0.0165         0.22069697     0.22636235     0.22318186    -2204.922       685.98297      685.98297      685.98297      3.2280481e+08  1.7591316     -35505527      -35505527       1177.2552     -35504349      -2178.1097     -2234.0227     -2202.6337     -25.369956     -26.817608     -29.355015      15017.839    
     34000   397.80801      0.017          0.22481665     0.23054685     0.2272948     -2245.7712      686.32039      686.32039      686.32039      3.2328139e+08  1.7565383     -35490590      -35490590       1184.6043     -35489406      -2218.7678     -2275.3205     -2243.2253     -25.293344     -27.995251     -27.568467      15135.565    
     35000   400.26922      0.0175         0.22874824     0.23437132     0.23139631    -2284.7796      686.65781      686.65781      686.65781      3.2375844e+08  1.7539501     -35475371      -35475371       1191.9334     -35474179      -2257.5696     -2313.0651     -2283.704      -24.273243     -28.768404     -26.968669      15283.873    
     36000   402.7675       0.018          0.23261533     0.23802135     0.23530919    -2322.3813      686.99524      686.99524      686.99524      3.2423596e+08  1.751367      -35459888      -35459888       1199.3728     -35458688      -2295.7348     -2349.0881     -2322.3211     -24.013971     -28.846141     -26.891262      15185.949    
     37000   405.08433      0.0185         0.23641269     0.24167775     0.23896803    -2358.9389      687.33266      687.33266      687.33266      3.2471395e+08  1.7487889     -35444140      -35444140       1206.272      -35442934      -2333.2118     -2385.1739     -2358.4311     -25.487988     -27.86598      -25.459751      15014.264    
     38000   407.04284      0.019          0.24008694     0.24529988     0.2425564     -2394.747       687.67009      687.67009      687.67009      3.2519241e+08  1.7462159     -35428126      -35428126       1212.1041     -35426914      -2369.4738     -2420.9216     -2393.8455     -26.353977     -27.503929     -23.113123      15176.97     
     39000   408.68141      0.0195         0.24371737     0.24880425     0.24610171    -2429.8818      688.00751      688.00751      688.00751      3.2567134e+08  1.7436479     -35411852      -35411852       1216.9834     -35410635      -2405.3034     -2455.5071     -2428.835      -25.844743     -27.816402     -21.135688      15143.972    
     40000   410.45739      0.02           0.2472899      0.25211105     0.24965841    -2464.2137      688.34493      688.34493      688.34493      3.2615074e+08  1.741085      -35395327      -35395327       1222.272      -35394105      -2440.5616     -2488.1426     -2463.937      -25.047374     -27.442678     -20.332197      15193.737    
     41000   412.46969      0.0205         0.2508119      0.25540037     0.25307434    -2497.8588      688.68236      688.68236      688.68236      3.266306e+08   1.7385271     -35378557      -35378557       1228.2643     -35377328      -2475.321      -2520.6057     -2497.6495     -24.55502      -25.830298     -20.99531       15325.451    
     42000   414.54647      0.021          0.25426742     0.25867823     0.25625154    -2530.462       689.01978      689.01978      689.01978      3.2711094e+08  1.7359742     -35361546      -35361546       1234.4486     -35360311      -2509.4243     -2552.9556     -2529.0061     -24.634656     -24.837682     -21.689662      15066.582    
     43000   416.7331       0.0215         0.25744644     0.26170345     0.25934672    -2561.0547      689.35721      689.35721      689.35721      3.2759175e+08  1.7334263     -35344311      -35344311       1240.96       -35343070      -2540.7988     -2582.8123     -2559.5531     -24.70911      -25.205688     -20.69329       15083.263    
     44000   418.99163      0.022          0.26030029     0.26457187     0.26231415    -2589.6416      689.69463      689.69463      689.69463      3.2807303e+08  1.7308834     -35326865      -35326865       1247.6855     -35325617      -2568.9642     -2611.1214     -2588.8393     -24.838737     -25.920137     -18.354504      15240.288    
     45000   421.06547      0.0225         0.26317609     0.26746002     0.26511902    -2617.8308      690.03205      690.03205      690.03205      3.2855479e+08  1.7283454     -35309206      -35309206       1253.8611     -35307952      -2597.346      -2639.6252     -2616.5213     -24.653159     -26.53015      -16.353907      15197.039    
     46000   422.93773      0.023          0.26599393     0.27035674     0.26789129    -2645.7503      690.36948      690.36948      690.36948      3.2903701e+08  1.7258124     -35291334      -35291334       1259.4364     -35290075      -2625.156      -2668.2136     -2643.8815     -24.460222     -26.124454     -15.407873      15204.139    
     47000   424.77891      0.0235         0.26869034     0.27299272     0.27065437    -2672.3824      690.7069       690.7069       690.7069       3.295197e+08   1.7232844     -35273259      -35273259       1264.9191     -35271994      -2651.7675     -2694.2286     -2671.151      -24.499603     -24.240041     -15.282196      15132.896    
     48000   426.62362      0.024          0.27152427     0.27534895     0.27337803    -2698.4168      691.04433      691.04433      691.04433      3.3000287e+08  1.7207613     -35254987      -35254987       1270.4123     -35253717      -2679.7362     -2717.4828     -2698.0313     -24.947681     -22.679116     -15.380207      15107.295    
     49000   428.41695      0.0245         0.27436401     0.27766131     0.27588937    -2723.6275      691.38175      691.38175      691.38175      3.3048651e+08  1.7182431     -35236527      -35236527       1275.7525     -35235251      -2707.7623     -2740.304      -2722.8163     -25.0603       -22.278832     -14.719052      15324.396    
     50000   430.14636      0.025          0.2770459      0.28003541     0.27807276    -2747.4433      691.71917      691.71917      691.71917      3.3097062e+08  1.7157298     -35217890      -35217890       1280.9024     -35216609      -2734.2305     -2763.7346     -2744.3648     -24.488441     -22.61193      -13.130683      10463.634    
     51000   431.7366       0.0255         0.27959294     0.2824572      0.28029946    -2771.1147      692.0566       692.0566       692.0566       3.314552e+08   1.7132214     -35199081      -35199081       1285.6379     -35197795      -2759.3677     -2787.6358     -2766.3406     -23.544592     -23.180355     -11.670566      13710.73     
     52000   433.12124      0.026          0.28187682     0.28482757     0.28259612    -2793.9815      692.39402      692.39402      692.39402      3.3194026e+08  1.7107179     -35180095      -35180095       1289.7611     -35178806      -2781.908      -2811.0296     -2789.0069     -21.948592     -23.110916     -10.352055      15099.789    
     53000   434.41702      0.0265         0.28383721     0.28692081     0.28468189    -2814.1785      692.73145      692.73145      692.73145      3.3242579e+08  1.7082193     -35160935      -35160935       1293.6197     -35159642      -2801.2555     -2831.6882     -2809.5918     -21.098228     -22.001115     -9.0282813      15307.166    
     54000   435.8651       0.027          0.28560907     0.28884988     0.28655137    -2832.5037      693.06887      693.06887      693.06887      3.3291179e+08  1.7057256     -35141617      -35141617       1297.9318     -35140319      -2818.7424     -2850.7267     -2828.0421     -21.824648     -20.290855     -8.3154193      14855.714    
     55000   437.45952      0.0275         0.28751938     0.29079419     0.28832513    -2851.0197      693.40629      693.40629      693.40629      3.3339827e+08  1.7032367     -35122158      -35122158       1302.6797     -35120855      -2837.5957     -2869.9156     -2845.5478     -22.816482     -19.2201       -8.2213083      15105.986    
     56000   439.02702      0.028          0.28970113     0.29254651     0.29016193    -2870.0044      693.74372      693.74372      693.74372      3.3388522e+08  1.7007526     -35102562      -35102562       1307.3475     -35101255      -2859.1279     -2887.2096     -2863.6756     -22.948336     -19.535964     -7.9460353      15180.852    
     57000   440.23836      0.0285         0.29191808     0.29418267     0.29212833    -2889.1491      694.08114      694.08114      694.08114      3.3437264e+08  1.6982734     -35082828      -35082828       1310.9547     -35081517      -2881.0075     -2903.3572     -2883.0825     -22.036884     -19.785128     -7.5206406      15027.564    
     58000   440.90734      0.029          0.29386869     0.2958459      0.29394158    -2907.0028      694.41857      694.41857      694.41857      3.3486054e+08  1.695799      -35062947      -35062947       1312.9468     -35061634      -2900.2585     -2919.772      -2900.9779     -20.127078     -18.631995     -6.6215957      15160.067    
     59000   441.53207      0.0295         0.29523711     0.29744011     0.29529931    -2921.2157      694.75599      694.75599      694.75599      3.3534891e+08  1.6933294     -35042931      -35042931       1314.8071     -35041616      -2913.7638     -2935.5057     -2914.3776     -18.200516     -17.355647     -5.2711974      15270.506    
     60000   442.53294      0.03           0.29637033     0.29889333     0.29651861    -2933.7356      695.09341      695.09341      695.09341      3.3583776e+08  1.6908645     -35022797      -35022797       1317.7875     -35021479      -2924.9477     -2949.8478     -2926.4112     -17.46551      -16.877117     -4.1496919      14953.755    
     61000   443.72997      0.0305         0.29768305     0.30011786     0.29782413    -2946.3773      695.43084      695.43084      695.43084      3.3632708e+08  1.6884045     -35002563      -35002563       1321.3521     -35001241      -2937.9033     -2961.933      -2939.2956     -17.882773     -16.525801     -3.0698162      15115.207    
     62000   444.78828      0.031          0.29919968     0.3013504      0.29909049    -2959.5874      695.76826      695.76826      695.76826      3.3681688e+08  1.6859492     -34982225      -34982225       1324.5036     -34980901      -2952.8713     -2974.0973     -2951.7936     -19.282546     -16.395296     -2.4857007      15341.679    
     63000   445.25127      0.0315         0.30078948     0.30277827     0.30038341    -2973.7681      696.10569      696.10569      696.10569      3.3730715e+08  1.6834987     -34961776      -34961776       1325.8823     -34960451      -2968.5614     -2988.1892     -2964.5537     -19.347333     -16.141698     -2.2370206      15143.981    
     64000   445.39632      0.032          0.30223541     0.3041769      0.30146696    -2986.6906      696.44311      696.44311      696.44311      3.377979e+08   1.681053      -34941211      -34941211       1326.3142     -34939885      -2982.8316     -3001.9926     -2975.2476     -17.141185     -15.402343     -1.7199818      14956.308    
     65000   445.94341      0.0325         0.30350064     0.30540222     0.30240402    -2997.9665      696.78053      696.78053      696.78053      3.3828912e+08  1.6786119     -34920538      -34920538       1327.9433     -34919210      -2995.3184     -3014.0855     -2984.4956     -14.755414     -14.049388     -0.63662497     15131.872    
     66000   446.76169      0.033          0.30458082     0.30632842     0.30351038    -3008.2067      697.11796      697.11796      697.11796      3.3878082e+08  1.6761756     -34899777      -34899777       1330.38       -34898446      -3005.979      -3023.2265     -2995.4146     -13.978158     -12.989336      0.85191147     15203.917    
     67000   447.54991      0.0335         0.30536724     0.30699552     0.3046192     -3016.6361      697.45538      697.45538      697.45538      3.3927299e+08  1.6737441     -34878937      -34878937       1332.7272     -34877604      -3013.7403     -3029.8102     -3006.3578     -13.847301     -13.185311      2.2896059      15190.592    
     68000   448.1221       0.034          0.30601968     0.30772041     0.30545878    -3023.9292      697.79281      697.79281      697.79281      3.3976565e+08  1.6713172     -34858025      -34858025       1334.4311     -34856690      -3020.1795     -3036.9643     -3014.6437     -13.211016     -13.415234      3.0902251      15266.978    
     69000   448.54103      0.0345         0.30673607     0.30855354     0.30602664    -3030.8948      698.13023      698.13023      698.13023      3.4025877e+08  1.668895      -34837041      -34837041       1335.6786     -34835706      -3027.2497     -3045.1866     -3020.2481     -11.53927      -11.360444      3.1984398      14765.606    
     70000   448.95864      0.035          0.30748936     0.30941506     0.30652745    -3037.8547      698.46765      698.46765      698.46765      3.4075238e+08  1.6664774     -34815990      -34815990       1336.9222     -34814653      -3034.6841     -3053.6892     -3025.1908     -10.4737       -8.260651       3.5594715      15058.915    
     71000   448.77637      0.0355         0.30822486     0.31006826     0.30709537    -3044.2914      698.80508      698.80508      698.80508      3.4124646e+08  1.6640646     -34794873      -34794873       1336.3794     -34793537      -3041.9428     -3060.1358     -3030.7957     -10.599769     -6.9965462      3.6814814      15316.201    
     72000   448.2057       0.036          0.30887329     0.31033778     0.30761165    -3049.0097      699.1425       699.1425       699.1425       3.4174102e+08  1.6616564     -34773694      -34773694       1334.6801     -34772359      -3048.3423     -3062.7958     -3035.891      -10.479005     -7.3672935      3.7758368      15194.584    
     73000   448.11397      0.0365         0.30957957     0.31058594     0.30799005    -3053.3944      699.47993      699.47993      699.47993      3.4223606e+08  1.6592528     -34752463      -34752463       1334.4069     -34751128      -3055.3128     -3065.2449     -3039.6255     -9.5464246     -8.4837214      4.8615729      14831.678    
     74000   448.36692      0.037          0.31020866     0.31105449     0.30835917    -3058.2197      699.81735      699.81735      699.81735      3.4273158e+08  1.6568539     -34731182      -34731182       1335.1601     -34729847      -3061.5214     -3069.8692     -3043.2684     -8.914917      -9.9360919      6.2337463      15044.715    
     75000   448.31268      0.0375         0.31049118     0.31149793     0.30890021    -3062.3878      700.15477      700.15477      700.15477      3.4322757e+08  1.6544596     -34709856      -34709856       1334.9986     -34708521      -3064.3097     -3074.2456     -3048.608      -8.7563952     -9.8430242      6.554201       15120.131    
     76000   448.155        0.038          0.31046597     0.31167381     0.30927653    -3064.1214      700.4922       700.4922       700.4922       3.4372404e+08  1.6520699     -34688487      -34688487       1334.5291     -34687152      -3064.0609     -3075.9813     -3052.322      -8.1250955     -7.4727649      6.6207791      15204.113    
     77000   448.16796      0.0385         0.31061537     0.31176602     0.30926754    -3064.8867      700.82962      700.82962      700.82962      3.4422099e+08  1.6496849     -34667075      -34667075       1334.5677     -34665740      -3065.5353     -3076.8914     -3052.2333     -6.3360577     -5.2963893      6.74584        15290.616    
     78000   448.12824      0.039          0.31078796     0.31189671     0.3090216     -3065.0753      701.16705      701.16705      701.16705      3.4471842e+08  1.6473044     -34645640      -34645640       1334.4494     -34644306      -3067.2386     -3078.1812     -3049.8061     -3.8457442     -4.4107876      5.7250183      14900.549    
     79000   448.08967      0.0395         0.31073195     0.31188044     0.3088424     -3064.248       701.50447      701.50447      701.50447      3.4521633e+08  1.6449284     -34624199      -34624199       1334.3345     -34622865      -3066.6859     -3078.0206     -3048.0376     -2.2520464     -3.7166052      4.6661914      14889.765    
     80000   447.74479      0.04           0.31059759     0.31162249     0.30883942    -3062.9476      701.84189      701.84189      701.84189      3.4571472e+08  1.6425571     -34602754      -34602754       1333.3075     -34601420      -3065.3599     -3075.4749     -3048.0081     -2.3989811     -3.4716817      5.5108759      15267.594    
     81000   446.69369      0.0405         0.31044313     0.31125268     0.30888257    -3061.3649      702.17932      702.17932      702.17932      3.4621358e+08  1.6401903     -34581296      -34581296       1330.1775     -34579966      -3063.8355     -3071.8252     -3048.434      -3.2536393     -4.4663529      6.5795116      15165.241    
     82000   445.34359      0.041          0.31016674     0.31086221     0.30860082    -3058.2441      702.51674      702.51674      702.51674      3.4671293e+08  1.637828      -34559823      -34559823       1326.1572     -34558497      -3061.1077     -3067.9715     -3045.6533     -3.2284803     -5.197135       6.567272       14959.647    
     83000   444.36502      0.0415         0.30982076     0.31042038     0.30792218    -3053.4199      702.85417      702.85417      702.85417      3.4721275e+08  1.6354703     -34538349      -34538349       1323.2432     -34537025      -3057.6932     -3063.611      -3038.9556     -2.6353615     -5.9481874      6.8991898      15068.026    
     84000   444.16866      0.042          0.30933543     0.30991318     0.30722886    -3047.8739      703.19159      703.19159      703.19159      3.4771306e+08  1.6331171     -34516890      -34516890       1322.6584     -34515567      -3052.9034     -3058.6053     -3032.1131     -1.4000841     -5.2997113      7.5710284      15040.298    
     85000   444.39993      0.0425         0.30873364     0.30947772     0.3068752     -3043.2982      703.52901      703.52901      703.52901      3.4821385e+08  1.6307684     -34495459      -34495459       1323.3471     -34494136      -3046.9642     -3054.3077     -3028.6227     -0.86496841    -2.3689455      7.6215389      15172.205    
     86000   444.51801      0.043          0.30826811     0.30920327     0.30663124    -3040.0612      703.86644      703.86644      703.86644      3.4871512e+08  1.6284243     -34474044      -34474044       1323.6987     -34472721      -3042.3697     -3051.5991     -3026.215      -0.97470128    -0.71364778     6.6321334      15262.613    
     87000   444.18605      0.0435         0.30797417     0.30887834     0.3062832     -3036.8804      704.20386      704.20386      704.20386      3.4921686e+08  1.6260846     -34452634      -34452634       1322.7102     -34451312      -3039.4688     -3048.3922     -3022.7802     -0.18667849    -2.1809699      5.1171783      14982.068    
     88000   443.28383      0.044          0.30752146     0.30822231     0.30575371    -3031.491       704.54129      704.54129      704.54129      3.4971909e+08  1.6237494     -34431227      -34431227       1320.0235     -34429907      -3035.0009     -3041.9177     -3017.5545      1.2390608     -3.6075768      4.3124971      15123.239    
     89000   441.93233      0.0445         0.30684528     0.30724786     0.30493787    -3023.3769      704.87871      704.87871      704.87871      3.502218e+08   1.6214186     -34409835      -34409835       1315.999      -34408519      -3028.3274     -3032.3006     -3009.5027      2.5162969     -3.0657184      4.92056        15269.868    
     90000   440.59291      0.045          0.30599048     0.30622478     0.30402583    -3014.1988      705.21613      705.21613      705.21613      3.50725e+08    1.6190923     -34388478      -34388478       1312.0104     -34387166      -3019.8912     -3022.2037     -3000.5016      3.0771788     -1.517702       6.745509       15157.211    
     91000   439.21543      0.0455         0.305144       0.30533642     0.30324466    -3005.9218      705.55356      705.55356      705.55356      3.5122867e+08  1.6167705     -34367161      -34367161       1307.9085     -34365853      -3011.5372     -3013.4362     -2992.7921      2.7371563     -0.39090291     8.7136036      15173.891    
     92000   438.04514      0.046          0.30423808     0.30450424     0.30249664    -2997.7431      705.89098      705.89098      705.89098      3.5173283e+08  1.6144531     -34345891      -34345891       1304.4236     -34344587      -3002.5964     -3005.2232     -2985.4097      2.5289328      0.32547613     9.2961994      15044.307    
     93000   437.51683      0.0465         0.30324491     0.30373123     0.30171635    -2989.3659      706.22841      706.22841      706.22841      3.5223746e+08  1.6121401     -34324669      -34324669       1302.8504     -34323366      -2992.7946     -2997.5942     -2977.7089      3.2432263      1.1868823      8.9063454      14968.219    
     94000   437.10395      0.047          0.30226724     0.30292594     0.30083719    -2980.6082      706.56583      706.56583      706.56583      3.5274258e+08  1.6098316     -34303485      -34303485       1301.6209     -34302184      -2983.1457     -2989.6466     -2969.0323      3.7658067      2.2474701      8.2348118      15110.553    
     95000   436.56674      0.0475         0.30128211     0.30187209     0.29978208    -2970.4294      706.90325      706.90325      706.90325      3.5324819e+08  1.6075274     -34282344      -34282344       1300.0212     -34281044      -2973.4233     -2979.2459     -2958.6191      3.0719046      2.5162139      6.9393696      15273.482    
     96000   436.07016      0.048          0.30023262     0.30046581     0.29867355    -2958.7038      707.24068      707.24068      707.24068      3.5375427e+08  1.6052277     -34261263      -34261263       1298.5425     -34259964      -2963.0656     -2965.367      -2947.6787      2.5115722      1.4552491      6.2442437      15176.665    
     97000   435.1759       0.0485         0.29924619     0.29904839     0.29761402    -2947.3101      707.5781       707.5781       707.5781       3.5426084e+08  1.6029323     -34240240      -34240240       1295.8795     -34238944      -2953.3302     -2951.3781     -2937.222       3.4923715      0.47621942     6.4334226      15022.891    
     98000   433.09129      0.049          0.29824032     0.29779472     0.29662486    -2936.6227      707.91553      707.91553      707.91553      3.547679e+08   1.6006413     -34219272      -34219272       1289.6719     -34217983      -2943.4031     -2939.0053     -2927.4597      4.9553065      0.89872912     6.4494442      14811.968    
     99000   430.61458      0.0495         0.29694768     0.29668821     0.2953073     -2924.3957      708.25295      708.25295      708.25295      3.5527543e+08  1.5983547     -34198358      -34198358       1282.2967     -34197076      -2930.6457     -2928.085      -2914.4564      5.1806198      2.2530975      6.7749897      15114.957    
    100000   429.15812      0.05           0.29545707     0.29555393     0.29361115    -2910.1806      708.59037      708.59037      708.59037      3.5578345e+08  1.5960724     -34177525      -34177525       1277.9596     -34176247      -2915.9346     -2916.8905     -2897.7167      4.4008775      3.7916181      7.543084       13943.432    
    101000   428.70206      0.0505         0.29392222     0.29418729     0.29201833    -2895.3955      708.9278       708.9278       708.9278       3.5629196e+08  1.5937945     -34156779      -34156779       1276.6015     -34155503      -2900.7868     -2903.4028     -2881.9969      4.2948779      4.5228228      7.8919292      14940.235    
    102000   428.06939      0.051          0.29248736     0.29263025     0.29075523    -2881.3976      709.26522      709.26522      709.26522      3.5680094e+08  1.5915209     -34136118      -34136118       1274.7175     -34134843      -2886.6258     -2888.036      -2869.531       5.5482522      4.2086129      7.7598492      15128.267    
    103000   426.96427      0.0515         0.29109475     0.29109349     0.28974864    -2868.4493      709.60265      709.60265      709.60265      3.5731042e+08  1.5892516     -34115528      -34115528       1271.4267     -34114256      -2872.8818     -2872.8694     -2859.5967      7.0846086      3.8475087      7.9407262      15146.388    
    104000   425.53273      0.052          0.28969584     0.28976235     0.28865839    -2855.8815      709.94007      709.94007      709.94007      3.5782038e+08  1.5869866     -34095007      -34095007       1267.1638     -34093739      -2859.0756     -2859.732      -2848.8368      8.3386758      4.2819092      7.8582269      15222.932    
    105000   424.09057      0.0525         0.28827634     0.28831946     0.28731713    -2842.0526      710.27749      710.27749      710.27749      3.5833082e+08  1.584726      -34074557      -34074557       1262.8693     -34073294      -2845.0663     -2845.4918     -2835.5996      8.7547847      5.0933867      7.15589        14912.055    
    106000   422.92597      0.053          0.28690222     0.28655334     0.28577257    -2826.6408      710.61492      710.61492      710.61492      3.5884175e+08  1.5824696     -34054194      -34054194       1259.4013     -34052935      -2831.5048     -2828.0616     -2820.356       7.8702342      5.3191111      7.014715       15137.776    
    107000   422.19774      0.0535         0.28548054     0.28480878     0.28401488    -2810.4423      710.95234      710.95234      710.95234      3.5935316e+08  1.5802175     -34033933      -34033933       1257.2328     -34032675      -2817.4738     -2810.8441     -2803.009       6.9169311      5.0775045      7.9020468      15227.951    
    108000   421.4679       0.054          0.28378114     0.28327058     0.28234       -2794.2815      711.28977      711.28977      711.28977      3.5986506e+08  1.5779697     -34013774      -34013774       1255.0594     -34012519      -2800.7021     -2795.6632     -2786.4792      7.2186684      4.8311279      8.9308026      15074.193    
    109000   419.96648      0.0545         0.28199626     0.28175376     0.28092017    -2778.7489      711.62719      711.62719      711.62719      3.6037744e+08  1.5757261     -33993703      -33993703       1250.5885     -33992452      -2783.0867     -2780.6934     -2772.4665      8.1915035      4.9154844      8.9432466      15015.378    
    110000   417.80956      0.055          0.28033963     0.27999294     0.27928181    -2762.1165      711.96461      711.96461      711.96461      3.6089031e+08  1.5734868     -33973718      -33973718       1244.1655     -33972474      -2766.737      -2763.3154     -2756.2971      8.448887       5.455582       7.7518164      15140.164    
    111000   416.09905      0.0555         0.27859244     0.27805845     0.27745983    -2744.0109      712.30204      712.30204      712.30204      3.6140367e+08  1.5712518     -33953838      -33953838       1239.0719     -33952599      -2749.4936     -2744.2236     -2738.3156      8.1992805      6.024029       7.0304158      15144.628    
    112000   414.79893      0.056          0.27660866     0.27633372     0.27579465    -2726.3329      712.63946      712.63946      712.63946      3.6191752e+08  1.5690209     -33934078      -33934078       1235.2004     -33932842      -2729.9152     -2727.2018     -2721.8816      7.7229388      7.2897414      7.2068742      15237.5      
    113000   413.14269      0.0565         0.27468484     0.27484225     0.27428499    -2710.1311      712.97689      712.97689      712.97689      3.6243185e+08  1.5667943     -33914421      -33914421       1230.2684     -33913191      -2710.9286     -2712.4821     -2706.9824      7.2385525      8.3775568      7.8535312      15081.771    
    114000   411.18332      0.057          0.27295504     0.27316237     0.27270181    -2693.7058      713.31431      713.31431      713.31431      3.6294666e+08  1.5645719     -33894851      -33894851       1224.4337     -33893627      -2693.8568     -2695.903      -2691.3576      7.6254677      7.9301682      9.6151744      14907.262    
    115000   409.50531      0.0575         0.27123446     0.27120227     0.27094494    -2675.8177      713.65173      713.65173      713.65173      3.6346197e+08  1.5623537     -33875387      -33875387       1219.4369     -33874167      -2676.876      -2676.5583     -2674.0187      9.0153539      7.059351       11.375783      15225.275    
    116000   408.3668       0.058          0.26945397     0.26920607     0.26906342    -2657.2036      713.98916      713.98916      713.98916      3.6397776e+08  1.5601397     -33856046      -33856046       1216.0466     -33854830      -2659.3039     -2656.8574     -2655.4495      9.6846533      6.2627705      12.19204       15095.224    
    117000   407.19779      0.0585         0.26777439     0.26736522     0.26716115    -2639.3643      714.32658      714.32658      714.32658      3.6449404e+08  1.5579299     -33836826      -33836826       1212.5655     -33835613      -2642.7277     -2638.6896     -2636.6756      8.9055579      5.2219392      11.554715      14985.08     
    118000   405.57695      0.059          0.26599047     0.26553464     0.26531713    -2621.4072      714.66401      714.66401      714.66401      3.6501081e+08  1.5557242     -33817707      -33817707       1207.7389     -33816499      -2625.1218     -2620.6231     -2618.4765      7.2674336      4.4497609      9.8678303      15016.58     
    119000   403.78026      0.0595         0.26386103     0.26360833     0.26361743    -2602.4732      715.00143      715.00143      715.00143      3.6552807e+08  1.5535227     -33798688      -33798688       1202.3887     -33797486      -2604.1059     -2601.6119     -2601.7017      6.7759478      3.7591851      9.1609479      15080.576    
    120000   402.33621      0.06           0.26164762     0.26169953     0.26195442    -2583.4413      715.33885      715.33885      715.33885      3.6604581e+08  1.5513254     -33779790      -33779790       1198.0885     -33778592      -2582.2612     -2582.7735     -2585.2891      7.6473755      2.693103       10.106271      15155.399    
    121000   400.88206      0.0605         0.25973671     0.25984779     0.26030886    -2565.6497      715.67628      715.67628      715.67628      3.6656405e+08  1.5491322     -33761015      -33761015       1193.7583     -33759821      -2563.402      -2564.4983     -2569.0487      8.3569993      3.0143454      12.100355      15200.639    
    122000   399.06241      0.061          0.25797498     0.25798991     0.258408      -2547.4887      716.0137       716.0137       716.0137       3.6708277e+08  1.5469431     -33742357      -33742357       1188.3397     -33741169      -2546.0151     -2546.1624     -2550.2886      8.0472333      4.6673305      13.056107      14979.534    
    123000   397.11791      0.0615         0.25613666     0.25601882     0.25632782    -2528.1135      716.35113      716.35113      716.35113      3.6760198e+08  1.5447581     -33723819      -33723819       1182.5493     -33722636      -2527.8723     -2526.7093     -2529.7589      6.5505428      6.2007948      11.995928      14950.95     
    124000   395.30358      0.062          0.25412973     0.25384077     0.25437419    -2507.919       716.68855      716.68855      716.68855      3.6812168e+08  1.5425773     -33705403      -33705403       1177.1466     -33704226      -2508.0654     -2505.2136     -2510.4781      5.0498344      6.6788782      11.209028      15183.605    
    125000   393.69878      0.0625         0.25214262     0.25168672     0.25255294    -2488.3042      717.02597      717.02597      717.02597      3.6864187e+08  1.5404006     -33687104      -33687104       1172.3678     -33685932      -2488.4541     -2483.9548     -2492.5038      4.7744201      5.7523407      11.773546      15122.662    
    126000   392.38324      0.063          0.250159       0.24986352     0.25078363    -2469.9602      717.3634       717.3634       717.3634       3.6916255e+08  1.5382279     -33668924      -33668924       1168.4503     -33667755      -2468.8774     -2465.9612     -2475.042       5.5304026      4.1965756      12.386706      15058.956    
    127000   391.19754      0.0635         0.24815723     0.24834603     0.2491458     -2452.9947      717.70082      717.70082      717.70082      3.6968372e+08  1.5360594     -33650858      -33650858       1164.9195     -33649693      -2449.1214     -2450.9847     -2458.8778      5.983561       2.3396925      11.978438      15217.359    
    128000   389.76604      0.064          0.24628819     0.24676579     0.24747527    -2436.1518      718.03825      718.03825      718.03825      3.7020538e+08  1.5338949     -33632905      -33632905       1160.6567     -33631745      -2430.6755     -2435.389      -2442.391       6.0805346      1.252512       12.213547      15035.496    
    129000   388.23299      0.0645         0.24450552     0.24463593     0.24541064    -2416.4885      718.37567      718.37567      718.37567      3.7072754e+08  1.5317345     -33615082      -33615082       1156.0915     -33613926      -2413.0818     -2414.3689     -2422.0147      6.5904788      0.8001888      13.862464      15003.697    
    130000   386.70247      0.065          0.24258532     0.2422691      0.24305966    -2394.6511      718.71309      718.71309      718.71309      3.7125018e+08  1.5295781     -33597389      -33597389       1151.5339     -33596237      -2394.1309     -2391.0102     -2398.8123      6.9896896      1.3457132      15.301833      15219.956    
    131000   384.70266      0.0655         0.24064446     0.24028931     0.24084825    -2374.4782      719.05052      719.05052      719.05052      3.7177331e+08  1.5274258     -33579816      -33579816       1145.5788     -33578671      -2374.9761     -2371.4711     -2376.9875      6.9183513      2.1754053      14.96139       15125.839    
    132000   382.56258      0.066          0.2388146      0.23866444     0.23910454    -2357.3767      719.38794      719.38794      719.38794      3.7229694e+08  1.5252775     -33562354      -33562354       1139.206      -33561215      -2356.9169     -2355.4349     -2359.7783      6.6390265      2.7758301      12.85164       15112.663    
    133000   381.13701      0.0665         0.23712217     0.23712815     0.23780648    -2342.4847      719.72537      719.72537      719.72537      3.7282105e+08  1.5231333     -33544997      -33544997       1134.9609     -33543862      -2340.2139     -2340.2729     -2346.9674      5.9410269      3.2867385      11.236169      15081.42     
    134000   380.36425      0.067          0.23547187     0.2356099      0.23650163    -2327.7684      720.06279      720.06279      720.06279      3.7334566e+08  1.5209931     -33527741      -33527741       1132.6598     -33526609      -2323.9267     -2325.2889     -2334.0897      4.8983135      3.0985044      11.035352      14961.271    
    135000   379.51464      0.0675         0.23382425     0.23387197     0.23482111    -2311.1023      720.40021      720.40021      720.40021      3.7387076e+08  1.5188568     -33510586      -33510586       1130.1298     -33509456      -2307.6659     -2308.1368     -2317.5042      4.4094567      2.7875184      12.133401      15051.065    
    136000   378.34947      0.068          0.23194666     0.23176486     0.2328572     -2291.5329      720.73764      720.73764      720.73764      3.7439635e+08  1.5167246     -33493550      -33493550       1126.6601     -33492424      -2289.1356     -2287.3413     -2298.1219      4.1208632      3.7408552      13.484422      15228.796    
    137000   376.67528      0.0685         0.22996221     0.22972482     0.23080095    -2271.5288      721.07506      721.07506      721.07506      3.7492243e+08  1.5145964     -33476638      -33476638       1121.6747     -33475516      -2269.5506     -2267.2077     -2277.8283      3.7395031      4.8594694      13.571758      15126.264    
    138000   374.43558      0.069          0.22810455     0.22818056     0.22869968    -2253.4247      721.41249      721.41249      721.41249      3.7544901e+08  1.5124721     -33459842      -33459842       1115.0052     -33458727      -2251.2169     -2251.967      -2257.0903      3.7692175      4.6359662      12.76399       15081.841    
    139000   372.47688      0.0695         0.22639697     0.22671259     0.22667748    -2236.3255      721.74991      721.74991      721.74991      3.7597608e+08  1.5103518     -33443160      -33443160       1109.1725     -33442051      -2234.3644     -2237.4793     -2237.1328      4.01821        4.0134044      12.576108      15130.47     
    140000   371.18766      0.07           0.22470688     0.22490809     0.22505072    -2219.4776      722.08733      722.08733      722.08733      3.7650364e+08  1.5082355     -33426591      -33426591       1105.3335     -33425486      -2217.6845     -2219.6703     -2221.0779      4.3427126      4.4040638      13.28352       15017.404    
    141000   370.23457      0.0705         0.22311897     0.22314253     0.22384559    -2204.4809      722.42476      722.42476      722.42476      3.770317e+08   1.5061231     -33410124      -33410124       1102.4953     -33409021      -2202.013      -2202.2456     -2209.1842      5.5393188      4.7132794      13.52915       15091.61     
    142000   369.11508      0.071          0.22165467     0.22162329     0.22272047    -2190.9645      722.76218      722.76218      722.76218      3.7756025e+08  1.5040147     -33393745      -33393745       1099.1617     -33392646      -2187.5615     -2187.2518     -2198.0801      6.2025103      4.3043082      12.676131      15243.426    
    143000   367.97102      0.0715         0.22018977     0.22024366     0.22127434    -2176.8493      723.09961      723.09961      723.09961      3.7808929e+08  1.5019102     -33377448      -33377448       1095.7549     -33376352      -2173.104      -2173.6359     -2183.8079      5.482933       3.6590092      12.110128      15110.56     
    144000   366.73251      0.072          0.21871172     0.21881347     0.21947356    -2161.3578      723.43703      723.43703      723.43703      3.7861883e+08  1.4998096     -33361243      -33361243       1092.0668     -33360151      -2158.5169     -2159.521      -2166.0356      4.6200541      3.5730777      12.445677      15104.986    
    145000   365.46223      0.0725         0.21709476     0.21724263     0.21754159    -2144.5151      723.77445      723.77445      723.77445      3.7914886e+08  1.497713      -33345149      -33345149       1088.2841     -33344061      -2142.5587     -2144.0181     -2146.9685      3.8731145      4.0965281      12.575749      15131.57     
    146000   363.95267      0.073          0.21550248     0.2157102      0.21579287    -2128.4828      724.11188      724.11188      724.11188      3.7967938e+08  1.4956202     -33329162      -33329162       1083.7889     -33328078      -2126.8441     -2128.8941     -2129.7101      3.102517       4.6358581      11.501501      14968.308    
    147000   362.00883      0.0735         0.21404904     0.21416366     0.21434979    -2113.8662      724.4493       724.4493       724.4493       3.802104e+08   1.4935314     -33313266      -33313266       1078.0005     -33312188      -2112.4997     -2113.631      -2115.468       2.7066865      4.6487875      10.330376      14729.854    
    148000   360.3397       0.074          0.21258766     0.21260145     0.2129568     -2099.3368      724.78673      724.78673      724.78673      3.8074192e+08  1.4914464     -33297462      -33297462       1073.0301     -33296389      -2098.0771     -2098.2132     -2101.7202      3.4214675      4.312784       10.567154      15211.222    
    149000   359.45171      0.0745         0.21109471     0.21113369     0.2115011     -2084.8079      725.12415      725.12415      725.12415      3.8127393e+08  1.4893653     -33281752      -33281752       1070.3858     -33280682      -2083.3428     -2083.7275     -2087.3535      4.361918       4.2757276      12.049401      15116.194    
    150000   358.87534      0.075          0.20986161     0.20992325     0.21024992    -2072.6533      725.46157      725.46157      725.46157      3.8180643e+08  1.4872881     -33266122      -33266122       1068.6695     -33265053      -2071.173      -2071.7814     -2075.0053      4.7905913      4.9593827      13.044985      14666.306    
    151000   357.99538      0.0755         0.20885275     0.2088531      0.20918663    -2062.3159      725.799        725.799        725.799        3.8233943e+08  1.4852147     -33250562      -33250562       1066.0491     -33249496      -2061.2164     -2061.2198     -2064.5115      4.6262043      5.3647908      12.571059      15050.445    
    152000   356.82347      0.076          0.20784275     0.20787796     0.2080631     -2052.0892      726.13642      726.13642      726.13642      3.8287293e+08  1.4831452     -33235063      -33235063       1062.5594     -33234000      -2051.2484     -2051.5959     -2053.4232      3.7457366      4.3690509      10.795032      14884.515    
    153000   355.35538      0.0765         0.20666258     0.20678805     0.20673258    -2040.2441      726.47385      726.47385      726.47385      3.8340692e+08  1.4810796     -33219634      -33219634       1058.1876     -33218576      -2039.6011     -2040.8394     -2040.2919      2.3705657      3.2114537      8.9806937      15086.007    
    154000   353.98392      0.077          0.20527416     0.20530699     0.20523313    -2025.8715      726.81127      726.81127      726.81127      3.8394141e+08  1.4790177     -33204289      -33204289       1054.1037     -33203235      -2025.8985     -2026.2224     -2025.4935      1.9647786      4.4308642      8.7804316      15195.015    
    155000   352.73889      0.0775         0.20379272     0.20369827     0.20374746    -2010.8182      727.14869      727.14869      727.14869      3.844764e+08   1.4769597     -33189035      -33189035       1050.3962     -33187985      -2011.2778     -2010.3456     -2010.8311      3.3586816      6.8160021      9.610479       15029.44     
    156000   351.544        0.078          0.20237069     0.20238923     0.20239886    -1997.3971      727.48612      727.48612      727.48612      3.8501188e+08  1.4749055     -33173864      -33173864       1046.838      -33172817      -1997.2435     -1997.4264     -1997.5215      4.8330726      8.0097366      10.148645      14903.903    
    157000   350.51034      0.0785         0.2011757      0.20137272     0.20130593    -1986.5264      727.82354      727.82354      727.82354      3.8554786e+08  1.4728552     -33158765      -33158765       1043.7599     -33157721      -1985.4498     -1987.3943     -1986.7351      5.3614788      7.6759016      10.025874      15198.956    
    158000   349.70499      0.079          0.20022755     0.20053711     0.20047426    -1977.9223      728.16097      728.16097      728.16097      3.8608434e+08  1.4708086     -33143729      -33143729       1041.3618     -33142687      -1976.0923     -1979.1474     -1978.5271      4.6318934      6.2657114      9.2436861      15131.687    
    159000   348.86277      0.0795         0.19923571     0.19966286     0.19972826    -1969.3292      728.49839      728.49839      728.49839      3.8662131e+08  1.4687658     -33128746      -33128746       1038.8538     -33127707      -1966.3036     -1970.5193     -1971.1647      3.1221096      4.2689295      8.590675       15051.512    
    160000   348.2753       0.08           0.19810212     0.19862336     0.19872122    -1958.8673      728.83581      728.83581      728.83581      3.8715878e+08  1.4667268     -33113825      -33113825       1037.1044     -33112788      -1955.1159     -1960.2601     -1961.226       1.5974635      3.4347363      8.7956765      15118.7      
    161000   347.88763      0.0805         0.19707388     0.19755603     0.19761339    -1948.329       729.17324      729.17324      729.17324      3.8769675e+08  1.4646916     -33098967      -33098967       1035.95       -33097931      -1944.968      -1949.7264     -1950.2925      1.2998508      4.9996786      8.9096388      14994.736    
    162000   347.27953      0.081          0.19629304     0.1966035      0.19662143    -1939.3633      729.51066      729.51066      729.51066      3.8823522e+08  1.4626601     -33084165      -33084165       1034.1391     -33083131      -1937.2616     -1940.3257     -1940.5026      2.2208642      6.8986451      8.3945858      15123.781    
    163000   346.39905      0.0815         0.19551699     0.19566856     0.19567123    -1930.6087      729.84809      729.84809      729.84809      3.8877418e+08  1.4606324     -33069414      -33069414       1031.5172     -33068382      -1929.6027     -1931.0985     -1931.1249      3.5348907      7.0141555      7.071411       15211.55     
    164000   345.22023      0.082          0.19465502     0.19471869     0.19469427    -1921.4343      730.18551      730.18551      730.18551      3.8931365e+08  1.4586084     -33054711      -33054711       1028.0069     -33053683      -1921.0957     -1921.7241     -1921.4831      4.2062521      6.1148006      6.3110839      15012.453    
    165000   343.89411      0.0825         0.19364724     0.19377656     0.19360829    -1911.4469      730.52293      730.52293      730.52293      3.8985361e+08  1.4565882     -33040062      -33040062       1024.0579     -33039038      -1911.1497     -1912.4259     -1910.7652      3.5993883      5.2184067      6.9168305      15008.057    
    166000   343.02236      0.083          0.19252435     0.19284087     0.19250382    -1901.0413      730.86036      730.86036      730.86036      3.9039407e+08  1.4545717     -33025473      -33025473       1021.462      -33024452      -1900.0676     -1903.1914     -1899.865       1.9935179      4.9383485      8.2141896      15164.72     
    167000   342.53595      0.0835         0.19147868     0.19200667     0.1916575     -1892.0729      731.19778      731.19778      731.19778      3.9093504e+08  1.4525589     -33010954      -33010954       1020.0136     -33009934      -1889.7477     -1894.9585     -1891.5125      1.2345007      4.8030421      8.7638509      15128.296    
    168000   342.01375      0.084          0.19058901     0.19128195     0.19106702    -1884.8194      731.53521      731.53521      731.53521      3.914765e+08   1.4505498     -32996488      -32996488       1018.4586     -32995469      -1880.9673     -1887.8061     -1885.6848      1.8624745      4.4518534      8.0876596      15043.667    
    169000   341.05157      0.0845         0.18995134     0.19055509     0.19053157    -1878.569       731.87263      731.87263      731.87263      3.9201846e+08  1.4485444     -32982051      -32982051       1015.5933     -32981036      -1874.6739     -1880.6325     -1880.4004      2.6121283      4.6430886      7.0496475      15017.244    
    170000   340.17121      0.085          0.18928118     0.1896837      0.18980449    -1871.1058      732.21005      732.21005      732.21005      3.9256092e+08  1.4465428     -32967646      -32967646       1012.9718     -32966633      -1868.06       -1872.0326     -1873.2246      2.4480317      5.4879055      6.7838399      15007.557    
    171000   339.94103      0.0855         0.18846721     0.18888575     0.1889182     -1862.8873      732.54748      732.54748      732.54748      3.9310388e+08  1.4445448     -32953286      -32953286       1012.2863     -32952274      -1860.0268     -1864.1575     -1864.4777      2.2653254      6.2356179      6.3498012      15142.774    
    172000   339.81869      0.086          0.1876588      0.188149       0.18819201    -1855.4151      732.8849       732.8849       732.8849       3.9364734e+08  1.4425505     -32938973      -32938973       1011.922      -32937961      -1852.0483     -1856.8862     -1857.3108      2.8817007      6.5622631      6.1105388      15204.253    
    173000   339.17882      0.0865         0.18695939     0.18743079     0.18752356    -1848.5525      733.22233      733.22233      733.22233      3.941913e+08   1.4405598     -32924697      -32924697       1010.0166     -32923687      -1845.1458     -1849.7981     -1850.7137      3.8021184      6.496945       6.677409       15107.641    
    174000   338.1096       0.087          0.18627338     0.18675248     0.18671286    -1841.3972      733.55975      733.55975      733.55975      3.9473577e+08  1.4385728     -32910462      -32910462       1006.8327     -32909455      -1838.3753     -1843.1037     -1842.7126      3.9403524      5.9935751      7.5223977      15006.17     
    175000   337.1147       0.0875         0.18542095     0.18594875     0.18571563    -1832.6683      733.89717      733.89717      733.89717      3.9528073e+08  1.4365895     -32896279      -32896279       1003.87       -32895275      -1829.9625     -1835.1715     -1832.8707      3.0831911      5.0971853      7.4447114      14923.994    
    176000   336.73157      0.088          0.1845142      0.18498235     0.18463439    -1822.9491      734.2346       734.2346       734.2346       3.958262e+08   1.4346098     -32882154      -32882154       1002.7291     -32881152      -1821.0136     -1825.6339     -1822.1998      2.6119855      4.9680706      6.4133054      15103.973    
    177000   336.72283      0.0885         0.18376041     0.18417761     0.18380539    -1815.0947      734.57202      734.57202      734.57202      3.9637216e+08  1.4326338     -32868083      -32868083       1002.7031     -32867081      -1813.5742     -1817.6917     -1814.0182      2.7713411      5.3143318      5.4198338      15118.91     
    178000   336.53978      0.089          0.1832608      0.18370344     0.18344601    -1810.7089      734.90945      734.90945      734.90945      3.9691863e+08  1.4306614     -32854044      -32854044       1002.158      -32853042      -1808.6435     -1813.012      -1810.4713      2.8060104      4.8624749      5.5264307      14967.34     
    179000   336.20607      0.0895         0.18284091     0.18337769     0.18316779    -1807.3407      735.24687      735.24687      735.24687      3.974656e+08   1.4286926     -32840017      -32840017       1001.1643     -32839016      -1804.4995     -1809.7971     -1807.7256      2.1188798      4.1589337      7.054383       14867.381    
    180000   336.04329      0.09           0.18221042     0.18290171     0.18264244    -1801.9724      735.58429      735.58429      735.58429      3.9801308e+08  1.4267274     -32826010      -32826010       1000.6795     -32825009      -1798.2771     -1805.0995     -1802.5408      2.0203748      4.4926279      7.8230994      15208.248    
    181000   335.88167      0.0905         0.18142791     0.18222286     0.18190602    -1794.7423      735.92172      735.92172      735.92172      3.9856105e+08  1.4247658     -32812038      -32812038       1000.1983     -32811037      -1790.5543     -1798.3998     -1795.2729      2.8456383      5.0410644      6.7804968      15166.511    
    182000   335.19214      0.091          0.18081687     0.18154385     0.1811998     -1788.1751      736.25914      736.25914      736.25914      3.9910953e+08  1.4228078     -32798108      -32798108       998.14497     -32797110      -1784.5237     -1791.6985     -1788.3029      3.4678519      5.5070869      5.6541708      15106.547    
    183000   334.08408      0.0915         0.18019138     0.18075627     0.18047119    -1781.1295      736.59657      736.59657      736.59657      3.9965851e+08  1.4208534     -32784216      -32784216       994.84535     -32783221      -1778.3506     -1783.9256     -1781.1122      3.6117958      6.3870863      5.7714883      15125.137    
    184000   333.27431      0.092          0.1793924      0.17987556     0.17964901    -1772.899       736.93399      736.93399      736.93399      4.00208e+08    1.4189026     -32770363      -32770363       992.434       -32769370      -1770.4653     -1775.2337     -1772.9978      3.7958776      6.8461687      6.5570993      15079.83     
    185000   332.67213      0.0925         0.1785383      0.17909103     0.17886368    -1764.9248      737.27141      737.27141      737.27141      4.0075799e+08  1.4169553     -32756559      -32756559       990.64079     -32755569      -1762.036      -1767.491      -1765.2473      3.6957229      5.6846835      6.5711676      15075.84     
    186000   332.19745      0.093          0.17783632     0.17849923     0.17824743    -1758.6413      737.60884      737.60884      737.60884      4.0130848e+08  1.4150116     -32742799      -32742799       989.22728     -32741810      -1755.108      -1761.6504     -1759.1653      2.5975273      3.8902283      5.7483599      15235.169    
    187000   332.02057      0.0935         0.17739058     0.17812976     0.17772481    -1754.2402      737.94626      737.94626      737.94626      4.0185947e+08  1.4130715     -32729071      -32729071       988.70057     -32728082      -1750.7089     -1758.0041     -1754.0075      1.3054634      3.1025898      5.2908735      15089.71     
    188000   332.16049      0.094          0.17709781     0.177818       0.17725187    -1750.6956      738.28369      738.28369      738.28369      4.0241097e+08  1.4111349     -32715362      -32715362       989.11721     -32714373      -1747.8195     -1754.9272     -1749.3399      1.289406       4.1312491      5.7295307      15085.982    
    189000   332.23963      0.0945         0.17675251     0.17740871     0.1768345     -1746.8401      738.62111      738.62111      738.62111      4.0296298e+08  1.4092018     -32701662      -32701662       989.35289     -32700673      -1744.4116     -1750.8878     -1745.2208      2.8748187      5.7226617      6.5504236      15105.388    
    190000   332.2667       0.095          0.1761708      0.17687841     0.1762912     -1741.3946      738.95853      738.95853      738.95853      4.0351548e+08  1.4072723     -32687982      -32687982       989.4335      -32686993      -1738.6707     -1745.6542     -1739.8589      4.0214676      6.4325704      6.2908115      14982.957    
    191000   332.41339      0.0955         0.17542201     0.17624587     0.17567613    -1734.8269      739.29596      739.29596      739.29596      4.040685e+08   1.4053463     -32674342      -32674342       989.87031     -32673352      -1731.2807     -1739.4115     -1733.7886      3.7291411      5.9836354      4.8701995      14995.827    
    192000   332.26018      0.096          0.17472739     0.1756482      0.17510592    -1728.6997      739.63338      739.63338      739.63338      4.0462202e+08  1.4034238     -32660748      -32660748       989.41407     -32659759      -1724.4252     -1733.5129     -1728.161       2.4648864      4.8646439      3.9355561      15237.606    
    193000   331.40584      0.0965         0.17419829     0.17508044     0.17455084    -1723.2653      739.9708       739.9708       739.9708       4.0517604e+08  1.4015048     -32647184      -32647184       986.87        -32646198      -1719.2034     -1727.9096     -1722.6828      1.4049852      4.2417589      4.3414784      15127.182    
    194000   330.34007      0.097          0.17369815     0.17446436     0.17402027    -1717.8478      740.30823      740.30823      740.30823      4.0573057e+08  1.3995893     -32633641      -32633641       983.69633     -32632657      -1714.2674     -1721.8294     -1717.4465      1.1377723      4.6783271      5.5265709      15129.162    
    195000   329.90116      0.0975         0.17311052     0.173843       0.17346384    -1712.04        740.64565      740.64565      740.64565      4.062856e+08   1.3976773     -32620125      -32620125       982.38931     -32619143      -1708.468      -1715.697      -1711.955       1.5516471      4.663089       6.2956459      15121.516    
    196000   330.27798      0.098          0.17249701     0.17333329     0.17285645    -1706.3468      740.98308      740.98308      740.98308      4.0684115e+08  1.3957687     -32606646      -32606646       983.51143     -32605662      -1702.4132     -1710.6666     -1705.9606      2.1074397      4.3850911      5.8699328      14900.162    
    197000   330.63355      0.0985         0.17205119     0.17293227     0.17230249    -1701.7385      741.3205       741.3205       741.3205       4.0739719e+08  1.3938637     -32593197      -32593197       984.57025     -32592212      -1698.0133     -1706.7088     -1700.4934      3.2446017      5.0920472      5.1524285      15089.401    
    198000   330.61681      0.099          0.171687       0.17247517     0.17182406    -1697.4627      741.65792      741.65792      741.65792      4.0795375e+08  1.3919621     -32579769      -32579769       984.52041     -32578785      -1694.419      -1702.1975     -1695.7716      4.1139572      6.127282       5.4854942      15217.647    
    199000   330.34525      0.0995         0.17127515     0.17196299     0.1713723     -1692.9367      741.99535      741.99535      741.99535      4.0851081e+08  1.390064      -32566365      -32566365       983.71175     -32565381      -1690.3543     -1697.1427     -1691.3131      4.0892037      6.8005951      6.323254       14990.721    
    200000   329.88629      0.1            0.17076461     0.17145793     0.17083942    -1687.8426      742.33277      742.33277      742.33277      4.0906837e+08  1.3881693     -32552987      -32552987       982.34504     -32552004      -1685.3156     -1692.1582     -1686.054       3.3224869      6.7392223      6.5158771      14111.425    
    201000   329.33221      0.1005         0.17028263     0.1709605      0.17032712    -1682.9353      742.6702       742.6702       742.6702       4.0962645e+08  1.3862781     -32539632      -32539632       980.69509     -32538651      -1680.5589     -1687.249      -1680.998       2.9858731      5.7192559      6.2835809      15031.836    
    202000   328.98828      0.101          0.16971932     0.17046849     0.16978584    -1677.6829      743.00762      743.00762      743.00762      4.1018503e+08  1.3843903     -32526304      -32526304       979.67091     -32525324      -1674.9995     -1682.3932     -1675.656       3.4094059      5.0373702      5.3814024      14801.36     
    203000   328.76351      0.1015         0.16902826     0.17002164     0.16924726    -1672.1677      743.34504      743.34504      743.34504      4.1074412e+08  1.3825059     -32513004      -32513004       979.0016      -32512025      -1668.1793     -1677.9831     -1670.3406      3.2913754      5.1060526      3.936894       15106.714    
    204000   328.51011      0.102          0.16834527     0.16949207     0.16870484    -1666.3942      743.68247      743.68247      743.68247      4.1130371e+08  1.3806249     -32499735      -32499735       978.247       -32498756      -1661.4387     -1672.7567     -1664.9874      2.5153614      4.758732       3.5528469      15250.644    
    205000   328.53695      0.1025         0.16787664     0.16888158     0.16829816    -1661.5063      744.01989      744.01989      744.01989      4.1186382e+08  1.3787474     -32486501      -32486501       978.32693     -32485523      -1656.8136     -1666.7317     -1660.9737      1.606851       4.4806146      4.8091324      15102.726    
    206000   328.78594      0.103          0.16765942     0.16830182     0.16801411    -1657.95        744.35732      744.35732      744.35732      4.1242443e+08  1.3768732     -32473292      -32473292       979.06837     -32472313      -1654.6698     -1661.0098     -1658.1704      1.5794546      5.0195741      6.1627331      15096.625    
    207000   328.71097      0.1035         0.16752472     0.16793504     0.16763127    -1655.0408      744.69474      744.69474      744.69474      4.1298555e+08  1.3750025     -32460090      -32460090       978.84513     -32459111      -1653.3404     -1657.39       -1654.392       2.5988822      5.6751205      6.4084891      15157.376    
    208000   328.73338      0.104          0.16709052     0.16766017     0.16693873    -1650.4299      745.03216      745.03216      745.03216      4.1354718e+08  1.3731351     -32446902      -32446902       978.91187     -32445923      -1649.0552     -1654.6772     -1647.5571      4.0027519      5.989568       6.1905769      15045.203    
    209000   328.95474      0.1045         0.16636488     0.16727533     0.16620362    -1644.3583      745.36959      745.36959      745.36959      4.1410932e+08  1.3712711     -32433750      -32433750       979.57105     -32432770      -1641.8937     -1650.8791     -1640.3022      3.9608447      5.8011901      6.3336735      15070.206    
    210000   328.58612      0.105          0.1657366      0.16682055     0.165747      -1639.2932      745.70701      745.70701      745.70701      4.1467197e+08  1.3694105     -32420634      -32420634       978.47336     -32419656      -1635.6931     -1646.3908     -1635.7957      3.0231049      5.7618651      6.3083881      15243.437    
    211000   327.62218      0.1055         0.16537428     0.16626035     0.1655239     -1635.5244      746.04444      746.04444      746.04444      4.1523513e+08  1.3675533     -32407542      -32407542       975.60292     -32406566      -1632.1172     -1640.8621     -1633.5938      2.9037106      6.0843477      6.1329157      15063.012    
    212000   327.08221      0.106          0.16498709     0.16568634     0.16521583    -1631.3488      746.38186      746.38186      746.38186      4.157988e+08   1.3656994     -32394462      -32394462       973.99498     -32393488      -1628.296      -1635.197      -1630.5535      3.8400121      6.1602482      5.870346       15066.19     
    213000   327.48923      0.1065         0.16449998     0.16518428     0.1647174     -1626.455       746.71928      746.71928      746.71928      4.1636297e+08  1.3638488     -32381399      -32381399       975.20699     -32380424      -1623.4886     -1630.2421     -1625.6343      3.9783957      5.6766201      5.4347096      15113.11     
    214000   327.96533      0.107          0.16413975     0.16486763     0.16421123    -1622.5631      747.05671      747.05671      747.05671      4.1692766e+08  1.3620016     -32368360      -32368360       976.62474     -32367384      -1619.9334     -1627.117      -1620.6389      2.7408089      5.0133344      4.2994484      14868.905    
    215000   327.67364      0.1075         0.16379211     0.1645789      0.16377662    -1619.0398      747.39413      747.39413      747.39413      4.1749286e+08  1.3601578     -32355345      -32355345       975.75613     -32354369      -1616.5025     -1624.2675     -1616.3496      1.8266776      4.8082036      3.5030243      15082.097    
    216000   327.30188      0.108          0.16328301     0.16406895     0.163333      -1614.228       747.73156      747.73156      747.73156      4.1805857e+08  1.3583172     -32342355      -32342355       974.6491      -32341381      -1611.478      -1619.2346     -1611.9714      2.1717813      5.1004757      4.0344335      15237.706    
    217000   327.60606      0.1085         0.16273249     0.16356113     0.16287039    -1609.2245      748.06898      748.06898      748.06898      4.1862479e+08  1.35648       -32329396      -32329396       975.5549      -32328421      -1606.0448     -1614.2229     -1607.4058      2.8156415      5.5566465      5.5749745      15037.655    
[...]
   3017000   323.12521      1.5085         0.013499341    0.013388314    0.013337862   -132.33166      1692.8561      1692.8561      1692.8561      4.8513227e+09  0.11705182    -10676417      -10676417       962.2117      -10675455      -133.22814     -132.13238     -131.63447      0.20994376     1.5959981      1.8040135      14637.752    
   3018000   323.18419      1.509          0.013490393    0.013381168    0.013327519   -132.24469      1693.1936      1693.1936      1693.1936      4.8542242e+09  0.11698186    -10670967      -10670967       962.38734     -10670005      -133.13982     -132.06186     -131.53238      0.22285944     1.5813833      1.8072296      14745.613    
   3019000   323.21296      1.5095         0.013479562    0.013370547    0.013314344   -132.13078      1693.531       1693.531       1693.531       4.8571269e+09  0.11691195    -10665520      -10665520       962.473       -10664557      -133.03294     -131.95704     -131.40236      0.22527778     1.5486735      1.8010262      14724.943    
   3020000   323.19485      1.51           0.013466633    0.013357779    0.013299878   -131.99865      1693.8684      1693.8684      1693.8684      4.8600307e+09  0.11684209    -10660075      -10660075       962.41909     -10659112      -132.90533     -131.83102     -131.25959      0.22167432     1.5067448      1.7894253      14591.363    
   3021000   323.14954      1.5105         0.01345114     0.013346037    0.013288047   -131.87013      1694.2058      1694.2058      1694.2058      4.8629357e+09  0.11677229    -10654633      -10654633       962.28416     -10653671      -132.75243     -131.71515     -131.14283      0.2160408      1.469121       1.782558       14646.38     
   3022000   323.10669      1.511          0.013436388    0.013335921    0.013279775   -131.76111      1694.5433      1694.5433      1694.5433      4.8658418e+09  0.11670255    -10649195      -10649195       962.15655     -10648232      -132.60684     -131.61531     -131.06119      0.20731992     1.4482238      1.7657515      14780.16     
   3023000   323.08785      1.5115         0.013424949    0.013325604    0.013272133   -131.6644       1694.8807      1694.8807      1694.8807      4.8687491e+09  0.11663286    -10643758      -10643758       962.10045     -10642796      -132.49394     -131.51348     -130.98576      0.19574412     1.4562742      1.7393236      14609.961    
   3024000   323.09998      1.512          0.013416291    0.01331496     0.013263289   -131.5718       1695.2181      1695.2181      1695.2181      4.8716576e+09  0.11656323    -10638323      -10638323       962.13658     -10637361      -132.40849     -131.40843     -130.89848      0.19356446     1.4844813      1.7202498      14705.601    
   3025000   323.13213      1.5125         0.013409506    0.013304163    0.013254305   -131.48441      1695.5555      1695.5555      1695.5555      4.8745672e+09  0.11649366    -10632890      -10632890       962.23231     -10631928      -132.34153     -131.30188     -130.80982      0.19997672     1.5108664      1.7115968      14764.07     
   3026000   323.14908      1.513          0.013404449    0.013296178    0.013246977   -131.4174       1695.893       1695.893       1695.893       4.8774779e+09  0.11642414    -10627458      -10627458       962.28278     -10626496      -132.29163     -131.22307     -130.7375       0.20756175     1.5306024      1.710658       14609.78     
   3027000   323.13588      1.5135         0.013400544    0.013292372    0.013241673   -131.37459      1696.2304      1696.2304      1696.2304      4.8803899e+09  0.11635467    -10622026      -10622026       962.24349     -10621064      -132.25309     -131.18551     -130.68515      0.2215123      1.5395949      1.7180268      14591.781    
   3028000   323.11966      1.514          0.013394513    0.01329014     0.013235343   -131.32658      1696.5678      1696.5678      1696.5678      4.8833029e+09  0.11628526    -10616593      -10616593       962.19518     -10615631      -132.19357     -131.16348     -130.62268      0.23680751     1.527969       1.7290354      14677.285    
   3029000   323.12951      1.5145         0.013383175    0.013286125    0.013225134   -131.24248      1696.9052      1696.9052      1696.9052      4.8862172e+09  0.11621591    -10611161      -10611161       962.22451     -10610199      -132.08167     -131.12386     -130.52192      0.24671912     1.4923536      1.7376123      14589.865    
   3030000   323.15969      1.515          0.013369527    0.013277882    0.013213392   -131.13184      1697.2427      1697.2427      1697.2427      4.8891326e+09  0.11614661    -10605732      -10605732       962.31437     -10604769      -131.94698     -131.04251     -130.40604      0.24043314     1.4519379      1.7524351      14362.202    
   3031000   323.18075      1.5155         0.013357317    0.013266199    0.013204004   -131.02235      1697.5801      1697.5801      1697.5801      4.8920492e+09  0.11607736    -10600304      -10600304       962.37708     -10599342      -131.82647     -130.9272      -130.31339      0.21433354     1.4366571      1.7742185      14698.023    
   3032000   323.16977      1.516          0.013346229    0.013254209    0.013196858   -130.92292      1697.9175      1697.9175      1697.9175      4.8949669e+09  0.11600817    -10594879      -10594879       962.34438     -10593917      -131.71704     -130.80887     -130.24286      0.19037401     1.4511963      1.7935047      14620.053    
   3033000   323.12726      1.5165         0.013335139    0.013242139    0.013189236   -130.82166      1698.2549      1698.2549      1698.2549      4.8978858e+09  0.11593904    -10589456      -10589456       962.21781     -10588494      -131.60759     -130.68975     -130.16764      0.18491276     1.4721019      1.7989096      14540.073    
   3034000   323.07709      1.517          0.01332523     0.013229715    0.01318089    -130.72073      1698.5924      1698.5924      1698.5924      4.9008058e+09  0.11586996    -10584035      -10584035       962.0684      -10583073      -131.50979     -130.56713     -130.08527      0.19386306     1.474405       1.7799335      14701.933    
   3035000   323.03916      1.5175         0.013318152    0.013219729    0.013172563   -130.6372       1698.9298      1698.9298      1698.9298      4.903727e+09   0.11580093    -10578616      -10578616       961.95547     -10577654      -131.43994     -130.46858     -130.00309      0.20029782     1.4611537      1.7460716      14499.06     
   3036000   323.01051      1.518          0.013313484    0.013212149    0.013163589   -130.56739      1699.2672      1699.2672      1699.2672      4.9066494e+09  0.11573196    -10573197      -10573197       961.87014     -10572235      -131.39387     -130.39377     -129.91452      0.1948351      1.4588864      1.7226138      14501.069    
   3037000   322.98363      1.5185         0.013308335    0.013205709    0.013153392   -130.49572      1699.6046      1699.6046      1699.6046      4.9095729e+09  0.11566305    -10567779      -10567779       961.7901      -10566817      -131.34306     -130.33021     -129.81388      0.18060307     1.4870941      1.7151384      14558.733    
   3038000   322.95999      1.519          0.013301049    0.013197868    0.013142693   -130.41076      1699.942       1699.942       1699.942       4.9124976e+09  0.11559419    -10562362      -10562362       961.7197      -10561400      -131.27114     -130.25283     -129.7083       0.16973904     1.5282299      1.7230949      14442.333    
   3039000   322.94096      1.5195         0.013290615    0.013186747    0.013131535   -130.30314      1700.2795      1700.2795      1700.2795      4.9154234e+09  0.11552538    -10556947      -10556947       961.66303     -10555985      -131.16818     -130.14308     -129.59817      0.1740318      1.5527013      1.7352633      14464.455    
   3040000   322.91362      1.52           0.013277445    0.013173332    0.013119627   -130.17651      1700.6169      1700.6169      1700.6169      4.9183504e+09  0.11545663    -10551535      -10551535       961.58163     -10550573      -131.03819     -130.01068     -129.48065      0.18643746     1.5605885      1.7423352      14502.498    
   3041000   322.86111      1.5205         0.013262037    0.013161197    0.013108698   -130.04995      1700.9543      1700.9543      1700.9543      4.9212786e+09  0.11538793    -10546125      -10546125       961.42526     -10545164      -130.88613     -129.89091     -129.37279      0.18966959     1.5680879      1.751877       14602.566    
   3042000   322.79455      1.521          0.013245662    0.013150721    0.013098994   -129.92969      1701.2917      1701.2917      1701.2917      4.9242079e+09  0.11531929    -10540719      -10540719       961.22704     -10539758      -130.72452     -129.78752     -129.27702      0.18626106     1.5776603      1.7669137      14585.683    
   3043000   322.74403      1.5215         0.013231275    0.01314171     0.01308905    -129.82         1701.6292      1701.6292      1701.6292      4.9271384e+09  0.1152507     -10535315      -10535315       961.07661     -10534354      -130.58253     -129.69859     -129.17888      0.1875088      1.5777374      1.7677629      14661.71     
   3044000   322.74303      1.522          0.01322203     0.013134473    0.013079269   -129.7336       1701.9666      1701.9666      1701.9666      4.9300701e+09  0.11518217    -10529914      -10529914       961.07362     -10528953      -130.49129     -129.62717     -129.08235      0.18287874     1.556465       1.7480862      14807.23     
   3045000   322.78832      1.5225         0.013219214    0.013127876    0.013071522   -129.67715      1702.304       1702.304       1702.304       4.9330029e+09  0.11511369    -10524513      -10524513       961.20849     -10523552      -130.4635      -129.56206     -129.00589      0.16097389     1.5202488      1.7339738      14633.08     
   3046000   322.84356      1.523          0.013219009    0.013121605    0.013066572   -129.63956      1702.6414      1702.6414      1702.6414      4.9359369e+09  0.11504526    -10519112      -10519112       961.373       -10518151      -130.46147     -129.50018     -128.95704      0.13323868     1.4898126      1.7252373      14664.211    
   3047000   322.89376      1.5235         0.013216396    0.013115962    0.013062349   -129.59851      1702.9789      1702.9789      1702.9789      4.938872e+09   0.11497689    -10513711      -10513711       961.52249     -10512749      -130.43569     -129.44448     -128.91536      0.12528775     1.4719434      1.7055045      14685.765    
   3048000   322.95932      1.524          0.013209599    0.013108748    0.01305605    -129.53169      1703.3163      1703.3163      1703.3163      4.9418084e+09  0.11490857    -10508309      -10508309       961.7177      -10507347      -130.36861     -129.37328     -128.85319      0.14429634     1.4652479      1.6739013      14579.022    
   3049000   323.0536       1.5245         0.013200284    0.013098721    0.013047345   -129.43943      1703.6537      1703.6537      1703.6537      4.9447458e+09  0.11484031    -10502909      -10502909       961.99846     -10501947      -130.27667     -129.27432     -128.76728      0.17034663     1.4581292      1.6461988      14653.114    
   3050000   323.15462      1.525          0.013192807    0.013086926    0.013038195   -129.34593      1703.9911      1703.9911      1703.9911      4.9476845e+09  0.1147721     -10497512      -10497512       962.29929     -10496549      -130.20288     -129.15792     -128.67698      0.18264638     1.4561918      1.6444434      14375.301    
   3051000   323.22077      1.5255         0.013188066    0.013075067    0.01302836    -129.25896      1704.3286      1704.3286      1704.3286      4.9506243e+09  0.11470395    -10492116      -10492116       962.49626     -10491153      -130.15609     -129.04088     -128.57991      0.18018159     1.4613018      1.6786533      14639.767    
   3052000   323.23542      1.526          0.013183119    0.013063976    0.013018252   -129.17295      1704.666       1704.666       1704.666       4.9535652e+09  0.11463585    -10486721      -10486721       962.53987     -10485759      -130.10726     -128.93142     -128.48016      0.17941297     1.4670547      1.7261648      14642.922    
   3053000   323.2228       1.5265         0.013176802    0.013054877    0.013010043   -129.09523      1705.0034      1705.0034      1705.0034      4.9565074e+09  0.1145678     -10481329      -10481329       962.50231     -10480366      -130.04493     -128.84162     -128.39914      0.18589614     1.4737606      1.7693362      14761.244    
   3054000   323.20381      1.527          0.013168152    0.0130504      0.013005803   -129.0381       1705.3408      1705.3408      1705.3408      4.9594507e+09  0.11449981    -10475937      -10475937       962.44574     -10474974      -129.95955     -128.79744     -128.3573       0.1915784      1.4851703      1.7898515      14551.595    
   3055000   323.18415      1.5275         0.013156184    0.013048325    0.013002286   -128.98033      1705.6783      1705.6783      1705.6783      4.9623951e+09  0.11443187    -10470544      -10470544       962.38721     -10469582      -129.84144     -128.77696     -128.32258      0.19801068     1.5019678      1.7847039      14497.845    
   3056000   323.1596       1.528          0.013140288    0.01304342     0.012994732   -128.88705      1706.0157      1706.0157      1706.0157      4.9653407e+09  0.11436399    -10465153      -10465153       962.31409     -10464190      -129.68456     -128.72855     -128.24803      0.20736064     1.5149499      1.7663376      14577.122    
   3057000   323.11039      1.5285         0.013122209    0.013032939    0.01298302    -128.75456      1706.3531      1706.3531      1706.3531      4.9682875e+09  0.11429615    -10459764      -10459764       962.16757     -10458802      -129.50613     -128.62511     -128.13244      0.21278283     1.5122468      1.7522125      14475.311    
   3058000   323.02635      1.529          0.013106296    0.013017835    0.012969332   -128.60749      1706.6905      1706.6905      1706.6905      4.9712355e+09  0.11422838    -10454379      -10454379       961.9173      -10453417      -129.34908     -128.47604     -127.99736      0.20923712     1.5004182      1.7486361      14476.355    
   3059000   322.93217      1.5295         0.013094919    0.013001581    0.012955506   -128.47111      1707.028       1707.028       1707.028       4.9741846e+09  0.11416065    -10448998      -10448998       961.63685     -10448036      -129.2368      -128.31563     -127.8609       0.20709812     1.4920138      1.7511802      14571.182    
   3060000   322.86703      1.53           0.013086741    0.012988152    0.01294467    -128.36438      1707.3654      1707.3654      1707.3654      4.9771349e+09  0.11409298    -10443620      -10443620       961.44289     -10442658      -129.15609     -128.18309     -127.75396      0.20627568     1.4904481      1.7589075      14601.327    
   3061000   322.85046      1.5305         0.013080122    0.012980168    0.012938852   -128.2972       1707.7028      1707.7028      1707.7028      4.9800863e+09  0.11402536    -10438243      -10438243       961.39354     -10437282      -129.09077     -128.1043      -127.69654      0.19609477     1.4980434      1.7551136      14466.493    
   3062000   322.86786      1.531          0.013073735    0.012976527    0.012934483   -128.24984      1708.0402      1708.0402      1708.0402      4.983039e+09   0.1139578     -10432867      -10432867       961.44535     -10431905      -129.02773     -128.06836     -127.65342      0.18475823     1.5048505      1.7261635      14527.554    
   3063000   322.90322      1.5315         0.013066199    0.012973206    0.012925886   -128.18584      1708.3776      1708.3776      1708.3776      4.9859928e+09  0.11389029    -10427490      -10427490       961.55066     -10426528      -128.95336     -128.03558     -127.56858      0.19405895     1.4976193      1.6949182      14596.505    
   3064000   322.94529      1.532          0.013059752    0.012969391    0.012914493   -128.1146       1708.7151      1708.7151      1708.7151      4.9889477e+09  0.11382283    -10422115      -10422115       961.67592     -10421153      -128.88973     -127.99793     -127.45614      0.21650051     1.4813336      1.6998572      14420.38     
   3065000   322.9756       1.5325         0.013055517    0.012964282    0.012905665   -128.05482      1709.0525      1709.0525      1709.0525      4.9919038e+09  0.11375543    -10416740      -10416740       961.76618     -10415778      -128.84793     -127.94751     -127.36901      0.22504226     1.470986       1.7332912      14376.02     
   3066000   322.99369      1.533          0.013051252    0.012955845    0.012900175   -127.99497      1709.3899      1709.3899      1709.3899      4.9948611e+09  0.11368808    -10411366      -10411366       961.82005     -10410404      -128.80585     -127.86425     -127.31483      0.22138174     1.465064       1.7630838      14458.329    
   3067000   323.02372      1.5335         0.013043806    0.012942169    0.012894347   -127.90631      1709.7273      1709.7273      1709.7273      4.9978196e+09  0.11362078    -10405992      -10405992       961.90948     -10405030      -128.73235     -127.72928     -127.25731      0.2122201      1.4599607      1.7706034      14308.233    
   3068000   323.07709      1.534          0.013032494    0.012926547    0.012884886   -127.78659      1710.0648      1710.0648      1710.0648      5.0007792e+09  0.11355353    -10400621      -10400621       962.06841     -10399659      -128.62072     -127.5751      -127.16394      0.20465545     1.4496614      1.7561582      14266.106    
   3069000   323.13757      1.5345         0.013019221    0.012913994    0.012872001   -127.65923      1710.4022      1710.4022      1710.4022      5.00374e+09    0.11348634    -10395254      -10395254       962.24849     -10394291      -128.48972     -127.45121     -127.03677      0.20301815     1.4433678      1.7380805      14378.925    
   3070000   323.16657      1.535          0.013006424    0.012906048    0.012859929   -127.55128      1710.7396      1710.7396      1710.7396      5.006702e+09   0.11341921    -10389889      -10389889       962.33487     -10388927      -128.36342     -127.37279     -126.91764      0.2022804      1.4489073      1.7229676      14296.912    
   3071000   323.13969      1.5355         0.01299429     0.012900402    0.012850523   -127.46185      1711.077       1711.077       1711.077       5.0096651e+09  0.11335212    -10384527      -10384527       962.25481     -10383565      -128.24367     -127.31707     -126.8248       0.20676591     1.4592447      1.7097549      14393.852    
   3072000   323.08203      1.536          0.012982431    0.012894257    0.012841486   -127.37289      1711.4145      1711.4145      1711.4145      5.0126294e+09  0.11328509    -10379166      -10379166       962.08311     -10378204      -128.12663     -127.25642     -126.73561      0.2094861      1.4661521      1.6993249      14414.653    
   3073000   323.02622      1.5365         0.012971376    0.012886721    0.01283242    -127.2819       1711.7519      1711.7519      1711.7519      5.0155948e+09  0.11321811    -10373806      -10373806       961.91693     -10372844      -128.01753     -127.18205     -126.64614      0.19580479     1.4668899      1.6886994      14391.963    
   3074000   322.98873      1.537          0.01296006     0.012875445    0.01282409    -127.18018      1712.0893      1712.0893      1712.0893      5.0185615e+09  0.11315118    -10368449      -10368449       961.80528     -10367487      -127.90585     -127.07077  