LAMMPS (23 Jun 2022 - Update 1)
OMP_NUM_THREADS environment is not set. Defaulting to 1 thread. (src/comm.cpp:98)
  using 1 OpenMP thread(s) per MPI task
###

# Read restart info
read_restart ${read_res}
read_restart ./trial5/8020/equpmf71.res
Reading restart file ...
  restart file = 23 Jun 2022, LAMMPS = 23 Jun 2022
  restoring atom style atomic from restart
  orthogonal box = (1716.6179 1716.6179 1716.6179) to (2283.3821 2283.3821 2283.3821)
  1 by 2 by 2 MPI processor grid
  restoring pair style table from restart
  1000 atoms
  read_restart CPU = 0.061 seconds

# Settings
pair_style table/pgn spline 10941
pair_coeff 1 1 N20e.txt DE_GNP 308 72.9   # 1.35 * r
pair_coeff 2 2 N100e.txt DE_GNP 473.9 111.78
WARNING: 20 of 10941 force values in table DE_GNP are inconsistent with -dE/dr.
WARNING:  Should only be flagged at inflection points (src/pair_table_pgn.cpp:478)
pair_coeff 1 2 mixed_potentiale.txt DE_GNP 391.2 92.95
WARNING: 1564 of 10941 force values in table DE_GNP are inconsistent with -dE/dr.
WARNING:  Should only be flagged at inflection points (src/pair_table_pgn.cpp:478)

# Neighbor list
neighbor 2.0 bin
neigh_modify delay 0 every 1 check no once yes

# Temperature
variable T equal ${Temp}
variable T equal 300

# Deformation
reset_timestep 0
variable tmp equal "lx"
variable L0 equal ${tmp}
variable L0 equal 566.764260360169
variable strain equal "(lx - v_L0)/v_L0"
variable stp equal "step"
variable tmpe equal "temp"
variable p1 equal "v_strain"
variable p2 equal "-pxx*1.01325/10000"
variable p3 equal "-pyy*1.01325/10000"
variable p4 equal "-pzz*1.01325/10000"
variable p5 equal "lx"
variable p6 equal "ly"
variable p7 equal "lz"
variable p8 equal "press"
variable p9 equal "epair"
variable p10 equal "etotal"

# Thermo
thermo_style custom step temp v_p1 v_p2 v_p3 v_p4 press lx ly lz vol density epair pe ke etotal pxx pyy pzz pxy pxz pyz spcpu
thermo ${ts_save}
thermo 1000

# Dump
# dump 1 all custom 2000 ./${N20}${N100}/tensile/trajectory/trajectory_${usic}_${trial}_*.tensile.custom id type x y z ix iy iz
# dump_modify 1 sort id
dump 2 all cfg 50000 ./trial${trial}/${N20}${N100}/tensile/trajectory/dumpten.tens_${usic}_${trial}_*.cfg mass type xs ys zs fx fy fz
dump 2 all cfg 50000 ./trial5/${N20}${N100}/tensile/trajectory/dumpten.tens_${usic}_${trial}_*.cfg mass type xs ys zs fx fy fz
dump 2 all cfg 50000 ./trial5/80${N100}/tensile/trajectory/dumpten.tens_${usic}_${trial}_*.cfg mass type xs ys zs fx fy fz
dump 2 all cfg 50000 ./trial5/8020/tensile/trajectory/dumpten.tens_${usic}_${trial}_*.cfg mass type xs ys zs fx fy fz
dump 2 all cfg 50000 ./trial5/8020/tensile/trajectory/dumpten.tens_1_${trial}_*.cfg mass type xs ys zs fx fy fz
dump 2 all cfg 50000 ./trial5/8020/tensile/trajectory/dumpten.tens_1_5_*.cfg mass type xs ys zs fx fy fz
dump_modify 2 element N20 N100

fix 1 all nvt temp ${T} ${T} 100
fix 1 all nvt temp 300 ${T} 100
fix 1 all nvt temp 300 300 100
fix 2 all deform 1 x erate ${strain_rate} y erate ${strain_rate} z erate ${strain_rate} units box
fix 2 all deform 1 x erate 5e-6 y erate ${strain_rate} z erate ${strain_rate} units box
fix 2 all deform 1 x erate 5e-6 y erate 5e-6 z erate ${strain_rate} units box
fix 2 all deform 1 x erate 5e-6 y erate 5e-6 z erate 5e-6 units box
fix             def1 all print ${ts_save} "${p1} ${p2} ${p3} ${p4}" file ./tensile/${trial}/tensile${N20}${N100}_${usic}_${trial}.txt screen no
fix             def1 all print 1000 "${p1} ${p2} ${p3} ${p4}" file ./tensile/${trial}/tensile${N20}${N100}_${usic}_${trial}.txt screen no
fix             def1 all print 1000 "${p1} ${p2} ${p3} ${p4}" file ./tensile/5/tensile${N20}${N100}_${usic}_${trial}.txt screen no
fix             def1 all print 1000 "${p1} ${p2} ${p3} ${p4}" file ./tensile/5/tensile80${N100}_${usic}_${trial}.txt screen no
fix             def1 all print 1000 "${p1} ${p2} ${p3} ${p4}" file ./tensile/5/tensile8020_${usic}_${trial}.txt screen no
fix             def1 all print 1000 "${p1} ${p2} ${p3} ${p4}" file ./tensile/5/tensile8020_1_${trial}.txt screen no
fix             def1 all print 1000 "${p1} ${p2} ${p3} ${p4}" file ./tensile/5/tensile8020_1_5.txt screen no

timestep       		${ts}
timestep       		0.1
run				${steps_tensile}
run				6000000
Generated 0 of 1 mixed pair_coeff terms from geometric mixing rule
Unused restart file global fix info:
  fix style: npt, fix ID: 5
Neighbor list info ...
  update every 1 steps, delay 0 steps, check no
  max neighbors/atom: 2000, page size: 100000
  master list distance cutoff = 113.78
  ghost atom cutoff = 113.78
  binsize = 56.89, bins = 10 10 10
  1 neighbor lists, perpetual/occasional/extra = 1 0 0
  (1) pair table/pgn, perpetual
      attributes: half, newton on
      pair build: half/bin/atomonly/newton
      stencil: half/bin/3d
      bin: standard
Per MPI rank memory allocation (min/avg/max) = 3.856 | 3.856 | 3.856 Mbytes
   Step          Temp           v_p1           v_p2           v_p3           v_p4          Press            Lx             Ly             Lz           Volume        Density         E_pair         PotEng         KinEng         TotEng          Pxx            Pyy            Pzz            Pxy            Pxz            Pyz           S/CPU     
         0   303.55023      6.0176785e-16  0.016320669    0.018924574    0.013400627   -160.03247      566.76426      566.76426      566.76426      1.8205699e+08  2.3887036     -13140145      -13140145       903.92076     -13139241      -161.07248     -186.77102     -132.2539       54.983497      7.422574      -57.275518      0            
      1000   328.88921      0.0005         0.027083672    0.030021963    0.024547303   -268.61728      567.04764      567.04764      567.04764      1.8233022e+08  2.3851241     -13139376      -13139376       979.37591     -13138397      -267.29506     -296.29373     -242.26304      53.222225      4.8544272     -56.834757      11804.623    
      2000   382.76933      0.001          0.036624699    0.039419987    0.03427768    -362.93237      567.33102      567.33102      567.33102      1.8260371e+08  2.3815518     -13138384      -13138384       1139.8217     -13137244      -361.45768     -389.04502     -338.2944       51.353756      4.8082115     -57.908448      11880.086    
      3000   436.61235      0.0015         0.044463928    0.046858272    0.041814895   -437.98699      567.61441      567.61441      567.61441      1.8287748e+08  2.3779866     -13137200      -13137200       1300.157      -13135900      -438.82485     -462.45519     -412.68092      49.508946      6.2003357     -57.99033       11895.571    
      4000   471.57245      0.002          0.051308876    0.053376541    0.04830878    -503.31178      567.89779      567.89779      567.89779      1.8315152e+08  2.3744285     -13135820      -13135820       1404.2622     -13134416      -506.37924     -526.78551     -476.77059      48.224525      7.4407541     -55.802265      12663.7      
      5000   484.78316      0.0025         0.058592345    0.060346053    0.055314962   -573.24898      568.18117      568.18117      568.18117      1.8342584e+08  2.3708775     -13134202      -13134202       1443.6015     -13132759      -578.26149     -595.56923     -545.91623      47.372658      7.8946995     -54.079549      13967.84     
      6000   481.58153      0.003          0.066724637    0.068135605    0.063304077   -651.90992      568.46455      568.46455      568.46455      1.8370043e+08  2.3673336     -13132293      -13132293       1434.0676     -13130859      -658.52096     -672.44613     -624.76266      46.676061      5.516588      -54.58795       13936.461    
      7000   469.49645      0.0035         0.075048662    0.076022056    0.071741377   -732.9948       568.74794      568.74794      568.74794      1.8397529e+08  2.3637968     -13130059      -13130059       1398.0802     -13128661      -740.67271     -750.27936     -708.03234      46.553898      1.8357987     -55.620654      13969.355    
      8000   454.56837      0.004          0.082842492    0.083745208    0.079866145   -810.77011      569.03132      569.03132      569.03132      1.8425043e+08  2.360267      -13127495      -13127495       1353.627      -13126142      -817.59183     -826.50094     -788.21756      45.344961      0.47939079    -54.517702      13972.152    
      9000   440.33985      0.0045         0.090083704    0.091233343    0.087438817   -884.13805      569.3147       569.3147       569.3147       1.8452584e+08  2.3567442     -13124606      -13124606       1311.2569     -13123295      -889.05704     -900.40308     -862.95403      42.486278      1.0663911     -51.608892      13928.096    
     10000   427.80463      0.005          0.097334987    0.098567287    0.09480269    -956.34497      569.59808      569.59808      569.59808      1.8480153e+08  2.3532284     -13121397      -13121397       1273.9291     -13120123      -960.62164     -972.78349     -935.6298       40.011963      2.5111564     -49.578251      13767.141    
     11000   416.60819      0.0055         0.10482365     0.10604667     0.10200709    -1029.2867      569.88146      569.88146      569.88146      1.8507749e+08  2.3497196     -13117870      -13117870       1240.588      -13116629      -1034.529      -1046.5993     -1006.7317      38.601006      3.4842263     -49.253053      13932.906    
     12000   406.7763       0.006          0.1119934      0.11345024     0.10890464    -1099.9203      570.16485      570.16485      570.16485      1.8535372e+08  2.3462178     -13114036      -13114036       1211.3104     -13112825      -1105.289      -1119.6669     -1074.8052      38.284191      1.6989255     -48.11456       13894.068    
     13000   398.83169      0.0065         0.11859862     0.12015619     0.11558208    -1165.6777      570.44823      570.44823      570.44823      1.8563023e+08  2.3427229     -13109913      -13109913       1187.6527     -13108725      -1170.4774     -1185.8494     -1140.7064      37.777634     -2.2111917     -45.597282      13957.503    
     14000   392.69474      0.007          0.12519833     0.12633377     0.1224271     -1230.2301      570.73161      570.73161      570.73161      1.8590702e+08  2.339235      -13105509      -13105509       1169.3779     -13104340      -1235.6114     -1246.8174     -1208.2615      37.110385     -4.8834809     -45.255652      13995.01     
     15000   387.62477      0.0075         0.13182073     0.13252897     0.12936059    -1295.2062      571.01499      571.01499      571.01499      1.8618408e+08  2.335754      -13100837      -13100837       1154.2804     -13099683      -1300.9695     -1307.9593     -1276.6897      38.393705     -5.0535556     -47.729147      13974.243    
     16000   383.36685      0.008          0.13820876     0.13884392     0.13585609    -1358.3643      571.29837      571.29837      571.29837      1.8646141e+08  2.3322799     -13095901      -13095901       1141.601      -13094759      -1364.0144     -1370.283      -1340.7954      39.089341     -4.0348722     -48.629528      14005.557    
     17000   379.93156      0.0085         0.14440818     0.14520821     0.14184744    -1419.4056      571.58176      571.58176      571.58176      1.8673902e+08  2.3288127     -13090698      -13090698       1131.3713     -13089566      -1425.1979     -1433.0936     -1399.9254      35.742215     -3.0702669     -45.69422       13995.975    
     18000   377.1877       0.009          0.15031338     0.15120317     0.14753406    -1477.2616      571.86514      571.86514      571.86514      1.8701691e+08  2.3253523     -13085237      -13085237       1123.2006     -13084114      -1483.4777     -1492.2592     -1456.048       30.036258     -2.4158814     -42.546851      13977.425    
     19000   375.49454      0.0095         0.15583886     0.15660537     0.15299008    -1531.1598      572.14852      572.14852      572.14852      1.8729507e+08  2.3218988     -13079533      -13079533       1118.1586     -13078415      -1538.01       -1545.5748     -1509.8947      26.700205     -2.1530386     -40.499043      13958.546    
     20000   374.6024       0.01           0.16118532     0.16187768     0.15851705    -1584.2752      572.4319       572.4319       572.4319       1.875735e+08   2.3184522     -13073605      -13073605       1115.502      -13072489      -1590.7755     -1597.6085     -1564.4416      26.871237     -2.7673747     -41.166713      13951.668    
     21000   374.05313      0.0105         0.16672776     0.16725463     0.16411563    -1638.6151      572.71529      572.71529      572.71529      1.8785222e+08  2.3150123     -13067460      -13067460       1113.8663     -13066346      -1645.4751     -1650.6748     -1619.6953      29.314348     -4.7011271     -42.027647      13976.298    
     22000   374.23037      0.011          0.17231221     0.172633       0.16952093    -1692.462       572.99867      572.99867      572.99867      1.881312e+08   2.3115793     -13061096      -13061096       1114.3942     -13059982      -1700.5893     -1703.7552     -1673.0415      30.384584     -7.1938476     -39.288131      13979.399    
     23000   375.17946      0.0115         0.17764897     0.17800755     0.17476998    -1744.9675      573.28205      573.28205      573.28205      1.8841047e+08  2.3081531     -13054516      -13054516       1117.2204     -13053399      -1753.259      -1756.7979     -1724.8456      27.457752     -8.3735273     -34.971666      13948.895    
     24000   376.54226      0.012          0.18254737     0.18313819     0.17977517    -1794.4263      573.56543      573.56543      573.56543      1.8869001e+08  2.3047336     -13047721      -13047721       1121.2786     -13046600      -1801.6025     -1807.4334     -1774.243       24.201661     -8.1432528     -33.02331       13893.542    
     25000   378.18726      0.0125         0.18737757     0.18784931     0.18465852    -1841.8798      573.84881      573.84881      573.84881      1.8896983e+08  2.3013208     -13040722      -13040722       1126.1771     -13039595      -1849.2729     -1853.9285     -1822.4379      23.82992      -8.440535      -34.675574      13984.624    
     26000   379.67545      0.013          0.19222173     0.19244696     0.18962991    -1889.2955      574.1322       574.1322       574.1322       1.8924992e+08  2.2979148     -13033531      -13033531       1130.6086     -13032400      -1897.0809     -1899.3038     -1871.5017      23.816665     -8.9702327     -37.129527      13935.291    
     27000   380.81472      0.0135         0.19686807     0.19709643     0.19427308    -1935.1512      574.41558      574.41558      574.41558      1.8953029e+08  2.2945156     -13026149      -13026149       1134.0012     -13025015      -1942.9368     -1945.1905     -1917.3263      22.592442     -9.3571762     -37.517904      13948.733    
     28000   382.23726      0.014          0.20134375     0.2014246      0.19861322    -1978.3916      574.69896      574.69896      574.69896      1.8981094e+08  2.291123      -13018585      -13018585       1138.2373     -13017447      -1987.1083     -1987.9063     -1960.1601      20.780933     -8.8694496     -35.228693      13945.389    
     29000   384.48683      0.0145         0.20575223     0.20540696     0.20287884    -2020.028       574.98234      574.98234      574.98234      1.9009186e+08  2.2877371     -13010851      -13010851       1144.9361     -13009706      -2030.6166     -2027.209      -2002.2585      18.675232     -9.1726648     -32.675038      13973.692    
     30000   387.18832      0.015          0.21012325     0.20943993     0.20709265    -2061.5374      575.26572      575.26572      575.26572      1.9037306e+08  2.2843578     -13002940      -13002940       1152.9807     -13001787      -2073.7552     -2067.0114     -2043.8456      16.658099     -10.768233     -30.334083      13943.332    
     31000   389.56825      0.0155         0.21441152     0.21368538     0.21109387    -2102.7741      575.54911      575.54911      575.54911      1.9065454e+08  2.2809853     -12994852      -12994852       1160.0677     -12993692      -2116.0771     -2108.9107     -2083.3345      15.97466      -10.917522     -28.999532      13964.026    
     32000   391.34809      0.016          0.21844886     0.217897       0.21505507    -2142.9424      575.83249      575.83249      575.83249      1.909363e+08   2.2776193     -12986601      -12986601       1165.3678     -12985436      -2155.9226     -2150.4762     -2122.4285      16.131926     -8.3275343     -28.163746      13975.261    
     33000   393.06147      0.0165         0.22204587     0.22168769     0.21900582    -2180.243       576.11587      576.11587      576.11587      1.9121833e+08  2.27426       -12978195      -12978195       1170.4699     -12977025      -2191.4223     -2187.8874     -2161.4194      16.40968      -6.3166496     -26.177469      13957.522    
     34000   395.42954      0.017          0.22528349     0.22513709     0.2225423     -2213.8757      576.39925      576.39925      576.39925      1.9150064e+08  2.2709073     -12969646      -12969646       1177.5216     -12968469      -2223.3752     -2221.9303     -2196.3217      16.665362     -6.5737004     -25.584985      13960.773    
     35000   398.00847      0.0175         0.22859033     0.22884013     0.22583332    -2247.7631      576.68263      576.68263      576.68263      1.9178323e+08  2.2675612     -12960959      -12960959       1185.2013     -12959773      -2256.0112     -2258.4765     -2228.8016      16.351814     -9.4037479     -27.708304      13904.82     
     36000   400.18603      0.018          0.23220223     0.23269061     0.22910257    -2283.0674      576.96602      576.96602      576.96602      1.9206609e+08  2.2642216     -12952125      -12952125       1191.6857     -12950933      -2291.6578     -2296.4778     -2261.0666      15.266442     -12.154139     -27.720774      13870.921    
     37000   402.48401      0.0185         0.23593249     0.23605681     0.23240505    -2317.2772      577.2494       577.2494       577.2494       1.9234924e+08  2.2608886     -12943148      -12943148       1198.5287     -12941950      -2328.4726     -2329.6996     -2293.6595      12.604967     -13.455335     -24.133711      13910.368    
     38000   405.15156      0.019          0.23958251     0.23893288     0.23588268    -2350.1869      577.53278      577.53278      577.53278      1.9263266e+08  2.2575621     -12934035      -12934035       1206.4722     -12932828      -2364.4955     -2358.0842     -2327.9811      10.196684     -14.244132     -20.866705      13743.521    
     39000   407.38274      0.0195         0.2432614      0.24176329     0.23942801    -2383.2641      577.81616      577.81616      577.81616      1.9291636e+08  2.2542422     -12924782      -12924782       1213.1162     -12923569      -2400.8034     -2386.0181     -2362.9707      8.7324663     -14.097455     -19.865454      13969.867    
     40000   409.08405      0.02           0.24634834     0.24461645     0.24264527    -2413.3895      578.09955      578.09955      578.09955      1.9320034e+08  2.2509288     -12915401      -12915401       1218.1825     -12914183      -2431.2691     -2414.1767     -2394.7227      7.583171      -12.981612     -20.820442      13970.307    
     41000   411.18754      0.0205         0.24847755     0.24757217     0.2454281     -2439.2724      578.38293      578.38293      578.38293      1.934846e+08   2.2476218     -12905906      -12905906       1224.4463     -12904681      -2452.2827     -2443.3474     -2422.187       7.3934765     -12.182532     -20.243531      13975.986    
     42000   413.70826      0.021          0.25096173     0.2508138      0.24823232    -2467.334       578.66631      578.66631      578.66631      1.9376913e+08  2.2443213     -12896297      -12896297       1231.9526     -12895065      -2476.7997     -2475.3397     -2449.8625      6.8964782     -11.358114     -18.885165      13972.202    
     43000   415.71748      0.0215         0.25438732     0.25404807     0.25108547    -2498.6294      578.94969      578.94969      578.94969      1.9405395e+08  2.2410273     -12886563      -12886563       1237.9357     -12885325      -2510.6077     -2507.2595     -2478.021       7.0637494     -11.364174     -18.011467      13983.482    
     44000   417.41664      0.022          0.25775893     0.25681564     0.25364784    -2527.2552      579.23307      579.23307      579.23307      1.9433904e+08  2.2377398     -12876699      -12876699       1242.9955     -12875456      -2543.8828     -2534.5733     -2503.3096      8.7316914     -12.980116     -17.071653      13945.816    
     45000   419.27729      0.0225         0.26042692     0.2590414      0.25604929    -2551.2546      579.51646      579.51646      579.51646      1.9462441e+08  2.2344586     -12866726      -12866726       1248.5362     -12865478      -2570.2139     -2556.5398     -2527.0101      8.8021906     -13.171187     -15.830995      13956.753    
     46000   420.93582      0.023          0.26259009     0.26112332     0.25840402    -2572.9663      579.79984      579.79984      579.79984      1.9491007e+08  2.2311839     -12856655      -12856655       1253.475      -12855402      -2591.5627     -2577.0868     -2550.2494      5.5533875     -12.14564      -14.259871      13980.471    
     47000   422.51462      0.0235         0.26467791     0.26326284     0.26045474    -2593.6195      580.08322      580.08322      580.08322      1.95196e+08    2.2279155     -12846496      -12846496       1258.1764     -12845238      -2612.1679     -2598.2022     -2570.4884      1.9139648     -12.783452     -11.753234      13956.692    
     48000   424.19083      0.024          0.26680678     0.26547756     0.26261953    -2615.0304      580.3666       580.3666       580.3666       1.9548221e+08  2.2246536     -12836253      -12836253       1263.1679     -12834990      -2633.1782     -2620.0598     -2591.8532      0.49326073    -13.51188      -12.429014      13965.442    
     49000   425.6095       0.0245         0.26885588     0.26760381     0.26492928    -2636.3647      580.64998      580.64998      580.64998      1.957687e+08   2.221398      -12825915      -12825915       1267.3924     -12824648      -2653.4012     -2641.0443     -2614.6487      1.2758388     -14.162661     -16.918135      13917.16     
     50000   427.10878      0.025          0.27063128     0.26954094     0.26690868    -2655.0897      580.93337      580.93337      580.93337      1.9605547e+08  2.2181488     -12815489      -12815489       1271.857      -12814217      -2670.9231     -2660.1623     -2634.1839      1.3764862     -15.630074     -20.308407      7138.3797    
     51000   428.98345      0.0255         0.27257183     0.27147155     0.268734      -2673.8297      581.21675      581.21675      581.21675      1.9634252e+08  2.2149059     -12804979      -12804979       1277.4395     -12803702      -2690.0748     -2679.2159     -2652.1984      1.063743      -13.939768     -17.407831      9725.8659    
     52000   430.63842      0.026          0.27458377     0.27353963     0.27072945    -2693.8164      581.50013      581.50013      581.50013      1.9662985e+08  2.2116693     -12794384      -12794384       1282.3677     -12793102      -2709.9311     -2699.6263     -2671.8919      1.3937618     -10.10254      -9.3004609      13476.712    
     53000   431.62343      0.0265         0.27632709     0.27565251     0.27262655    -2712.7433      581.78351      581.78351      581.78351      1.9691746e+08  2.208439      -12783702      -12783702       1285.3009     -12782416      -2727.1364     -2720.4787     -2690.6149      1.917214      -7.7341772     -4.1179299      13633.911    
     54000   432.26983      0.027          0.2780028      0.27722426     0.27418743    -2728.5615      582.0669       582.0669       582.0669       1.9720535e+08  2.205215      -12772944      -12772944       1287.2257     -12771657      -2743.6743     -2735.9907     -2706.0195      0.37331809    -8.7197447     -4.5359364      13944.37     
     55000   433.24201      0.0275         0.27964012     0.27835333     0.27513914    -2740.7931      582.35028      582.35028      582.35028      1.9749352e+08  2.2019973     -12762129      -12762129       1290.1207     -12760839      -2759.8334     -2747.1338     -2715.4122     -2.0904786     -11.889119     -7.8883992      13949.686    
     56000   434.54752      0.028          0.2810882      0.27958179     0.27614027    -2752.8917      582.63366      582.63366      582.63366      1.9778198e+08  2.1987858     -12751258      -12751258       1294.0083     -12749964      -2774.1248     -2759.2578     -2725.2926     -2.9996721     -13.878382     -11.506994      13975.794    
     57000   435.30869      0.0285         0.28262292     0.28118363     0.27773213    -2768.447       582.91704      582.91704      582.91704      1.9807071e+08  2.1955806     -12740316      -12740316       1296.2749     -12739020      -2789.2713     -2775.0667     -2741.003      -2.1008917     -15.032641     -12.100446      13977.211    
     58000   435.56403      0.029          0.28429277     0.28273848     0.27964947    -2785.363       583.20042      583.20042      583.20042      1.9835972e+08  2.1923816     -12729297      -12729297       1297.0353     -12728000      -2805.7515     -2790.4118     -2759.9257     -1.3622502     -16.257733     -10.209553      13953.297    
     59000   436.153        0.0295         0.28567266     0.28423246     0.28130003    -2800.2472      583.48381      583.48381      583.48381      1.9864902e+08  2.1891888     -12718205      -12718205       1298.7892     -12716907      -2819.37       -2805.1563     -2776.2155     -0.96341667    -13.873214     -8.3075687      13961.191    
     60000   437.28848      0.03           0.28659963     0.2856165      0.28246108    -2811.6694      583.76719      583.76719      583.76719      1.9893859e+08  2.1860022     -12707060      -12707060       1302.1704     -12705758      -2828.5184     -2818.8157     -2787.6741     -1.6178136     -8.5479346     -6.6062112      13926.65     
     61000   438.62066      0.0305         0.28724844     0.28666181     0.28329452    -2819.9845      584.05057      584.05057      584.05057      1.9922845e+08  2.1828218     -12695870      -12695870       1306.1374     -12694563      -2834.9217     -2829.1321     -2795.8996     -3.9663405     -6.5219533     -4.7621647      13960.841    
     62000   439.78433      0.031          0.28799809     0.28744016     0.28432995    -2828.4175      584.33395      584.33395      584.33395      1.9951859e+08  2.1796475     -12684639      -12684639       1309.6026     -12683329      -2842.3202     -2836.8138     -2806.1184     -6.269803      -9.8228965     -4.0650083      13948.536    
     63000   440.33791      0.0315         0.28896187     0.28838709     0.28555413    -2838.7304      584.61733      584.61733      584.61733      1.9980901e+08  2.1764794     -12673359      -12673359       1311.2511     -12672047      -2851.8319     -2846.1592     -2818.2001     -7.1799085     -13.320196     -5.3601782      13966.657    
     64000   440.40086      0.032          0.28992678     0.2892399      0.28637409    -2847.4078      584.90072      584.90072      584.90072      2.0009971e+08  2.1733175     -12662030      -12662030       1311.4386     -12660718      -2861.3549     -2854.5759     -2826.2925     -6.5971563     -12.629109     -6.5610356      13955.958    
     65000   440.68463      0.0325         0.29057502     0.28960723     0.2862836     -2850.451       585.1841       585.1841       585.1841       2.0039069e+08  2.1701616     -12650671      -12650671       1312.2836     -12649358      -2867.7525     -2858.2012     -2825.3994     -5.5232911     -11.772966     -5.852612       13907.976    
     66000   441.54902      0.033          0.29094965     0.29000076     0.2860064     -2852.0662      585.46748      585.46748      585.46748      2.0068196e+08  2.1670119     -12639292      -12639292       1314.8576     -12637977      -2871.4498     -2862.085      -2822.6637     -5.1192649     -13.120165     -4.5777054      13964.52     
     67000   442.41804      0.0335         0.29126618     0.29080085     0.28650798    -2857.3896      585.75086      585.75086      585.75086      2.0097351e+08  2.1638683     -12627896      -12627896       1317.4454     -12626579      -2874.5737     -2869.9813     -2827.614      -7.0202085     -14.765839     -4.1860173      13915.804    
     68000   442.39942      0.034          0.29193675     0.29195337     0.28780048    -2867.6391      586.03425      586.03425      586.03425      2.0126534e+08  2.1607307     -12616456      -12616456       1317.3899     -12615139      -2881.1917     -2881.3558     -2840.3699     -10.350195     -14.23798      -4.8289443      13985.842    
     69000   442.1053       0.0345         0.29278277     0.29288935     0.28883486    -2876.9043      586.31763      586.31763      586.31763      2.0155745e+08  2.1575992     -12604962      -12604962       1316.5141     -12603645      -2889.5413     -2890.5932     -2850.5785     -11.978936     -10.499365     -5.1462194      13999.633    
     70000   442.75344      0.035          0.29353634     0.29320993     0.28947092    -2882.5305      586.60101      586.60101      586.60101      2.0184984e+08  2.1544738     -12593430      -12593430       1318.4441     -12592112      -2896.9784     -2893.7571     -2856.8559     -11.064642     -6.8929611     -4.8126573      13958.679    
     71000   443.75987      0.0355         0.29409721     0.29335075     0.29017154    -2887.1437      586.88439      586.88439      586.88439      2.0214252e+08  2.1513544     -12581872      -12581872       1321.4411     -12580551      -2902.5138     -2895.1468     -2863.7705     -10.577076     -6.9201724     -2.2328256      13999.409    
     72000   444.22825      0.036          0.29423777     0.29365504     0.29042749    -2889.4491      587.16777      587.16777      587.16777      2.0243548e+08  2.148241      -12570296      -12570296       1322.8359     -12568974      -2903.9011     -2898.1499     -2866.2965     -11.726407     -9.5510673     -0.58575955     13928.725    
     73000   444.42068      0.0365         0.29397066     0.29368964     0.29015407    -2887.7847      587.45116      587.45116      587.45116      2.0272872e+08  2.1451336     -12558708      -12558708       1323.4089     -12557385      -2901.2648     -2898.4914     -2863.598      -13.230127     -9.3051183     -0.31425908     13907.672    
     74000   444.7195       0.037          0.29326276     0.29307366     0.28986515    -2882.479       587.73454      587.73454      587.73454      2.0302225e+08  2.1420322     -12547121      -12547121       1324.2987     -12545796      -2894.2784     -2892.4122     -2860.7466     -13.518869     -8.463289       0.31762567     13885.595    
     75000   444.90963      0.0375         0.29258689     0.29265205     0.28985322    -2878.8294      588.01792      588.01792      588.01792      2.0331606e+08  2.1389368     -12535540      -12535540       1324.8649     -12534215      -2887.6081     -2888.2512     -2860.6289     -13.516094     -9.7486787     -0.27870367     13877.319    
     76000   444.35042      0.038          0.29254975     0.29275391     0.29006645    -2879.7438      588.3013       588.3013       588.3013       2.0361015e+08  2.1358473     -12523959      -12523959       1323.1997     -12522636      -2887.2415     -2889.2565     -2862.7333     -13.157886     -10.330749     -1.8781942      13873.034    
     77000   443.44594      0.0385         0.2929843      0.29310788     0.29005211    -2882.2906      588.58468      588.58468      588.58468      2.0390453e+08  2.1327638     -12512362      -12512362       1320.5063     -12511042      -2891.5302     -2892.7499     -2862.5917     -12.921683     -9.6046411     -1.0939501      13916.044    
     78000   443.15488      0.039          0.29328133     0.29328506     0.28989505    -2883.334       588.86807      588.86807      588.86807      2.0419919e+08  2.1296862     -12500747      -12500747       1319.6396     -12499428      -2894.4617     -2894.4985     -2861.0417     -12.774479     -9.4468704      0.21941827     13952.82     
     79000   443.53879      0.0395         0.29321429     0.29301031     0.2896817     -2881.5077      589.15145      589.15145      589.15145      2.0449413e+08  2.1266146     -12489125      -12489125       1320.7828     -12487804      -2893.8001     -2891.7869     -2858.9361     -13.314105     -9.6981267      0.29015562     13961.534    
     80000   443.82169      0.04           0.29266703     0.2924214      0.28941356    -2876.8879      589.43483      589.43483      589.43483      2.0478936e+08  2.1235488     -12477503      -12477503       1321.6252     -12476182      -2888.399      -2885.9748     -2856.2898     -16.276698     -9.3079616     -0.34497831     13951.44     
     81000   443.68729      0.0405         0.29164941     0.29168804     0.28884102    -2869.2441      589.71821      589.71821      589.71821      2.0508487e+08  2.1204889     -12465900      -12465900       1321.225      -12464579      -2878.3559     -2878.7371     -2850.6392     -19.413817     -8.7940027     -0.39461933     13951.904    
     82000   443.19021      0.041          0.29071463     0.29102325     0.28820363    -2861.885       590.0016       590.0016       590.0016       2.0538067e+08  2.1174349     -12454319      -12454319       1319.7448     -12452999      -2869.1303     -2872.1762     -2844.3486     -19.324733     -8.0306344      1.1670729      13918.099    
     83000   441.9751       0.0415         0.29036341     0.29061231     0.28786587    -2858.2666      590.28498      590.28498      590.28498      2.0567675e+08  2.1143868     -12442746      -12442746       1316.1264     -12441430      -2865.664      -2868.1205     -2841.0153     -17.648039     -6.2522136      2.3456528      13943.496    
     84000   440.15223      0.042          0.29010138     0.29035737     0.28763854    -2855.818       590.56836      590.56836      590.56836      2.0597311e+08  2.1113445     -12431169      -12431169       1310.6982     -12429858      -2863.078      -2865.6044     -2838.7717     -16.947785     -5.9257076      2.1364742      13881.483    
     85000   439.14674      0.0425         0.28936829     0.2897771      0.28689442    -2849.0494      590.85174      590.85174      590.85174      2.0626976e+08  2.1083081     -12419596      -12419596       1307.704      -12418289      -2855.8429     -2859.8776     -2831.4278     -16.067477     -9.3596818      3.1088748      13919.181    
     86000   439.81742      0.043          0.28824062     0.28884134     0.28603322    -2839.4282      591.13512      591.13512      591.13512      2.0656669e+08  2.1052775     -12408053      -12408053       1309.7012     -12406743      -2844.7137     -2850.6424     -2822.9284     -15.498318     -13.243799      6.039655       13947.045    
     87000   440.59453      0.0435         0.28743011     0.28803844     0.28589499    -2833.6657      591.41851      591.41851      591.41851      2.0686391e+08  2.1022526     -12396535      -12396535       1312.0153     -12395223      -2836.7147     -2842.7184     -2821.5642     -17.874512     -14.285507      7.5295761      13932.206    
     88000   440.34345      0.044          0.2869288      0.28727905     0.28560521    -2828.565       591.70189      591.70189      591.70189      2.0716141e+08  2.0992336     -12385032      -12385032       1311.2676     -12383721      -2831.7671     -2835.2238     -2818.7042     -22.473052     -13.190348      5.8113789      13936.143    
     89000   439.79106      0.0445         0.28620754     0.28628487     0.28456735    -2819.5074      591.98527      591.98527      591.98527      2.074592e+08   2.0962203     -12373554      -12373554       1309.6227     -12372244      -2824.6488     -2825.412      -2808.4614     -25.486069     -10.319291      1.3212206      13944.726    
     90000   439.31498      0.045          0.28512441     0.28517641     0.28294427    -2806.9581      592.26865      592.26865      592.26865      2.0775727e+08  2.0932129     -12362115      -12362115       1308.205      -12360806      -2813.9592     -2814.4724     -2792.4428     -24.815819     -6.8375584     -3.3491213      13980.064    
     91000   438.66187      0.0455         0.28392262     0.28439409     0.28166403    -2796.2192      592.55203      592.55203      592.55203      2.0805563e+08  2.0902111     -12350703      -12350703       1306.2601     -12349397      -2802.0984     -2806.7514     -2779.8078     -20.676725     -5.5500732     -4.2886155      13933.116    
     92000   437.50942      0.046          0.28296775     0.28381599     0.28129089    -2789.9486      592.83542      592.83542      592.83542      2.0835428e+08  2.0872151     -12339310      -12339310       1302.8283     -12338007      -2792.6745     -2801.046      -2776.1252     -19.105522     -6.692786      -0.96846766     13960.098    
     93000   436.27043      0.0465         0.28196107     0.28307959     0.2810004     -2783.2587      593.1188       593.1188       593.1188       2.0865321e+08  2.0842248     -12327932      -12327932       1299.1389     -12326632      -2782.7394     -2793.7783     -2773.2583     -21.041291     -8.9050438      3.2129872      13952.638    
     94000   435.35772      0.047          0.28048238     0.28178383     0.27995252    -2770.6842      593.40218      593.40218      593.40218      2.0895242e+08  2.0812403     -12316585      -12316585       1296.421      -12315288      -2768.1459     -2780.9902     -2762.9166     -22.547259     -10.870711      5.3244633      13944.012    
     95000   434.54806      0.0475         0.27884096     0.28023304     0.27835563    -2754.9293      593.68556      593.68556      593.68556      2.0925193e+08  2.0782614     -12305292      -12305292       1294.0099     -12303998      -2751.9463     -2765.685      -2747.1565     -23.98897      -11.124743      5.8084224      13951.381    
     96000   433.3432       0.048          0.27757668     0.27867533     0.27682382    -2740.6064      593.96894      593.96894      593.96894      2.0955171e+08  2.0752882     -12294056      -12294056       1290.4221     -12292766      -2739.4688     -2750.3116     -2732.0387     -25.816721     -10.986675      5.7905119      13964.282    
     97000   432.09491      0.0485         0.27648939     0.27714671     0.27557095    -2727.8791      594.25233      594.25233      594.25233      2.0985179e+08  2.0723207     -12282858      -12282858       1286.7048     -12281572      -2728.7381     -2735.2254     -2719.6739     -24.369017     -11.014346      4.8433102      13957.827    
     98000   431.3371       0.049          0.27544185     0.27587363     0.27474982    -2717.5435      594.53571      594.53571      594.53571      2.1015215e+08  2.0693588     -12271688      -12271688       1284.4482     -12270404      -2718.3997     -2722.661      -2711.5699     -18.739721     -10.738113      2.9647923      13895.257    
     99000   430.6702       0.0495         0.27431291     0.27473283     0.27392525    -2707.3641      594.81909      594.81909      594.81909      2.1045279e+08  2.0664026     -12260548      -12260548       1282.4623     -12259265      -2707.2579     -2711.4022     -2703.4321     -14.570207     -9.9023091      1.4624857      13949.764    
    100000   429.91799      0.05           0.27277293     0.27362957     0.27267671    -2694.5611      595.10247      595.10247      595.10247      2.1075373e+08  2.063452      -12249454      -12249454       1280.2223     -12248174      -2692.0595     -2700.5139     -2691.1099     -15.481705     -9.6629606      1.160534       10116.237    
    101000   429.1168       0.0505         0.2709753      0.27239521     0.2712229     -2679.804       595.38586      595.38586      595.38586      2.1105495e+08  2.060507      -12238418      -12238418       1277.8366     -12237140      -2674.3183     -2688.3317     -2676.7619     -19.459393     -10.479965      1.8985704      11177.955    
    102000   428.43238      0.051          0.26928068     0.27096068     0.26955218    -2664.0136      595.66924      595.66924      595.66924      2.1135646e+08  2.0575676     -12227434      -12227434       1275.7985     -12226158      -2657.5936     -2674.174      -2660.2732     -23.011813     -10.910186      4.1340304      13916.473    
    103000   427.40282      0.0515         0.26825412     0.26970377     0.26799869    -2651.391       595.95262      595.95262      595.95262      2.1165825e+08  2.0546338     -12216489      -12216489       1272.7326     -12215216      -2647.4624     -2661.7693     -2644.9414     -24.745168     -10.369096      6.6109168      13954.148    
    104000   425.71825      0.052          0.26727342     0.26829824     0.2668836     -2639.8726      596.236        596.236        596.236        2.1196033e+08  2.0517056     -12205575      -12205575       1267.7163     -12204308      -2637.7835     -2647.8978     -2633.9364     -25.563505     -11.0249        7.4569475      13962.74     
    105000   424.19341      0.0525         0.26546627     0.26657248     0.26572408    -2624.4357      596.51938      596.51938      596.51938      2.122627e+08   2.0487829     -12194710      -12194710       1263.1755     -12193447      -2619.9484     -2630.8658     -2622.4928     -25.007627     -12.508691      5.5165677      13907.988    
    106000   423.27055      0.053          0.2632278      0.26472149     0.2642219     -2606.0406      596.80277      596.80277      596.80277      2.1256535e+08  2.0458658     -12183915      -12183915       1260.4274     -12182655      -2597.8564     -2612.598      -2607.6674     -22.538033     -11.99711       3.0959468      13933.438    
    107000   422.34438      0.0535         0.26140583     0.26277564     0.2625413     -2588.1167      597.08615      597.08615      597.08615      2.128683e+08   2.0429543     -12173184      -12173184       1257.6694     -12171926      -2579.875      -2593.3939     -2591.0812     -19.99255      -10.019035      2.4190383      13949.537    
    108000   421.23523      0.054          0.25989669     0.26098606     0.26067857    -2571.1368      597.36953      597.36953      597.36953      2.1317153e+08  2.0400482     -12162513      -12162513       1254.3666     -12161258      -2564.9809     -2575.7321     -2572.6975     -17.880706     -8.1665447      3.6254538      13958.7      
    109000   420.24969      0.0545         0.25846628     0.2594234      0.25884597    -2555.2616      597.65291      597.65291      597.65291      2.1347505e+08  2.0371477     -12151906      -12151906       1251.4318     -12150654      -2550.8638     -2560.3098     -2554.6111     -17.394649     -7.5092126      5.4642043      13888.812    
    110000   418.94333      0.055          0.2571294      0.25826542     0.25749688    -2542.616       597.93629      597.93629      597.93629      2.1377886e+08  2.0342526     -12141348      -12141348       1247.5417     -12140101      -2537.6699     -2548.8815     -2541.2966     -19.232433     -9.2021538      6.4183864      13888.071    
    111000   416.98886      0.0555         0.25565926     0.25718136     0.25638833    -2530.5665      598.21968      598.21968      598.21968      2.1408295e+08  2.0313631     -12130819      -12130819       1241.7216     -12129578      -2523.1607     -2538.1826     -2530.3561     -22.339462     -10.116671      4.5240564      13947.122    
    112000   415.1069       0.056          0.25385206     0.25555604     0.25513242    -2515.1428      598.50306      598.50306      598.50306      2.1438733e+08  2.028479      -12120329      -12120329       1236.1175     -12119092      -2505.325      -2522.1421     -2517.9612     -25.137396     -9.977413       0.42098146     13942.66     
    113000   413.90394      0.0565         0.25192929     0.2534014      0.25342964    -2496.1274      598.78644      598.78644      598.78644      2.1469201e+08  2.0256003     -12109907      -12109907       1232.5353     -12108674      -2486.3488     -2500.8774     -2501.1561     -26.404533     -10.230769     -1.8265442      13942.542    
    114000   413.31469      0.057          0.25034949     0.25153822     0.25146037    -2478.3225      599.06982      599.06982      599.06982      2.1499697e+08  2.0227271     -12099564      -12099564       1230.7806     -12098333      -2470.7574     -2482.4893     -2481.7209     -24.267869     -11.428742     -0.38087114     13874.054    
    115000   412.46131      0.0575         0.24920285     0.25014091     0.24975175    -2464.3326      599.35321      599.35321      599.35321      2.1530221e+08  2.0198594     -12089278      -12089278       1228.2393     -12088049      -2459.4409     -2468.6988     -2464.8581     -19.915138     -10.910229      0.87376674     13838.253    
    116000   411.1515       0.058          0.24800152     0.24871913     0.24822144    -2450.669       599.63659      599.63659      599.63659      2.1560775e+08  2.016997      -12079031      -12079031       1224.339      -12077806      -2447.5847     -2454.667      -2449.7552     -17.743901     -9.001773       1.9487546      13864.72     
    117000   409.72921      0.0585         0.24632598     0.24714872     0.24661152    -2434.6944      599.91997      599.91997      599.91997      2.1591358e+08  2.0141401     -12068835      -12068835       1220.1036     -12067615      -2431.0484     -2439.1683     -2433.8665     -18.948276     -9.0880256      2.3965573      13884.625    
    118000   408.31638      0.059          0.24407105     0.24541552     0.24499815    -2416.2669      600.20335      600.20335      600.20335      2.1621969e+08  2.0112886     -12058706      -12058706       1215.8964     -12057490      -2408.794      -2422.0629     -2417.9437     -19.954475     -10.253508      1.5266112      13953.877    
    119000   406.84501      0.0595         0.24163969     0.24352481     0.24365099    -2397.6165      600.48673      600.48673      600.48673      2.165261e+08   2.0084424     -12048644      -12048644       1211.515      -12047432      -2384.7984     -2403.403      -2404.6483     -20.198552     -10.931077      1.63876        13917.119    
    120000   405.05286      0.06           0.23964518     0.2415951      0.24235678    -2380.4493      600.77012      600.77012      600.77012      2.1683279e+08  2.0056016     -12038645      -12038645       1206.1783     -12037438      -2365.1141     -2384.3583     -2391.8755     -21.57086      -8.9199823      1.800867       13938.919    
    121000   403.38184      0.0605         0.23817637     0.23965837     0.240525      -2363.2198      601.0535       601.0535       601.0535       2.1713978e+08  2.0027662     -12028708      -12028708       1201.2022     -12027506      -2350.618      -2365.2442     -2373.7972     -23.053434     -4.4601955      1.0091782      13966.653    
    122000   402.04483      0.061          0.23694974     0.23790294     0.23839199    -2346.3925      601.33688      601.33688      601.33688      2.1744705e+08  1.9999361     -12018833      -12018833       1197.2209     -12017636      -2338.5122     -2347.9194     -2352.746      -22.353322     -3.0986271     -0.21535652     13907.107    
    123000   400.50255      0.0615         0.23560805     0.23644155     0.23652352    -2331.0243      601.62026      601.62026      601.62026      2.1775461e+08  1.9971113     -12009010      -12009010       1192.6282     -12007817      -2325.2706     -2333.4967     -2334.3057     -19.750247     -7.2733876     -1.4690116      13944.416    
    124000   398.79994      0.062          0.23397635     0.2351424      0.23482907    -2315.8083      601.90364      601.90364      601.90364      2.1806247e+08  1.9942919     -11999242      -11999242       1187.5581     -11998055      -2309.167      -2320.6751     -2317.5828     -17.149696     -12.714238     -1.9379725      13940.645    
    125000   397.67159      0.0625         0.23227861     0.23368532     0.23319283    -2300.0469      602.18703      602.18703      602.18703      2.1837061e+08  1.9914777     -11989533      -11989533       1184.1981     -11988349      -2292.4117     -2306.2948     -2301.4343     -15.305737     -14.068536     -2.1775413      13940.944    
    126000   396.57454      0.063          0.23081885     0.23209522     0.23174907    -2285.264       602.47041      602.47041      602.47041      2.1867904e+08  1.9886689     -11979876      -11979876       1180.9312     -11978696      -2278.0049     -2290.6017     -2287.1855     -13.599021     -11.534391     -2.9826812      11265.758    
    127000   394.96167      0.0635         0.22934792     0.23040591     0.23036649    -2270.3194      602.75379      602.75379      602.75379      2.1898777e+08  1.9858653     -11970268      -11970268       1176.1284     -11969092      -2263.488      -2273.9295     -2273.5405     -14.015821     -6.8136815     -3.2731682      13826.495    
    128000   393.19768      0.064          0.22739934     0.22841634     0.22873634    -2252.001       603.03717      603.03717      603.03717      2.1929678e+08  1.983067      -11960724      -11960724       1170.8755     -11959553      -2244.257      -2254.294      -2257.4521     -16.811215     -3.1245557     -1.7782125      13934.935    
    129000   392.05583      0.0645         0.22501036     0.22630768     0.22679768    -2230.8273      603.32056      603.32056      603.32056      2.1960608e+08  1.9802739     -11951253      -11951253       1167.4753     -11950086      -2220.6796     -2233.4832     -2238.3191     -19.887822     -2.7384956     -0.57155755     13951.738    
    130000   391.08401      0.065          0.22295731     0.22456801     0.22511469    -2212.8136      603.60394      603.60394      603.60394      2.1991568e+08  1.9774861     -11941855      -11941855       1164.5814     -11940690      -2200.4176     -2216.314      -2221.7092     -21.483734     -4.8647072     -1.2981058      13984.229    
    131000   389.40264      0.0655         0.22191475     0.22320469     0.22390551    -2200.9209      603.88732      603.88732      603.88732      2.2022556e+08  1.9747035     -11932508      -11932508       1159.5746     -11931348      -2190.1283     -2202.859      -2209.7755     -19.53283      -6.5887905     -3.1443714      13992.094    
    132000   387.3921       0.066          0.22147901     0.22192481     0.22269128    -2191.2825      604.1707       604.1707       604.1707       2.2053574e+08  1.9719262     -11923197      -11923197       1153.5875     -11922044      -2185.8279     -2190.2276     -2197.792      -15.313115     -6.986313      -2.8494194      13938.497    
    133000   386.12161      0.0665         0.22056045     0.22056877     0.22101975    -2178.3008      604.45408      604.45408      604.45408      2.2084621e+08  1.969154      -11913928      -11913928       1149.8042     -11912778      -2176.7624     -2176.8446     -2181.2954     -12.730119     -5.5923846     -1.5111385      13902.406    
    134000   385.4631       0.067          0.2188851      0.21915525     0.21931011    -2162.5149      604.73747      604.73747      604.73747      2.2115697e+08  1.9663871     -11904712      -11904712       1147.8433     -11903564      -2160.2279     -2162.8941     -2164.4225     -12.260463     -4.0517956     -2.0837605      13891.688    
    135000   384.48309      0.0675         0.21687091     0.21772353     0.21782923    -2146.307       605.02085      605.02085      605.02085      2.2146802e+08  1.9636253     -11895553      -11895553       1144.925      -11894408      -2140.3495     -2148.7642     -2149.8073     -11.732971     -4.0096801     -4.0601885      13917.606    
    136000   383.03034      0.068          0.21486623     0.21617171     0.21645717    -2130.0933      605.30423      605.30423      605.30423      2.2177936e+08  1.9608687     -11886450      -11886450       1140.5989     -11885310      -2120.5649     -2133.4489     -2136.2661     -12.134306     -4.0595299     -4.9162164      13929.319    
    137000   381.505        0.0685         0.2131397      0.21478603     0.21527103    -2115.9528      605.58761      605.58761      605.58761      2.2209099e+08  1.9581172     -11877401      -11877401       1136.0567     -11876265      -2103.5253     -2119.7733     -2124.5599     -14.824573     -1.6955484     -4.0263941      13958.758    
    138000   379.87817      0.069          0.21178779     0.21337182     0.21412143    -2103.0711      605.87099      605.87099      605.87099      2.2240292e+08  1.9553709     -11868398      -11868398       1131.2123     -11867267      -2090.183      -2105.8161     -2113.2142     -18.084424     -0.62120305    -2.4710805      13918.3      
    139000   377.94263      0.0695         0.21079584     0.21169517     0.21278963    -2089.9108      606.15438      606.15438      606.15438      2.2271514e+08  1.9526297     -11859438      -11859438       1125.4486     -11858313      -2080.3932     -2089.2689     -2100.0704     -18.766327     -2.4857181     -1.6680747      13932.194    
    140000   375.81734      0.07           0.20971057     0.20978498     0.21108721    -2074.456       606.43776      606.43776      606.43776      2.2302765e+08  1.9498937     -11850530      -11850530       1119.1199     -11849410      -2069.6824     -2070.4168     -2083.2688     -17.049969     -5.9118608     -1.9546323      13916.726    
    141000   374.26154      0.0705         0.20806929     0.20791681     0.20904391    -2056.1889      606.72114      606.72114      606.72114      2.2334045e+08  1.9471627     -11841683      -11841683       1114.487      -11840568      -2053.4842     -2051.9794     -2063.103      -13.883248     -7.7694872     -2.2094339      13943.768    
    142000   373.22294      0.071          0.2064977      0.20663408     0.20720916    -2040.763       607.00452      607.00452      607.00452      2.2365354e+08  1.9444369     -11832897      -11832897       1111.3942     -11831786      -2037.9738     -2039.3198     -2044.9954     -11.063462     -6.0876688     -2.8625225      13924.078    
    143000   372.08889      0.0715         0.20540662     0.20600786     0.20598329    -2031.0808      607.2879       607.2879       607.2879       2.2396693e+08  1.9417161     -11824155      -11824155       1108.0172     -11823047      -2027.2057     -2033.1395     -2032.897      -9.5596704     -2.4769212     -4.6044992      13924.579    
    144000   371.05652      0.072          0.20436828     0.20552172     0.20533321    -2023.927       607.57129      607.57129      607.57129      2.2428061e+08  1.9390004     -11815440      -11815440       1104.943      -11814335      -2016.9581     -2028.3416     -2026.4812     -10.908578      0.67707675    -6.3101135      13946.518    
    145000   370.52162      0.0725         0.20310595     0.20447768     0.20491117    -2014.9512      607.85467      607.85467      607.85467      2.2459458e+08  1.9362898     -11806757      -11806757       1103.3501     -11805654      -2004.4999     -2018.0378     -2022.316      -12.979906      1.1780289     -6.0262623      13940.387    
    146000   370.03594      0.073          0.20184798     0.20275406     0.20420251    -2002.8112      608.13805      608.13805      608.13805      2.2490884e+08  1.9335842     -11798113      -11798113       1101.9038     -11797011      -1992.0847     -2001.027      -2015.3221     -14.897456     -0.19784507    -4.0338671      13938.329    
    147000   368.87963      0.0735         0.2007066      0.20092274     0.20291325    -1988.7905      608.42143      608.42143      608.42143      2.252234e+08   1.9308837     -11789509      -11789509       1098.4605     -11788410      -1980.8201     -1982.9533     -2002.5981     -15.523552     -1.3439535     -1.0058234      13888.915    
    148000   367.40694      0.074          0.19932737     0.19941253     0.20102636    -1973.0776      608.70482      608.70482      608.70482      2.2553825e+08  1.9281882     -11780953      -11780953       1094.0751     -11779859      -1967.2082     -1968.0486     -1983.9759     -14.722813     -0.95658859     1.3489634      13941.585    
    149000   365.89878      0.0745         0.19783528     0.19831446     0.19927647    -1958.7999      608.9882       608.9882       608.9882       2.258534e+08   1.9254977     -11772453      -11772453       1089.5841     -11771363      -1952.4824     -1957.2116     -1966.7059     -13.165818     -0.15744388     0.9885088      13929.884    
    150000   364.27169      0.075          0.19646852     0.19741073     0.19791132    -1946.8396      609.27158      609.27158      609.27158      2.2616884e+08  1.9228122     -11764000      -11764000       1084.7389     -11762916      -1938.9935     -1948.2924     -1953.2329     -11.598986      0.73466598    -1.9813442      13340.404    
    151000   363.02501      0.0755         0.19547118     0.19629058     0.19663732    -1935.6825      609.55496      609.55496      609.55496      2.2648457e+08  1.9201317     -11755589      -11755589       1081.0265     -11754508      -1929.1506     -1937.2374     -1940.6595     -10.462968      2.0439327     -4.8168615      13580.578    
    152000   362.13624      0.076          0.1947573      0.19514536     0.19551302    -1925.8678      609.83834      609.83834      609.83834      2.2680059e+08  1.9174562     -11747217      -11747217       1078.3799     -11746139      -1922.1051     -1925.935      -1929.5634     -9.7864549      2.6896604     -6.1287727      13885.412    
    153000   360.96192      0.0765         0.19405221     0.19403376     0.19490797    -1917.901       610.12173      610.12173      610.12173      2.2711691e+08  1.9147856     -11738875      -11738875       1074.8829     -11737800      -1915.1464     -1914.9643     -1923.5921     -8.9864479      2.369357      -5.2857595      13972.379    
    154000   359.36156      0.077          0.19306415     0.19274003     0.19444521    -1908.8721      610.40511      610.40511      610.40511      2.2743352e+08  1.91212       -11730553      -11730553       1070.1173     -11729483      -1905.395      -1902.1962     -1919.025      -9.6257699      0.98508828    -2.5167335      13972.581    
    155000   357.82506      0.0775         0.19183285     0.19156357     0.1936403     -1898.3032      610.68849      610.68849      610.68849      2.2775043e+08  1.9094594     -11722260      -11722260       1065.5419     -11721194      -1893.243      -1890.5855     -1911.0811     -11.493616     -1.0738875     -1.2287215      13956.329    
    156000   356.43089      0.078          0.19045026     0.19087499     0.19235062    -1887.2469      610.97187      610.97187      610.97187      2.2806763e+08  1.9068037     -11714002      -11714002       1061.3903     -11712941      -1879.5979     -1883.7897     -1898.3531     -11.513304     -1.1541978     -1.4466356      13928.202    
    157000   355.42683      0.0785         0.18898782     0.19016838     0.19080808    -1875.0367      611.25525      611.25525      611.25525      2.2838513e+08  1.9041529     -11705783      -11705783       1058.4004     -11704724      -1865.1648     -1876.816      -1883.1293     -9.9948992      1.7115421     -1.0546651      13914.539    
    158000   354.86065      0.079          0.18790409     0.18896148     0.18943355    -1862.9793      611.53864      611.53864      611.53864      2.2870292e+08  1.901507      -11697613      -11697613       1056.7144     -11696556      -1854.4692     -1864.9048     -1869.5638     -9.8248581      5.2293285     -0.70489881     13949.615    
    159000   354.16013      0.0795         0.18741146     0.18773517     0.18829378    -1853.5748      611.82202      611.82202      611.82202      2.29021e+08    1.898866      -11689481      -11689481       1054.6284     -11688427      -1849.6073     -1852.802      -1858.3151     -10.222049      6.3259282     -1.9097496      13914.431    
    160000   353.40063      0.08           0.18705927     0.186872       0.18726886    -1846.2049      612.1054       612.1054       612.1054       2.2933938e+08  1.8962299     -11681376      -11681376       1052.3667     -11680323      -1846.1314     -1844.2832     -1848.2        -9.4623505      4.2248066     -3.0384728      13912.839    
    161000   353.1944       0.0805         0.18633529     0.18615252     0.18655693    -1839.1142      612.38878      612.38878      612.38878      2.2965805e+08  1.8935987     -11673293      -11673293       1051.7526     -11672241      -1838.9863     -1837.1825     -1841.1737     -7.6579605      1.0891926     -2.5385297      13877.565    
    162000   353.31041      0.081          0.18539974     0.18544995     0.18615958    -1832.418       612.67217      612.67217      612.67217      2.2997702e+08  1.8909724     -11665235      -11665235       1052.0981     -11664183      -1829.7532     -1830.2487     -1837.2522     -6.5647481      0.18442365    -1.2560155      13972.777    
    163000   352.94494      0.0815         0.1844749      0.1849045      0.18571761    -1826.1272      612.95555      612.95555      612.95555      2.3029629e+08  1.8883509     -11657205      -11657205       1051.0097     -11656154      -1820.6257     -1824.8655     -1832.8903     -8.028324       0.87171142    -0.63516475     13945.576    
    164000   351.56481      0.082          0.18338399     0.18438979     0.18482941    -1817.9232      613.23893      613.23893      613.23893      2.3061585e+08  1.8857342     -11649200      -11649200       1046.9        -11648153      -1809.8593     -1819.7857     -1824.1245     -10.990041      0.57630488    -1.1978546      13887.138    
    165000   349.71287      0.0825         0.18210737     0.18349997     0.1836153     -1806.802       613.52231      613.52231      613.52231      2.309357e+08   1.8831224     -11641216      -11641216       1041.3852     -11640175      -1797.26       -1811.0039     -1812.1421     -12.685764     -0.37417963    -1.7959123      13957.871    
    166000   348.39531      0.083          0.18093415     0.18204886     0.18235621    -1794.0266      613.80569      613.80569      613.80569      2.3125586e+08  1.8805154     -11633264      -11633264       1037.4617     -11632227      -1785.6812     -1796.6826     -1799.7158     -11.828272     -0.19263858    -1.5569386      13933.66     
    167000   347.89659      0.0835         0.18035919     0.18044805     0.18136253    -1783.5999      614.08908      614.08908      614.08908      2.315763e+08   1.8779132     -11625355      -11625355       1035.9766     -11624319      -1780.0068     -1780.8838     -1789.909      -9.7138142      0.22104989    -0.52548926     13927.968    
    168000   347.30248      0.084          0.18014109     0.17943741     0.18083666    -1777.8277      614.37246      614.37246      614.37246      2.3189705e+08  1.8753158     -11617487      -11617487       1034.2075     -11616453      -1777.8544     -1770.9096     -1784.7191     -8.2624948      0.62493365    -0.060847937    13950.363    
    169000   346.33538      0.0845         0.17965945     0.17903897     0.18044224    -1773.6349      614.65584      614.65584      614.65584      2.3221808e+08  1.8727232     -11609640      -11609640       1031.3276     -11608609      -1773.101      -1766.9773     -1780.8264     -7.5621242      2.2780957      0.80461976     13965.572    
    170000   345.62831      0.085          0.17880527     0.17880062     0.17967227    -1767.5078      614.93922      614.93922      614.93922      2.3253942e+08  1.8701354     -11601802      -11601802       1029.2221     -11600772      -1764.6708     -1764.625      -1773.2275     -7.4479323      3.9267032      2.1637686      13946.254    
    171000   345.24115      0.0855         0.1777471      0.17847269     0.17876814    -1759.9735      615.2226       615.2226       615.2226       2.3286105e+08  1.8675523     -11593968      -11593968       1028.0692     -11592940      -1754.2275     -1761.3885     -1764.3044     -7.3948127      3.0678521      2.5054027      13971.42     
    172000   344.80637      0.086          0.17682435     0.17787908     0.1778742     -1752.0442      615.50599      615.50599      615.50599      2.3318298e+08  1.864974      -11586154      -11586154       1026.7745     -11585127      -1745.1207     -1755.53       -1755.4819     -8.1072699      1.2671215      1.1959943      13917.695    
    173000   344.54755      0.0865         0.17611631     0.17695617     0.17695872    -1743.6671      615.78937      615.78937      615.78937      2.335052e+08   1.8624005     -11578379      -11578379       1026.0038     -11577353      -1738.1328     -1746.4216     -1746.4468     -8.5136195      0.46866219    -1.977733       13989.475    
    174000   344.08507      0.087          0.17542586     0.1760613      0.17619263    -1735.9315      616.07275      616.07275      616.07275      2.3382772e+08  1.8598316     -11570645      -11570645       1024.6266     -11569621      -1731.3186     -1737.59       -1738.886      -7.8904968      0.73929586    -5.4276001      13988.483    
    175000   343.1129       0.0875         0.17485837     0.1752338      0.1756804     -1729.6573      616.35613      616.35613      616.35613      2.3415054e+08  1.8572675     -11562929      -11562929       1021.7316     -11561907      -1725.718      -1729.4231     -1733.8307     -6.6699813      1.9913569     -4.2259236      13934.234    
    176000   342.28574      0.088          0.1744501      0.17449649     0.17513501    -1724.0944      616.63952      616.63952      616.63952      2.3447366e+08  1.8547081     -11555221      -11555221       1019.2685     -11554201      -1721.6886     -1722.1464     -1728.4481     -5.2785156      2.3699637      0.70089579     13934.699    
    177000   341.90835      0.0885         0.17402432     0.17390696     0.17454762    -1718.8219      616.9229       616.9229       616.9229       2.3479707e+08  1.8521534     -11547526      -11547526       1018.1447     -11546508      -1717.4865     -1716.3283     -1722.6511     -4.2996168      0.33278104     4.6045639      13939.731    
    178000   341.68253      0.089          0.17344305     0.17330995     0.17394098    -1712.95        617.20628      617.20628      617.20628      2.3512078e+08  1.8496034     -11539852      -11539852       1017.4722     -11538834      -1711.7498     -1710.4362     -1716.664      -4.8200865     -2.8951111      5.4988444      13951.404    
    179000   341.36305      0.0895         0.17258885     0.17249602     0.17340335    -1705.6936      617.48966      617.48966      617.48966      2.3544478e+08  1.8470581     -11532200      -11532200       1016.5209     -11531183      -1703.3195     -1702.4033     -1711.358      -5.1875007     -3.8878674      4.8475568      13946.262    
    180000   340.78106      0.09           0.17151996     0.17168304     0.17269178    -1697.1619      617.77304      617.77304      617.77304      2.3576909e+08  1.8445175     -11524579      -11524579       1014.7878     -11523564      -1692.7704     -1694.3799     -1704.3354     -5.6669325     -1.9393326      3.953265       13890.415    
    181000   340.02359      0.0905         0.17058753     0.17102787     0.17169814    -1688.6703      618.05643      618.05643      618.05643      2.3609369e+08  1.8419815     -11516989      -11516989       1012.5322     -11515976      -1683.5681     -1687.9139     -1694.5289     -7.9395427      0.76493052     2.8621097      13868.87     
    182000   339.23701      0.091          0.17010912     0.17040427     0.17073251    -1681.8682      618.33981      618.33981      618.33981      2.3641859e+08  1.8394501     -11509412      -11509412       1010.1899     -11508402      -1678.8464     -1681.7593     -1684.9988     -11.047365      2.8067865      1.2133853      13870.202    
    183000   338.78128      0.0915         0.16984272     0.16984916     0.16997544    -1676.6751      618.62319      618.62319      618.62319      2.3674379e+08  1.8369234     -11501854      -11501854       1008.8328     -11500845      -1676.2173     -1676.2809     -1677.5272     -12.384634      4.8056799      0.55729198     13858.125    
    184000   338.58993      0.092          0.1694544      0.1696166      0.16944646    -1672.8924      618.90657      618.90657      618.90657      2.3706928e+08  1.8344013     -11494319      -11494319       1008.263      -11493310      -1672.3849     -1673.9857     -1672.3065     -11.183481      5.1381008      1.0274032      13799.131    
    185000   338.35957      0.0925         0.16887221     0.16951364     0.16903781    -1669.294       619.18995      619.18995      619.18995      2.3739508e+08  1.8318838     -11486796      -11486796       1007.577      -11485789      -1666.6391     -1672.9695     -1668.2735     -6.688349       2.8787091      2.840671       13864.633    
    186000   338.37816      0.093          0.16818219     0.16901766     0.16860057    -1663.954       619.47334      619.47334      619.47334      2.3772117e+08  1.829371      -11479282      -11479282       1007.6324     -11478274      -1659.8292     -1668.0747     -1663.9583     -1.1751556     -1.8747515      3.7916441      13931.137    
    187000   338.43785      0.0935         0.16751434     0.16833932     0.16808701    -1657.8359      619.75672      619.75672      619.75672      2.3804756e+08  1.8268627     -11471781      -11471781       1007.8101     -11470773      -1653.238      -1661.3799     -1658.8898      1.3281125     -4.433252       2.3066966      13919.548    
    188000   337.98947      0.094          0.16701746     0.16770032     0.16744327    -1651.9814      620.0401       620.0401       620.0401       2.3837425e+08  1.824359      -11464296      -11464296       1006.4749     -11463290      -1648.3342     -1655.0735     -1652.5366     -0.9589848     -2.7189941      0.94694567     13919.705    
    189000   337.25362      0.0945         0.16654415     0.16692494     0.16668954    -1645.3939      620.32348      620.32348      620.32348      2.3870124e+08  1.8218599     -11456835      -11456835       1004.2837     -11455831      -1643.6629     -1647.421      -1645.0979     -5.7346702      0.69427731     1.0689187      13927.651    
    190000   336.72772      0.095          0.1659123      0.16592596     0.16579738    -1637.094       620.60687      620.60687      620.60687      2.3902852e+08  1.8193653     -11449404      -11449404       1002.7176     -11448401      -1637.4271     -1637.5619     -1636.2929     -9.6806632      3.2399671      2.0232005      13983.959    
    191000   336.28281      0.0955         0.1653297      0.16502469     0.1649807     -1629.5257      620.89025      620.89025      620.89025      2.3935611e+08  1.8168753     -11442010      -11442010       1001.3928     -11441009      -1631.6773     -1628.667      -1628.2329     -10.25147       3.6424141      2.4377516      13949.107    
    192000   335.68307      0.096          0.16473801     0.16456535     0.16445613    -1624.3424      621.17363      621.17363      621.17363      2.3968399e+08  1.8143898     -11434637      -11434637       999.60685     -11433637      -1625.8378     -1624.1337     -1623.0558     -8.6297537      1.7523644      0.99934152     13949.785    
    193000   335.1116       0.0965         0.16421701     0.16438728     0.16422805    -1621.2924      621.45701      621.45701      621.45701      2.4001218e+08  1.8119089     -11427262      -11427262       997.90512     -11426264      -1620.6959     -1622.3763     -1620.8049     -6.2468542     -1.3291447     -0.080650487    13969.883    
    194000   335.06421      0.097          0.16374637     0.16423426     0.16422602    -1619.234       621.74039      621.74039      621.74039      2.4034066e+08  1.8094325     -11419885      -11419885       997.76399     -11418887      -1616.051      -1620.8661     -1620.7848     -4.2284718     -4.0248413      0.63000981     14005.521    
    195000   335.05495      0.0975         0.16326235     0.16403514     0.16405828    -1616.4348      622.02378      622.02378      622.02378      2.4066944e+08  1.8069606     -11412514      -11412514       997.73641     -11411517      -1611.2741     -1618.9009     -1619.1293     -3.3745835     -5.017301       1.6644008      13941.78     
    196000   334.75017      0.098          0.16263754     0.16347256     0.16344097    -1610.4978      622.30716      622.30716      622.30716      2.4099853e+08  1.8044932     -11405162      -11405162       996.82885     -11404166      -1605.1077     -1613.3487     -1613.0369     -4.4984328     -3.3135888      2.5341887      13949.528    
    197000   334.43179      0.0985         0.16192511     0.16253611     0.16237801    -1601.5765      622.59054      622.59054      622.59054      2.4132791e+08  1.8020303     -11397840      -11397840       995.88077     -11396844      -1598.0766     -1604.1067     -1602.5463     -6.1398316     -0.034283207    3.1567525      13924.771    
    198000   334.3711       0.099          0.16144657     0.16155268     0.16145888    -1593.7433      622.87392      622.87392      622.87392      2.4165759e+08  1.7995718     -11390543      -11390543       995.70003     -11389547      -1593.3538     -1594.401      -1593.4752     -6.0853818      2.5379627      2.695743       13948.261    
    199000   334.17038      0.0995         0.16129969     0.1608134      0.16092988    -1589.0878      623.1573       623.1573       623.1573       2.4198758e+08  1.7971179     -11383263      -11383263       995.10233     -11382268      -1591.9041     -1587.1048     -1588.2544     -5.6428041      2.2714888      2.436957       13948.747    
    200000   333.69858      0.1            0.16117936     0.16046018     0.16059672    -1586.434       623.44069      623.44069      623.44069      2.4231786e+08  1.7946684     -11375994      -11375994       993.69738     -11375000      -1590.7166     -1583.6189     -1584.9664     -5.3980049      0.3240391      2.8931421      10423.17     
    201000   333.34588      0.1005         0.16067328     0.16021471     0.16014163    -1582.4644      623.72407      623.72407      623.72407      2.4264844e+08  1.7922233     -11368735      -11368735       992.64711     -11367743      -1585.722      -1581.1963     -1580.475      -4.7970703     -0.72225712     2.9459083      13916.349    
    202000   333.00895      0.101          0.15985143     0.15981308     0.15964971    -1576.8212      624.00745      624.00745      624.00745      2.4297933e+08  1.7897827     -11361493      -11361493       991.6438      -11360501      -1577.6109     -1577.2325     -1575.6201     -4.3049141     -0.52245442     1.9792373      13951.74     
    203000   332.81172      0.1015         0.15900261     0.15922577     0.15905827    -1570.151       624.29083      624.29083      624.29083      2.4331051e+08  1.7873465     -11354270      -11354270       991.05647     -11353279      -1569.2337     -1571.4361     -1569.7831     -5.2238696      0.34219118     1.3529727      13921.15     
    204000   333.07385      0.102          0.15844124     0.15857411     0.1584159     -1564.0472      624.57421      624.57421      624.57421      2.43642e+08    1.7849148     -11347070      -11347070       991.83706     -11346078      -1563.6934     -1565.0048     -1563.4434     -5.8339073      1.6923182      1.267515       13944.545    
    205000   333.10961      0.1025         0.15814316     0.15819725     0.15797934    -1560.3906      624.8576       624.8576       624.8576       2.4397378e+08  1.7824874     -11339884      -11339884       991.94354     -11338892      -1560.7516     -1561.2855     -1559.1348     -5.2019329      0.93651179     1.1260147      13931.492    
    206000   332.59595      0.103          0.15772753     0.15792185     0.15758354    -1556.8153      625.14098      625.14098      625.14098      2.4430587e+08  1.7800645     -11332706      -11332706       990.41395     -11331716      -1556.6497     -1558.5675     -1555.2287     -4.77323       -1.2627892      1.6387141      13926.571    
    207000   332.40095      0.1035         0.15699426     0.15749186     0.15706226    -1551.2735      625.42436      625.42436      625.42436      2.4463826e+08  1.7776459     -11325548      -11325548       989.83327     -11324558      -1549.4128     -1554.3238     -1550.084      -5.2803673     -2.4608926      2.2205123      13913.511    
    208000   332.50632      0.104          0.15640477     0.15685523     0.15660787    -1545.7451      625.70774      625.70774      625.70774      2.4497095e+08  1.7752317     -11318413      -11318413       990.14704     -11317422      -1543.5951     -1548.0408     -1545.5995     -4.3555243     -1.7181881      1.2816294      13898.201    
    209000   331.93205      0.1045         0.15623213     0.15635226     0.15624555    -1542.3306      625.99113      625.99113      625.99113      2.4530394e+08  1.7728219     -11311282      -11311282       988.43697     -11310293      -1541.8912     -1543.0768     -1542.0236     -2.4249146     -0.74402827     0.62523468     13860.573    
    210000   331.18232      0.105          0.15597179     0.15599955     0.15566558    -1538.4059      626.27451      626.27451      626.27451      2.4563724e+08  1.7704164     -11304158      -11304158       986.20441     -11303172      -1539.3219     -1539.5958     -1536.2998     -2.7354754     -0.46672929     1.5561476      13897.808    
    211000   331.25983      0.1055         0.15547926     0.15546066     0.15485574    -1532.3486      626.55789      626.55789      626.55789      2.4597083e+08  1.7680153     -11297056      -11297056       986.43522     -11296070      -1534.461      -1534.2775     -1528.3073     -5.2254683     -0.5112661      3.46245        13913.013    
    212000   331.68177      0.106          0.15520169     0.15496154     0.15428855    -1527.9276      626.84127      626.84127      626.84127      2.4630473e+08  1.7656186     -11289974      -11289974       987.69169     -11288986      -1531.7216     -1529.3515     -1522.7096     -6.2570153     -0.15080035     4.2110447      13948.522    
    213000   331.68228      0.1065         0.15494911     0.15459362     0.1538722     -1524.5166      627.12465      627.12465      627.12465      2.4663893e+08  1.7632261     -11282896      -11282896       987.6932      -11281909      -1529.2289     -1525.7204     -1518.6005     -4.2363248      0.39411367     3.4775857      13945.892    
    214000   331.39916      0.107          0.15421702     0.15418615     0.15354972    -1519.7068      627.40804      627.40804      627.40804      2.4697343e+08  1.760838      -11275831      -11275831       986.85012     -11274844      -1522.0036     -1521.699      -1515.4179     -3.6297878     -0.18721768     1.6505034      13921.52     
    215000   331.44328      0.1075         0.15312054     0.15347325     0.15313084    -1512.3764      627.69142      627.69142      627.69142      2.4730823e+08  1.7584542     -11268798      -11268798       986.9815      -11267811      -1511.1822     -1514.6632     -1511.2839     -6.3753551     -0.99756336     1.4138603      13914.942    
    216000   331.60395      0.108          0.15239721     0.15282505     0.15267837    -1506.376       627.9748       627.9748       627.9748       2.4764334e+08  1.7560747     -11261794      -11261794       987.45993     -11260806      -1504.0435     -1508.2659     -1506.8184     -8.7603289     -0.41563002     3.273969       13853.627    
    217000   331.06117      0.1085         0.15218542     0.15256591     0.15255537    -1504.4221      628.25818      628.25818      628.25818      2.4797875e+08  1.7536995     -11254793      -11254793       985.84362     -11253808      -1501.9533     -1505.7085     -1505.6045     -7.7880113      0.30405196     4.4539444      13850.033    
[...]
   3239000   321.90487      1.6195         0.0055089268   0.0054601525   0.0052154094  -53.242828      1484.639       1484.639       1484.639       3.2723713e+09  0.13289451    -2815914.4     -2815914.4      958.57773     -2814955.8     -54.36888      -53.887515     -51.472089     -0.22722879    -0.12557713     1.8565227      12129.25     
   3240000   321.9339       1.62           0.005502773    0.0054610104   0.005211142   -53.211367      1484.9224      1484.9224      1484.9224      3.2742455e+09  0.13281844    -2814600       -2814600        958.66418     -2813641.4     -54.308147     -53.895982     -51.429973     -0.25105242    -0.13193116     1.8413735      12073.319    
   3241000   321.96896      1.6205         0.0054990644   0.0054624782   0.0052071803  -53.190963      1485.2057      1485.2057      1485.2057      3.2761205e+09  0.13274243    -2813285.9     -2813285.9      958.7686      -2812327.1     -54.271546     -53.910468     -51.390874     -0.28510952    -0.11100249     1.8366423      12103.911    
   3242000   321.99132      1.621          0.0054967028   0.0054615164   0.0052027607  -53.16549       1485.4891      1485.4891      1485.4891      3.2779961e+09  0.13266648    -2811971.7     -2811971.7      958.83515     -2811012.8     -54.248239     -53.900976     -51.347256     -0.30582487    -0.080498284    1.8386434      12142.159    
   3243000   321.99534      1.6215         0.0054931283   0.0054564254   0.0051985327  -53.123074      1485.7725      1485.7725      1485.7725      3.2798724e+09  0.13259058    -2810657.8     -2810657.8      958.84713     -2809698.9     -54.212961     -53.850732     -51.305529     -0.29776284    -0.059681254    1.8408708      12148.597    
   3244000   321.98262      1.622          0.0054875943   0.0054484902   0.005195583   -53.06906       1486.0559      1486.0559      1486.0559      3.2817495e+09  0.13251474    -2809344.6     -2809344.6      958.80925     -2808385.8     -54.158345     -53.772418     -51.276418     -0.2757535     -0.053795247    1.8319721      12221.512    
   3245000   321.95688      1.6225         0.0054807563   0.0054402973   0.0051925611  -53.009671      1486.3393      1486.3393      1486.3393      3.2836273e+09  0.13243896    -2808032.5     -2808032.5      958.73262     -2807073.8     -54.09086      -53.691559     -51.246594     -0.27195319    -0.057549764    1.8076399      12240.914    
   3246000   321.91329      1.623          0.0054738284   0.0054348218   0.0051893086  -52.958167      1486.6227      1486.6227      1486.6227      3.2855058e+09  0.13236324    -2806721.2     -2806721.2      958.60282     -2805762.6     -54.022486     -53.637521     -51.214494     -0.29206279    -0.055408191    1.7863589      12177.854    
   3247000   321.85806      1.6235         0.0054693745   0.0054323711   0.0051857761  -52.923831      1486.906       1486.906       1486.906       3.287385e+09   0.13228758    -2805410.4     -2805410.4      958.43834     -2804451.9     -53.978529     -53.613334     -51.179631     -0.32179862    -0.041627433    1.7831348      12116.169    
   3248000   321.81135      1.624          0.0054671729   0.0054315032   0.0051833174  -52.905645      1487.1894      1487.1894      1487.1894      3.289265e+09   0.13221197    -2804099.5     -2804099.5      958.29926     -2803141.2     -53.956801     -53.604769     -51.155366     -0.35227362    -0.032398542    1.7957809      12108.511    
   3249000   321.79275      1.6245         0.0054652178   0.0054307366   0.0051821242  -52.892766      1487.4728      1487.4728      1487.4728      3.2911456e+09  0.13213642    -2802788.3     -2802788.3      958.24385     -2801830.1     -53.937506     -53.597203     -51.143589     -0.36974751    -0.043567903    1.8133156      12115.606    
   3250000   321.80139      1.625          0.0054618168   0.005428851    0.0051792503  -52.86592       1487.7562      1487.7562      1487.7562      3.293027e+09   0.13206093    -2801477.2     -2801477.2      958.26958     -2800518.9     -53.903941     -53.578593     -51.115226     -0.36377808    -0.072422077    1.8197383      11719.342    
   3251000   321.81863      1.6255         0.0054569835   0.0054256182   0.005172799   -52.818162      1488.0396      1488.0396      1488.0396      3.2949091e+09  0.13198549    -2800166.5     -2800166.5      958.32092     -2799208.2     -53.85624      -53.546689     -51.051557     -0.34029299    -0.10095669     1.8178223      12061.021    
   3252000   321.83269      1.626          0.0054510694   0.0054208016   0.0051642713  -52.754807      1488.3229      1488.3229      1488.3229      3.2967919e+09  0.13191012    -2798856.9     -2798856.9      958.36281     -2797898.6     -53.797872     -53.499152     -50.967395     -0.31441358    -0.11619976     1.8124485      11993.865    
   3253000   321.84131      1.6265         0.0054444999   0.005413798    0.0051574507  -52.687717      1488.6063      1488.6063      1488.6063      3.2986754e+09  0.1318348     -2797548.7     -2797548.7      958.38845     -2796590.3     -53.733037     -53.430032     -50.900081     -0.29331823    -0.12665551     1.8043217      11950.115    
   3254000   321.84267      1.627          0.0054392316   0.0054059553   0.0051548051  -52.635881      1488.8897      1488.8897      1488.8897      3.3005597e+09  0.13175953    -2796241.5     -2796241.5      958.3925      -2795283.1     -53.681042     -53.352631     -50.873971     -0.28229319    -0.13915445     1.7939999      11890.002    
   3255000   321.83737      1.6275         0.0054366003   0.005400743    0.0051549289  -52.610485      1489.1731      1489.1731      1489.1731      3.3024446e+09  0.13168433    -2794934.9     -2794934.9      958.37674     -2793976.6     -53.655073     -53.301189     -50.875192     -0.28898652    -0.15523815     1.7840517      11866.924    
   3256000   321.83145      1.628          0.0054347939   0.0053984682   0.0051537155  -52.593067      1489.4565      1489.4565      1489.4565      3.3043303e+09  0.13160918    -2793628.2     -2793628.2      958.3591      -2792669.8     -53.637245     -53.278739     -50.863217     -0.32197316    -0.17376636     1.7757804      11801.195    
   3257000   321.84168      1.6285         0.0054307466   0.0053960192   0.0051493371  -52.557293      1489.7399      1489.7399      1489.7399      3.3062167e+09  0.13153409    -2792321.4     -2792321.4      958.38958     -2791363       -53.597302     -53.254569     -50.820006     -0.36762329    -0.19449213     1.7630244      11750.633    
   3258000   321.87564      1.629          0.0054244727   0.0053920461   0.0051426236  -52.501497      1490.0232      1490.0232      1490.0232      3.3081038e+09  0.13145906    -2791015.5     -2791015.5      958.49069     -2790057       -53.535384     -53.215358     -50.753749     -0.40432762    -0.21215629     1.740341       11707.515    
   3259000   321.90875      1.6295         0.0054184917   0.0053881418   0.0051350696  -52.444126      1490.3066      1490.3066      1490.3066      3.3099916e+09  0.13138408    -2789710.9     -2789710.9      958.58929     -2788752.3     -53.476355     -53.176825     -50.679197     -0.4168625     -0.22068566     1.7151376      11702.351    
   3260000   321.91774      1.63           0.0054147718   0.0053861932   0.0051289644  -52.405393      1490.59        1490.59        1490.59        3.3118802e+09  0.13130916    -2788406.9     -2788406.9      958.61606     -2787448.3     -53.439643     -53.157594     -50.618943     -0.40565587    -0.21743492     1.6980452      11725.042    
   3261000   321.90814      1.6305         0.0054145437   0.0053852982   0.0051254096  -52.390004      1490.8734      1490.8734      1490.8734      3.3137694e+09  0.1312343     -2787103.1     -2787103.1      958.58746     -2786144.5     -53.437392     -53.148761     -50.58386      -0.38028253    -0.20773131     1.6899296      11705.605    
   3262000   321.902        1.631          0.0054162702   0.0053829575   0.0051238473  -52.382844      1491.1568      1491.1568      1491.1568      3.3156594e+09  0.13115949    -2785798.8     -2785798.8      958.5692      -2784840.3     -53.454431     -53.12566      -50.568442     -0.34383897    -0.19553295     1.684583       11689.813    
   3263000   321.91717      1.6315         0.0054167565   0.0053791995   0.0051232439  -52.370096      1491.4402      1491.4402      1491.4402      3.3175501e+09  0.13108474    -2784494.4     -2784494.4      958.61437     -2783535.8     -53.459231     -53.088572     -50.562486     -0.29934035    -0.17961432     1.6828781      11655.504    
   3264000   321.95537      1.632          0.0054140603   0.0053753126   0.005123277   -52.348548      1491.7235      1491.7235      1491.7235      3.3194415e+09  0.13101005    -2783190       -2783190        958.72812     -2782231.3     -53.43262      -53.050211     -50.562813     -0.25779339    -0.1583987      1.692645       11648.594    
   3265000   322.00501      1.6325         0.0054074019   0.0053719502   0.0051231954  -52.315314      1492.0069      1492.0069      1492.0069      3.3213337e+09  0.13093541    -2781886       -2781886        958.87594     -2780927.2     -53.366907     -53.017026     -50.562007     -0.2337442     -0.13540932     1.7139964      11586.717    
   3266000   322.05266      1.633          0.0053989866   0.0053698293   0.0051218475  -52.276218      1492.2903      1492.2903      1492.2903      3.3232265e+09  0.13086084    -2780582.7     -2780582.7      959.01781     -2779623.7     -53.283855     -52.996095     -50.548705     -0.23162073    -0.12112851     1.7383123      11644.957    
   3267000   322.08737      1.6335         0.0053905475   0.0053673308   0.0051187685  -52.230107      1492.5737      1492.5737      1492.5737      3.3251201e+09  0.13078631    -2779280       -2779280        959.12119     -2778320.9     -53.200568     -52.971436     -50.518317     -0.2459526     -0.11850004     1.759928       11647.761    
   3268000   322.10143      1.634          0.0053823194   0.005362309    0.0051132008  -52.168202      1492.8571      1492.8571      1492.8571      3.3270144e+09  0.13071185    -2777978.2     -2777978.2      959.16304     -2777019       -53.119362     -52.921875     -50.463368     -0.26820099    -0.11883089     1.7739833      11679.883    
   3269000   322.08301      1.6345         0.0053733985   0.0053554608   0.0051052251  -52.090087      1493.1404      1493.1404      1493.1404      3.3289094e+09  0.13063744    -2776677.8     -2776677.8      959.1082      -2775718.7     -53.03132      -52.854288     -50.384654     -0.28795336    -0.11473716     1.7799832      11672.767    
   3270000   322.02351      1.635          0.0053636941   0.0053485816   0.0050964461  -52.006651      1493.4238      1493.4238      1493.4238      3.3308051e+09  0.13056309    -2775378.8     -2775378.8      958.93103     -2774419.9     -52.935545     -52.786397     -50.298012     -0.29282464    -0.096875658    1.7838117      11650.85     
   3271000   321.92844      1.6355         0.0053549686   0.0053410286   0.005087637   -51.924119      1493.7072      1493.7072      1493.7072      3.3327016e+09  0.13048879    -2774081.5     -2774081.5      958.64793     -2773122.8     -52.849431     -52.711854     -50.211074     -0.27483648    -0.07885931     1.7903353      11631.639    
   3272000   321.82066      1.636          0.0053504695   0.0053329924   0.0050795576  -51.856302      1493.9906      1493.9906      1493.9906      3.3345988e+09  0.13041455    -2772785.5     -2772785.5      958.32698     -2771827.2     -52.805028     -52.632543     -50.131336     -0.2434843     -0.073794688    1.7999512      11605.048    
   3273000   321.73092      1.6365         0.0053507062   0.0053268311   0.0050736832  -51.817487      1494.274       1494.274       1494.274       3.3364967e+09  0.13034037    -2771490.3     -2771490.3      958.05973     -2770532.2     -52.807365     -52.571736     -50.07336      -0.21682041    -0.074974366    1.7997034      11608.272    
   3274000   321.67609      1.637          0.0053546194   0.0053217678   0.0050705165  -51.803286      1494.5574      1494.5574      1494.5574      3.3383953e+09  0.13026624    -2770195       -2770195        957.89646     -2769237.1     -52.845985     -52.521765     -50.042107     -0.20746229    -0.06942058     1.7871837      11615.311    
   3275000   321.66002      1.6375         0.0053596023   0.005315754    0.0050686983  -51.793913      1494.8407      1494.8407      1494.8407      3.3402946e+09  0.13019217    -2768899.4     -2768899.4      957.84861     -2767941.6     -52.895162     -52.462413     -50.024163     -0.20972182    -0.061762742    1.7787633      11596.896    
   3276000   321.67948      1.638          0.0053619714   0.0053098923   0.0050675652  -51.778695      1495.1241      1495.1241      1495.1241      3.3421947e+09  0.13011815    -2767603.6     -2767603.6      957.90655     -2766645.7     -52.918543     -52.404563     -50.01298      -0.22672529    -0.067177552    1.7844767      11687.891    
   3277000   321.72437      1.6385         0.0053587839   0.0053054856   0.0050671752  -51.752429      1495.4075      1495.4075      1495.4075      3.3440954e+09  0.13004419    -2766307.8     -2766307.8      958.04022     -2765349.7     -52.887085     -52.361071     -50.009131     -0.26182865    -0.091522765    1.7991813      11693.365    
   3278000   321.77897      1.639          0.0053511275   0.0053019177   0.0050667178  -51.714         1495.6909      1495.6909      1495.6909      3.3459969e+09  0.12997029    -2765012.5     -2765012.5      958.20281     -2764054.3     -52.811523     -52.325859     -50.004617     -0.29810058    -0.12355807     1.8184575      11702.472    
   3279000   321.82835      1.6395         0.0053411006   0.0052994913   0.0050640295  -51.664188      1495.9743      1495.9743      1495.9743      3.3478992e+09  0.12989645    -2763718.1     -2763718.1      958.34988     -2762759.8     -52.712564     -52.301913     -49.978086     -0.31078371    -0.15118236     1.8290456      11753.788    
   3280000   321.86204      1.64           0.0053302756   0.0052979903   0.0050582752  -51.604708      1496.2576      1496.2576      1496.2576      3.3498021e+09  0.12982265    -2762424.7     -2762424.7      958.45019     -2761466.2     -52.60573      -52.287099     -49.921295     -0.29358436    -0.16941699     1.8151698      11770.148    
   3281000   321.87403      1.6405         0.0053201707   0.00529468     0.0050509873  -51.5366        1496.541       1496.541       1496.541       3.3517057e+09  0.12974892    -2761132.5     -2761132.5      958.48588     -2760174       -52.506002     -52.254429     -49.849369     -0.26583034    -0.17618437     1.7871943      11786.246    
   3282000   321.86124      1.641          0.0053127152   0.0052889887   0.0050445422  -51.472148      1496.8244      1496.8244      1496.8244      3.3536101e+09  0.12967524    -2759841.5     -2759841.5      958.4478      -2758883.1     -52.432423     -52.19826      -49.78576      -0.25323802    -0.17415351     1.7628715      11842.694    
   3283000   321.82552      1.6415         0.0053067047   0.0052823918   0.0050391784  -51.413027      1497.1078      1497.1078      1497.1078      3.3555152e+09  0.12960162    -2758551.6     -2758551.6      958.34145     -2757593.2     -52.373103     -52.133154     -49.732824     -0.26052236    -0.16446715     1.7480452      11834.046    
   3284000   321.78934      1.642          0.0053020099   0.0052768248   0.0050344714  -51.363784      1497.3912      1497.3912      1497.3912      3.357421e+09   0.12952805    -2757262.6     -2757262.6      958.2337      -2756304.4     -52.32677      -52.078212     -49.686369     -0.28149391    -0.14489475     1.7403847      11864.883    
   3285000   321.77416      1.6425         0.0053000288   0.0052742136   0.0050318295  -51.339985      1497.6746      1497.6746      1497.6746      3.3593276e+09  0.12945454    -2755974.2     -2755974.2      958.18849     -2755016       -52.307218     -52.052441     -49.660296     -0.30562314    -0.12081498     1.7354419      11840.005    
   3286000   321.78554      1.643          0.0053006968   0.0052747405   0.0050325017  -51.346127      1497.9579      1497.9579      1497.9579      3.3612349e+09  0.12938108    -2754685.5     -2754685.5      958.22238     -2753727.3     -52.31381      -52.057642     -49.66693      -0.31130653    -0.097358342    1.7287849      11823.968    
   3287000   321.818        1.6435         0.0053010351   0.0052758655   0.0050347707  -51.358406      1498.2413      1498.2413      1498.2413      3.3631428e+09  0.12930768    -2753396       -2753396        958.31904     -2752437.6     -52.317149     -52.068744     -49.689324     -0.28781637    -0.075627422    1.722746       11852.093    
   3288000   321.8605       1.644          0.005297931    0.0052753736   0.0050358687  -51.350187      1498.5247      1498.5247      1498.5247      3.3650515e+09  0.12923433    -2752105.7     -2752105.7      958.44561     -2751147.3     -52.286513     -52.063889     -49.70016      -0.25429657    -0.059140253    1.7211898      11886.326    
   3289000   321.89663      1.6445         0.0052910168   0.005272922    0.0050337876  -51.31253       1498.8081      1498.8081      1498.8081      3.366961e+09   0.12916105    -2750815.7     -2750815.7      958.55319     -2749857.1     -52.218276     -52.039694     -49.679621     -0.23240413    -0.07003284     1.7267661      11995.543    
   3290000   321.90558      1.645          0.0052837469   0.005269083    0.0050293104  -51.261256      1499.0915      1499.0915      1499.0915      3.3688711e+09  0.12908781    -2749526.4     -2749526.4      958.57985     -2748567.8     -52.146527     -52.001806     -49.635435     -0.23183067    -0.1131326      1.7347463      12020.738    
   3291000   321.87878      1.6455         0.0052784656   0.0052639894   0.0050243733  -51.210883      1499.3749      1499.3749      1499.3749      3.370782e+09   0.12901463    -2748238       -2748238        958.50005     -2747279.5     -52.094405     -51.951536     -49.586709     -0.25269489    -0.16120403     1.7350218      11995.395    
   3292000   321.83855      1.646          0.0052752714   0.0052572573   0.0050202026  -51.164508      1499.6582      1499.6582      1499.6582      3.3726936e+09  0.12894151    -2746950.3     -2746950.3      958.38024     -2745991.9     -52.062881     -51.885095     -49.545547     -0.28095041    -0.18758252     1.7323324      11997.834    
   3293000   321.81109      1.6465         0.0052737007   0.0052513175   0.0050178231  -51.131972      1499.9416      1499.9416      1499.9416      3.3746059e+09  0.12886844    -2745663.2     -2745663.2      958.29848     -2744704.9     -52.047379     -51.826474     -49.522064     -0.30663369    -0.18550874     1.7369379      12011.169    
   3294000   321.79945      1.647          0.0052728232   0.0052481134   0.0050172975  -51.116816      1500.225       1500.225       1500.225       3.376519e+09   0.12879543    -2744376.3     -2744376.3      958.2638      -2743418       -52.038719     -51.794852     -49.516876     -0.31833027    -0.1705108      1.7493702      11998.23     
   3295000   321.79302      1.6475         0.0052711793   0.0052463888   0.0050174682  -51.106296      1500.5084      1500.5084      1500.5084      3.3784327e+09  0.12872247    -2743089.1     -2743089.1      958.24467     -2742130.8     -52.022495     -51.777832     -49.518561     -0.3155953     -0.15976343     1.7506472      11961.055    
   3296000   321.78014      1.648          0.0052668737   0.0052439915   0.0050155961  -51.078086      1500.7918      1500.7918      1500.7918      3.3803472e+09  0.12864957    -2741801.6     -2741801.6      958.2063      -2740843.4     -51.980002     -51.754172     -49.500084     -0.31234203    -0.1536944      1.7350749      11899.399    
ERROR on proc 0: Pair distance > table outer cutoff: ijtype 2 1 dist 308.000057433076 (src/pair_table_pgn.cpp:138)
Last command: run				${steps_tensile}
