ITEM: TIMESTEP
50200000
ITEM: NUMBER OF ATOMS
1000
ITEM: BOX BOUNDS pp pp pp
1.7014874482342852e+03 2.2985125517653228e+03
1.7014874482342852e+03 2.2985125517653228e+03
1.7014874482342852e+03 2.2985125517653228e+03
ITEM: ATOMS type x y z ix iy iz c_vor[1] c_vor[2]
1 2063.88 2218.67 1961.75 0 -1 -1 215461 12
1 2084.81 1903.39 2036.02 0 0 0 141123 12
1 1824.77 1987.23 1883.73 0 0 0 266712 11
1 1851.04 2106.11 1836.95 0 0 0 187881 12
1 2025.28 1970.86 1797.64 0 -1 1 227551 14
1 1983.48 2252.14 1985.21 -1 -1 0 152801 13
1 1772.49 1711.61 2006.55 0 0 0 248171 12
1 1773.56 2295.76 2144.45 0 -1 -1 181098 12
1 1842.04 2032.17 2199.14 0 -1 0 207223 14
1 2164.12 2152.51 2087.53 -1 0 -1 209251 13
1 1926.67 2196.39 2249.76 0 0 -1 242428 12
1 1747.41 1982.81 1940.15 0 0 0 211875 15
1 1756.22 2213.1 2230.42 0 -1 -1 187478 11
1 2295.03 2289.59 2226.81 -1 -1 0 253861 13
1 2055.5 2211.91 1837.72 -1 -2 0 177331 11
1 2077.78 2183.66 1758.31 0 -1 0 139168 12
1 2194.32 1843.93 2280.15 -1 0 -1 174166 14
1 2207.94 1899.82 2162.43 0 -1 -1 184242 15
1 1898.45 1998.48 1781.74 0 0 0 237615 13
1 1745.08 2135.38 1718.35 0 -1 0 165329 12
1 1788.28 2166.26 1768.84 0 -1 0 175361 14
1 1778.53 1961.98 1985.46 0 -1 0 173903 13
1 1881.93 1945.34 2259.29 0 0 0 232966 13
1 1702.22 1786.01 1814.84 0 0 0 249900 12
1 1830.97 2021.93 2293.2 0 -1 -2 238535 12
1 2219.34 1966.44 2181.15 -1 0 -1 207031 13
1 2050.94 2234.77 2051.73 0 -1 0 167760 13
1 1881.96 1844.51 2142.97 0 1 -1 146853 12
1 1721.5 1974.34 2073.9 0 0 0 171314 15
1 2199.37 1781.14 1818.91 0 0 0 257618 14
1 2148.93 1886.93 2119.58 -1 0 0 145920 15
1 2073.92 1817.49 2193.2 -1 0 0 204525 11
1 2162.38 1936.33 1953.47 -1 0 0 166428 11
1 1789.85 1723.64 1957.97 1 0 0 181414 11
1 2038.69 1746.8 1901.99 0 0 0 137329 13
1 2298.4 2230.7 1926.06 0 0 1 197584 12
1 2210.88 1984.97 1774.72 -1 -1 0 144908 14
1 1953.97 1728.17 1899.47 0 1 0 142585 12
1 1964.08 1793.22 1990.7 0 0 0 192361 14
1 2274.85 1932.07 2046.21 -1 0 0 164623 15
1 1749.61 1786.85 2214.14 1 0 -1 217357 12
1 1836.42 2201.45 1899.47 0 0 0 173928 16
1 1995.46 1817.27 2026.53 -1 0 -1 136155 14
1 1932.8 1810.67 1869.5 0 0 0 234257 14
1 2150.25 1971.91 1916.89 -1 -1 0 146906 14
1 1799.32 2179.68 1823.24 0 0 -1 144592 13
1 1772.49 1956.34 2073.96 -1 0 0 141921 14
1 2026.35 2216.12 2094.19 0 -1 -1 149125 11
1 2266.66 1896.16 2222.97 0 0 -1 166078 13
1 2107.77 1794.31 2112.68 0 0 -1 153081 13
1 2029.22 1942.84 2160.33 0 -1 0 136080 13
1 1903.29 2162.39 2072.32 0 -1 -1 225388 14
1 2179.88 1955.9 2215.02 -1 0 -1 147999 11
1 2213.27 1919.07 1951.92 0 0 0 221607 15
1 2088.58 1767.54 1894.69 0 0 0 160382 14
1 1967.62 1858.11 2062.2 -1 0 -1 146059 14
1 1719 2276.3 1813.19 0 -1 0 228961 11
1 1737.53 2132.74 1770.73 0 -1 -1 157761 13
1 2032.39 2066.55 1719.36 0 0 0 236111 13
1 1871.77 1723.92 2019.41 0 0 -1 153454 13
1 1866.51 2296.1 1856.61 0 -1 0 163421 12
1 1920.55 1876.58 2162.75 0 0 0 144424 14
1 2112.13 1815.16 1719.64 -1 0 0 181054 10
1 1774.87 2035.92 2102.33 0 -1 -1 193926 13
1 2084.87 1898.19 1913.4 0 0 0 175436 12
1 2193.49 1793.8 1877.86 0 0 0 193085 11
1 2125.02 1909.97 2170.96 0 0 0 155139 11
1 1889.85 1885.05 1761.1 0 0 0 285508 14
1 2136.57 2103.86 1780.81 -1 0 -1 193172 14
1 2167.57 1926.73 2258.04 0 -1 -1 132274 14
1 2256.01 1804.37 1999.66 -1 0 0 153211 13
1 1748.12 1866.42 2256.28 1 0 -1 207799 12
1 1824.57 1952.38 2081.29 -1 -1 -1 120499 13
1 2080.06 1953.26 2017.55 -1 0 0 139278 12
1 1934.59 1982.48 1997.44 0 0 0 154965 16
1 1992.7 2183.92 2117.86 0 -1 0 194156 11
1 2284.64 1938.03 1797.38 -1 0 -1 183247 10
1 1956.59 2017.5 2069.42 0 0 -1 198976 16
1 2187.93 2049.15 1899.94 -2 0 0 177211 14
1 1976.2 1952.45 2015.41 0 -1 -1 127667 12
1 2127.29 1946.16 2211.29 -1 0 -1 170320 12
1 2241 1892.61 2031.62 -2 -1 0 169183 13
1 1809.9 2269.68 1874.61 0 0 0 165590 13
1 1772.22 2075.08 1857.15 0 -1 -1 163056 12
1 1882.66 1959.62 2207.03 -1 0 0 161461 13
1 2155.88 1833 1997.85 -1 1 -1 157482 14
1 1934 1947.26 2048.17 0 0 0 140694 15
1 2248.73 2188.86 1867.79 -1 -1 0 172319 14
1 2158.36 1842.02 1723.12 0 0 0 145980 12
1 2176.08 2214.68 1839.19 0 -1 -1 157911 12
1 1823.83 1972.25 1711.39 0 0 0 246022 10
1 1958.11 1708.63 1959.04 0 0 0 149126 12
1 2165.19 1875.07 2248.17 0 0 -1 157313 10
1 2107.55 1855.71 2045.19 0 0 0 132305 16
1 1710.88 1938.41 2161.43 1 -1 0 193629 13
1 2159.04 1832.65 1876.14 0 0 1 196364 14
1 1875.11 1772.13 1750.41 0 1 0 174206 12
1 1923.22 1978.28 2176.27 0 0 -1 166429 14
1 2222.84 2014.27 1833.68 -1 0 -1 162119 15
1 1812.2 1900.96 2078.24 0 -1 -1 120757 12
1 2201.18 1836.42 1911.71 0 0 -1 211790 14
1 2130.12 1734.93 1900.77 0 0 0 185705 13
1 2298.46 2191.99 1888.43 0 0 0 190901 14
1 2093.56 1987.63 2238.2 0 -1 -1 233644 13
1 1814.24 2011.01 2072.71 1 0 -1 134104 14
1 2024.96 1798.67 2082.14 0 0 0 147383 13
1 2130.73 2178.75 1748.87 0 -1 0 166119 17
1 2187.13 1972.29 2274.88 0 -1 -1 147342 14
1 2123.5 1764.54 1945.34 0 0 0 137003 13
1 1934.11 2259.16 1968.9 0 -1 0 153016 14
1 2104.35 1970.26 1850.22 0 0 0 165610 15
1 1858.76 1884.96 1923.41 0 0 0 239680 11
1 2074.8 2046.44 1744.79 -1 -1 0 200730 10
1 1882.58 2010.98 2168.16 1 0 -1 166484 14
1 2038.62 1716.76 1729.34 0 0 0 209595 11
1 2170.34 1939.81 2165.24 0 -1 -1 148711 14
1 2251.99 2208.36 2072.19 0 -1 0 252332 11
1 2194.67 1947.34 1899.58 -1 0 -1 164152 13
1 2126.43 2188.46 2095.02 0 0 0 210092 13
1 1801.94 1848 2078.3 1 0 -1 148906 15
1 1999.95 1873.68 1950.47 1 0 0 153504 14
1 1970.16 2297.69 2012.17 1 -2 -1 135142 13
1 1710.89 1781.53 2265.36 1 0 -1 218867 10
1 1863.5 1894.86 2153.06 0 0 0 121516 13
1 1998.81 1722.98 1927.36 0 0 0 148444 15
1 1920.12 1935.07 2108.27 0 0 0 136866 15
1 2001.02 1809.83 2172.72 0 0 0 185198 15
1 2267.26 2036.98 2248.5 -1 -1 -1 235147 13
1 2158.44 1840.74 1945.08 0 -1 -1 148541 13
1 1828.14 1747.59 1856.68 0 0 0 194455 13
1 2127.47 1910.9 1842.79 -1 -1 -1 191900 14
1 1817.17 1874.12 2031.51 0 0 -1 151315 13
1 2269.39 1994.93 2074.16 0 0 0 176340 12
1 1850.77 1982.34 2046.07 -1 0 1 117917 12
1 1980.35 1827.72 2125.47 1 0 -1 183227 16
1 1886.72 2013.72 2023.3 1 0 -1 150777 16
1 2029.33 1863.33 1876.72 -1 0 -1 172818 14
1 2024.46 2254.98 1951.76 0 -1 1 174061 15
1 2220.45 2147.91 1895.67 -1 -1 0 180999 13
1 1908.05 1804.09 1777.72 1 -1 0 213143 13
1 1801.12 1706.16 1834.54 0 1 0 167817 15
1 2190.03 2239.5 1793.51 0 -1 0 159244 12
1 2000.1 1824.1 1895.81 0 0 0 162183 12
1 1843.72 2119.9 1936.82 1 -1 0 152502 12
1 1792.07 2048.24 2040.13 1 0 0 164921 14
1 2200.47 2278.23 1907.4 0 -1 0 211511 13
1 2297.07 2253.01 1769.78 0 -1 0 229219 13
1 2101.54 1704.27 1934.18 0 1 0 155927 14
1 2058.45 1774.05 2116.95 0 0 -1 165658 11
1 2069.63 1968.96 1967.28 0 0 0 148227 13
1 1731.43 2052.57 1831.27 0 0 0 164538 13
1 2002.81 1767.04 2045.38 0 0 -1 156015 14
1 2024.66 1996.6 1961.7 1 0 0 140620 13
1 1968.69 1927.99 2084.34 0 0 -1 119871 14
1 2057.67 1897.61 2165.81 -1 1 0 149321 12
1 2100.79 1918.91 1710.43 0 0 1 159962 13
1 1812.54 2072.73 1726.11 0 0 0 226578 14
1 1864.52 2030.91 2068.47 1 0 0 173892 12
1 1712.49 1797.89 2023.97 0 0 -1 192741 13
1 1933.42 1760.67 2217.57 0 0 0 228629 12
1 1847.03 2088.48 1892.27 1 -1 0 178846 12
1 1789.2 2158.12 2143.47 0 0 0 207367 12
1 1877.53 1748.01 2072.39 1 0 0 171384 13
1 2151.61 1857.69 2073.96 1 1 0 134788 11
1 2141.57 1772.2 2170.53 0 0 0 198074 12
1 2172.17 1753.17 2132.71 0 0 -1 217425 12
1 2262.91 1979.87 1823.6 0 -1 0 165773 14
1 2068.98 1824.92 2067.59 0 0 0 143779 13
1 1906.34 1985.74 2126.06 0 0 0 146896 13
1 2162.35 2098.08 1855.37 0 -1 0 159183 13
1 1950.24 1761.23 1856.85 0 0 0 144565 12
1 1758.65 2090.9 1905.55 1 -1 0 136055 14
1 2193.81 1881.07 1722.03 0 -1 0 147491 14
1 1948.24 2136.86 2048.2 0 -1 0 193316 12
1 2072.33 1941.19 2071.92 0 0 0 142652 13
1 1949.67 2157.26 1950.44 0 -1 0 243991 12
1 2067.22 2167.28 1809.76 0 0 0 166024 13
1 2152.52 1951.86 1867.11 0 0 0 127229 13
1 1854.28 2135.8 1792.3 0 -1 0 165406 13
1 2096.85 1889.22 2129.79 -1 1 0 138076 12
1 2265.74 2118.24 1810.07 -1 0 0 139592 13
1 1805.11 2203.6 1975.97 -1 0 0 184404 12
1 2117.85 1713.29 2057.85 0 0 -1 208356 12
1 2100.7 2054.04 2176.12 -1 0 -1 236643 13
1 2263.58 1938.06 2190.36 -1 0 0 173396 11
1 1753.73 2090.49 1984.95 0 0 -1 174668 15
1 2195.76 1846.47 1762.58 -1 0 1 201006 12
1 1751.34 1964.85 2138.15 0 0 -1 182838 14
1 2258.26 1840.81 1924.8 -1 0 -1 221403 12
1 1892.62 1741.03 2255.04 0 0 -1 226837 12
1 2218.94 1999.88 2091.37 -1 0 -1 187617 10
1 1967.38 2046.66 2014.27 -1 0 -1 209276 14
1 2100.84 1986.92 1927.81 -1 1 0 138484 10
1 2075.84 1710.1 1887.22 0 1 0 150857 13
1 2236.15 2040.87 1981.08 -1 0 0 221027 13
1 1718.42 2098.83 1807.16 1 -1 0 156415 15
1 1873.91 1703.99 1803.34 1 1 0 209535 15
1 2285.71 2107.94 1762.86 -1 0 0 151327 12
1 1806.45 2218.85 1859.57 0 0 1 160700 13
1 1821.1 2281.06 1772.68 0 0 0 240833 14
1 2068.39 1948.7 1742.32 -1 0 0 180546 13
1 2244.83 2167.46 1814.52 0 -1 0 147549 13
1 2168.63 1767.62 1916.46 -1 1 0 187213 14
1 2012.06 1895.68 2086.47 -1 0 -1 146899 15
1 1884.37 1947.14 2068.82 -1 0 0 132310 15
1 2109.72 2064.18 1708.29 -1 0 0 243090 14
1 2218.41 1918.82 2211.13 -1 0 -1 145549 13
1 1746.68 1964.46 2028.3 0 0 0 135403 13
1 1750.5 1922.93 1962.45 0 0 0 195486 12
1 2177.52 1809.9 2157.12 0 1 0 194845 11
1 1733.9 2258.59 2250.79 1 0 -1 221016 12
1 1805.22 1882.93 2249.25 0 0 -1 187360 11
1 2245.07 1959.33 1879.74 -1 0 0 171987 15
1 1719.27 1963.29 1981.1 1 0 0 161035 15
1 2200.6 1969.36 1851.43 0 0 0 135868 14
1 2017.66 1947.37 1943.12 0 0 -1 131646 12
1 1804.02 2059.96 1903.61 -1 0 0 177899 14
1 1920.72 1991.99 1946.56 0 -1 -1 178137 11
1 2216.12 2024.2 2295.42 -1 0 -1 169594 14
1 1750.4 2171.61 1805.68 0 0 0 157086 12
1 2118.71 2163.09 1797.57 0 0 0 151567 11
1 2028.41 1959.52 2001.35 0 -1 -1 152991 16
1 1758.25 2195.93 1854.35 0 0 0 176530 12
1 1794.64 2137.09 2094.04 0 0 -1 214461 13
1 2265.31 1776.97 2043.39 -1 0 0 216277 13
1 1907.29 2231.39 1907.88 0 0 -1 188428 12
1 2087.6 1899.96 1759.88 -1 1 0 137379 12
1 1835.71 1986.65 2173.99 0 0 -1 162035 12
1 2098.55 1763.25 1787.65 -1 0 0 210762 14
1 2196.34 2185.86 1798.31 -1 0 0 137028 13
1 1842.18 2066.76 1941.86 0 0 0 166539 12
1 1889.01 2145.84 2258.49 0 0 -1 216089 13
1 2029.77 2162.29 1771.8 0 0 0 186681 12
1 2244.29 2214.35 1947.08 -1 -1 -1 219585 15
1 2058.9 1958.21 1910.75 0 0 -1 154993 16
1 2288.35 2287.33 1928.26 -1 -1 -1 210260 14
1 1951.35 2252.92 2033.6 0 0 0 169373 14
1 1854.91 2079.06 1790.2 0 0 0 200546 11
1 1931.49 1939.82 1943.87 0 0 -1 161831 12
1 1712.58 2022.23 2053.48 1 0 0 169942 13
1 2178.8 2206.85 1752.05 0 0 1 153033 11
1 1952.48 1892.43 2121.91 0 1 0 145834 14
1 1922.14 1771.02 1902.59 0 0 0 167057 12
1 2007.84 2284.5 2293.78 -1 0 0 201622 12
1 2169.04 1862.63 2162.83 0 0 0 167263 13
1 1762.82 1725.18 1867.92 0 1 -1 198231 14
1 2093.06 1988.42 2056.37 0 0 -1 158188 12
1 1892.51 1771.88 2132.35 0 0 -1 195903 14
1 2142.46 2115.07 2246.04 0 0 -1 186108 12
1 2106.02 1855.43 1937.27 -1 1 0 151923 14
1 1845.36 2143.6 1889.88 0 0 0 151976 12
1 1921.32 2111.81 2146.84 0 0 -1 200518 13
1 1980.24 1765.67 2193.65 -1 1 -1 197133 13
1 1784.99 2112.59 2206.32 0 0 -1 201282 12
1 1962.84 1757.45 2143.75 0 1 0 174918 14
1 1705.29 2096.55 1960.61 0 0 0 161559 10
1 1731.59 1910.39 1786.49 0 0 0 235192 12
1 2048.8 1750.93 1769.03 -1 0 0 202175 12
1 2237.74 2179.93 2115.37 -1 0 0 244842 12
1 2286.72 1836.19 1969.44 0 1 0 189879 13
1 2188.76 1923.78 2118.47 -1 1 -1 146243 12
1 2241.14 2140.04 1766.95 -1 0 0 160485 14
1 2231.73 1705.37 1944.09 -1 1 0 195711 12
1 1934.7 2075.44 2218.3 0 0 0 220141 13
1 2194 2264.32 1847.84 -1 -1 1 211004 12
1 2043.96 1925.48 2208.97 0 -1 0 186806 13
1 2234.81 1964.9 1727.66 -1 0 0 183021 13
1 1932.29 1846.38 2289.5 0 0 0 255827 12
1 2023.43 2294.59 1885.37 -1 -1 0 150559 15
1 1928.81 2040.57 1730.57 0 0 1 187079 13
1 2205.19 2206.02 1705.24 0 -1 1 206810 14
1 2228.67 2218.09 1826.53 0 0 0 172032 13
1 2247.17 1929.02 1834.7 0 0 1 197837 12
1 1874.54 1998.26 1973.07 0 0 1 163440 12
1 1819.5 1708.66 2168.73 0 0 0 174854 13
1 2249.18 1955.76 2005.23 -1 -1 1 192337 13
1 2108.08 1944.04 1895.77 0 0 0 142128 12
1 2151.61 1946.39 1709.63 -1 0 1 140415 15
1 2253.57 2183.23 2243.25 -1 0 0 194115 10
1 1844.76 2097.88 1985.27 0 0 0 140926 12
1 1943.96 2055.48 2266.53 0 0 -1 164816 10
1 1959.81 1984.65 1728.94 -1 0 1 198890 14
1 2292.04 1979.55 2026.75 -1 -1 0 136022 12
1 2202.71 2170.09 1848.57 -1 -1 0 131045 11
1 1972.72 1868.61 1996.73 -1 -1 -1 137908 13
1 2110.67 1862 1991.19 -2 0 1 146953 14
1 1972.06 1974.24 1950.88 -1 0 1 149476 15
1 1888.33 2235.76 1957.87 0 -1 -1 164302 13
1 1734.92 2145.69 2116.65 0 -1 0 252109 13
1 1851.88 1707.84 2253.38 0 -1 0 194434 11
1 2062.58 1877.29 2077.57 -1 0 0 136178 14
1 2126.48 1809.23 2064.93 0 0 0 139433 12
1 2237.58 1850.89 1715.59 -1 0 1 171817 13
1 1713.7 1942.34 1928.77 0 -1 0 197236 11
1 2158.91 2144.86 1828.78 -1 -1 0 167554 13
1 1749.28 2148.03 2065.32 0 -1 0 209495 11
1 1806.58 2114.9 1867.13 -1 -1 1 144303 13
1 1855.4 1810.17 1783.27 0 0 1 200554 11
1 1871.93 2278.3 1985.57 0 -1 0 144147 12
1 1788.65 2133.41 1914.62 0 -1 1 141238 14
1 1990.74 1978.63 2169.37 -1 -1 0 188555 15
1 1806.06 1733.99 2122.31 0 0 0 197047 12
1 1848.86 2275.52 2202.06 0 -1 0 210305 13
1 2000.37 1916.13 2239.5 -1 0 -1 195107 10
1 2262.55 1733.06 1910.7 -1 -1 0 220004 13
1 2036.79 1797.09 1792.2 0 0 1 187950 12
1 2167.39 2003.43 1878.1 -1 0 0 134263 16
1 2048.85 2239.33 1793.36 0 -1 1 155381 15
1 1784.39 1879.69 2118.02 0 0 0 127864 13
1 2009 1702.31 1975.73 0 0 0 133389 12
1 2164.37 2017.97 2284.89 -1 0 -1 168837 12
1 2057.98 1852.38 1719.68 -1 0 0 225899 14
1 1866.06 2127.31 2023.43 0 0 0 192464 13
1 2136.99 1836.93 1816.94 0 0 1 216373 13
1 2030.87 2247.52 2239.49 -1 -1 -1 200123 13
1 2288.03 2128.61 2224.77 -1 -1 -1 232480 12
1 2042.05 2263.03 1745.15 0 0 1 150425 13
1 1882.44 2199.69 1872.45 0 0 0 184357 11
1 1870.93 1754.91 1898.45 0 0 0 199528 11
1 1871.34 2292.01 2073.72 0 -1 0 192256 10
1 1979.3 2259.53 2248.26 -1 0 0 200447 13
1 1768.28 1882.74 2054.07 0 -1 0 146471 14
1 2059.79 1967.63 2124.29 -1 0 0 185414 12
1 2232.66 2127.04 1849.6 -1 -1 1 142141 14
1 2256.13 2040.51 1866.03 -1 0 1 154034 13
1 2181.06 2044.38 1847.58 0 -1 0 132067 11
1 1757.57 1993.75 2237.22 0 0 0 208640 13
1 2128.96 1831.65 2145.09 0 -1 1 150882 13
1 2100.87 2089.32 2135.37 -1 0 0 189402 13
1 1952.74 2183.86 2073.63 -1 -1 0 187953 14
1 1928.04 2117.42 2093.64 0 -1 0 195456 14
1 2004.95 1995.89 1912.54 0 0 0 191595 13
1 2186.9 1990.62 1727.57 0 0 1 135885 12
1 1994.99 1724.88 1816.92 0 -1 0 181499 15
1 1976.79 1706.04 2065.71 0 0 0 187030 15
1 2249.28 2132.79 2260.14 -1 0 0 174995 13
1 2190.89 2103.82 1899.87 -1 -1 1 175356 11
1 1859.27 2247.73 1879.9 0 -1 0 167391 13
1 1906.59 1996.47 2071.5 -1 0 0 154435 14
1 2255.1 1864.63 2264.27 -1 0 -1 167825 10
1 2014.07 1886.44 2025.87 0 0 0 145488 16
1 1922.28 2286.62 1784.3 0 -1 0 180689 11
1 1966.54 2066.71 1796.69 0 0 0 251487 14
1 1866.94 1801.04 2169.57 0 -1 -1 189688 12
1 1753.53 2206.53 1989.19 0 -1 0 190091 11
1 1880.3 2140.37 2167.44 0 -1 0 213307 13
1 2015.27 1947.98 2100.6 -1 -1 0 133888 14
1 2080.12 1778.18 1983.81 0 0 0 142149 12
1 1746.49 1742.12 2183.83 0 1 0 205897 14
1 2169.1 1900.02 2201.14 -1 0 0 151321 14
1 1847.57 1929.5 2032.6 -1 0 1 138859 15
1 2167.66 2148.92 1882.11 0 0 1 199452 13
1 2202.19 1929.47 1703.36 0 0 0 129350 12
1 2133.62 2013.41 1837.39 -1 0 0 138930 15
1 2107.55 2105.64 2207.42 0 0 -1 180869 12
1 1729.86 2146.65 1889.2 1 0 0 145006 13
1 2271.58 2090.86 1855.44 -1 0 0 148552 14
1 2153.41 1981.64 1768.44 0 0 0 161565 12
1 1744.52 1913.03 2015.57 0 1 0 172992 17
1 2205.07 2112.73 2280.53 0 0 -1 162936 14
1 1941.01 2210.84 1945.07 -1 -1 0 189156 12
1 2100.25 1930.45 1801.54 -1 0 0 148294 12
1 2185.59 1943.41 1751.41 0 0 0 150220 13
1 1816.47 2074.98 2184.34 1 0 0 198798 11
1 1836.56 1953.72 2133.65 1 0 0 125963 13
1 2218.95 2077.73 1862.78 -1 0 0 154632 14
1 2165.73 2148.98 1775.54 0 0 -1 152799 12
1 1989.06 2210.84 2266.41 0 -1 -1 177808 12
1 2130.2 2163.37 2265.17 0 0 -1 220245 14
1 1780.38 1763.13 1836.88 0 1 0 195655 13
1 2052.8 2281.7 1842.61 0 0 0 169018 13
1 2185.44 1913.32 1847.39 0 0 0 202654 15
1 2276.83 2143.05 1872.63 0 0 0 145671 13
1 1786.46 1828.2 2132.49 1 0 0 197604 14
1 2011.02 1948.66 1889.88 0 0 0 143326 12
1 1715.28 1978.71 2265.24 0 0 -1 209492 12
1 1846.17 1914.61 2233.28 0 0 -1 163016 13
1 1850.89 2224.76 1994.45 1 0 -1 173154 14
1 1777.97 2175.18 1701.83 0 0 0 173769 13
1 1889.03 1953.71 2000.27 0 0 0 148496 15
1 2051.41 2076.3 2086.16 1 0 0 213405 13
1 2117.44 1812.95 1966.89 0 1 -1 118202 12
1 1805.66 2061.02 1989.4 0 0 0 147763 12
1 2075.01 2197.48 2083.84 0 0 0 176200 12
1 2032.2 1791.32 2212.9 0 1 0 217652 11
1 1891.63 2189.25 2001.4 0 0 0 203746 15
1 1861.24 1986.32 2098.28 0 1 -1 144275 16
1 2113.08 1895.27 2079.67 0 0 0 131647 13
1 2036.84 1825.96 1837.75 0 1 1 185128 14
1 1769.94 2091.83 2296.75 0 0 -1 198324 11
1 2145.95 2108.6 2114.39 0 0 -1 234664 13
1 2072.68 1747.96 1941.92 0 0 0 131800 13
1 2036.66 2123.85 1809.6 0 0 0 248173 13
1 2044.36 2163.72 2118.93 0 0 -1 163684 12
1 1877.59 1844.56 2089.88 1 0 0 134826 12
1 1831.65 2233.68 2175.58 0 0 0 225556 14
1 1783.95 1702.62 1910.46 1 1 0 184959 14
1 1709.93 2074.73 2009.4 0 0 0 198226 12
1 1722.44 2030.8 2257.67 1 0 0 216543 12
1 2195.5 2245.19 2266.76 0 0 -2 223592 10
1 1753.24 1812.81 2260.24 1 0 -1 205659 12
1 2096.42 1862.39 2174.89 0 0 0 170940 13
1 2192.15 2208.09 1971.56 0 -1 -1 211284 11
1 1871.89 1777.27 2027.54 1 0 -1 158437 13
1 1740.9 1864.83 2144.42 1 0 0 199448 14
1 2102.9 2014.09 1881.69 0 1 0 160322 15
1 1840.86 1845.46 2259.22 0 0 -1 202456 15
1 2262.67 1893.54 2081.89 -1 1 0 205339 16
1 2071.45 2007.04 2010.88 0 0 0 173359 13
1 1827.45 1781.27 1727.18 1 0 0 207894 13
1 1977.94 2045.17 1748.6 0 0 0 187516 11
1 2027.15 1902.95 1913.3 0 0 0 141500 13
1 2126.4 2229.14 1992.44 0 0 -1 215889 12
1 2001.15 1790.82 1855.04 1 1 0 165748 13
1 1836.51 1868.29 2114.27 0 0 -1 132852 14
1 1916.23 1719.04 1863.12 1 0 0 169178 14
1 2094.61 2211.95 1800.81 0 -1 -1 134261 13
1 2212.44 2159.46 2064.82 0 -1 0 234468 12
1 1986.67 2037.28 2292.97 0 1 0 171467 12
1 1795.97 1915.66 2207.81 0 0 -1 166635 13
1 1896.26 1799.03 2070.21 0 1 0 160461 13
1 1842.16 1725.83 1950.46 0 1 0 175992 13
1 2024.93 2113.42 2115.15 -1 0 -1 176719 11
1 1802.05 2077.3 2083.38 0 0 0 198011 12
1 1790.11 1932.52 2118.39 1 0 -1 125371 14
1 1922.43 2103.79 2261.58 0 0 -1 184874 12
1 2131.93 2291.63 2010.85 0 0 0 220247 14
1 1957.46 1760.88 1948.28 0 1 0 170859 13
1 2201.39 2160.47 1736.35 -1 0 1 182965 15
1 2256.4 1943.46 1930.48 -1 0 -1 203823 14
1 1898.42 1910.41 2031.49 0 0 0 118593 12
1 1972.21 1803.86 2072.28 0 1 0 141482 14
1 1757.35 2117.85 2252.14 0 0 -1 197511 13
1 1922.03 2196.62 1750.71 0 0 0 190633 12
1 1925.9 1956.76 1759.36 0 0 0 223355 10
1 2072.25 2212.85 1713.56 0 0 0 168381 12
1 2045.47 1903.45 1727.41 0 1 0 200324 12
1 1798.22 2106.55 1960.72 1 0 1 135571 14
1 2011.26 2271.46 2173.28 0 -1 0 219034 12
1 1979.26 1753.19 2092.15 1 0 1 140920 11
1 1870.62 1768.79 2295.06 0 0 0 205538 11
1 1985.86 1912.35 2187.74 0 0 -1 163661 15
1 2023.78 2219.73 1998.97 0 -1 0 180133 12
1 1866.82 1874.64 2008.26 0 0 0 139726 13
1 1978.79 1914.15 1867.62 0 0 0 170603 12
1 2089.98 1778.26 2160.38 1 0 0 191082 14
1 2120.02 1920.13 1998.56 0 1 0 169291 15
1 2108.98 1936.6 1948.2 -1 -1 0 157601 14
1 1842.61 2066.14 2033.95 0 0 0 165539 13
1 2046.37 1807.25 2012.75 0 0 0 151833 14
1 1990.76 1747.61 1996.72 0 0 0 152348 14
1 1902.97 1857.59 2045.25 0 0 0 122752 14
1 2272.72 2034.55 2018.46 -1 -1 0 175135 13
1 1837.4 2265.22 1822.6 0 -1 0 163230 12
1 2023.19 2233.73 1703.85 0 -1 1 163068 14
1 1946.18 2004.53 2278.72 0 0 -1 186823 13
1 2144.88 1993.68 2066.32 0 -1 0 212339 12
1 2147.51 1893.99 2295.1 0 0 0 145794 16
1 2091.67 1877.34 1809.35 0 0 0 188026 14
1 1859.01 2259.54 2034.01 0 -1 0 194317 13
1 2131.57 1806.65 1913.46 1 -1 0 148729 14
1 2009.82 1896.4 2140.87 -1 -1 -1 148566 13
1 1857.55 1916.35 2103.47 0 0 0 130083 15
1 2106.14 1846.14 2098.84 0 0 0 127936 13
1 2017.59 2197.6 2222.59 0 0 -1 197561 13
1 1997.08 1739.97 1869.06 0 1 0 128945 11
1 2245.47 2122.64 1716.31 0 0 1 135288 11
1 2247.33 1901.75 1704.63 0 0 1 174340 13
1 2296.89 1777.46 1975.92 0 0 0 185907 13
1 1888.22 1908.39 1971.29 0 -1 0 161774 14
1 2193.47 1869.99 2041.57 -1 -1 0 178765 16
1 2232.15 1963.37 2055.04 0 -1 0 154709 12
1 2119.48 1944.69 1753.23 -1 -1 1 153439 13
1 1964.82 1904.79 2035.24 0 0 0 129161 15
1 1820.68 1790.1 2034.72 0 1 0 187107 11
1 1910.58 2287.61 2037.95 0 -1 0 165960 14
1 1986.62 2222.56 2060.43 1 0 0 176361 14
1 1903.6 2241.46 2009.68 0 -1 0 150173 14
1 1990.59 1714.69 2128.6 0 1 0 179393 13
1 1727 1893.48 2198.71 1 -1 0 189793 14
1 2010.64 2293.87 2221.47 0 -1 0 220721 13
1 2054.66 2011.59 1920.52 0 0 1 182072 11
1 1793.57 2123.46 1736.74 1 -1 0 157607 12
1 1757.18 2222.29 2282.58 1 -1 -1 200977 11
1 1769.14 1720.48 1763.58 1 0 0 227418 13
1 1919.7 1873.41 1997.36 0 0 0 128063 13
1 1776.03 2180.9 2029.76 0 -1 0 205449 12
1 1707.96 1934.58 2225.62 1 0 -1 157618 12
1 1976.25 1922.09 1921.07 0 0 0 134278 12
1 1936.34 1926.7 2171.69 0 0 0 154599 14
1 2004.05 2020.99 2044.85 0 -1 0 153495 13
1 2234.64 2069.6 2274.21 0 0 -1 168869 13
1 1798.73 1978.74 2032.32 0 0 -1 127181 13
1 2297.76 2012.22 1848.38 -1 0 0 187709 11
1 2159.67 1811.96 2106.18 0 0 0 161217 15
1 2202.98 1796.87 2004.51 0 0 0 182205 12
1 1835.83 2185.97 1784.41 0 -1 0 172413 13
1 1876.94 2167.66 1755.11 1 0 0 166165 12
1 2007 2214.84 1873.97 0 -1 0 228356 12
1 1842.45 1933.95 2183.98 1 0 0 121377 12
1 1778.16 2164.58 2236.75 0 -1 0 166478 11
1 1758.95 1766.36 1788.78 0 0 0 196835 13
1 2175.58 1819.69 2045.3 0 0 0 156184 13
1 2184.19 1959.87 2078.62 0 0 0 150699 12
1 2288.57 2158.25 1782.25 0 -1 0 151167 13
1 2094.76 2249.87 1838.28 0 -1 0 172582 12
1 1943.52 2087.65 1710.75 0 0 1 193556 14
1 2089.21 2044.3 1838.01 0 -1 0 191230 11
1 2296.79 1899.88 2267.83 -1 0 0 198750 14
1 2068.54 2248.08 2100.83 0 -1 0 168985 13
1 2290.54 2147.38 1728.1 -1 -1 1 166641 12
1 2007.87 2261.68 2031.13 0 -1 0 136431 13
1 2157.16 2242.11 1950.36 0 -1 0 186925 12
1 1831.37 1838.84 2158.74 1 0 0 150960 13
1 2143.1 1762.32 2088.84 0 0 0 187312 12
1 2287.58 2045.78 1968.55 0 0 0 160253 13
1 2138.79 2024.6 1920.02 0 0 0 195843 12
1 2189.04 1976.72 2129.98 -1 -1 -1 192577 11
1 2212.86 1896.89 2259.88 -1 0 0 144914 15
1 2147.21 2207.6 1795 0 -2 0 129555 13
1 2086.3 1809.91 1810.95 0 0 1 177275 14
1 1859.06 1731.08 2121.56 1 1 0 206974 13
1 2026.73 2034.24 1998.46 -1 0 0 165767 12
1 2053.04 1855.92 1924.77 0 0 0 156312 14
1 2022.79 1933.7 2049.08 0 0 0 140742 16
1 1763.1 2142.12 1848.38 0 0 0 142807 14
1 1787.06 1830.21 2030.26 -1 0 0 172460 12
1 2049.59 1925.81 1786.96 0 0 1 165421 11
1 1707.11 2102.78 1907.6 0 0 0 140135 11
1 1833.2 1754.65 1995.94 -1 0 0 182616 12
1 1995.94 1988.69 2271.81 -1 0 0 183543 10
1 1805.11 2202.75 2211.94 0 0 0 177259 11
1 1800.52 2168.41 1875.82 0 0 0 132092 12
1 1762.56 2006.67 2059.67 0 0 0 139706 13
1 2108.43 1842.43 1771.69 0 0 0 161882 14
1 1740.79 2130.85 1939.48 0 0 0 165954 16
1 2080.33 1809.07 1927.23 -1 0 0 139047 13
1 1831.67 2123.39 2151.01 0 -1 0 182775 13
1 2018.54 1717.02 2032.02 -2 0 0 153061 12
1 1838.32 1877.07 2196.8 0 0 -1 136501 13
1 1745.15 1884.34 1740.83 0 0 1 247493 13
1 2142.74 1959.26 1815.16 0 1 0 144922 15
1 2146.51 1985.64 2243.27 -1 0 0 157983 12
1 2282.85 1779.32 1724.77 -1 1 0 259647 15
1 2209.43 1737.5 2276.74 -1 1 0 281384 15
1 1935.37 1781.58 2102.9 0 1 0 155429 12
1 1823.24 2298.43 1993.66 0 0 0 165705 12
1 1794.84 1952.22 2167.93 0 0 0 132225 13
1 2128.64 2154.29 2211.42 -1 0 0 180709 12
1 1752.92 1742.15 2124.39 0 0 0 224801 11
1 2100.94 1811.1 2018.4 0 0 0 146722 13
1 2274.76 1730.03 1963 0 0 0 195746 13
1 2205.76 2091.34 1733.28 0 0 0 179099 14
1 1793.66 1925.6 2034 -1 0 0 141121 13
1 2041.82 2281.81 2131.11 0 0 0 187923 13
1 2145.73 2254.51 1822.42 0 -1 0 166119 12
1 1976.13 1776.95 1900.88 -1 1 0 141602 13
1 2224.19 2031.68 1750.81 0 0 1 196829 14
1 2045.3 1798.2 1887.07 0 1 0 159888 13
1 1828.5 2018.64 2012.8 0 0 1 140531 14
1 1987.43 1973.47 2062.66 0 0 0 132683 13
1 1886.83 1943.77 2155.2 0 0 1 135860 15
1 1985.6 2162.24 2246.11 0 0 0 207478 11
1 1879.61 2136.61 1712.85 0 0 1 186566 12
1 1840.15 1824.42 2209.51 0 0 0 185030 12
1 2255.38 2073.64 1736.39 -2 0 0 185110 13
1 1853.29 1834.48 2042.35 0 0 0 144855 13
1 2031.88 2211.46 1752.02 -1 0 0 133397 12
1 2208.96 2254.53 1953.19 -1 0 0 172099 12
1 1887.02 1872.34 2264.42 0 0 0 214855 13
1 1885.43 1852.96 2195.94 0 1 0 165564 14
1 1749.77 1849.37 2093.04 0 0 0 172648 13
1 2097.77 2234.68 1753.3 -1 0 0 163973 13
1 1815.6 2154.5 2191.36 0 -1 0 200896 15
1 2183.98 2082.86 2240.5 -1 0 -1 204897 11
1 2163.4 1910.19 2073.62 0 0 0 150136 13
1 2022.38 2268.93 2082.34 0 -1 0 144812 12
1 1983.05 1873.64 1901.48 0 0 0 154098 12
1 2250.73 1762.53 1810.08 -1 0 0 240518 11
1 2020.92 2284.19 1789.99 -1 -1 0 162263 13
1 1758.64 1913.73 2159.99 0 0 0 136454 12
1 2076.76 1802.31 1757.79 0 0 1 167424 12
1 1989.61 1917.41 1978.19 0 0 0 141973 15
1 2109.59 1867.6 1723.93 0 0 -1 142688 12
1 1752.58 1954.24 2201.39 0 0 0 170941 13
1 2100.46 2062.7 1787.9 -1 1 1 183549 12
1 1803.95 1809.55 1764.98 0 1 1 223990 12
1 2019.83 2160.78 1994.98 0 -1 0 254225 13
1 1914.76 1712.77 1989.32 0 1 0 172689 16
1 2003.15 1910.13 1818.68 -1 1 0 213017 14
1 2265.05 2280.43 1738.62 -1 0 1 249957 10
1 2020.5 1846.82 1990.19 -1 0 0 145431 13
1 1810.54 1901.13 2158.03 0 1 0 132732 15
1 2295.18 1802.95 1927.63 -1 0 0 205508 13
1 1892.81 1822.95 2006.44 0 1 1 172295 13
1 2252.61 2173.25 2296.56 0 0 -1 183850 13
1 2155.22 1887 1972.75 -1 0 0 183581 13
1 2047.81 1701.86 1932.8 -1 1 0 145835 13
1 1976.3 1938.59 2136.68 0 1 0 133417 14
1 2043.84 1740.22 1990.72 0 0 1 168590 14
1 2034.56 1728.78 2101.1 1 1 0 170871 14
1 2272.04 1850.63 2019.04 -1 1 1 160577 13
1 2115.97 2132.66 2162.68 -1 0 0 159007 13
1 1948.53 1891.33 1955.15 0 1 1 147090 12
1 1915.57 1749.98 1776.19 0 1 0 189925 11
1 1783.29 2155.45 1974.7 0 0 0 159155 12
1 1711.62 2145.66 1830.71 0 0 1 140889 15
1 2104.42 1730.21 1981.28 -1 0 0 172176 13
1 1837.23 1968.19 1996.59 1 0 0 160095 13
1 2055.2 2033.27 2055.31 0 0 0 175697 11
1 2043.41 2067.27 2136.65 0 0 0 211913 12
1 1727.32 2102.81 1858.87 0 0 0 121346 12
1 2176.75 2010.56 1806.66 0 0 0 164470 14
1 1736.5 1841.99 2041.55 1 0 0 162110 13
1 2020.32 1848 2062.87 1 1 1 137402 13
1 1814.47 2196.76 2265.72 0 0 1 215540 14
1 2106.49 2192.88 2182.64 0 0 0 203823 10
1 1837.01 2152.52 1986.35 1 0 0 177280 15
1 2003.49 2260.72 1847.24 0 0 -1 173273 13
1 1975.59 2133.61 2113.66 0 0 0 189760 12
1 2221.49 2222.05 2227.17 0 0 0 232926 11
1 1835.81 1713.72 1898.49 0 1 1 154451 13
1 2143.82 2063.99 1816.75 1 -1 1 151654 11
1 1954 2014.92 2152.81 0 0 0 206601 13
1 2118.05 1946.56 2264.56 0 0 0 156615 12
1 1820.18 2168.5 1938.24 1 0 0 148715 13
1 2105.28 2250.56 1948.59 0 0 0 185507 14
1 2009.98 1965.32 2219.29 0 1 -1 191130 13
1 1928.94 1895.07 2072.75 0 1 0 126549 15
1 1706.13 1886.37 2041.99 0 0 0 165860 12
1 2095.54 2164.74 1710.32 0 -1 1 191081 11
1 1892.09 1907.65 2196.55 0 0 0 155475 13
1 1930.71 1834.24 2092.94 0 0 0 159818 15
1 2132.28 2056.26 1868.53 0 0 1 161084 14
1 1854.74 2264.91 2288.67 1 -1 0 260263 13
1 1774.96 2038.79 1804.83 0 0 0 253630 13
1 1992.57 1957.06 1839.41 1 0 1 200161 12
1 1774.69 2294.37 2196.26 1 0 -1 197008 14
1 2128.87 2285.53 1729.29 0 0 0 218071 13
1 1973.31 1865.1 2164.53 0 1 0 170280 11
1 2064.64 2125.58 2149.61 0 0 1 159502 13
1 1907.88 2056.79 2177.09 0 0 0 191513 12
1 1888.78 1856.28 1957.21 0 1 0 195518 12
1 1753.62 1720.25 1815.21 1 1 0 166703 13
1 2069.18 2289.74 2067.26 0 0 0 179282 14
1 2294.76 1876.7 1762.84 -1 1 0 214231 12
1 2220.12 2006.66 1887.47 -1 0 0 169339 16
1 2007.46 1781.33 2128.83 0 0 0 149241 14
1 1874.16 2090.14 2151.39 0 0 -1 180736 12
1 2110.2 1712.79 1845.93 0 1 1 222896 14
1 2204.2 1811.18 1725.57 -1 0 1 193406 14
1 2035.69 2148.36 2234.7 0 -1 0 206021 11
1 2182.52 2066.33 2290.13 0 0 -1 159697 13
1 1724.4 2057.04 1929.51 0 0 0 165530 13
1 2269.93 1997.24 1980.79 -1 0 0 170415 13
1 2068.88 1834.81 1972.17 0 0 0 133622 12
1 1752.23 1808.99 1931.88 0 1 1 252270 11
1 1702.27 2205.35 1974.36 1 -1 0 217780 12
1 1965.52 2297.45 1854.43 0 0 0 143795 11
1 2024.4 2072.77 1961.49 0 0 0 253756 13
1 2094.44 2173.22 2134.85 0 0 0 169688 14
1 1940.89 1727.24 1816.47 0 1 0 150416 12
1 1708.09 2056.73 1879.03 1 0 1 146733 12
1 2130.07 1846.4 2275.9 0 0 0 178143 12
1 2228.49 1827.99 2040.51 0 0 0 176507 12
1 1943.54 1831.02 2022.45 0 1 1 151541 13
1 2144.15 2254.53 1769.44 0 0 1 164321 14
1 1955.51 2160.79 1771.6 0 0 1 218740 13
1 1954.08 1976.09 2104.27 1 0 0 147731 14
1 1865 2049.08 1987.95 0 0 0 146854 12
1 1845.43 2159.76 1839.61 1 0 1 155661 14
1 1774.14 2061.25 1946.48 1 0 0 154364 12
1 2192.63 1944.28 1804.54 0 0 0 163029 13
1 1860.39 1885.42 2060.43 0 0 0 123235 14
1 2216.27 1916.89 2073.44 0 0 0 146261 11
1 1885.25 2045.6 1761.1 0 0 0 203359 13
1 2053.48 1914.86 2115.22 0 0 0 130729 14
1 1984.45 1938.55 2286.65 0 0 0 218618 14
1 1851.08 2212.94 1829.76 1 0 1 168131 12
1 1899.49 1885.97 2115.02 0 0 0 128010 15
1 1828.53 2167.11 1733.52 1 0 1 170285 13
1 1970.5 2274.38 1806.24 0 0 0 150018 11
1 2126.79 1947.34 2045.07 0 0 -1 165854 12
1 1914.78 2031.91 1982.79 1 0 0 176993 12
1 1796.07 1986.6 2117.58 0 1 0 154378 14
1 2058.47 1857.39 2026.24 0 0 0 126812 13
1 1845.28 2110.84 1745.83 0 0 1 164251 13
1 1981.36 2197.26 1742.75 0 0 1 184282 13
1 2166.59 1791.68 1964.4 0 1 0 170123 13
1 1993.03 2248.4 1760.02 0 -1 0 160762 12
1 1915.01 2139.78 2004.5 -1 1 0 201564 12
1 2039.98 1982.71 2060.54 0 -1 0 145594 13
1 1985.34 2000.53 1996.67 0 0 -1 140775 13
1 2073.09 2151.81 2196 0 0 0 181996 15
1 1814.34 1724.93 2219.93 1 1 0 205947 13
1 2083.25 1944.41 2167.73 0 0 0 188248 15
1 1943.02 2237.66 1778.39 0 -1 0 192253 12
1 2263.38 1979.19 1769.95 0 0 0 191010 13
1 1934.81 1925.05 1995.19 0 0 0 121381 13
1 2161.9 1731.11 1728.28 0 1 1 240093 13
2 2118.78 2049.41 2038.73 -1 -1 -1 352742 17
2 1760.44 2013.09 1880.72 0 0 0 281655 18