ITEM: TIMESTEP
0
ITEM: NUMBER OF ATOMS
1000
ITEM: BOX BOUNDS pp pp pp
-1.0000000000000000e+02 4.1000000000000000e+03
-1.0000000000000000e+02 4.1000000000000000e+03
-1.0000000000000000e+02 4.1000000000000000e+03
ITEM: ATOMS type x y z ix iy iz
1 540.59 314.332 202.211 0 0 0
1 1971.57 1976.66 1929.01 0 0 0
1 1329.88 0 0 0 0 0
1 829.026 889.345 117.704 0 0 0
1 0 0 0 0 0 0
1 875.571 328.934 822.772 0 0 0
1 561.706 855.869 484.374 0 0 0
1 511.334 933.628 40.61 0 0 0
1 606.091 623.213 1004.85 0 0 0
1 830.571 860.452 615.402 0 0 0
1 102.032 227.919 672.487 0 0 0
1 894.549 136.18 988.486 0 0 0
1 796.44 546.297 367.919 0 0 0
1 64.303 55.894 101.211 0 0 0
1 714.711 22.413 603.005 0 0 0
1 455.433 562.486 641.319 0 0 0
1 377.167 953.04 173.343 0 0 0
1 787.543 20.508 899.653 0 0 0
1 0 1140.23 2000 0 0 0
1 435.147 575.084 71.92 0 0 0
1 801.476 97.242 256.97 0 0 0
1 756.223 437.65 275.657 0 0 0
1 294.3 214.446 976.725 0 0 0
1 301.991 259.626 375.214 0 0 0
1 709.151 660.329 379.493 0 0 0
1 300.63 900.909 491.346 0 0 0
1 448.446 462.269 497.409 0 0 0
1 0 764.017 416.469 0 0 0
1 783.785 704.242 47.937 0 0 0
1 415.639 48.142 429.357 0 0 0
1 317.255 0 882.625 0 0 0
1 245.323 661.961 911.549 0 0 0
1 427.885 660.877 533.013 0 0 0
1 880.745 366.321 42.283 0 0 0
1 162.46 964.515 186.019 0 0 0
1 358.182 170.803 810.162 0 0 0
1 202.472 356.052 523.686 0 0 0
1 56.874 967.972 71.927 0 0 0
1 674.348 421.892 759.473 0 0 0
1 879.984 798.587 901.73 0 0 0
1 949.937 295.325 439.063 0 0 0
1 582.886 578.954 314.966 0 0 0
1 161.133 686.49 184.564 0 0 0
1 1015.57 554.873 475.469 0 0 0
1 27.541 487.686 189.569 0 0 0
1 364.855 45.722 303.608 0 0 0
1 235.99 88.565 794.936 0 0 0
1 895.86 62.414 549.332 0 0 0
1 852.367 769.697 282.688 0 0 0
1 912.061 929.616 556.895 0 0 0
1 2000 964.772 901.197 0 0 0
1 2000.33 1044.32 12.385 0 0 0
1 2000 1476.47 1106.96 0 0 0
1 2000 440.059 932.431 0 0 0
1 2000 906.013 765.195 0 0 0
1 2000 30.205 118.152 0 0 0
1 2000.01 31.004 422.287 0 0 0
1 2000 685.266 286.874 0 0 0
1 2000 786.183 22.082 0 0 0
1 2000 489.691 443.136 0 0 0
1 2000 445.984 609.168 0 0 0
1 2000 864.143 313.813 0 0 0
1 2000 498.136 814.486 0 0 0
1 2000 616.298 170.914 0 0 0
1 2000 740.522 138.664 0 0 0
1 2000 631.189 779.057 0 0 0
1 2000 287.912 426.982 0 0 0
1 3514.78 770.1 0 0 0 0
1 2000 652.63 55.483 0 0 0
1 2000 396.163 364.596 0 0 0
1 2000 580.325 921.742 0 0 0
1 2000 258.602 719.545 0 0 0
1 2000 360.837 835.594 0 0 0
1 2000 167.964 451.807 0 0 0
1 2000 66.228 827.371 0 0 0
1 2000 108.944 210.916 0 0 0
1 2000 414.179 244.939 0 0 0
1 2000 356.136 137.842 0 0 0
1 2000 761.479 386.361 0 0 0
1 2000 250.57 199.466 0 0 0
1 2000 534.196 260.34 0 0 0
1 2000 589.653 369.487 0 0 0
1 2000 518.486 27.364 0 0 0
1 2000 134.285 702.781 0 0 0
1 2000 746.706 529.24 0 0 0
1 2000 232.749 319.147 0 0 0
1 2000 268.805 53.169 0 0 0
1 2000 111.355 332.023 0 0 0
1 2000 852.943 188.15 0 0 0
1 2000 153.565 923.273 0 0 0
1 2000 641.862 604.934 0 0 0
1 2000 261.032 596.719 0 0 0
1 2000 545.493 678.108 0 0 0
1 2000 634.491 483.976 0 0 0
1 2000 837.344 609.401 0 0 0
1 2000 411.03 725.344 0 0 0
1 2000 857.609 460.835 0 0 0
1 2000 836.422 907.969 0 0 0
1 2000 359.462 524.578 0 0 0
1 2000 972.284 220.431 0 0 0
1 853.395 3789.49 32.783 0 0 0
1 915.617 3474.26 929.596 0 0 0
1 712.32 3821.2 414.673 0 0 0
1 787.188 3589.94 662.296 0 0 0
1 869.67 3289.41 60.714 0 0 0
1 636.666 3645.25 593.916 0 0 0
1 282.05 3289.59 877.415 0 0 0
1 563.513 3941.47 761.625 0 0 0
1 361.901 3240.51 632.322 0 0 0
1 678.137 3338.3 414.796 0 0 0
1 466.19 3682.14 894.304 0 0 0
1 655.496 2862.98 304.275 0 0 0
1 228.824 2953.87 715.219 0 0 0
1 291.411 3950.37 823.639 0 0 0
1 58.33 3899.61 382.608 0 0 0
1 541.629 3716.02 361.065 0 0 0
1 425.256 3937.48 821.989 0 0 0
1 291.882 3471.21 92.653 0 0 0
1 170.101 2912.6 817.738 0 0 0
1 419.206 3326 243.759 0 0 0
1 91.891 3102.61 874.241 0 0 0
1 884.143 3299.32 637.077 0 0 0
1 241.862 3561.17 744.47 0 0 0
1 604.39 3256.43 865.012 0 0 0
1 723.532 3006.36 901.731 0 0 0
1 908.767 3846.64 593.076 0 0 0
1 512.451 2876.17 896.438 0 0 0
1 599 3187.94 606.549 0 0 0
1 533.665 3409.38 858.037 0 0 0
1 227.566 3712.49 837.788 0 0 0
1 84.404 3393.83 307.905 0 0 0
1 323.883 3739.39 151.672 0 0 0
1 103.322 3922.55 865.557 0 0 0
1 446.018 3254.58 433.861 0 0 0
1 366.27 3812.85 277.223 0 0 0
1 664.162 3696.07 236.722 0 0 0
1 622.557 2886.38 185.034 0 0 0
1 111.028 3066.32 656.579 0 0 0
1 666.847 3802.36 300.707 0 0 0
1 9.09 2938.37 811.891 0 0 0
1 102.595 3698.45 106.374 0 0 0
1 99.052 3369.75 72.645 0 0 0
1 360.415 3102.31 623.049 0 0 0
1 819.638 3149.92 345.876 0 0 0
1 959.147 3663.31 915.479 0 0 0
1 412.413 3966.84 56.814 0 0 0
1 487.846 2984.28 838.438 0 0 0
1 516.611 3513.57 314.382 0 0 0
1 170.881 2878.85 964.69 0 0 0
1 867.707 3177.28 940.18 0 0 0
1 1970.26 1218.4 3890.52 0 0 0
1 508.006 637.884 2000 0 0 0
1 91.346 62.669 3926.06 0 0 0
1 1943.79 1847.67 2136.68 0 0 0
1 664.156 776.009 2000.02 0 0 0
1 80.273 48.271 2190.17 0 0 0
1 1674.44 1549.44 3526.57 0 0 0
1 823.919 431.505 2000 0 0 0
1 50.6 269.59 2004.1 0 0 0
1 17.379 821.478 2000 0 0 0
1 395.019 266.167 2000.02 0 0 0
1 397.572 873.572 2000.24 0 0 0
1 309.512 373.518 2013.92 0 0 0
1 346.673 598.824 2000.41 0 0 0
1 162.039 762.848 2000.01 0 0 0
1 269.566 249.62 2000.19 0 0 0
1 73.481 660.797 2007.19 0 0 0
1 662.601 653.07 2000.1 0 0 0
1 3.524 955.51 2000 0 0 0
1 565.77 0.2 2001.34 0 0 0
1 399.371 692.226 2046.13 0 0 0
1 268.203 65.341 2000 0 0 0
1 73.26 525.452 2004.76 0 0 0
1 837.188 810.243 2000.32 0 0 0
1 1012.5 883.314 2000.19 0 0 0
1 621.069 180.147 2000.18 0 0 0
1 788.966 701.497 2000.32 0 0 0
1 423.356 995.357 2001.58 0 0 0
1 882.628 141.03 2004.49 0 0 0
1 926.719 709.179 2000 0 0 0
1 399.859 468.244 2000.11 0 0 0
1 143.668 395.519 2000.18 0 0 0
1 763.218 1582.27 2891.39 0 0 0
1 837.273 303.474 2000 0 0 0
1 213.58 495.159 2000.27 0 0 0
1 772.583 561.556 2000 0 0 0
1 153.777 899.512 2007.93 0 0 0
1 586.28 312.936 2000.14 0 0 0
1 0.072 408.953 2000.02 0 0 0
1 152.608 191.515 2001.53 0 0 0
1 489.351 79.769 2000.12 0 0 0
1 729.961 100.723 2000.18 0 0 0
1 247.062 992.852 2000.15 0 0 0
1 543.243 820.936 2000.8 0 0 0
1 190.069 636.261 2000.12 0 0 0
1 632.198 974.166 2000.01 0 0 0
1 731.598 886.344 2008.37 0 0 0
1 64.172 108.974 2000.01 0 0 0
1 732.884 240.994 2002.21 0 0 0
1 700.381 458.807 2000 0 0 0
1 2000 2000 1464.6 0 0 0
1 3946.23 3972.21 1940.72 0 0 0
1 2106.25 2256.84 1798.29 0 0 0
1 2016.63 2184.27 244.596 0 0 0
1 2018.96 2261.41 145.03 0 0 0
1 2302.19 2000.04 0.036 0 0 0
1 2285.61 3601.28 0.005 0 0 0
1 2551.98 2208.83 0.029 0 0 0
1 2000.88 3999.77 953 0 0 0
1 2311.38 2000.92 1702.14 0 0 0
1 2474.82 2404.29 1514.33 0 0 0
1 2088.49 2309.84 859.185 0 0 0
1 2472.2 2000.98 665.184 0 0 0
1 2100.78 2811.04 0.002 0 0 0
1 2268.56 2000 348.353 0 0 0
1 3999.49 2000 472.899 0 0 0
1 2080.3 2000 537.635 0 0 0
1 2676.69 2084.86 15.134 0 0 0
1 2118.18 2000 674.886 0 0 0
1 2000.12 2256.83 0.999 0 0 0
1 3975.25 3848.19 1603.61 0 0 0
1 2271.51 2121.97 27.259 0 0 0
1 2000 2125.22 1202.99 0 0 0
1 2192.25 2029.77 36.43 0 0 0
1 2254.28 2382.71 31.767 0 0 0
1 2000 2817.12 353.55 0 0 0
1 2000 2288.75 638.166 0 0 0
1 2107.76 2059.91 419.566 0 0 0
1 2000 2000 958.451 0 0 0
1 2122.87 2269.14 472.82 0 0 0
1 2350.01 2027.53 741.891 0 0 0
1 2750.53 2000 252.24 0 0 0
1 2000 2495.16 251.091 0 0 0
1 2000.11 2105.64 0.028 0 0 0
1 2463.86 2018.83 1.382 0 0 0
1 2317.49 2319.73 137.306 0 0 0
1 2000 2000 762.6 0 0 0
1 2000.08 2002.02 279.893 0 0 0
1 2000 2108.85 595.597 0 0 0
1 2294.35 2000.02 172.712 0 0 0
1 2087.92 2106.78 277.633 0 0 0
1 2001.95 2000 412.428 0 0 0
1 2000.01 2503.08 863.719 0 0 0
1 2164.3 2000 865.199 0 0 0
1 2225.54 2000 590.697 0 0 0
1 2098.98 2104.16 57.097 0 0 0
1 2115.81 2000.08 235.162 0 0 0
1 2277.03 2384.77 406.197 0 0 0
1 2578.78 2178.45 1223.17 0 0 0
1 2000 2126.6 792.612 0 0 0
1 2000 1434.4 2000 0 0 0
1 3769.8 22.786 3973.11 0 0 0
1 2575.63 0.006 2529.15 0 0 0
1 3758.48 114.995 2177.94 0 0 0
1 2058.47 62.711 2069.19 0 0 0
1 2631.19 695.972 2000 0 0 0
1 2000.32 915.977 2004.51 0 0 0
1 2069.28 269.915 2084.66 0 0 0
1 2087.01 1934.58 2006.27 0 0 0
1 2308.49 633.842 2119.02 0 0 0
1 2000 62.097 2927.43 0 0 0
1 2371.94 179.741 2002.64 0 0 0
1 2000 1146.27 2119.56 0 0 0
1 2000.13 357.016 2300.84 0 0 0
1 3159.63 1999.89 2000.13 0 0 0
1 3005.39 213.469 2000 0 0 0
1 2061.53 1899.37 2109.41 0 0 0
1 2040.9 174.673 2001.42 0 0 0
1 2043.86 1281.47 2064.65 0 0 0
1 2002.32 237.021 2184.47 0 0 0
1 2005.02 1004.39 2160.35 0 0 0
1 2000.06 1124.45 2000.12 0 0 0
1 2102.2 493.519 2104.48 0 0 0
1 2000 226.716 2866.61 0 0 0
1 3313.66 1089.72 2214.98 0 0 0
1 2004.44 1665.46 3947.25 0 0 0
1 2000 656.912 2267.51 0 0 0
1 4000 1051.88 2652.54 0 0 0
1 2000 82.607 2373.8 0 0 0
1 2252.34 1138.38 2000 0 0 0
1 2142.26 0.2 2003.5 0 0 0
1 4000 0 2023.75 0 0 0
1 2121.56 1999.71 3033.55 0 0 0
1 2147.85 366.615 2113.39 0 0 0
1 3872.43 62.631 3957.37 0 0 0
1 2127.44 405.953 2000.18 0 0 0
1 2172.24 743.442 2000.17 0 0 0
1 2000.04 375.162 2122.97 0 0 0
1 2075.81 1021.9 2000.21 0 0 0
1 3514.59 1999.99 2000 0 0 0
1 2242.37 475.007 2216.19 0 0 0
1 2040.03 25.635 2270.69 0 0 0
1 2475.16 1177.57 2000 0 0 0
1 2000 809.844 4000 0 0 0
1 2107.97 626.612 2153.43 0 0 0
1 3123.15 0 2000 0 0 0
1 2000 0 3696.97 0 0 0
1 2021.88 0 2492.81 0 0 0
1 2072.36 1932.86 3903.57 0 0 0
1 2084.66 798.712 2153.14 0 0 0
1 16.371 2905.95 3216.35 0 0 0
1 26.442 3140.08 3507.83 0 0 0
1 20.073 2923.5 3653.14 0 0 0
1 78.365 3265.44 3497.56 0 0 0
1 907.151 2985.67 3394.89 0 0 0
1 409.21 2883.2 3881.55 0 0 0
1 57.619 3925.68 3101.16 0 0 0
1 54.062 3241.06 3289.57 0 0 0
1 443.569 3189.72 3453.93 0 0 0
1 903.516 3167.22 3792.92 0 0 0
1 577.507 3782.65 2989.14 0 0 0
1 503.597 3172.74 3590.39 0 0 0
1 347.458 3549.06 3359.42 0 0 0
1 62.508 3185.07 3725.24 0 0 0
1 59.284 3658.27 3369.08 0 0 0
1 424.598 3817.08 3900.3 0 0 0
1 190.295 3746.65 3776.59 0 0 0
1 640.153 3468.82 3300.73 0 0 0
1 431.865 2915.21 3300.65 0 0 0
1 387.377 3165.21 3784.34 0 0 0
1 526.747 2900.86 2934.77 0 0 0
1 682.432 2973.22 3975.3 0 0 0
1 365.371 3751.62 3002.27 0 0 0
1 356.811 3560.1 3655.22 0 0 0
1 588.194 3108.62 3309.46 0 0 0
1 254.922 3524.72 3516.58 0 0 0
1 178.828 3246.77 3641.04 0 0 0
1 40.943 3863.13 3918.7 0 0 0
1 295.907 3653.46 3393.5 0 0 0
1 927.895 3285.83 3694.98 0 0 0
1 671.752 3031.35 3854.66 0 0 0
1 129.755 3788.9 2892.12 0 0 0
1 779.453 3899.55 3615.26 0 0 0
1 551.449 3963.08 3132.77 0 0 0
1 355.646 3352.95 3641.72 0 0 0
1 870.253 3779.5 3664.88 0 0 0
1 415.548 3641.23 2918.27 0 0 0
1 863.794 3325.18 3869.78 0 0 0
1 157.364 3043.55 3542.49 0 0 0
1 551.745 3728.46 3622.45 0 0 0
1 310.486 3521.41 3045.01 0 0 0
1 915.166 2966.42 3080.87 0 0 0
1 102.128 3427.47 3748.3 0 0 0
1 603.518 2962.15 3532.51 0 0 0
1 180.959 3575.16 3740.43 0 0 0
1 534.646 3095.03 3476.89 0 0 0
1 760.205 3322.32 3611.18 0 0 0
1 811.526 3803.66 3034.11 0 0 0
1 734.109 3740.66 3938.45 0 0 0
1 205.867 2978.32 3428.53 0 0 0
1 2000.01 2476.21 2000.04 0 0 0
1 3908.54 3668.95 2164.47 0 0 0
1 2000 2032.56 3391.94 0 0 0
1 2139.73 3961.14 3942.59 0 0 0
1 4000 2886.35 2000 0 0 0
1 4000 3787.65 2587.72 0 0 0
1 2000.01 2653.42 2000 0 0 0
1 2000 2000.01 4000 0 0 0
1 2019.53 2000.44 2188.45 0 0 0
1 2000.01 3722.55 2005.6 0 0 0
1 2000.83 2341.66 2956.42 0 0 0
1 3073.47 3898.04 4000 0 0 0
1 2544.66 2566.55 2000 0 0 0
1 2004.72 2000.1 2508.77 0 0 0
1 2752.18 2000.01 2618.35 0 0 0
1 2000.01 3000.51 4000 0 0 0
1 3995.51 2000.6 2001.85 0 0 0
1 3684.18 2000.02 2000 0 0 0
1 2000.07 2920.91 2000.1 0 0 0
1 3141 2000 2448.68 0 0 0
1 2076.95 2091.15 2009.93 0 0 0
1 2182.35 2009.25 2085.82 0 0 0
1 3963.92 2744.23 2217.11 0 0 0
1 2000.11 2000.13 2644.76 0 0 0
1 2138.09 2000.07 2422.61 0 0 0
1 2000.01 2000 3035.34 0 0 0
1 2081.86 3999.98 2000.08 0 0 0
1 3050.16 3568.35 2000 0 0 0
1 2055.99 2228.83 3999.73 0 0 0
1 2001.11 2001.25 2769.73 0 0 0
1 3826.82 2000.01 2000 0 0 0
1 3997.53 3924.02 3998.99 0 0 0
1 3481.52 2000 2348.4 0 0 0
1 2000 2000.01 3157.19 0 0 0
1 4000 2235.74 4000 0 0 0
1 3037.2 2000 4000 0 0 0
1 2065.3 2981.6 2089.36 0 0 0
1 2000.01 2350.97 3999.99 0 0 0
1 2000 4000 3391.64 0 0 0
1 2000.04 2435.47 2399.21 0 0 0
1 2000.24 3927.33 2055.87 0 0 0
1 3632.11 2000 4000 0 0 0
1 2014.66 3831.43 2000.12 0 0 0
1 2002.25 2267.53 2000.02 0 0 0
1 3276.7 2000.83 2082.1 0 0 0
1 2000 3163.43 3947.09 0 0 0
1 2072.89 2343.71 3916.93 0 0 0
1 3344.11 2049.64 2000.08 0 0 0
1 3869.67 2121.2 2081.26 0 0 0
1 2000 3505.72 2000 0 0 0
2 517.347 701.841 346.359 0 0 0
2 587.507 416.534 922.996 0 0 0
2 82.651 7.877 477.817 0 0 0
2 81.208 133.03 535.798 0 0 0
2 1364.07 1015.47 117.19 0 0 0
2 982.467 837.413 686.894 0 0 0
2 40.902 930.92 306.316 0 0 0
2 506.014 928.153 719.763 0 0 0
2 1147 0 431.756 0 0 0
2 465.685 0 1161.34 0 0 0
2 862.063 184.079 8.398 0 0 0
2 58.588 448.455 910.923 0 0 0
2 164.573 398.456 367.477 0 0 0
2 886.404 654.488 912.875 0 0 0
2 228.778 91.42 628.427 0 0 0
2 455.595 850.82 565.126 0 0 0
2 66.043 379.562 235.29 0 0 0
2 703.334 671.587 201.901 0 0 0
2 282.757 742.18 828.486 0 0 0
2 187.11 681.067 0 0 0 0
2 37.413 498.915 345.526 0 0 0
2 68.785 540.129 788.627 0 0 0
2 40.097 168.775 867.925 0 0 0
2 0 0 2000 0 0 0
2 970.206 497.414 321.784 0 0 0
2 1003.19 1204.81 523.117 0 0 0
2 67.028 821.443 986.435 0 0 0
2 936.633 626.38 220.705 0 0 0
2 577.839 190.751 612.088 0 0 0
2 946.458 47.622 903.004 0 0 0
2 381.23 519.429 179.687 0 0 0
2 763.772 206.312 795.063 0 0 0
2 224.772 341.835 239.41 0 0 0
2 0 454.882 0 0 0 0
2 904.141 160.924 440.842 0 0 0
2 1564.96 1976.11 0 0 0 0
2 601.761 976.056 136.435 0 0 0
2 635.695 522.636 856.891 0 0 0
2 566.662 862.177 322.502 0 0 0
2 688.931 118.117 740.532 0 0 0
2 468.684 420.356 368.835 0 0 0
2 43.73 844.5 551.834 0 0 0
2 854.009 578.58 823.468 0 0 0
2 434.505 43.882 667.844 0 0 0
2 620.957 362.196 356.327 0 0 0
2 131.395 550.122 151.99 0 0 0
2 204.41 805.27 579.318 0 0 0
2 94.612 788.034 683.578 0 0 0
2 441.965 652.117 259.524 0 0 0
2 64.78 14.04 770.504 0 0 0
2 511.699 1240.67 0 0 0 0
2 75.547 833.58 203.424 0 0 0
2 78.458 364.999 454.734 0 0 0
2 557.747 787.78 131.076 0 0 0
2 0 927.031 799.753 0 0 0
2 852.153 794.9 731.408 0 0 0
2 253.059 197.56 207.11 0 0 0
2 245.539 0 146.225 0 0 0
2 276.441 375.976 127.578 0 0 0
2 478.411 459.035 64.133 0 0 0
2 879.755 671.426 726.396 0 0 0
2 189.456 457.59 842.827 0 0 0
2 156.949 866.087 381.517 0 0 0
2 171.346 664.945 466.888 0 0 0
2 1090.67 190.644 433.186 0 0 0
2 777.99 927.234 435.491 0 0 0
2 344.243 346.23 861.172 0 0 0
2 792.937 974.905 568.452 0 0 0
2 447.775 503.058 783.543 0 0 0
2 1686.53 184.064 838.677 0 0 0
2 434.556 1054.92 0 0 0 0
2 480.673 289.57 99.915 0 0 0
2 658.332 226.586 913.678 0 0 0
2 966.676 827.024 353.034 0 0 0
2 549.855 975.68 448.595 0 0 0
2 2256.66 557.236 49.196 0 0 0
2 2000 1163.77 0.008 0 0 0
2 2477.77 324.668 2.792 0 0 0
2 2365.64 443.01 537.9 0 0 0
2 2321.7 242.669 230.549 0 0 0
2 2295.57 453.112 188.939 0 0 0
2 2438.04 777.852 980.261 0 0 0
2 2397.55 752.402 512.52 0 0 0
2 2251.87 607.753 946.855 0 0 0
2 2386.28 459.451 13.776 0 0 0
2 2180.8 304.611 857.889 0 0 0
2 2449.22 944.12 253.784 0 0 0
2 2131.18 450.016 23.453 0 0 0
2 2201.79 788.065 495.15 0 0 0
2 2176.86 959.25 6.124 0 0 0
2 2161.74 451.621 202.163 0 0 0
2 2475.65 460.476 315.12 0 0 0
2 2456.14 197.551 434.185 0 0 0
2 2364.58 788.345 203.762 0 0 0
2 2290.91 934.398 942.05 0 0 0
2 2321.01 340.618 2.297 0 0 0
2 2152.81 265.943 509.231 0 0 0
2 2491.2 630.054 529.484 0 0 0
2 2122.66 810.194 326.248 0 0 0
2 2275.19 592.485 669.012 0 0 0
2 2332.6 808.654 806.573 0 0 0
2 2421.55 319.216 280.405 0 0 0
2 2210.63 444.307 347.907 0 0 0
2 2502.48 430.115 93.241 0 0 0
2 2369.25 47.329 30.979 0 0 0
2 2361.16 448.629 384.041 0 0 0
2 2354.61 551.775 776.6 0 0 0
2 2214.99 287.964 289.987 0 0 0
2 2409.79 987.382 12.27 0 0 0
2 2410.27 907.857 834.849 0 0 0
2 2310.42 312.032 546.273 0 0 0
2 2196.84 846.729 916.528 0 0 0
2 2417 616.564 985.992 0 0 0
2 2320.2 935.775 473.061 0 0 0
2 2428.52 650.375 865.449 0 0 0
2 2376.3 75.701 411.796 0 0 0
2 2211.72 1034.41 193.099 0 0 0
2 2250.97 203.307 423.033 0 0 0
2 2186.62 226.406 618.478 0 0 0
2 2240.3 84.906 400.489 0 0 0
2 2169.31 21.433 176.493 0 0 0
2 2153.06 922.024 246.2 0 0 0
2 2465.36 860.132 552.779 0 0 0
2 2400.78 600.235 0.585 0 0 0
2 2241.9 573.307 419.288 0 0 0
2 2381.8 97.408 243.553 0 0 0
2 2339.16 424.928 704.362 0 0 0
2 2214.14 195.624 793.878 0 0 0
2 2416.64 863.776 346.168 0 0 0
2 2340.28 506.684 948.904 0 0 0
2 2202.14 398.633 697.23 0 0 0
2 2197.1 740.859 229.205 0 0 0
2 2302.5 793.235 967.766 0 0 0
2 2207.7 433.507 856.383 0 0 0
2 2168.69 952.351 411.096 0 0 0
2 2202.7 783.095 781.556 0 0 0
2 2134.09 385.184 539.725 0 0 0
2 2235.47 136.046 153.425 0 0 0
2 2319.67 638.986 295.802 0 0 0
2 2464.86 283.832 741.624 0 0 0
2 2511.55 142.885 137.665 0 0 0
2 2288.45 699.771 851.96 0 0 0
2 2360.46 163.597 530.26 0 0 0
2 2478.11 747.834 787.534 0 0 0
2 4000 0 1878.18 0 0 0
2 2436.61 155.501 38.538 0 0 0
2 2394.05 387.27 894.924 0 0 0
2 2353.68 47.712 743.267 0 0 0
2 2194.29 37.551 299.088 0 0 0
2 2447.86 514.993 869.669 0 0 0
2 772.258 2172.78 659.113 0 0 0
2 366.995 2250.29 804.564 0 0 0
2 867.988 2108.11 471.77 0 0 0
2 9.602 2160.09 571.334 0 0 0
2 445.824 2263 382.655 0 0 0
2 985.923 2079.57 733.248 0 0 0
2 761.5 2217.09 930.033 0 0 0
2 649.705 2204.42 645.554 0 0 0
2 913.262 2030.12 587.266 0 0 0
2 931.658 2263.55 482.498 0 0 0
2 665.914 2121.18 48.351 0 0 0
2 616.598 2175.5 474.4 0 0 0
2 81.646 2060.39 523.47 0 0 0
2 914.944 2154.6 655.993 0 0 0
2 584.337 2001.13 453.631 0 0 0
2 290.484 2318.53 978.422 0 0 0
2 335.571 2151.29 417.718 0 0 0
2 278.644 2163.66 127.06 0 0 0
2 621.744 2087.37 666.803 0 0 0
2 534.043 2195.21 586.34 0 0 0
2 834.916 2160.43 77.853 0 0 0
2 435.987 2126.36 956.826 0 0 0
2 921.463 2229.36 765.999 0 0 0
2 676.604 2067.64 506.121 0 0 0
2 743.368 2155.76 163.686 0 0 0
2 41.131 2155.54 376.141 0 0 0
2 798.945 2258.94 530.561 0 0 0
2 440.769 2178.24 495.878 0 0 0
2 651.979 2203.99 227.104 0 0 0
2 597.58 2094.66 317.087 0 0 0
2 385.752 2070.76 853.422 0 0 0
2 510.244 2226.76 895.359 0 0 0
2 49.094 2145.7 903.657 0 0 0
2 4.94 2343.5 719.114 0 0 0
2 892.828 2112.31 344.85 0 0 0
2 283.796 2138.59 800.937 0 0 0
2 935.664 2265.44 358.895 0 0 0
2 629.839 2270.56 953.08 0 0 0
2 111.517 2252.78 73.125 0 0 0
2 29.402 2223.5 264.257 0 0 0
2 180.796 2173.07 675.987 0 0 0
2 103.006 2110.79 40.347 0 0 0
2 774.301 2287.04 809.153 0 0 0
2 450.224 2184.62 272.143 0 0 0
2 155.996 2272.3 254.269 0 0 0
2 140.01 2131.82 292.391 0 0 0
2 478.588 2252.61 695.021 0 0 0
2 937.45 2274.04 9.387 0 0 0
2 579.285 2103.13 168.001 0 0 0
2 584.46 2356.8 574.551 0 0 0
2 14.507 2251.1 974.11 0 0 0
2 571.708 2253.83 139.29 0 0 0
2 220.765 2285.88 146.67 0 0 0
2 75.84 2168.35 782.933 0 0 0
2 696.841 2185.18 338.774 0 0 0
2 595.014 2270.5 387.844 0 0 0
2 850.598 2135.25 944.091 0 0 0
2 708.093 2002.49 675.996 0 0 0
2 409.505 2291.27 37.232 0 0 0
2 483.193 2122.12 799.919 0 0 0
2 883.72 2127.53 202.117 0 0 0
2 266.759 2153.92 247.289 0 0 0
2 829.969 2124.29 756.805 0 0 0
2 850.899 2324.32 703.312 0 0 0
2 170.636 2107.27 946.351 0 0 0
2 697.165 2146.82 812.47 0 0 0
2 574.019 2233.7 783.06 0 0 0
2 500.121 2295.67 512.089 0 0 0
2 745.96 2321.97 640.518 0 0 0
2 160.137 2265.94 796.994 0 0 0
2 456.887 2125 74.267 0 0 0
2 336.025 2162.22 1037.11 0 0 0
2 519.193 2095.5 413.417 0 0 0
2 151.131 2267.44 481.393 0 0 0
2 820.674 2216.94 381.643 0 0 0
2 1915.92 147.324 2097.22 0 0 0
2 350.438 790.265 2360.45 0 0 0
2 119.53 1916.79 3985.37 0 0 0
2 1905.2 1216.86 2083.24 0 0 0
2 182.281 543.728 2295.57 0 0 0
2 404.921 70.764 2361.04 0 0 0
2 276.384 961.402 2342.09 0 0 0
2 310.025 0.744 2736 0 0 0
2 1.948 335.536 2334.68 0 0 0
2 465.387 695.695 2316.87 0 0 0
2 1768.43 101.085 3901.56 0 0 0
2 844.293 600.705 2350.26 0 0 0
2 276.27 244.417 2165.67 0 0 0
2 780.096 900.499 2156.53 0 0 0
2 144.512 8.422 2599.33 0 0 0
2 262.629 598.499 2092.93 0 0 0
2 454.094 446.046 2104.12 0 0 0
2 638.215 90.538 2076.96 0 0 0
2 547.719 545.967 2115.49 0 0 0
2 848.651 926.13 2420.43 0 0 0
2 736.932 938.451 2302.65 0 0 0
2 121.041 584.791 2123 0 0 0
2 197.435 1044.4 2083.69 0 0 0
2 83.328 638.98 2275.33 0 0 0
2 360.125 57.531 2246.82 0 0 0
2 733.772 730.474 2142.34 0 0 0
2 251.246 1228.32 2255.02 0 0 0
2 322.85 424.136 2267.28 0 0 0
2 771.082 382.358 2191.87 0 0 0
2 2.585 430.812 2254.95 0 0 0
2 632.666 389.199 2211.43 0 0 0
2 867.026 5.491 2370.95 0 0 0
2 595.165 938.109 2272.53 0 0 0
2 283.863 878.836 2189.77 0 0 0
2 3.865 833.74 2357.39 0 0 0
2 399.814 1963.7 2089.7 0 0 0
2 862.193 333.069 2308.1 0 0 0
2 505.465 212.295 2016.23 0 0 0
2 744.479 369.633 2360.3 0 0 0
2 430.635 480.217 2215.86 0 0 0
2 981.278 546.654 2293.36 0 0 0
2 861.37 743.856 2130.36 0 0 0
2 816.542 516.774 2263.61 0 0 0
2 861.219 945.464 2234.66 0 0 0
2 1022 752.636 2127.16 0 0 0
2 939.509 817.559 2065.61 0 0 0
2 695.173 839.846 2218.99 0 0 0
2 220.549 338.76 2088.28 0 0 0
2 591.275 720.049 2305.64 0 0 0
2 31.17 885.818 2194.28 0 0 0
2 107.661 258.585 2349.64 0 0 0
2 140.099 330.89 2514.41 0 0 0
2 189.989 474.764 2111.2 0 0 0
2 783.579 716.09 2606.95 0 0 0
2 294.183 12.188 2360.67 0 0 0
2 795.995 821.324 2319.7 0 0 0
2 465.92 738.623 2148.89 0 0 0
2 694.306 552.464 2228.68 0 0 0
2 879.375 227.631 2152.9 0 0 0
2 0.313 0.657 2348.57 0 0 0
2 834.179 632.347 2191.72 0 0 0
2 538.053 575.255 2327.91 0 0 0
2 454.556 896.783 2318.12 0 0 0
2 160.085 1104.16 2277.89 0 0 0
2 516.518 84.599 2308.78 0 0 0
2 44.763 93.767 2285.36 0 0 0
2 274.979 716.417 2010.55 0 0 0
2 0.041 677.518 2394.48 0 0 0
2 357.991 639.825 2320.19 0 0 0
2 393.863 638.052 2198.05 0 0 0
2 7.33 144.898 2421.1 0 0 0
2 736.091 1284.48 2083.55 0 0 0
2 906.908 736.229 2242.25 0 0 0
2 685.207 762.704 2691.77 0 0 0
2 361.738 613.353 2481.54 0 0 0
2 2364.62 2472.97 122.222 0 0 0
2 2316.72 2267.41 255.118 0 0 0
2 2384.76 2555.89 831.951 0 0 0
2 2394.28 2322.7 677.894 0 0 0
2 2530.38 2383.69 466.57 0 0 0
2 2556.9 2416.17 697.815 0 0 0
2 2354.09 2342.88 799.326 0 0 0
2 2458.36 2560.52 191.472 0 0 0
2 2327.54 2193.26 673.92 0 0 0
2 2200.54 2381.18 1014.32 0 0 0
2 2178.51 2511.53 996.338 0 0 0
2 2509.61 2283.57 958.13 0 0 0
2 2106.96 2364.43 549.701 0 0 0
2 2257.26 2407.88 209.328 0 0 0
2 2459.97 2507.99 745.84 0 0 0
2 2178.74 2355.08 776.064 0 0 0
2 2326.9 2478.05 279.38 0 0 0
2 2445.86 2170.62 847.491 0 0 0
2 2252.57 2318.86 876.857 0 0 0
2 2232.15 2388.39 528.896 0 0 0
2 2346.31 2235.35 0.055 0 0 0
2 2276.54 2291.35 593.764 0 0 0
2 2561.01 2402.63 985.216 0 0 0
2 2428.8 2367.4 364.938 0 0 0
2 2410.61 2362.17 514.474 0 0 0
2 2142.01 2207.83 703.629 0 0 0
2 2138.1 2372.71 397.728 0 0 0
2 2318.19 2199.18 115.924 0 0 0
2 2517.07 2191.89 357.773 0 0 0
2 2315.03 2461.23 636.508 0 0 0
2 2364.88 2198.2 398.56 0 0 0
2 2381.45 2471.57 467.879 0 0 0
2 2184.29 2162.9 598.159 0 0 0
2 2265.95 2290.03 714.561 0 0 0
2 2154.72 2206.31 302.958 0 0 0
2 2342.45 2472.55 753.982 0 0 0
2 2204.12 2212.65 845.022 0 0 0
2 2158.05 2605.76 386.111 0 0 0
2 2328.5 2226.86 827.083 0 0 0
2 2478.01 2274.59 458.838 0 0 0
2 2163.55 2407.87 901.551 0 0 0
2 2501.63 2580.43 428.576 0 0 0
2 2266.28 2243.94 465.595 0 0 0
2 2182.77 2289.92 132.252 0 0 0
2 2160.73 2475.73 583.799 0 0 0
2 2233.66 2566.66 540.885 0 0 0
2 2470.45 2404.76 813.459 0 0 0
2 2459.96 2293.91 239.717 0 0 0
2 2371.54 2085.73 277.167 0 0 0
2 2326.82 2513.93 1003.53 0 0 0
2 2192.87 2445 696.335 0 0 0
2 2250.05 2197.34 964.325 0 0 0
2 2590.38 2315.15 338.665 0 0 0
2 2432.34 2432.8 645.117 0 0 0
2 2530.45 2423.86 233.394 0 0 0
2 2463 2210.51 151.891 0 0 0
2 2151.41 2552 805.641 0 0 0
2 2501.86 2512.54 37.886 0 0 0
2 2227.55 2495.7 392.433 0 0 0
2 2398.37 2392.72 206.666 0 0 0
2 2389.96 2219.21 572.933 0 0 0
2 2446.27 2492.27 1011.52 0 0 0
2 2396.91 2557.17 590.662 0 0 0
2 2512.91 2347.06 592.319 0 0 0
2 2142.96 2397.31 252.077 0 0 0
2 2334.77 2364.5 982.293 0 0 0
2 2240.93 2465.73 823.407 0 0 0
2 2185.32 2169.25 188.171 0 0 0
2 2236.76 2501.12 0.762 0 0 0
2 2450.3 2489.78 303.712 0 0 0
2 2397.43 2253.14 923.057 0 0 0
2 2159.07 2446.57 76.883 0 0 0
2 2445.1 2393.98 939.708 0 0 0
2 2232.4 2287.98 346.984 0 0 0
2 2549.87 2233.05 850.155 0 0 0
2 2000 818.882 2387.41 0 0 0
2 2007.44 731.614 3878.61 0 0 0
2 2363.11 449.897 2648.85 0 0 0
2 2309.72 1956.32 3848.82 0 0 0
2 2000.19 665.355 3999.86 0 0 0
2 3994.61 15.172 3980.03 0 0 0
2 2115.28 38.182 3966.45 0 0 0
2 3534.86 107.28 3976.64 0 0 0
2 2243.4 0.009 3207.7 0 0 0
2 3133.46 1936.2 2086 0 0 0
2 2000.02 282.066 2000.02 0 0 0
2 2563.43 37.099 2005.91 0 0 0
2 3266.23 0.721 2770.62 0 0 0
2 2855.4 1289.12 2352.97 0 0 0
2 2000.02 1022.17 3999.99 0 0 0
2 2746.47 1358.58 2030.36 0 0 0
2 2555.05 151.024 2655.5 0 0 0
2 2000 1.27 3998.89 0 0 0
2 2001.89 1070.19 2279.61 0 0 0
2 2000 850.03 3250.55 0 0 0
2 3745.33 361.478 3170.38 0 0 0
2 2000 200.387 3723.08 0 0 0
2 2500.67 146.794 2542.08 0 0 0
2 2581.64 444.561 2266.2 0 0 0
2 2107.55 1147.83 3215.38 0 0 0
2 3976.02 146.029 3935.84 0 0 0
2 3690.15 30.111 3264.45 0 0 0
2 2651.18 337.786 2418.34 0 0 0
2 2232.58 697.971 2605.26 0 0 0
2 3702.11 281.501 2044.74 0 0 0
2 2591.2 1490.24 2000 0 0 0
2 2008.43 0.073 2157.97 0 0 0
2 2000.01 946.289 2399.21 0 0 0
2 3790.8 401.406 2000 0 0 0
2 3974.16 1672.78 3486.69 0 0 0
2 2000 1892.33 3397.24 0 0 0
2 3862.23 394.295 2160.66 0 0 0
2 2977.18 818.528 2110.36 0 0 0
2 2120.72 549.154 2000.12 0 0 0
2 2017.17 674.45 2074.97 0 0 0
2 2000.02 1851.91 2000.04 0 0 0
2 2493.05 387.603 2326 0 0 0
2 2690.27 6.568 2472.66 0 0 0
2 2017.66 780.151 2000.08 0 0 0
2 2341.26 1284.15 3222.99 0 0 0
2 2189.32 1854.44 2151.98 0 0 0
2 3529.8 513.419 2883.41 0 0 0
2 3326.25 1918.56 3237.26 0 0 0
2 2658.97 585.831 2562.3 0 0 0
2 2892.64 1320.81 4000 0 0 0
2 2543.58 0.003 3027.19 0 0 0
2 2259.46 277.143 3396.57 0 0 0
2 2286.8 10.199 2109.63 0 0 0
2 3989.78 1758.73 2021.61 0 0 0
2 3922.6 649.393 2000 0 0 0
2 3011.99 1508.75 2000 0 0 0
2 2637.87 298.643 2568.18 0 0 0
2 2000 0.005 2816.44 0 0 0
2 2378.3 42.648 2499.63 0 0 0
2 2575.09 956.283 2312.2 0 0 0
2 2024.9 1194.62 2235.78 0 0 0
2 2052.23 0.001 2628.87 0 0 0
2 2963.57 0.005 3329.48 0 0 0
2 3996.39 91.26 3471.48 0 0 0
2 2354.51 354.053 2575.25 0 0 0
2 2037.79 1977.66 3666.74 0 0 0
2 2938.13 1300.53 2219.74 0 0 0
2 4000 1999.98 3169.66 0 0 0
2 2752.36 0.005 2000.01 0 0 0
2 3159.05 497.822 2289.73 0 0 0
2 2630.26 55.544 2362.12 0 0 0
2 2365.71 0.045 2371.92 0 0 0
2 2000 1762.21 3413.07 0 0 0
2 3999.45 271.623 3981.11 0 0 0
2 2000.25 544.161 2070.23 0 0 0
2 141.098 2149.07 2329.82 0 0 0
2 90.192 2091.3 2134.59 0 0 0
2 1844.4 3863.06 3944.66 0 0 0
2 625.323 2225.43 2212.92 0 0 0
2 281.271 2266.85 2494.62 0 0 0
2 565.317 2512.6 2239.21 0 0 0
2 367.168 2336.76 2382.72 0 0 0
2 527.702 2402.09 2291.84 0 0 0
2 437.68 2342.86 2502.91 0 0 0
2 530.884 2315.49 2170.01 0 0 0
2 958.995 2391.61 2174.1 0 0 0
2 362.477 2121.57 2442.86 0 0 0
2 681.221 2459.13 2206.53 0 0 0
2 1.398 2196.82 2345.12 0 0 0
2 574.749 2441.62 2140.24 0 0 0
2 580.329 2359.67 2443.78 0 0 0
2 641.622 2455.35 2337.52 0 0 0
2 46.457 2343.74 2477.16 0 0 0
2 656.525 2108.82 2455.41 0 0 0
2 759.778 2440.17 2404.58 0 0 0
2 77.777 2466.23 2288.52 0 0 0
2 983.966 2241.56 2280.54 0 0 0
2 155.447 2245.14 2472.52 0 0 0
2 750.653 2220.77 2263.38 0 0 0
2 507.824 2257.17 2425.99 0 0 0
2 890.071 2410.71 2339.85 0 0 0
2 60.27 2156.25 2446.17 0 0 0
2 911.682 2288.71 2368.12 0 0 0
2 0 2000 2513.13 0 0 0
2 218.699 2260.76 2357.62 0 0 0
2 885.648 2160.21 2349.08 0 0 0
2 538.639 2509.17 2438.41 0 0 0
2 179.955 2341.74 2267.03 0 0 0
2 697.12 2348 2344.91 0 0 0
2 582.655 2259.19 2330.21 0 0 0
2 374.05 2201.83 2332.95 0 0 0
2 163.438 2245.39 2185.23 0 0 0
2 442.61 2497.15 2208.94 0 0 0
2 708.034 2322.59 2533.25 0 0 0
2 627.958 2353.81 2243.94 0 0 0
2 326.07 2169.83 2223.82 0 0 0
2 186.333 2358.21 2144.88 0 0 0
2 875.774 2326.91 2102.66 0 0 0
2 437.843 2161.82 2156.89 0 0 0
2 96.572 2273.55 2369.41 0 0 0
2 319.586 2264.63 2080.94 0 0 0
2 801.462 2481.99 2293.32 0 0 0
2 796.139 2284.33 2404.72 0 0 0
2 410.438 2428.47 2306.52 0 0 0
2 11.658 2368.06 2360.03 0 0 0
2 804.965 2412.71 2173.32 0 0 0
2 28.834 2389.97 2118.24 0 0 0
2 59.26 2264.5 2249.01 0 0 0
2 876.687 2391.76 2480.3 0 0 0
2 449.196 2291.84 2272.45 0 0 0
2 586.91 2162.18 2115.7 0 0 0
2 263.161 2377.81 2449.2 0 0 0
2 746.951 2158.24 2158.25 0 0 0
2 744.48 2294.58 2155.51 0 0 0
2 362.887 2397.19 2195.19 0 0 0
2 605.249 2245.99 2510.79 0 0 0
2 0 4000 4000 0 0 0
2 163.433 2356.69 2518.95 0 0 0
2 680.818 2220.93 2415.28 0 0 0
2 810.456 2099.13 2422.51 0 0 0
2 495.983 2099.36 2448.69 0 0 0
2 281.466 2409.99 2316.71 0 0 0
2 1256.6 2000 2000 0 0 0
2 410.971 2455.64 2442.72 0 0 0
2 249.755 2140.26 2392.12 0 0 0
2 850.698 2291.33 2225.53 0 0 0
2 516.331 2172.57 2269.22 0 0 0
2 143.41 2415.63 2376.97 0 0 0
2 416.171 2281.22 2151.91 0 0 0
2 272.422 2521.93 2160.61 0 0 0
2 2204.88 2124.8 2546.21 0 0 0
2 2000.11 2046.66 2088.15 0 0 0
2 3070.07 3012.03 2659.38 0 0 0
2 3210.21 2078.99 3948.34 0 0 0
2 2048.62 2232.62 2331.63 0 0 0
2 2211.7 2435.93 2385.7 0 0 0
2 2470.05 2293.49 2192.36 0 0 0
2 2539.45 2259.1 2291.89 0 0 0
2 2270.14 2340.84 2338.89 0 0 0
2 2384.18 2379.6 2274.27 0 0 0
2 2091.28 2530.33 2095.21 0 0 0
2 2333.93 2358.01 2440.41 0 0 0
2 2260.13 2545.6 2167.56 0 0 0
2 2448.03 2164.13 2517.1 0 0 0
2 2218.83 2245.68 2534.67 0 0 0
2 2263.59 2533.86 2434.46 0 0 0
2 2125.92 2241.51 2223.15 0 0 0
2 2478.1 2338.59 2079.53 0 0 0
2 2290.07 2447.85 2097.08 0 0 0
2 2146.95 2160.1 2322.85 0 0 0
2 2177.66 2452.45 2150.52 0 0 0
2 2206.72 2360.87 2059.38 0 0 0
2 2474.18 2086.88 2399.81 0 0 0
2 2154.4 2184.44 2014.34 0 0 0
2 2253.98 2016.55 2456.31 0 0 0
2 2287.55 2343.62 2555.06 0 0 0
2 2364.74 2115 2051.98 0 0 0
2 2090.78 2501.98 2376.21 0 0 0
2 2082.68 2294.76 2070.26 0 0 0
2 2464.21 2420.29 2355.49 0 0 0
2 2427.14 2283.34 2479.94 0 0 0
2 2228.59 2050.65 2327.93 0 0 0
2 2329.66 2203.75 2510.2 0 0 0
2 2026.34 2232.44 2454.11 0 0 0
2 2332.28 2230.9 2087.53 0 0 0
2 2324.94 2350.61 2031.47 0 0 0
2 2243.42 2408.61 2242.27 0 0 0
2 2422.85 2031.48 2142.74 0 0 0
2 2336.06 2110.03 2208.58 0 0 0
2 2430.6 2416.19 2167.25 0 0 0
2 2026.59 2359.45 2318.22 0 0 0