LAMMPS data file, Author: Jerry Qin

1000 atoms
0 bonds
0 angles

2 atom types

-100 4100 xlo xhi
-100 4100 ylo yhi
-100 4100 zlo zhi

Masses

1 221851
2 422051

Atoms

1 1  535.456 250.937 163.593
2 1  398.833 594.464 482.409
3 1  52.742 622.281 542.241
4 1  864.158 931.932 106.378
5 1  625.510 95.138 583.390
6 1  875.571 328.934 822.772
7 1  553.567 855.482 490.568
8 1  511.334 933.628 40.610
9 1  714.568 682.533 964.768
10 1  835.109 847.160 645.754
11 1  102.032 227.919 672.487
12 1  895.789 127.839 1000.602
13 1  775.800 489.517 391.235
14 1  854.028 408.429 731.822
15 1  730.394 0.022 637.986
16 1  466.635 627.385 581.886
17 1  346.294 968.032 148.605
18 1  779.451 18.347 974.880
19 1  157.443 563.306 709.515
20 1  435.147 575.084 71.920
21 1  793.847 67.443 323.261
22 1  764.348 457.322 275.045
23 1  294.300 214.446 976.725
24 1  317.692 278.877 357.006
25 1  596.412 660.549 441.028
26 1  2562.769 883.781 366.982
27 1  2701.679 420.672 292.149
28 1  2323.945 686.411 318.402
29 1  2938.394 695.934 34.122
30 1  2707.487 51.369 322.323
31 1  2645.800 0.838 545.367
32 1  2525.958 732.515 644.101
33 1  2881.947 612.521 382.646
34 1  3047.380 355.128 15.814
35 1  2505.052 963.339 130.710
36 1  2670.313 119.757 538.830
37 1  2520.893 353.664 331.147
38 1  2422.503 968.970 40.575
39 1  2861.970 417.430 487.113
40 1  2985.741 711.182 653.521
41 1  3054.423 292.587 283.128
42 1  2752.832 588.672 142.424
43 1  2500.939 692.511 77.056
44 1  3069.100 606.523 272.756
45 1  2412.946 484.589 123.412
46 1  2618.462 40.803 196.456
47 1  2533.799 16.349 498.284
48 1  3017.774 81.588 340.009
49 1  3017.440 702.574 217.123
50 1  3006.891 929.559 360.009
51 1  266.885 2841.402 981.078
52 1  313.420 2334.505 45.801
53 1  527.673 2524.612 181.103
54 1  190.102 2439.517 970.140
55 1  602.700 2678.900 831.926
56 1  430.303 2371.490 187.159
57 1  396.507 2247.744 0.004
58 1  494.692 2544.641 373.346
59 1  217.284 2646.160 89.582
60 1  441.954 2525.525 495.012
61 1  364.300 2502.659 698.399
62 1  101.543 2724.438 314.844
63 1  0.102 2572.043 871.841
64 1  240.543 2569.582 204.207
65 1  464.873 2728.938 119.994
66 1  259.340 2520.313 763.725
67 1  14.891 2424.113 538.174
68 1  394.435 2709.964 20.659
69 1  32.439 2578.285 85.913
70 1  282.736 2478.707 314.866
71 1  155.917 2675.712 860.507
72 1  217.924 2348.079 673.629
73 1  157.482 2477.595 691.089
74 1  199.510 2322.668 418.376
75 1  401.867 2319.569 891.182
76 1  790.011 82.456 2530.242
77 1  159.597 485.829 2601.099
78 1  568.733 435.317 2532.239
79 1  811.026 803.634 2686.283
80 1  578.558 286.597 2668.078
81 1  264.084 576.557 2645.306
82 1  63.976 595.593 2619.597
83 1  795.134 524.489 2518.242
84 1  201.672 175.118 2955.855
85 1  752.557 730.567 2766.421
86 1  452.635 293.000 2632.387
87 1  553.359 194.515 2528.013
88 1  739.661 174.070 2672.370
89 1  862.833 805.153 2536.142
90 1  129.566 167.823 3096.415
91 1  544.877 613.902 2886.406
92 1  846.723 344.873 2812.443
93 1  635.596 490.917 2954.882
94 1  9.180 670.410 2764.906
95 1  648.898 777.133 2936.791
96 1  871.470 409.466 2977.047
97 1  388.572 855.348 2735.599
98 1  649.975 854.115 3094.129
99 1  209.230 335.603 2793.540
100 1  924.545 1003.451 2550.916
101 1  2676.326 2725.824 108.800
102 1  2770.221 2606.859 930.621
103 1  2645.869 2716.739 496.137
104 1  2853.498 2630.648 824.119
105 1  2816.374 2529.591 66.835
106 1  2412.365 2674.701 466.792
107 1  2439.372 2516.595 879.251
108 1  2776.216 2876.937 682.313
109 1  2486.438 2491.542 637.761
110 1  2631.812 2574.389 386.276
111 1  2560.230 2713.095 859.698
112 1  2634.385 2308.076 315.012
113 1  2455.147 2381.161 576.174
114 1  2207.337 2856.806 860.048
115 1  2276.767 2764.298 378.739
116 1  2618.481 2716.140 375.190
117 1  2598.859 2874.953 943.478
118 1  2464.621 2603.239 114.215
119 1  2354.036 2266.381 940.719
120 1  2489.160 2560.255 236.951
121 1  2312.467 2472.584 968.220
122 1  2752.405 2484.699 709.944
123 1  2383.170 2653.255 791.790
124 1  2607.698 2500.388 867.040
125 1  2727.536 2392.134 974.138
126 1  2794.222 764.747 2592.175
127 1  2574.276 0.000 2758.379
128 1  2638.162 229.621 2615.504
129 1  2586.060 403.026 2714.719
130 1  2331.380 617.662 2695.755
131 1  2314.017 402.713 2431.182
132 1  2446.579 604.493 2301.860
133 1  2310.735 811.366 2671.298
134 1  2528.303 361.813 2401.232
135 1  2502.617 672.561 2443.922
136 1  2713.747 611.725 2310.519
137 1  2623.754 50.962 2371.553
138 1  2313.777 196.060 2595.640
139 1  2641.485 729.081 2408.810
140 1  2206.861 164.597 2644.045
141 1  2328.026 618.413 2333.488
142 1  2333.644 387.965 2312.356
143 1  2463.861 244.796 2607.358
144 1  2746.959 230.135 2441.027
145 1  2774.434 536.401 2745.882
146 1  2507.163 804.821 2306.354
147 1  2579.803 178.016 2737.476
148 1  2594.183 516.147 2414.532
149 1  2397.865 0.047 2759.496
150 1  2715.849 254.199 2706.330
151 1  770.211 2901.554 2505.333
152 1  443.145 2771.217 2321.012
153 1  213.642 3020.008 2845.388
154 1  486.065 2573.971 2548.595
155 1  622.981 2819.182 2374.181
156 1  361.552 2324.933 2490.713
157 1  104.588 2760.775 2273.087
158 1  747.759 2613.695 2601.189
159 1  22.298 2501.664 2451.613
160 1  20.658 2796.822 2540.085
161 1  377.761 2532.372 2493.238
162 1  343.782 2876.036 2413.810
163 1  246.210 2617.786 2501.706
164 1  245.118 2704.505 2322.725
165 1  227.427 2770.140 2840.144
166 1  230.729 2523.413 2415.863
167 1  163.545 2768.221 2625.886
168 1  642.936 2705.913 2664.774
169 1  94.313 2913.060 2570.916
170 1  521.220 2365.899 2811.463
171 1  289.642 2832.735 2591.719
172 1  227.271 2403.176 2665.139
173 1  110.213 2658.849 2800.881
174 1  851.576 2840.219 2723.226
175 1  924.220 2835.370 2900.686
176 1  2774.208 2406.988 2254.994
177 1  2768.509 2686.314 2896.835
178 1  2473.257 2698.300 2803.136
179 1  2791.966 2349.641 2649.576
180 1  2761.300 2656.266 2543.153
181 1  2513.734 2518.152 2280.221
182 1  2341.829 2503.553 2607.098
183 1  2254.422 2566.026 2278.051
184 1  2883.869 2463.405 2281.727
185 1  2404.433 2685.875 2467.460
186 1  2685.279 2672.410 2257.024
187 1  2184.809 2681.586 2748.375
188 1  2642.605 2420.763 2429.275
189 1  2233.029 2474.277 2389.446
190 1  2330.272 2426.725 2511.459
191 1  2499.469 2266.232 2378.778
192 1  2707.790 2319.989 2541.665
193 1  2417.148 2863.829 2737.686
194 1  2632.511 2644.696 2681.231
195 1  2394.990 2613.628 2575.694
196 1  2668.506 2736.297 2366.955
197 1  2719.046 2821.399 2668.749
198 1  2295.454 2311.984 2730.522
199 1  2557.179 2363.230 2256.214
200 1  2617.653 2587.657 2365.945
201 2  525.316 493.287 625.898
202 2  714.483 198.310 565.781
203 2  854.368 400.348 141.189
204 2  617.751 624.162 576.318
205 2  370.044 79.222 780.825
206 2  544.172 349.198 8.880
207 2  144.214 933.621 41.656
208 2  324.446 421.082 75.482
209 2  469.933 584.726 734.761
210 2  552.745 744.493 742.373
211 2  199.539 733.363 796.350
212 2  803.018 24.639 755.799
213 2  817.950 810.075 279.499
214 2  861.293 749.612 568.984
215 2  524.748 392.062 695.549
216 2  982.794 50.526 13.508
217 2  722.479 818.379 205.505
218 2  716.448 628.073 81.588
219 2  688.098 469.869 163.164
220 2  101.955 670.317 1.708
221 2  117.572 408.645 833.202
222 2  614.623 479.484 7.179
223 2  244.062 894.325 717.032
224 2  247.327 247.853 39.839
225 2  557.260 790.517 179.838
226 2  484.606 900.863 259.434
227 2  438.092 710.569 268.705
228 2  654.673 115.756 369.753
229 2  319.312 236.141 711.070
230 2  11.625 838.227 46.184
231 2  855.516 646.664 330.769
232 2  811.559 811.262 5.917
233 2  551.052 443.500 280.896
234 2  387.805 749.075 415.127
235 2  904.103 6.158 228.937
236 2  606.209 648.915 149.227
237 2  298.746 592.226 761.943
238 2  109.194 768.605 142.401
239 2  735.444 695.636 612.379
240 2  362.697 531.306 383.776
241 2  943.780 911.813 471.506
242 2  367.338 279.800 244.530
243 2  301.030 308.119 860.617
244 2  536.689 43.622 708.026
245 2  857.703 532.329 542.162
246 2  758.747 317.821 325.836
247 2  718.102 696.946 409.052
248 2  394.164 695.621 4.063
249 2  40.916 294.327 137.564
250 2  5.865 657.346 768.069
251 2  803.796 823.371 490.968
252 2  983.999 311.485 255.304
253 2  102.515 161.912 336.671
254 2  0.052 168.243 130.067
255 2  185.672 872.588 174.886
256 2  1037.423 506.547 734.432
257 2  221.988 604.578 131.372
258 2  492.364 585.396 277.713
259 2  664.573 983.197 298.221
260 2  253.622 488.864 704.089
261 2  168.111 918.405 523.250
262 2  271.298 444.423 269.655
263 2  185.113 638.972 596.689
264 2  0.068 526.350 694.973
265 2  875.990 619.162 730.695
266 2  737.001 91.391 487.877
267 2  355.589 453.871 604.396
268 2  661.982 240.309 357.811
269 2  56.682 790.733 660.672
270 2  484.902 155.239 790.234
271 2  299.775 265.359 585.555
272 2  587.196 830.596 643.383
273 2  972.644 724.140 813.086
274 2  64.688 950.396 803.320
275 2  883.550 210.168 881.019
276 2  264.604 329.574 151.139
277 2  620.439 271.320 514.843
278 2  996.439 942.351 56.774
279 2  84.164 63.055 248.295
280 2  281.122 966.017 317.831
281 2  825.310 1.499 472.723
282 2  417.710 380.239 797.628
283 2  817.482 159.757 117.903
284 2  940.517 542.670 633.272
285 2  241.649 3.355 258.436
286 2  60.742 500.696 388.424
287 2  335.517 798.148 757.126
288 2  155.400 252.702 803.705
289 2  140.964 194.411 127.065
290 2  242.201 36.145 681.866
291 2  302.299 72.998 84.719
292 2  661.520 58.398 835.858
293 2  853.513 684.732 156.548
294 2  440.429 75.623 112.798
295 2  300.379 870.212 452.408
296 2  230.167 171.560 458.506
297 2  692.394 544.017 808.554
298 2  598.297 181.335 829.811
299 2  2.273 224.992 286.139
300 2  0.340 887.902 614.106
301 2  2318.349 56.926 311.054
302 2  2297.431 257.068 579.530
303 2  2320.672 71.951 683.055
304 2  2364.709 387.720 546.424
305 2  2894.812 125.452 492.284
306 2  2566.464 22.801 868.989
307 2  2344.238 929.820 212.955
308 2  2344.227 353.959 360.912
309 2  2551.066 347.450 467.168
310 2  2875.161 280.573 802.097
311 2  2667.337 806.647 121.778
312 2  2676.207 293.450 670.737
313 2  2513.819 538.834 449.485
314 2  2317.808 262.198 755.447
315 2  2310.084 715.700 446.894
316 2  2603.955 861.833 884.680
317 2  2427.512 776.573 788.189
318 2  2712.398 575.336 411.041
319 2  2591.588 93.218 325.496
320 2  2539.534 266.733 808.902
321 2  2639.881 55.552 26.305
322 2  2737.034 109.793 967.154
323 2  2537.056 820.770 98.849
324 2  2538.135 611.660 708.247
325 2  2677.251 230.414 390.355
326 2  2444.114 549.349 564.209
327 2  2332.729 356.878 663.449
328 2  2333.772 876.275 909.215
329 2  2502.242 725.224 453.815
330 2  2912.564 382.152 730.199
331 2  2729.060 168.982 844.946
332 2  2386.251 833.690 12.300
333 2  2762.452 905.308 659.308
334 2  2683.543 1017.765 228.412
335 2  2544.607 441.362 659.353
336 2  2854.283 804.693 693.049
337 2  2604.350 665.502 16.468
338 2  2850.229 415.787 867.556
339 2  2393.497 169.697 608.664
340 2  2654.373 760.998 656.912
341 2  2552.345 487.603 167.911
342 2  2888.580 83.921 210.325
343 2  2357.566 517.604 764.917
344 2  2772.327 32.733 518.631
345 2  2412.241 631.236 761.362
346 2  2659.675 301.368 515.994
347 2  2767.925 381.862 654.828
348 2  2820.774 829.084 143.902
349 2  2768.833 771.442 926.035
350 2  2397.172 40.503 476.109
351 2  2438.877 671.299 210.135
352 2  2784.106 788.395 274.626
353 2  2648.987 336.924 797.890
354 2  2550.837 184.729 588.227
355 2  2898.792 729.067 234.887
356 2  2918.967 914.959 621.051
357 2  2399.580 688.126 527.515
358 2  2553.358 146.558 941.475
359 2  2326.742 265.729 462.379
360 2  2477.597 903.754 488.998
361 2  2871.109 384.658 78.976
362 2  2762.072 935.316 936.202
363 2  2693.531 707.106 345.762
364 2  2542.064 56.371 668.164
365 2  2755.958 183.171 671.117
366 2  2340.290 752.342 961.015
367 2  2744.077 830.209 16.314
368 2  2812.635 124.090 354.273
369 2  2348.978 714.034 104.252
370 2  2724.407 508.992 602.327
371 2  2455.563 337.561 195.760
372 2  2537.392 239.329 380.368
373 2  2817.533 694.672 503.304
374 2  2533.105 306.397 597.601
375 2  2664.998 404.884 584.361
376 2  2449.305 424.191 763.187
377 2  2591.328 1017.624 34.770
378 2  2759.176 868.104 433.925
379 2  2620.049 603.590 955.309
380 2  2568.864 167.750 721.975
381 2  2855.902 216.434 131.918
382 2  2584.309 883.630 0.009
383 2  2855.056 523.481 559.544
384 2  2446.680 239.037 733.865
385 2  2936.524 606.944 921.625
386 2  2757.563 349.987 959.450
387 2  2624.858 758.548 496.932
388 2  2345.617 611.338 976.185
389 2  2597.265 990.537 796.445
390 2  2637.846 569.670 534.075
391 2  2390.944 954.933 387.503
392 2  2815.378 528.049 948.826
393 2  2665.189 890.442 229.660
394 2  2492.496 563.873 22.373
395 2  2788.531 260.771 453.795
396 2  2484.821 760.581 920.609
397 2  2482.413 625.314 324.526
398 2  2785.244 477.718 98.542
399 2  2738.768 49.007 654.991
400 2  2529.752 848.103 234.510
401 2  500.216 2668.934 428.193
402 2  567.244 2457.018 953.094
403 2  87.165 2227.255 442.188
404 2  96.543 2351.910 610.182
405 2  954.949 2536.707 602.104
406 2  982.503 2701.139 687.937
407 2  77.405 2848.953 303.668
408 2  155.822 2587.176 328.716
409 2  858.050 2412.125 183.540
410 2  865.565 2462.226 698.191
411 2  932.941 2332.826 11.037
412 2  88.007 2513.759 938.313
413 2  146.465 2455.057 360.565
414 2  896.595 2591.343 901.790
415 2  199.737 2300.551 559.903
416 2  465.814 2708.316 560.477
417 2  13.428 2448.279 255.599
418 2  731.001 2686.110 207.695
419 2  324.766 2635.438 776.997
420 2  129.205 2669.510 0.090
421 2  37.871 2511.747 356.417
422 2  77.592 2549.675 748.938
423 2  50.178 2298.703 895.742
424 2  391.535 2695.487 979.210
425 2  1015.111 2556.274 326.009
426 2  685.165 2631.367 382.273
427 2  139.725 2648.446 218.049
428 2  936.850 2591.338 223.579
429 2  579.470 2364.680 613.425
430 2  946.636 2290.209 903.199
431 2  382.995 2598.794 120.655
432 2  792.268 2389.764 815.791
433 2  233.215 2412.233 211.576
434 2  0.000 2591.492 203.216
435 2  906.760 2336.760 468.170
436 2  374.463 2797.953 697.420
437 2  610.039 2794.854 138.161
438 2  658.953 2562.497 827.286
439 2  588.277 2789.178 331.613
440 2  662.525 2309.900 721.256
441 2  458.920 2433.626 332.484
442 2  20.245 2719.428 587.421
443 2  835.403 2536.531 812.587
444 2  436.701 2288.263 668.962
445 2  634.413 2429.164 376.655
446 2  818.320 2471.334 455.901
447 2  207.827 2687.170 579.546
448 2  98.147 2675.447 684.634
449 2  560.602 2592.883 280.945
450 2  68.433 2272.737 771.219
451 2  783.736 2515.963 107.947
452 2  50.590 2726.972 159.955
453 2  195.882 2539.846 481.166
454 2  561.800 2630.593 70.719
455 2  195.225 2576.856 629.089
456 2  824.092 2739.142 687.605
457 2  229.204 2282.178 267.530
458 2  451.664 2311.506 423.920
459 2  205.338 2444.610 94.307
460 2  486.066 2531.525 50.051
461 2  910.297 2572.962 724.467
462 2  177.818 2502.001 854.001
463 2  202.876 2754.245 382.039
464 2  276.759 2694.718 270.882
465 2  317.373 2542.486 567.839
466 2  778.832 2747.873 437.522
467 2  346.794 2445.575 861.531
468 2  823.789 2766.704 567.044
469 2  446.385 2523.375 796.365
470 2  1005.536 2435.986 526.508
471 2  317.740 2770.960 106.441
472 2  569.989 2323.590 79.417
473 2  659.645 2383.325 913.831
474 2  966.774 2695.733 355.388
475 2  558.140 2786.345 453.426
476 2  374.551 2497.917 16.427
477 2  694.010 2494.394 186.469
478 2  717.572 2419.692 14.307
479 2  556.501 2493.003 559.459
480 2  560.644 2383.873 284.058
481 2  344.588 2438.068 125.725
482 2  888.557 2716.069 992.632
483 2  833.405 2638.746 502.335
484 2  406.281 2563.620 918.540
485 2  772.793 2604.604 18.094
486 2  13.975 2408.040 773.840
487 2  923.860 2754.987 246.816
488 2  107.774 2478.276 30.521
489 2  117.301 2643.840 461.906
490 2  22.808 2762.856 6.332
491 2  116.922 2507.794 183.743
492 2  886.666 2469.172 322.980
493 2  824.185 2378.404 376.288
494 2  671.015 2907.206 129.861
495 2  519.849 2743.156 919.905
496 2  574.584 2431.950 13.102
497 2  11.719 2362.379 421.096
498 2  985.560 2608.533 502.551
499 2  0.573 2690.782 373.426
500 2  503.866 2569.613 682.894
501 2  639.057 758.783 2733.751
502 2  533.485 337.371 2419.430
503 2  126.229 424.159 2478.820
504 2  956.718 423.243 2326.955
505 2  613.959 15.382 2312.629
506 2  682.408 450.379 2487.611
507 2  582.357 552.761 2762.037
508 2  449.918 235.244 2431.479
509 2  756.515 987.392 2306.425
510 2  621.919 953.683 2774.942
511 2  319.586 344.211 2638.296
512 2  129.739 857.549 2861.912
513 2  662.633 661.885 2901.744
514 2  402.347 1067.091 2674.867
515 2  781.634 560.892 2759.537
516 2  335.214 2.414 2487.895
517 2  101.092 1078.347 2423.119
518 2  257.265 222.172 2515.798
519 2  60.206 206.310 2673.522
520 2  374.692 97.599 2558.307
521 2  5.374 26.542 2406.964
522 2  118.576 906.164 2407.286
523 2  939.586 833.330 2650.861
524 2  652.344 544.761 2306.421
525 2  298.740 593.870 2462.277
526 2  644.435 249.223 2377.423
527 2  462.915 445.895 2671.553
528 2  138.988 197.407 2772.336
529 2  357.171 710.909 2332.930
530 2  445.894 516.906 2855.459
531 2  189.711 394.274 2681.472
532 2  403.716 898.435 2485.559
533 2  431.484 865.566 2869.343
534 2  311.788 424.006 2822.438
535 2  5.084 906.079 2603.552
536 2  99.476 774.220 2752.753
537 2  57.196 420.312 2638.091
538 2  256.958 152.430 2407.235
539 2  431.614 628.934 2494.910
540 2  991.327 257.761 2764.874
541 2  840.656 142.484 2426.371
542 2  443.384 659.841 2750.606
543 2  477.491 118.266 2723.620
544 2  932.243 771.919 2755.089
545 2  199.089 1.967 2616.013
546 2  844.532 152.970 2304.158
547 2  579.495 420.120 2830.241
548 2  575.372 36.941 2743.465
549 2  134.205 81.444 2488.452
550 2  857.120 503.123 2839.049
551 2  738.977 302.386 2750.448
552 2  290.951 703.371 2846.983
553 2  885.347 45.062 2595.490
554 2  1.673 305.381 2635.726
555 2  544.860 786.431 2565.599
556 2  988.944 128.959 2751.925
557 2  771.794 781.760 2937.689
558 2  622.414 869.291 2661.908
559 2  847.679 69.774 2728.847
560 2  928.639 965.312 2696.398
561 2  711.817 137.056 2286.930
562 2  833.356 272.726 2523.124
563 2  65.284 13.681 2583.084
564 2  867.045 234.743 2698.404
565 2  616.633 168.068 2730.261
566 2  301.367 823.183 2862.587
567 2  372.635 277.537 2535.934
568 2  240.102 680.139 2386.826
569 2  746.823 308.249 2600.499
570 2  552.233 563.793 2634.864
571 2  805.068 445.780 2362.234
572 2  399.410 369.840 2887.827
573 2  890.779 516.070 2696.232
574 2  689.412 71.321 2616.752
575 2  763.378 338.705 2400.332
576 2  52.420 143.885 2562.944
577 2  682.189 750.828 2589.133
578 2  374.863 255.499 2778.578
579 2  638.855 557.808 2437.034
580 2  594.701 13.817 2498.957
581 2  384.823 61.635 2820.783
582 2  514.035 777.578 2855.651
583 2  53.639 347.423 2853.883
584 2  62.325 955.197 2748.954
585 2  952.090 231.603 2432.159
586 2  300.632 555.057 2815.412
587 2  944.686 961.593 2417.242
588 2  629.354 1009.853 2885.957
589 2  131.358 897.302 2268.805
590 2  0.929 745.805 2429.850
591 2  114.099 589.576 2757.534
592 2  119.167 84.856 2289.859
593 2  789.115 923.167 2795.860
594 2  424.854 455.616 2497.814
595 2  81.634 826.012 2518.767
596 2  133.477 213.231 2477.748
597 2  513.821 785.799 2691.512
598 2  918.116 892.804 2309.375
599 2  569.904 194.255 2297.542
600 2  589.830 986.130 2657.765
601 2  2337.252 2867.337 967.664
602 2  2767.433 2837.710 147.588
603 2  2489.933 2828.776 157.355
604 2  2405.277 2952.810 753.538
605 2  2757.662 2684.311 418.903
606 2  2739.350 2825.937 348.064
607 2  2897.750 2462.988 944.231
608 2  2842.262 2339.045 646.557
609 2  2619.575 2832.731 47.721
610 2  2697.610 2376.841 753.834
611 2  2904.505 2459.645 202.006
612 2  2501.018 2577.997 380.491
613 2  2962.467 2530.085 608.336
614 2  2866.389 2832.078 756.189
615 2  2435.271 2385.828 969.259
616 2  2802.874 2512.171 816.562
617 2  2708.173 2614.419 759.470
618 2  2636.409 2964.639 485.942
619 2  2872.411 2968.731 588.781
620 2  2483.972 2834.430 811.594
621 2  2605.350 2590.736 22.938
622 2  2582.192 2607.967 999.109
623 2  2607.407 2453.340 518.727
624 2  2459.904 3039.791 484.243
625 2  2933.128 2663.268 386.424
626 2  2767.241 2467.014 218.779
627 2  2565.097 2775.781 743.074
628 2  2507.446 2410.732 430.364
629 2  2547.985 2726.643 105.060
630 2  2459.279 2802.732 620.804
631 2  2562.429 2312.553 928.395
632 2  2527.045 3015.432 583.224
633 2  2418.401 2374.126 834.193
634 2  2366.570 2560.723 477.531
635 2  2683.638 2778.189 794.973
636 2  2479.770 2370.234 724.257
637 2  2752.035 2572.284 347.764
638 2  2472.671 2431.532 136.728
639 2  2863.238 2913.312 260.955
640 2  2654.462 2523.465 203.477
641 2  2528.856 2768.107 500.468
642 2  2373.372 2465.568 227.574
643 2  2868.074 2462.028 322.916
644 2  2762.181 2638.791 42.713
645 2  2949.745 2935.910 780.187
646 2  2802.278 3006.515 731.872
647 2  2399.268 2633.513 344.077
648 2  2479.472 2952.572 204.168
649 2  2360.370 2516.577 642.529
650 2  2580.018 2353.112 624.734
651 2  2875.713 2764.622 238.108
652 2  2466.480 2894.643 921.869
653 2  2625.313 2548.258 598.942
654 2  2911.635 2556.987 452.638
655 2  2445.341 2655.275 647.049
656 2  2740.216 2653.146 250.460
657 2  2723.859 2391.237 394.132
658 2  2755.631 2939.073 476.579
659 2  2537.376 2941.557 348.368
660 2  2370.504 2966.840 630.675
661 2  2653.693 2474.666 63.068
662 2  2977.537 2497.366 800.658
663 2  2742.215 2577.297 497.218
664 2  2850.085 2624.589 702.012
665 2  2619.828 2634.423 270.551
666 2  2957.569 2680.261 726.637
667 2  2906.605 2775.361 74.213
668 2  2676.146 2426.058 615.641
669 2  2921.767 2907.028 424.866
670 2  2846.987 2773.303 504.320
671 2  2943.731 2916.109 87.178
672 2  2780.175 2771.457 607.802
673 2  2656.423 2445.851 309.807
674 2  2582.123 2729.251 619.515
675 2  2400.108 2893.187 412.775
676 2  2589.543 2465.677 746.588
677 2  2417.777 2701.221 951.898
678 2  2462.910 2688.989 0.037
679 2  2806.596 2475.288 428.356
680 2  2548.905 2314.595 114.355
681 2  2907.984 2753.246 636.510
682 2  2620.279 2796.623 224.399
683 2  2878.852 2656.557 513.610
684 2  2938.995 2474.040 86.922
685 2  2344.761 2453.721 772.926
686 2  2882.787 2784.608 370.490
687 2  2684.515 2674.550 862.273
688 2  2645.916 2916.692 811.681
689 2  2389.048 2792.046 518.785
690 2  2582.576 2594.331 745.399
691 2  2336.325 2286.671 764.715
692 2  2524.457 2414.202 0.000
693 2  2251.599 2582.470 838.750
694 2  2468.846 2779.606 334.685
695 2  2680.491 2971.738 174.294
696 2  2365.989 2517.709 364.339
697 2  2739.142 2968.362 28.553
698 2  2954.392 2827.970 548.113
699 2  2715.560 2653.822 587.549
700 2  2817.447 2761.181 842.688
701 2  2763.809 825.268 2449.528
702 2  2682.505 335.940 2538.943
703 2  2640.186 976.777 2996.633
704 2  2835.284 558.940 2870.656
705 2  3006.603 664.807 2698.357
706 2  3048.925 684.236 2897.564
707 2  2751.815 345.117 2928.494
708 2  2988.558 990.464 2541.926
709 2  2661.454 268.058 2960.496
710 2  2474.554 676.318 3129.123
711 2  2446.018 825.348 3095.851
712 2  3068.156 341.720 3070.898
713 2  2452.007 715.816 2617.000
714 2  2575.314 443.162 2545.828
715 2  2912.502 787.806 2845.369
716 2  2473.201 523.111 2967.485
717 2  2673.257 640.511 2516.446
718 2  2932.445 54.718 2991.428
719 2  2592.299 449.330 2964.472
720 2  2618.907 773.685 2708.298
721 2  2738.034 133.426 2354.268
722 2  2632.599 529.370 2786.116
723 2  3015.016 619.287 3117.003
724 2  2689.951 365.519 2660.427
725 2  2684.995 646.296 2775.494
726 2  2371.351 190.397 2879.830
727 2  2532.815 597.914 2718.222
728 2  2592.521 236.542 2404.293
729 2  3030.685 111.492 2633.365
730 2  2570.777 650.130 2859.778
731 2  2830.536 243.325 2752.750
732 2  2815.895 680.408 2784.037
733 2  2470.732 39.721 2871.110
734 2  2426.397 345.741 2916.474
735 2  2434.858 105.600 2668.223
736 2  2780.624 770.304 2883.155
737 2  2524.674 142.491 2970.706
738 2  2417.618 959.590 2651.621
739 2  2663.994 122.281 2973.822
740 2  2913.888 448.656 2673.555
741 2  2441.246 727.451 2966.951
742 2  2969.700 891.833 2716.764
743 2  2462.955 309.506 2755.089
744 2  2436.781 431.403 2484.540
745 2  2395.669 683.840 2828.956
746 2  2513.763 909.399 2770.747
747 2  2945.681 637.536 2973.107
748 2  2863.201 325.813 2541.803
749 2  2764.657 112.665 2633.754
750 2  2731.305 692.890 3061.405
751 2  2470.380 579.319 2836.065
752 2  2613.854 174.309 3095.723
753 2  3073.289 368.841 2589.918
754 2  2923.345 655.412 2844.651
755 2  3051.248 762.750 2531.083
756 2  2961.320 165.825 2461.902
757 2  2424.026 958.930 2979.541
758 2  3062.015 952.734 2398.634
759 2  2507.622 828.448 2647.968
760 2  2776.629 547.799 2551.904
761 2  2853.050 292.518 2862.201
762 2  2907.879 751.328 3089.645
763 2  2849.406 928.076 2834.753
764 2  3043.603 590.377 2797.945
765 2  2438.057 535.696 2576.901
766 2  2716.847 555.711 3106.948
767 2  2540.536 912.493 3030.357
768 2  2546.500 132.659 2474.485
769 2  2492.462 911.800 2373.913
770 2  3022.761 876.524 2577.483
771 2  2779.124 396.488 3068.998
772 2  2407.963 591.790 2440.977
773 2  2860.429 617.562 3067.937
774 2  2479.732 393.509 2633.039
775 2  3089.379 146.460 3001.139
776 2  2501.320 794.571 2809.891
777 2  2879.861 659.911 2515.440
778 2  2592.258 436.651 3103.120
779 2  2381.505 412.038 3013.152
780 2  2507.987 872.978 2517.610
781 2  2823.691 141.283 2490.703
782 2  2902.052 818.840 2639.072
783 2  3074.020 768.515 2780.823
784 2  2580.516 327.654 2868.579
785 2  3071.659 735.136 3008.635
786 2  2355.412 97.565 2398.122
787 2  2489.088 556.838 3084.680
788 2  2548.134 247.217 2516.809
789 2  2474.815 256.746 2354.386
790 2  2712.069 529.546 2938.281
791 2  2918.343 322.972 2720.829
792 2  2914.639 153.290 3082.839
793 2  2786.901 421.905 2803.347
794 2  2400.372 821.816 2410.980
795 2  2896.443 759.882 2966.787
796 2  2615.983 688.843 2621.610
797 2  3001.209 248.903 2555.007
798 2  2823.689 149.098 2895.274
799 2  2943.249 438.109 2449.661
800 2  2612.888 828.584 2979.740
801 2  685.343 2607.047 2720.656
802 2  558.994 2697.460 2757.465
803 2  940.446 2692.067 2724.472
804 2  233.623 2790.907 2427.487
805 2  341.815 2684.795 2554.740
806 2  404.973 3085.424 2457.950
807 2  764.658 2858.859 2353.729
808 2  378.609 2711.646 2782.124
809 2  537.826 2721.691 2956.569
810 2  930.605 3105.311 2889.998
811 2  21.539 2941.126 2811.554
812 2  0.087 2706.725 2423.683
813 2  354.789 3011.325 2870.420
814 2  492.476 2443.725 2565.116
815 2  607.415 2556.537 2641.880
816 2  623.213 2779.298 2840.023
817 2  323.214 2953.634 2748.567
818 2  139.925 2653.876 2355.948
819 2  189.910 2945.209 2966.709
820 2  259.088 3047.672 2561.689
821 2  863.087 3036.001 2421.775
822 2  767.848 2765.606 2800.408
823 2  294.183 2711.944 2973.840
824 2  538.066 3031.502 2549.105
825 2  235.950 2957.974 3078.526
826 2  234.123 2510.960 3125.760
827 2  58.880 2460.926 2763.392
828 2  86.432 2896.698 2424.727
829 2  706.434 3147.891 2793.937
830 2  887.238 2622.233 2414.729
831 2  438.251 2746.902 2654.841
832 2  928.156 2611.140 2963.249
833 2  42.345 2420.650 2945.031
834 2  388.290 2401.813 2829.293
835 2  786.055 3116.812 2538.571
836 2  388.128 2003.924 2095.266
837 2  54.146 2475.679 2594.025
838 2  570.636 2410.852 2675.811
839 2  716.008 2658.229 2830.487
840 2  642.857 2966.659 2733.448
841 2  797.230 2959.989 2678.563
842 2  435.854 2826.246 2522.021
843 2  915.558 3036.556 2781.972
844 2  156.171 2849.275 2715.740
845 2  146.417 2485.986 2955.792
846 2  940.018 2408.407 2665.849
847 2  802.316 3092.810 2856.587
848 2  167.002 2643.166 2667.939
849 2  940.315 2835.376 2599.407
850 2  764.332 2593.977 2439.326
851 2  198.850 2390.631 2896.949
852 2  277.320 2740.571 2719.978
853 2  628.791 2472.368 2800.324
854 2  657.074 2652.008 2507.029
855 2  234.222 2658.685 3148.336
856 2  620.539 3122.893 2593.336
857 2  417.794 2831.452 2900.601
858 2  466.817 2887.032 2684.094
859 2  487.222 2907.233 3128.174
860 2  496.220 2842.158 2403.965
861 2  951.622 2952.145 2396.765
862 2  368.979 2393.956 2959.536
863 2  692.539 3033.339 2549.121
864 2  8.231 2605.656 2724.614
865 2  568.697 2973.638 2424.799
866 2  614.104 2931.166 3063.311
867 2  622.016 3017.404 2927.638
868 2  88.447 2815.628 2980.272
869 2  692.671 2397.791 2978.414
870 2  721.657 2955.500 2889.579
871 2  82.555 3090.399 2604.701
872 2  987.361 2558.412 2698.642
873 2  692.304 3209.687 3842.376
874 2  770.233 2456.393 2719.080
875 2  579.299 2594.798 3023.308
876 2  853.356 2939.131 2931.618
877 2  80.035 2459.126 3100.791
878 2  889.774 2709.855 2869.101
879 2  17.868 3148.803 2492.019
880 2  221.305 2640.451 2876.906
881 2  811.768 2427.396 2850.430
882 2  525.958 3122.542 3040.389
883 2  201.652 2955.710 2673.475
884 2  722.326 2874.781 2723.294
885 2  608.398 2480.742 2947.643
886 2  377.845 2523.849 2761.673
887 2  143.099 2726.640 2513.367
888 2  442.106 3104.508 2621.694
889 2  622.582 2761.570 3116.970
890 2  673.954 2821.942 2594.333
891 2  355.928 2404.130 2584.026
892 2  245.684 2936.455 2493.750
893 2  852.986 2754.671 2412.157
894 2  422.116 2465.880 2390.188
895 2  67.093 2737.353 2882.724
896 2  344.040 2734.737 2408.338
897 2  783.076 3098.026 2668.211
898 2  786.883 2812.164 3003.040
899 2  429.882 3016.406 2731.202
900 2  56.757 2995.442 2972.818
901 2  2692.650 2845.743 2425.994
902 2  2304.445 2822.099 2309.739
903 2  2289.596 2593.370 2519.786
904 2  2869.032 2759.382 2807.674
905 2  2541.975 2652.339 2445.225
906 2  2722.580 2312.049 2198.429
907 2  2474.976 2777.003 2940.010
908 2  2806.988 2344.115 2381.934
909 2  2789.683 2597.652 2377.740
910 2  2503.036 2752.330 2367.224
911 2  2641.924 2476.983 2955.948
912 2  2286.674 2727.569 2479.500
913 2  2378.591 2680.817 2959.863
914 2  2789.314 2512.557 2831.085
915 2  2807.104 2305.192 2768.833
916 2  2691.610 2389.959 2828.612
917 2  2405.510 2843.852 2597.301
918 2  2227.508 2840.799 2709.150
919 2  2541.588 2913.113 2814.844
920 2  2449.886 2315.472 2755.298
921 2  2850.570 2683.864 2446.007
922 2  2586.944 2214.009 2472.481
923 2  2501.096 2798.486 2668.859
924 2  2555.265 2633.188 2272.443
925 2  2436.301 2917.407 2442.355
926 2  2435.458 2447.416 2949.190
927 2  2634.075 2472.840 2266.481
928 2  2780.965 2550.102 2599.989
929 2  2529.764 2418.049 2374.185
930 2  2319.061 2523.783 2744.895