ITEM: TIMESTEP
0
ITEM: NUMBER OF ATOMS
1000
ITEM: BOX BOUNDS pp pp pp
-1.0000000000000000e+02 5.1000000000000000e+03
-1.0000000000000000e+02 5.1000000000000000e+03
-1.0000000000000000e+02 5.1000000000000000e+03
ITEM: ATOMS type x y z ix iy iz
1 56.676 573.506 368.415 0 0 0
1 2295.74 2417.5 4939.74 0 0 0
1 2155.95 2170.47 2555.05 0 0 0
1 4366.08 439.866 1295.87 0 0 0
1 400.196 3893.91 82.911 0 0 0
1 2440.02 3346.3 1530 0 0 0
1 2676.45 1119.34 2034.05 0 0 0
1 1746.6 4295.55 5000 0 0 0
1 1172.96 4779.79 385.318 0 0 0
1 112.26 2898.13 3448.16 0 0 0
1 3451.1 1580.84 4214.95 0 0 0
1 1118.82 321.628 526.76 0 0 0
1 1695.94 3077.91 1420.68 0 0 0
1 4896.51 3757.53 1725.03 0 0 0
1 3184.25 669.308 1666.13 0 0 0
1 5000 496.852 1676.52 0 0 0
1 4143.91 369.502 239.557 0 0 0
1 2962.2 3023.32 3424.83 0 0 0
1 1594.12 2507.65 3571.5 0 0 0
1 3164.4 2788.02 336.502 0 0 0
1 1689.33 1424.8 4912.75 0 0 0
1 1667.29 2952.3 221.43 0 0 0
1 2853.92 4005.68 237.791 0 0 0
1 2753.99 271.848 61.848 0 0 0
1 834.637 2002.91 3973.64 0 0 0
1 1650.64 1895.5 4081.87 0 0 0
1 4084.8 4573.46 4969.08 0 0 0
1 4968.05 1608.08 171.018 0 0 0
1 3385.76 3883.85 931.627 0 0 0
1 4934.83 2775.99 3658.82 0 0 0
1 2997.37 1489.15 525.675 0 0 0
1 979.358 761.19 4239.95 0 0 0
1 4267.84 2517.51 4948.18 0 0 0
1 1081.44 2964.07 2489.78 0 0 0
1 4891.83 20.132 3281 0 0 0
1 4706.54 1667.23 318.749 0 0 0
1 1138.1 4504.34 4848.13 0 0 0
1 2593.09 4958.93 2791.32 0 0 0
1 3969.55 3686.7 346.271 0 0 0
1 1083.59 995.291 1645.31 0 0 0
1 2271.34 4491.53 625.568 0 0 0
1 4726.81 3308.42 1438.29 0 0 0
1 2784.05 4824.58 191.274 0 0 0
1 772.437 4665.05 907.267 0 0 0
1 2640.88 2673.22 1912.1 0 0 0
1 2353.04 2154.92 4053.49 0 0 0
1 4413.57 4541.22 1341.7 0 0 0
1 1209.9 3575.43 4022.38 0 0 0
1 1602.24 1867.54 4881.14 0 0 0
1 2569.73 2922.85 2979.84 0 0 0
1 2926.37 1199.28 3473.73 0 0 0
1 3186.12 3175.37 1685.58 0 0 0
1 2248.46 1488.06 3339.75 0 0 0
1 536.023 508.588 1199.11 0 0 0
1 4551.85 1334.6 2095.82 0 0 0
1 2040.74 456.543 109.6 0 0 0
1 1949.38 3504.6 597.116 0 0 0
1 4485.85 2763.26 2675.34 0 0 0
1 3094.49 2516.55 1492.17 0 0 0
1 904.205 3099.48 279.515 0 0 0
1 1983.45 1043.36 3285.7 0 0 0
1 3478.29 894.477 1006.62 0 0 0
1 1858.24 1575.79 2723.04 0 0 0
1 1807.72 852.285 3497.79 0 0 0
1 482.973 2052.62 3202.9 0 0 0
1 1975.32 1048.12 187.573 0 0 0
1 2167.83 1651.5 3284.13 0 0 0
1 957.71 1570.37 499.855 0 0 0
1 1156.46 408.036 370.982 0 0 0
1 0 1240.52 688.141 0 0 0
1 1706.31 3667.53 1482.06 0 0 0
1 512.73 2600.65 1564.02 0 0 0
1 105.028 780.022 1689.59 0 0 0
1 12.867 2879.91 2160.8 0 0 0
1 373.867 260.724 315.317 0 0 0
1 2101.14 121.719 2299.09 0 0 0
1 166.117 20.718 1401.53 0 0 0
1 753.051 0 3459.34 0 0 0
1 1777.38 283.99 653.579 0 0 0
1 546.715 4553.78 3297.68 0 0 0
1 1174.91 519.656 3922.85 0 0 0
1 2718.59 2145.76 4894.84 0 0 0
1 867.314 510.869 357.927 0 0 0
1 3499.21 1922.56 1296.31 0 0 0
1 725.628 3465.86 0 0 0 0
1 995.07 612.223 2061.17 0 0 0
1 129.666 742.307 625.818 0 0 0
1 0 655.514 1616.52 0 0 0
1 848.249 1954.5 1082.48 0 0 0
1 166.916 484.19 1005.68 0 0 0
1 1174.51 34.205 85.221 0 0 0
1 400.147 847.194 96.631 0 0 0
1 523.222 500.974 856.974 0 0 0
1 1148.68 100.173 691.672 0 0 0
1 7.064 684.473 136.394 0 0 0
1 26.505 1262.85 285.448 0 0 0
1 482.081 98.302 645.103 0 0 0
1 538.918 285.941 810.092 0 0 0
1 472.367 372.759 101.049 0 0 0
1 1042.33 182.491 306.913 0 0 0
1 183.888 575.531 228.861 0 0 0
1 213.587 65.357 1120.41 0 0 0
1 166.703 766.393 501.866 0 0 0
1 1594.6 427.951 251.139 0 0 0
1 573.625 1063.28 507.286 0 0 0
1 885.763 0 767.165 0 0 0
1 305.918 748.735 922.507 0 0 0
1 860.575 1030.56 336.118 0 0 0
1 418.294 487.288 469.811 0 0 0
1 252.787 655.489 511.436 0 0 0
1 1348.47 0 136.507 0 0 0
1 3183.5 1941.71 0 0 0 0
1 1170.91 1317.34 142.709 0 0 0
1 783.952 1103.3 730.75 0 0 0
1 743.269 4069.22 1435.34 0 0 0
1 737.298 647.383 789.437 0 0 0
1 461.245 68.523 1075.05 0 0 0
1 2341.23 1997.8 251.239 0 0 0
1 1399.47 4125.25 117.42 0 0 0
1 263.667 519.273 402.094 0 0 0
1 689.815 719.289 589.405 0 0 0
1 29.356 82.863 1224.69 0 0 0
1 265.767 830.33 1979.6 0 0 0
1 1038.87 140.96 191.629 0 0 0
1 378.16 382.802 904.894 0 0 0
1 253.893 0 439.985 0 0 0
1 282.617 443.907 862.301 0 0 0
1 365.256 676.96 732.893 0 0 0
1 63.113 2193.79 1056.26 0 0 0
1 904.868 1133.73 751.749 0 0 0
1 251.165 115.617 400.834 0 0 0
1 406.569 1063.71 653.967 0 0 0
1 759.151 363.192 532.818 0 0 0
1 1546 972.235 3.209 0 0 0
1 929.471 733.005 1156.72 0 0 0
1 1882.44 2599.75 1042.45 0 0 0
1 0 1776.26 1121.04 0 0 0
1 1054.31 165.852 749.252 0 0 0
1 1376.97 964.896 2951.3 0 0 0
1 501.31 815.193 580.206 0 0 0
1 900.971 463.247 0 0 0 0
1 1141.5 1408.36 532.866 0 0 0
1 794.002 256.644 220.738 0 0 0
1 740.551 1116.39 1592.1 0 0 0
1 1101.02 372.601 124.631 0 0 0
1 171.61 169.554 1832.01 0 0 0
1 87.959 1179.77 748.299 0 0 0
1 625.254 337.553 742.825 0 0 0
1 1249.05 877.926 993.465 0 0 0
1 738.65 484.935 541.553 0 0 0
1 1114.88 283.87 0.023 0 0 0
1 5.404 3393.5 4548.95 0 0 0
1 694.54 524.791 1010.32 0 0 0
1 477.174 1042.8 444.213 0 0 0
1 864.08 678.595 122.576 0 0 0
1 3290.45 2902.76 3398.66 0 0 0
1 886.513 1684.46 2059.34 0 0 0
1 131.673 167.036 1065.29 0 0 0
1 610.133 862.88 1009.68 0 0 0
1 161.825 116.097 695.791 0 0 0
1 0 1264.4 477.056 0 0 0
1 694.364 369.921 289.233 0 0 0
1 83.234 326.41 574.492 0 0 0
1 144.422 2445.23 527.268 0 0 0
1 515.545 812.598 141.935 0 0 0
1 3042.23 3676.56 3639.26 0 0 0
1 838.658 131.455 1110.41 0 0 0
1 670.037 732.636 735.849 0 0 0
1 3211.68 1932.89 1565.03 0 0 0
1 741.211 184.365 2.018 0 0 0
1 2327.99 2831.69 313.977 0 0 0
1 1622.95 544.776 881.299 0 0 0
1 1161.05 398.048 982.454 0 0 0
1 324.663 968.947 98.528 0 0 0
1 1268.95 926.386 296.39 0 0 0
1 894.731 964.735 1345.72 0 0 0
1 924.745 2.527 899.186 0 0 0
1 460.472 1144.18 404.508 0 0 0
1 17.103 658.624 621.984 0 0 0
1 39.672 677.253 325.017 0 0 0
1 1119.61 3258.42 1709.36 0 0 0
1 977.26 115.153 824.76 0 0 0
1 735.8 96.622 85.893 0 0 0
1 946.598 1456.54 4105.49 0 0 0
1 785.381 808.976 862.003 0 0 0
1 614.99 843.543 183.16 0 0 0
1 1559.2 0 1084.53 0 0 0
1 111.844 1007.03 494.95 0 0 0
1 407.086 1074.72 533.471 0 0 0
1 1455.52 0 370.276 0 0 0
1 755.649 593.286 1419.91 0 0 0
1 723.706 810.983 660.866 0 0 0
1 223.822 163.925 18.433 0 0 0
1 0 919.537 1402.81 0 0 0
1 735.071 825.066 540.926 0 0 0
1 3459.51 70.383 2943.63 0 0 0
1 686.553 760.166 189.179 0 0 0
1 318.254 3911.88 1418.31 0 0 0
1 666.112 973.239 755.72 0 0 0
1 161.056 584.212 496.883 0 0 0
1 0 1181.83 833.584 0 0 0
1 0 753.516 2029.47 0 0 0
1 359.85 70.721 1210.63 0 0 0
1 1119.92 814.419 0 0 0 0
1 312.639 395.251 429.825 0 0 0
1 0 1360.47 785.677 0 0 0
1 169.298 402.298 875.377 0 0 0
1 552.197 935.68 229.707 0 0 0
1 87.283 250.186 1142.04 0 0 0
1 1169.5 1412.6 650.998 0 0 0
1 1088.58 656.668 359.12 0 0 0
1 539.606 66.282 739.977 0 0 0
1 668.047 1111.68 690.678 0 0 0
1 492.339 409.441 1163.03 0 0 0
1 913.772 361.759 1641.15 0 0 0
1 1846.96 1757.91 2513.63 0 0 0
1 2797.09 3319.55 2365.39 0 0 0
1 1471.81 2926.81 656.491 0 0 0
1 1072.37 136.441 1197.51 0 0 0
1 236.365 551.214 893.857 0 0 0
1 934.762 1120.27 922.8 0 0 0
1 2086.31 836.398 889.859 0 0 0
1 1095 485.602 1091.97 0 0 0
1 753.252 568.108 93.818 0 0 0
1 2717 2958.14 2347.47 0 0 0
1 522.289 254.665 390.894 0 0 0
1 1052.84 1959.68 2189.52 0 0 0
1 93.434 567.608 705.013 0 0 0
1 724.919 152.188 296.353 0 0 0
1 658.878 2674.58 1434.53 0 0 0
1 621.022 4021.42 2836.38 0 0 0
1 315.977 122.58 1119.3 0 0 0
1 185.917 80.96 1000.41 0 0 0
1 726.051 870.323 777.084 0 0 0
1 224.726 913.711 288.094 0 0 0
1 2606.86 1977.45 896.118 0 0 0
1 128.676 523.234 594.897 0 0 0
1 537.156 897.346 1398.02 0 0 0
1 791.983 1420.45 336.79 0 0 0
1 1514.8 646.9 4.647 0 0 0
1 434.139 364.536 438.877 0 0 0
1 1048.28 1051.54 296.374 0 0 0
1 1021.38 4836.46 2808.83 0 0 0
1 1132.2 1019.74 961.52 0 0 0
1 601.345 947.432 877.155 0 0 0
1 1125.98 0 990.73 0 0 0
1 735.9 1190.9 387.086 0 0 0
1 874.609 963.017 2092.53 0 0 0
1 771.348 1298.4 492.979 0 0 0
1 590.816 692.553 653.645 0 0 0
1 994.558 4080.16 2539.62 0 0 0
1 262.532 656.879 1150.76 0 0 0
1 0 639.603 935.416 0 0 0
1 1007.28 852.271 642.868 0 0 0
1 1188.88 160.285 2409.94 0 0 0
1 1.582 1232.29 3393.43 0 0 0
1 1558.36 2917.75 4209.6 0 0 0
1 875.204 953.698 458.979 0 0 0
1 37.515 3285.28 3496.3 0 0 0
1 406.724 869.443 632.661 0 0 0
1 767.63 536.369 752.022 0 0 0
1 373.994 3046.35 975.723 0 0 0
1 1313.95 767.452 899.522 0 0 0
1 124.289 225.47 551.351 0 0 0
1 448.29 568.46 554.384 0 0 0
1 719.607 276.907 2214.93 0 0 0
1 863.655 974.05 1177.01 0 0 0
1 425.356 0.063 1154.67 0 0 0
1 167.628 310.125 954.709 0 0 0
1 956.3 440.293 414.909 0 0 0
1 520.68 493.552 621.395 0 0 0
1 518.692 350.762 1071.31 0 0 0
1 605.84 480.431 1293.93 0 0 0
1 665.328 686.168 1497.81 0 0 0
1 620.89 610.837 851.988 0 0 0
1 632.289 1067.12 388.418 0 0 0
1 621.74 187.574 10.272 0 0 0
1 1235.62 921.18 782.957 0 0 0
1 463.121 883.946 941.246 0 0 0
1 1280.68 1567.06 240.386 0 0 0
1 2158.33 1086.76 4455.63 0 0 0
1 771.994 887.624 68.704 0 0 0
1 252.58 704.554 73.706 0 0 0
1 3831.94 372.344 3670.63 0 0 0
1 2567.14 4064.23 3021.61 0 0 0
1 931.225 665.911 672.216 0 0 0
1 769.592 64.758 377.76 0 0 0
1 1021.84 906.627 959.108 0 0 0
1 27.065 326.611 1003.59 0 0 0
1 525.121 678.313 258.111 0 0 0
1 922.416 266.835 740.888 0 0 0
1 316.843 892.127 218.03 0 0 0
1 161.813 512.806 339.369 0 0 0
1 773.512 154.342 501.162 0 0 0
1 368.622 1219.78 112.15 0 0 0
1 602.339 516.097 707.791 0 0 0
1 950.444 1076.36 1172.23 0 0 0
1 606.8 1055.52 823.045 0 0 0
1 353.444 79.75 1629.77 0 0 0
1 523.483 688.079 848.201 0 0 0
1 0 962.52 199.53 0 0 0
1 545.055 1015.89 1040.78 0 0 0
1 990.978 631.111 0 0 0 0
1 1527.82 205.176 85.119 0 0 0
1 1246.41 4574.17 1578.44 0 0 0
1 857.917 257.63 1078.01 0 0 0
1 183.32 1329.49 349.659 0 0 0
1 479.828 208.135 630.861 0 0 0
1 799.367 971.403 0 0 0 0
1 82.459 3605.65 2356.79 0 0 0
1 599.14 275.217 914.536 0 0 0
1 212.255 675.988 188.54 0 0 0
1 1224.49 674.63 182.694 0 0 0
1 960.948 679.991 389.702 0 0 0
1 3129.69 3165.73 3250.84 0 0 0
1 4.376 1168.95 366.514 0 0 0
1 1364.2 128.275 411.262 0 0 0
1 1376.56 467.399 35.371 0 0 0
1 740.709 1575.33 2461.94 0 0 0
1 993.483 356.61 71.212 0 0 0
1 245.695 2938.98 1966.02 0 0 0
1 357.186 106.884 917.783 0 0 0
1 238.372 1695.09 1073.82 0 0 0
1 1148.26 616.216 0 0 0 0
1 119.454 1020.45 183.119 0 0 0
1 911.344 3639.25 3268.82 0 0 0
1 133.211 376.509 1182.93 0 0 0
1 852.365 580.267 1342.03 0 0 0
1 1660.81 823.744 1113.61 0 0 0
1 681.501 1150.07 812.039 0 0 0
1 1054.61 1071.72 60.649 0 0 0
1 1183.31 2218.74 1586.57 0 0 0
1 1696.03 757.625 1013.72 0 0 0
1 798.929 796.286 184.251 0 0 0
1 62.534 2001.72 280.846 0 0 0
1 815.059 1029.62 998.951 0 0 0
1 1262.62 450.207 223.181 0 0 0
1 2758.76 1928.27 2.803 0 0 0
1 637.96 0 1474.73 0 0 0
1 1383.83 439.504 758.335 0 0 0
1 310.864 590.493 238.366 0 0 0
1 537.82 345.77 476.712 0 0 0
1 702.495 441.453 1335.98 0 0 0
1 882.535 1481.61 551.652 0 0 0
1 526.391 455.61 161.298 0 0 0
1 3996.63 2154.8 5000 0 0 0
1 7.555 1393.62 21.756 0 0 0
1 126.642 1084.26 621.366 0 0 0
1 3547.54 3482.27 162.816 0 0 0
1 284.575 681.149 824.437 0 0 0
1 522.241 207.589 79.886 0 0 0
1 709.965 718.71 1225.14 0 0 0
1 927.212 197.845 74.307 0 0 0
1 1726.65 913.383 395.091 0 0 0
1 218.436 776.777 790.192 0 0 0
1 216.875 1062.87 507.913 0 0 0
1 323.758 2.4 284.053 0 0 0
1 285.145 1151.02 476.699 0 0 0
1 406.45 980.408 192.665 0 0 0
1 506.44 1026.94 143.201 0 0 0
1 65.86 1366.45 2698.21 0 0 0
1 3.629 824.532 0 0 0 0
1 406.745 592.69 992.451 0 0 0
1 968.432 544.203 1023.81 0 0 0
1 1011.07 427.714 183.919 0 0 0
1 831.608 623.801 331.106 0 0 0
1 860.506 12.897 0.181 0 0 0
1 531.785 364.35 1358.82 0 0 0
1 194.123 1525.8 4473.43 0 0 0
1 1014.38 634.19 869.217 0 0 0
1 271.655 909.872 467.998 0 0 0
1 4374.28 1323.58 3895.27 0 0 0
1 1133.52 1283.52 3179.47 0 0 0
1 2583.85 15.674 1016.02 0 0 0
1 508.854 598.073 927.729 0 0 0
1 2960.23 4674.98 342.197 0 0 0
1 2367.8 2506.49 4979.3 0 0 0
1 2513.18 534.023 0 0 0 0
1 259.092 1112.7 1053.17 0 0 0
1 359.205 1093.5 199.846 0 0 0
1 1258.61 694.106 545.007 0 0 0
1 477.048 411.493 543.596 0 0 0
1 602.164 871.606 739.155 0 0 0
1 3010.47 331.78 899.71 0 0 0
1 1232.73 126.939 782.585 0 0 0
1 438.326 303.221 0 0 0 0
1 1026.2 1406.55 4832.23 0 0 0
1 308.24 645.021 1039.36 0 0 0
1 1125.15 3867.39 2869.63 0 0 0
1 36.081 216.407 236.796 0 0 0
1 662.679 267.138 88.144 0 0 0
1 2528.47 3296.18 1161 0 0 0
1 2692.7 4152.74 122.442 0 0 0
1 2723.91 1842.77 4483.19 0 0 0
1 915.437 987.212 70.998 0 0 0
1 1198.6 691.686 714.935 0 0 0
1 1290.22 1027.78 747.207 0 0 0
1 906.012 656.833 967.615 0 0 0
1 232.005 188.032 742.621 0 0 0
1 933.333 2832.94 508.089 0 0 0
1 715.093 1321.5 2737.41 0 0 0
1 3484.36 3705.27 0 0 0 0
1 512.12 278.93 164.969 0 0 0
1 154.038 885.197 482.082 0 0 0
1 486.054 1075.02 833.145 0 0 0
1 604.403 966.084 137.236 0 0 0
1 453.16 0.003 715.659 0 0 0
1 741.077 857.646 960.169 0 0 0
1 4572.43 929.529 1141.92 0 0 0
1 917.306 179.133 531.896 0 0 0
1 734.825 257.136 724.623 0 0 0
1 250.776 187.197 304.021 0 0 0
1 1971.05 1133.56 1030.79 0 0 0
1 539.433 0 1001.15 0 0 0
1 1259.91 649.51 306.128 0 0 0
1 1572.74 1011.67 183.458 0 0 0
1 0 304.949 644.78 0 0 0
1 1364.16 3510.5 3812.73 0 0 0
1 1129.54 1031.82 769.004 0 0 0
1 2286.05 1833.48 1790.56 0 0 0
1 1263.32 1222.09 833.052 0 0 0
1 0 684.129 1349.33 0 0 0
1 799.393 360.968 782.566 0 0 0
1 2096.49 1362.38 1581.67 0 0 0
1 1143.71 729.963 269.821 0 0 0
1 271.792 135.772 830.861 0 0 0
1 141.318 302.219 708.986 0 0 0
1 506.42 1261.22 67.16 0 0 0
1 1013.44 893 513.69 0 0 0
1 478.559 268.562 534.085 0 0 0
1 505.184 1031.02 324.868 0 0 0
1 634.515 106.692 1051.38 0 0 0
1 1291.92 97.544 91.923 0 0 0
1 822.998 560.475 970.225 0 0 0
1 226.491 369.155 583.789 0 0 0
1 0.025 1587.79 1444.97 0 0 0
1 4607.23 7.898 197.868 0 0 0
1 307.778 392.228 657.889 0 0 0
1 75.152 1074.81 291.716 0 0 0
1 695.79 27.895 261.753 0 0 0
1 320.738 93.611 107.445 0 0 0
1 184.747 946.144 132.762 0 0 0
1 1077.66 428.941 876.802 0 0 0
1 790.261 166.924 1215.49 0 0 0
1 241.663 413.388 752.584 0 0 0
1 967.023 556.06 802.07 0 0 0
1 248.756 0 2346.32 0 0 0
1 1000.36 110.017 417.879 0 0 0
1 1363.61 184.899 627.411 0 0 0
1 388.61 1039.08 771.066 0 0 0
1 1574.5 243.877 536.833 0 0 0
1 278.546 800.324 144.405 0 0 0
1 1285.19 3709.35 4555.35 0 0 0
1 559.012 1093.81 927.829 0 0 0
1 594.355 1308.72 1529.67 0 0 0
1 884.698 417.175 877.444 0 0 0
1 1058.39 1114.52 851.875 0 0 0
1 48.79 446.634 545.995 0 0 0
1 71.137 1922.83 1599.74 0 0 0
1 962.926 737.776 1045.01 0 0 0
1 2152.9 0 3549.44 0 0 0
1 4637.11 2147.54 4347.29 0 0 0
1 2319.15 730.836 3908.51 0 0 0
1 505.979 915.29 100.448 0 0 0
1 669.203 449.104 147.89 0 0 0
1 536.999 561.563 208.233 0 0 0
1 565.452 528.572 514.579 0 0 0
1 1249.85 279.397 251.856 0 0 0
1 2250.18 1375.76 2004.37 0 0 0
1 549.387 125.47 1135.29 0 0 0
1 832.343 1249.95 3055.48 0 0 0
1 456.057 131.694 836.813 0 0 0
1 827.818 699.493 616.053 0 0 0
1 4502.36 2824.44 2476.43 0 0 0
1 889.902 1147.88 332.038 0 0 0
1 551.404 1083.39 47.425 0 0 0
1 994.082 265.336 0 0 0 0
1 17.434 122.677 597.297 0 0 0
1 4436.23 3430.96 1650.08 0 0 0
1 413.906 176.755 534.854 0 0 0
1 2762.59 2292.55 3317.74 0 0 0
1 4.447 1044.06 2351 0 0 0
1 651.127 238.981 1017.62 0 0 0
1 184.864 1029.62 300.125 0 0 0
1 279.771 485.019 249.375 0 0 0
1 330.401 1298.03 278.13 0 0 0
1 212.945 931.874 1096.14 0 0 0
1 252.026 591.179 128.923 0 0 0
1 98.534 851.005 780.232 0 0 0
1 873.807 1243.19 459.518 0 0 0
1 367.567 583.985 645.099 0 0 0
1 857.643 1325.69 153.79 0 0 0
1 200.885 1039.25 69.302 0 0 0
1 1223.82 551.218 590.558 0 0 0
1 403.352 548.974 1243.89 0 0 0
1 507.992 1367.37 311.584 0 0 0
1 389.437 1503.95 1584.06 0 0 0
1 768.676 915.25 368.367 0 0 0
1 1387.31 1.724 0 0 0 0
1 1211.09 261.78 58.889 0 0 0
1 3541.66 4206.38 2768.63 0 0 0
1 38.74 363.246 1360.36 0 0 0
1 3466.89 3.181 514.034 0 0 0
1 665.858 0 1038.25 0 0 0
1 542.373 607.442 759.983 0 0 0
1 481.175 642.191 644.514 0 0 0
1 1219.23 1118.37 1147.49 0 0 0
1 27.068 1150.25 504.975 0 0 0
1 1253.23 1199.59 2216.68 0 0 0
1 428.884 338.341 628.688 0 0 0
1 830.74 119.344 1.299 0 0 0
1 854.519 414.332 226.706 0 0 0
1 275.731 3776.1 2496.33 0 0 0
1 2557.46 2089.43 3984.39 0 0 0
1 625.789 632.776 502.254 0 0 0
1 239.262 1642.7 4264.51 0 0 0
1 673.26 612.964 692.772 0 0 0
1 362.148 527.291 339.289 0 0 0
1 807.341 795.862 1146.04 0 0 0
1 348.997 646.482 356.273 0 0 0
1 1297.32 358.897 670.109 0 0 0
1 660.107 882.982 86.174 0 0 0
1 173.668 478.582 457.93 0 0 0
1 883.006 8.91 1034.97 0 0 0
1 856.895 635.943 1112.28 0 0 0
1 861.342 97.139 854.416 0 0 0
1 448.367 168.854 166.398 0 0 0
1 1353.29 3530.79 271.71 0 0 0
1 323.032 255.918 1166.44 0 0 0
1 679.807 844.025 409.286 0 0 0
1 932.303 674.765 1572.79 0 0 0
1 441.927 919.096 277.088 0 0 0
1 232.257 66.707 302.735 0 0 0
1 411.02 927.133 528.885 0 0 0
1 1244.39 171.78 384.08 0 0 0
1 1016.93 1991.49 3167.43 0 0 0
1 469.083 114.185 963.271 0 0 0
1 615.547 847.202 604.125 0 0 0
1 854.005 440.097 506.964 0 0 0
1 579.287 721.894 1236 0 0 0
1 4230.48 2878.28 4521.58 0 0 0
1 1207.21 776.304 816.044 0 0 0
1 1287.38 2040.25 664.116 0 0 0
1 1376.14 1012.09 25.72 0 0 0
1 658.012 553.97 588.237 0 0 0
1 1347.17 284.191 1128.11 0 0 0
1 1078.59 0 879.372 0 0 0
1 721.67 570.588 461.634 0 0 0
1 1100.26 944.542 599.056 0 0 0
1 1073.48 972.536 858.831 0 0 0
1 4708.66 2910.89 746.291 0 0 0
1 502.678 100.052 11.058 0 0 0
1 268.368 1014.7 214.139 0 0 0
1 632.64 840.934 1220.54 0 0 0
1 752.669 153.483 784.702 0 0 0
1 1052.42 1173.24 0 0 0 0
1 516.856 45.999 314.944 0 0 0
1 3294.51 4075.32 2940.02 0 0 0
1 117.579 170.702 780.516 0 0 0
1 334.346 692.229 0 0 0 0
1 2842.72 1386.43 2977.44 0 0 0
1 566.69 1194.88 845.931 0 0 0
1 2267.02 2946.92 236.745 0 0 0
1 565.614 505.073 980.359 0 0 0
1 1534 109.175 597.466 0 0 0
1 4524.54 1435.6 3015.39 0 0 0
1 272.193 23.612 1337.84 0 0 0
1 2180.62 2466.92 2268.33 0 0 0
1 787.68 0.024 104.544 0 0 0
1 1952.9 0.788 1501.99 0 0 0
1 1342.78 10.555 528.066 0 0 0
1 653.619 69.638 356.384 0 0 0
1 569.633 1077.12 233.423 0 0 0
1 435.413 1175.7 689.554 0 0 0
1 414.352 13.505 97.208 0 0 0
1 1252.45 139.353 1111.73 0 0 0
1 388.904 1070.4 938.535 0 0 0
1 1153.97 0 371.325 0 0 0
1 566.847 385.05 965.062 0 0 0
1 1136.85 113.593 382.16 0 0 0
1 4242.67 4361.18 2581.64 0 0 0
1 390.214 64.188 198.421 0 0 0
1 1174.68 595.081 1321.15 0 0 0
1 356.402 1120.91 1374.06 0 0 0
1 594.301 269.686 1119.95 0 0 0
1 433.84 822.006 223.487 0 0 0
1 422.289 245.402 440.622 0 0 0
1 654.723 1078.26 120.754 0 0 0
1 0 3256.82 2329.88 0 0 0
1 1164.08 4203.25 4628.91 0 0 0
1 115.333 696.892 238.692 0 0 0
1 1296.72 243.584 467.92 0 0 0
1 146.52 329.354 1072.29 0 0 0
1 889.224 875.354 275.983 0 0 0
1 466.335 467.649 1365.94 0 0 0
1 816.684 1045.59 167.372 0 0 0
1 941.305 395.027 748.278 0 0 0
1 1069.69 341.618 1541.31 0 0 0
1 469.591 1687.37 1162.7 0 0 0
1 582.178 533.319 304.482 0 0 0
1 988.306 477.551 67.544 0 0 0
1 1104.51 664.008 166.279 0 0 0
1 1537.76 1150.88 152.733 0 0 0
1 1456.71 991.959 858.703 0 0 0
1 1176.63 0.906 799.856 0 0 0
1 1222.68 91.068 475.153 0 0 0
1 192.302 877.538 687.847 0 0 0
1 271.321 756.65 447.694 0 0 0
1 162.664 48.072 394.922 0 0 0
1 2738.14 2980.62 1788.06 0 0 0
1 3320.81 2233.39 2877.51 0 0 0
1 185.292 614.895 804.54 0 0 0
1 451.087 0 1267.83 0 0 0
1 2792.58 446.13 1359.92 0 0 0
1 429.329 916.379 746.701 0 0 0
1 792.435 2329.72 915.975 0 0 0
1 816.887 0 660.718 0 0 0
1 961.735 1573.03 2463.68 0 0 0
1 780.138 2478.9 1320 0 0 0
1 590.838 354.479 125.451 0 0 0
1 1364.36 412.34 388.782 0 0 0
1 1052.04 662.419 665.142 0 0 0
1 321.13 154.896 209.961 0 0 0
1 863.954 926.776 1520.68 0 0 0
1 3470.26 4180.22 3252.98 0 0 0
1 1267.53 777.499 125.662 0 0 0
1 354.111 610.592 462.877 0 0 0
1 193.879 363.172 356.641 0 0 0
1 405.591 1870.35 662.5 0 0 0
1 1255.7 3459.06 2126.08 0 0 0
1 130.104 1011.5 795.737 0 0 0
1 452.532 543.333 708.13 0 0 0
1 516.537 674.746 533.346 0 0 0
1 153.384 1465.07 315.091 0 0 0
1 304.186 1135.77 882.024 0 0 0
1 0.007 137.417 998.932 0 0 0
1 716.089 1056.51 298.389 0 0 0
1 147.682 606.144 1139.41 0 0 0
1 598.345 0 0 0 0 0
1 358.747 242.088 604.062 0 0 0
1 1290.37 327.116 0 0 0 0
1 607.862 344.291 384.478 0 0 0
1 663.07 133.302 543.357 0 0 0
1 1269.44 318.976 139.203 0 0 0
1 145.001 157.208 354.553 0 0 0
1 1137.94 98.691 862.354 0 0 0
1 760.786 281.992 336.048 0 0 0
1 399.702 713.267 843.529 0 0 0
1 67.294 369.556 832.769 0 0 0
1 327.567 493.086 715.126 0 0 0
1 0 914.024 882.524 0 0 0
1 0 206.088 1203.67 0 0 0
1 423.045 1047.1 0 0 0 0
1 4006.94 1955.04 911.831 0 0 0
1 777.787 342.258 650.534 0 0 0
1 155.526 922.387 877.072 0 0 0
1 485.792 478.846 51.369 0 0 0
1 698.303 40.124 472.394 0 0 0
1 104.436 705.554 728.281 0 0 0
1 66.289 602.902 809.999 0 0 0
1 498.182 214.069 896.31 0 0 0
1 883.111 810.27 98.81 0 0 0
1 674.003 379.94 1105.26 0 0 0
1 385.441 724.44 424.816 0 0 0
1 151.431 500.283 785.552 0 0 0
1 352.633 293.194 711.406 0 0 0
1 153.988 344.536 488.178 0 0 0
1 295.888 15.581 852.83 0 0 0
1 1657.77 628.947 1112.19 0 0 0
1 2195.19 979.618 385.186 0 0 0
1 528.052 983.849 765.563 0 0 0
1 310.551 1017.78 429.476 0 0 0
1 549.193 599.169 1348.19 0 0 0
1 335.091 1132.8 1137.79 0 0 0
1 3239.71 4239.41 303.437 0 0 0
1 1041.57 796.417 271.747 0 0 0
1 390.701 1268.04 571.632 0 0 0
1 1052.02 481.367 648.506 0 0 0
1 1002.33 229.205 412.695 0 0 0
1 1033.36 828.338 758.575 0 0 0
1 1302.15 533.393 352.1 0 0 0
1 518.833 159.935 506.435 0 0 0
1 736.658 541.759 1125.44 0 0 0
1 0.173 119.334 1113.07 0 0 0
1 961.872 455.928 537.081 0 0 0
1 1005.1 913.338 0 0 0 0
1 750.589 365.274 188.843 0 0 0
1 13.968 803.623 925.405 0 0 0
1 843.641 526.668 846.355 0 0 0
1 405.594 457.171 629.901 0 0 0
1 928.122 3729.1 2479.68 0 0 0
1 1031.07 363.614 350.981 0 0 0
1 422.422 184.286 1078.14 0 0 0
1 697.76 1940.45 455.605 0 0 0
1 1222.05 181.042 552.204 0 0 0
1 342.603 1158.86 591.818 0 0 0
1 296.43 647.572 2952.88 0 0 0
1 1119.57 912.783 749.753 0 0 0
1 1089.51 728.956 798.712 0 0 0
1 180.992 1334.5 502.553 0 0 0
1 261.672 39.985 733.182 0 0 0
1 886.714 165.717 1004.77 0 0 0
1 331.321 802.358 703.458 0 0 0
1 515.755 1245.5 619.49 0 0 0
1 604.926 220.437 604.788 0 0 0
1 194.493 977.41 398.603 0 0 0
1 630.557 757.953 1132.5 0 0 0
1 1565.92 349.013 1113.17 0 0 0
1 395.407 265.516 929.143 0 0 0
1 1638.99 1969.47 596.907 0 0 0
1 132.902 1113.19 0 0 0 0
1 554.623 1356.2 1126.42 0 0 0
1 1126.36 857.696 894.829 0 0 0
1 14.814 1061.44 840.384 0 0 0
1 434.914 1406.41 1667.75 0 0 0
1 2507.77 1899.43 1602.68 0 0 0
1 818.657 175.387 135.021 0 0 0
1 2941.34 829.944 999.964 0 0 0
1 842.023 162.831 415.506 0 0 0
1 765.218 1057.02 499.338 0 0 0
1 1331.92 60.168 762.242 0 0 0
1 29.875 263.038 752.919 0 0 0
1 94.658 63.474 935.543 0 0 0
1 416.529 2306.42 679.66 0 0 0
1 710.263 2015.1 2955.07 0 0 0
1 807.718 429.69 1058.11 0 0 0
1 1998.2 1439.48 472.987 0 0 0
1 1187.54 766.185 449.815 0 0 0
1 4054.07 2370.68 2091.69 0 0 0
1 202.522 178.19 1191.97 0 0 0
1 574.354 119.132 899.011 0 0 0
1 110.337 887.589 360.99 0 0 0
1 473.908 236.27 259.703 0 0 0
1 3253.01 2190.05 3735.23 0 0 0
1 212.519 508.574 680.952 0 0 0
1 417.59 602.517 273.05 0 0 0
1 3207.22 1483.08 920.369 0 0 0
1 997.654 1245.95 163.488 0 0 0
1 19.787 748.176 4372.11 0 0 0
1 782.959 89.554 217.307 0 0 0
1 1118.32 436.848 23.564 0 0 0
1 1484.82 111.529 0 0 0 0
1 1106.23 1255.45 61.296 0 0 0
1 2193.42 2392.57 480.652 0 0 0
1 612.348 966.633 347.719 0 0 0
1 875.431 1531.44 2144.79 0 0 0
1 729.453 580.596 896.088 0 0 0
1 1649.17 4389.18 3246.05 0 0 0
1 754.392 614.249 588.622 0 0 0
1 1045.4 777.905 939.335 0 0 0
1 1807.88 779.243 1226.76 0 0 0
1 1182.24 558.184 158.753 0 0 0
1 1036.62 80.207 520.446 0 0 0
1 22.888 972.829 1159.79 0 0 0
1 2042.92 3634.09 4084.23 0 0 0
1 510.539 882.896 829.929 0 0 0
1 723.268 444.494 685.728 0 0 0
1 328.081 524.727 1073 0 0 0
1 614.073 706.988 405.839 0 0 0
1 773.01 276.472 114.263 0 0 0
1 364.915 831.625 463.878 0 0 0
1 358.864 752.633 1179.49 0 0 0
1 1170.9 1110.7 0 0 0 0
1 857.084 307.305 12.214 0 0 0
1 74.083 733.438 1087.81 0 0 0
1 80.946 1057.05 1030.22 0 0 0
1 928.473 0 1245.64 0 0 0
1 1042.42 626.839 1266.51 0 0 0
1 6.368 1110.1 1093.67 0 0 0
1 777.863 451.58 942.915 0 0 0
1 1016.86 960.616 695.933 0 0 0
1 878.341 1440.73 218.847 0 0 0
1 381.752 835.154 858.993 0 0 0
1 750.695 702.817 896.154 0 0 0
1 415.114 1107.95 93.516 0 0 0
1 766.997 706.05 255.86 0 0 0
1 981.793 665.732 114.866 0 0 0
1 451.298 1240.07 201.74 0 0 0
1 5000 3137.42 0 0 0 0
1 545.499 160.083 294.663 0 0 0
1 1006.62 2329.02 2738.35 0 0 0
1 913.735 361.035 320.089 0 0 0
1 4966.29 2808.92 3393.69 0 0 0
1 345.397 876.351 365.289 0 0 0
1 302.621 1034.75 4.794 0 0 0
1 522.249 1032.99 636.177 0 0 0
1 1381.88 978.721 592.031 0 0 0
1 1096.84 783.386 597.221 0 0 0
1 1433.71 1154.39 1430.08 0 0 0
1 820.152 212.223 596.137 0 0 0
1 1073.98 609.822 779.811 0 0 0
1 711.723 1415.51 727.268 0 0 0
1 3141.16 1304.25 73.463 0 0 0
1 197.646 201.874 636.817 0 0 0
1 943.016 2145.51 1014.87 0 0 0
1 694.808 977.778 440.992 0 0 0
1 2684.27 358.318 0 0 0 0
1 139.529 813.755 47.762 0 0 0
1 744.96 1112.53 26.625 0 0 0
1 860.933 239.46 318.065 0 0 0
1 525.417 296.226 688.368 0 0 0
1 733.822 294.142 944.451 0 0 0
1 2532.4 1691.27 0 0 0 0
1 2470.02 347.55 341.064 0 0 0
1 1095.58 213.242 892.85 0 0 0
1 1365.54 2057.26 1541.53 0 0 0
1 19.336 1236.31 50.049 0 0 0
1 452.912 466.931 949.378 0 0 0
1 338.134 360.339 552.79 0 0 0
1 636.627 33.682 929.35 0 0 0
1 5000 1220.6 2253.66 0 0 0
1 4567.55 2042.87 4044.26 0 0 0
1 2184.45 0 1572.65 0 0 0
1 1230.53 998.406 15.447 0 0 0
1 1238.94 24.571 216.519 0 0 0
1 2239.25 3252.58 3329.67 0 0 0
1 949.367 467.397 280.349 0 0 0
1 109.507 30.87 1109.06 0 0 0
1 641.563 1565.33 3812.66 0 0 0
1 631.529 1596.58 1152.49 0 0 0
1 1248.64 2716.61 2886.24 0 0 0
1 1375.29 1080.6 378.989 0 0 0
1 951.822 1462.35 1046.03 0 0 0
1 320.049 983.318 311.563 0 0 0
1 606.532 433.619 248.66 0 0 0
1 1549.58 0 2636.55 0 0 0
1 139.631 720.588 118.986 0 0 0
1 2158.88 2145.03 384.114 0 0 0
1 1281.21 4735.14 3867.61 0 0 0
1 732.321 801.216 309.035 0 0 0
1 878.535 1044.77 539.961 0 0 0
1 518.064 915.286 663.92 0 0 0
1 78.705 2478.28 4665.51 0 0 0
1 1826.68 910.691 538.027 0 0 0
1 65.942 462.453 304.522 0 0 0
1 549.266 458.559 417.219 0 0 0
1 1350.52 2162.65 124.03 0 0 0
1 885.566 405.941 110.015 0 0 0
1 1121.39 391.586 744.302 0 0 0
1 405.756 951.652 419.512 0 0 0
1 845.835 9.874 1150.21 0 0 0
1 424.302 192.678 0 0 0 0
1 0 838.421 309.862 0 0 0
1 488.976 254.012 1005 0 0 0
1 686.819 58.567 826.287 0 0 0
1 253.273 293.47 661.876 0 0 0
1 0 228.943 1063.31 0 0 0
1 716.081 165.524 647.606 0 0 0
1 383.566 76.886 0 0 0 0
1 745.856 522.898 202.304 0 0 0
1 142.154 2690.12 2581.97 0 0 0
1 888.581 900.104 0 0 0 0
1 638.412 36.373 1175.98 0 0 0
1 591.792 765.012 504.528 0 0 0
1 1414.58 227.532 502.59 0 0 0
1 2328.7 2835.64 2938.5 0 0 0
1 927.615 351.648 1108.73 0 0 0
1 3316.78 1713.53 2855.19 0 0 0
1 344.165 1147.27 0 0 0 0
1 496.422 28.252 841.842 0 0 0
1 475.953 784.205 466.007 0 0 0
1 2.621 244.224 544.822 0 0 0
1 2535.26 422.062 1027.71 0 0 0
1 584.607 704.098 155.947 0 0 0
1 2750.04 3970.89 2029.83 0 0 0
1 1303.59 1680.61 76.067 0 0 0
1 1145.79 1548.32 1463.82 0 0 0
1 289.084 3734.42 4504.49 0 0 0
1 0.001 3172.89 3302.7 0 0 0
1 4884.55 4710.37 2468.39 0 0 0
1 1556.84 2246.27 2595.87 0 0 0
1 835.204 774.312 709.709 0 0 0
1 4533.01 3112.7 4657.2 0 0 0
1 22.446 1850.84 3828.28 0 0 0
1 2151.48 5000 3783.34 0 0 0
1 961.656 2936.72 3923.73 0 0 0
1 583.329 3984.71 2537.87 0 0 0
1 252.635 1114.7 2039.06 0 0 0
1 2110.45 4164.65 848.468 0 0 0
1 3790.35 496.587 4129.51 0 0 0
1 82.866 3637.28 3055.83 0 0 0
1 3023.85 4601.62 454.462 0 0 0
1 4145.69 2281.03 628.081 0 0 0
1 210.611 2445.79 2599.49 0 0 0
1 2489.35 440.564 2203.61 0 0 0
1 2035.52 471.109 1441.58 0 0 0
1 923.057 3393.11 3265.45 0 0 0
1 2896 4883.7 107.455 0 0 0
1 3687.47 4962.61 3483.81 0 0 0
1 2680.09 4404.28 2529.52 0 0 0
1 1768.21 2553.34 2.841 0 0 0
1 2018.63 422.929 3740.11 0 0 0
1 1137.11 1400.44 2447.38 0 0 0
1 4620.97 1861.42 848.557 0 0 0
1 1964.86 4935.55 32.66 0 0 0
1 4436.62 4972.12 3083.26 0 0 0
1 1357.93 4006.39 2906.98 0 0 0
1 802.485 2.601 1498.17 0 0 0
1 421.917 254.894 808.936 0 0 0
1 329.467 198.534 61.653 0 0 0
2 4109.18 4966.36 1187.03 0 0 0
2 2310.81 4971.29 230.832 0 0 0
2 701.423 2137.93 1931.9 0 0 0
2 187.792 181.893 4330.94 0 0 0
2 2031.24 221.284 3670.31 0 0 0
2 2143.63 3533.65 4823.2 0 0 0
2 4466.32 4999.92 2618.66 0 0 0
2 1734.06 4418.02 160.333 0 0 0
2 265.733 1292.95 1752.77 0 0 0
2 180.719 1105.82 4970.19 0 0 0
2 1307.72 1905.86 0 0 0 0
2 3913.86 3968.06 2396.23 0 0 0
2 191.335 655.633 375.87 0 0 0
2 560.087 816.711 316.145 0 0 0
2 667.992 453.281 834.997 0 0 0
2 0 818.457 597.562 0 0 0
2 33.199 562.826 212.131 0 0 0
2 108.442 835.659 220.92 0 0 0
2 669.83 18.624 646.121 0 0 0
2 332.592 511.197 15.296 0 0 0
2 633.126 249.123 231.12 0 0 0
2 198.491 235.945 146.145 0 0 0
2 617.511 183.797 746.496 0 0 0
2 869.119 300.712 447.208 0 0 0
2 1017.23 220.827 625.239 0 0 0
2 271.055 291.592 842.126 0 0 0
2 887.852 588.514 489.805 0 0 0
2 559.698 913.017 476.589 0 0 0
2 5.099 4475.82 71.572 0 0 0
2 149.515 636.197 988.491 0 0 0
2 769.832 725.6 436.99 0 0 0
2 0.103 340.531 27.164 0 0 0
2 172.315 830.511 1004.22 0 0 0
2 292.023 971.807 607.515 0 0 0
2 911.463 717.878 249.689 0 0 0
2 0 25.782 383.606 0 0 0
2 655.774 999.081 0 0 0 0
2 734.534 925.781 218.5 0 0 0
2 911.618 856.89 822.562 0 0 0
2 384.312 678.138 150.89 0 0 0
2 321.513 936.045 972.046 0 0 0
2 465.346 735.069 983.004 0 0 0
2 1031.82 817.545 123.051 0 0 0
2 446.237 401.576 768.04 0 0 0
2 923.032 0 148.457 0 0 0
2 287.975 768.238 291.195 0 0 0
2 1864.44 4.245 1171.18 0 0 0
2 269.549 199.051 1004.62 0 0 0
2 282.534 384.435 1025.6 0 0 0
2 3161.19 5000 1016.19 0 0 0
2 374.191 728.191 574.7 0 0 0
2 671.226 253.239 471.533 0 0 0
2 630.492 796.151 872.389 0 0 0
2 3094.74 4432.61 4302.63 0 0 0
2 284.394 499.94 545.028 0 0 0
2 527.749 2.767 528.96 0 0 0
2 372.486 287.108 171.701 0 0 0
2 1010.08 917.402 361.672 0 0 0
2 957.409 282.3 209.751 0 0 0
2 882.12 124.429 702.108 0 0 0