ITEM: TIMESTEP
0
ITEM: NUMBER OF ATOMS
1000
ITEM: BOX BOUNDS pp pp pp
-1.0000000000000000e+02 5.1000000000000000e+03
-1.0000000000000000e+02 5.1000000000000000e+03
-1.0000000000000000e+02 5.1000000000000000e+03
ITEM: ATOMS type x y z ix iy iz
1 0.986 409.443 407.408 0 0 0
1 1972.33 2307.76 2321.68 0 0 0
1 725.552 459.04 409.653 0 0 0
1 129.282 425.656 514.679 0 0 0
1 488.547 587.615 784.214 0 0 0
1 72.383 805.444 717.679 0 0 0
1 766.168 73.209 483.522 0 0 0
1 895.507 489.708 132.899 0 0 0
1 871.248 561.736 707.711 0 0 0
1 754.344 922.244 143.668 0 0 0
1 881.503 350.46 814.825 0 0 0
1 653.999 650.653 664.87 0 0 0
1 100.772 912.644 260.349 0 0 0
1 635.807 568.538 35.776 0 0 0
1 2492.74 2494.5 1934.64 0 0 0
1 601.97 202.616 797.083 0 0 0
1 348.475 137.119 5.64 0 0 0
1 249.725 492.114 472.833 0 0 0
1 621.894 381.828 448.231 0 0 0
1 973.481 678.627 278.987 0 0 0
1 220.184 740.825 706.896 0 0 0
1 220.713 582.65 825.254 0 0 0
1 817.483 794.409 891.548 0 0 0
1 209.077 474.479 74.001 0 0 0
1 520.325 320.767 293.438 0 0 0
1 3008.51 1065.02 783.466 0 0 0
1 4991.9 2492.35 5.935 0 0 0
1 2908.4 446.708 1005.21 0 0 0
1 2835.87 605.97 482.561 0 0 0
1 2812.27 19.966 232.433 0 0 0
1 3108.2 795.366 1023.52 0 0 0
1 3021.24 678.206 470.69 0 0 0
1 3002.76 816.58 446.635 0 0 0
1 2532.28 28.917 2453.82 0 0 0
1 3084.95 596.089 397.423 0 0 0
1 2691.74 728.931 916.178 0 0 0
1 3043.18 627.304 255.242 0 0 0
1 2805.31 390.789 767.167 0 0 0
1 2825.96 304.785 588.425 0 0 0
1 3000.09 917.139 379.385 0 0 0
1 2798.26 564.94 293.678 0 0 0
1 2866.96 587.768 932.555 0 0 0
1 2930.19 1031.16 689.694 0 0 0
1 3035.43 494.96 201.51 0 0 0
1 3067.26 547.605 743.355 0 0 0
1 2736.24 739.35 92.338 0 0 0
1 3059.57 170.528 670.452 0 0 0
1 2985.65 529.161 315.367 0 0 0
1 3119.22 992.743 899.358 0 0 0
1 2901.39 660.688 383.599 0 0 0
1 2242.59 2500 2500 0 0 0
1 0 5000 0 0 0 0
1 411.919 2868.37 347.789 0 0 0
1 899.556 3007.88 25.408 0 0 0
1 806.416 2971.86 256.82 0 0 0
1 422.646 2734.43 522.391 0 0 0
1 705.727 3011.2 172.537 0 0 0
1 630.23 2926.58 298.846 0 0 0
1 25.928 2684.79 747.741 0 0 0
1 217.533 2878.73 293.671 0 0 0
1 728.552 2909.89 602.514 0 0 0
1 9.465 3056.73 204.095 0 0 0
1 662.897 3037.01 748.531 0 0 0
1 439.63 2786.26 255.77 0 0 0
1 2199.94 4996.88 2281.6 0 0 0
1 718.235 2853.68 354.636 0 0 0
1 494.156 3004.66 636.61 0 0 0
1 771.71 3026.53 649.331 0 0 0
1 441.497 3005.29 41.114 0 0 0
1 256.534 3006.55 665.243 0 0 0
1 300.234 2709.05 675.445 0 0 0
1 769.692 2796.03 480.428 0 0 0
1 721.544 2821.92 35.851 0 0 0
1 195.9 2817.4 552.594 0 0 0
1 486.181 2939.87 281.974 0 0 0
1 985.509 41.67 2990.81 0 0 0
1 26.346 3.636 2511.52 0 0 0
1 466.184 316.965 3050.02 0 0 0
1 428.035 615.39 2849.29 0 0 0
1 312.128 109.065 3081.9 0 0 0
1 2490.67 2299.65 4663.71 0 0 0
1 1027.1 379.996 3099.98 0 0 0
1 787.636 368.058 2887.42 0 0 0
1 891.767 868.825 2785.35 0 0 0
1 803.361 500.203 3198.88 0 0 0
1 645.967 781.027 3195.91 0 0 0
1 552.282 809.931 3073.3 0 0 0
1 33.986 610.073 3230.7 0 0 0
1 453.547 11.731 2843.4 0 0 0
1 301.958 435.679 3114.53 0 0 0
1 980.968 813.721 3240.91 0 0 0
1 357.465 281.341 3122.96 0 0 0
1 86.293 205.115 3024.91 0 0 0
1 23.01 16.937 2855.01 0 0 0
1 65.31 269.797 2886.1 0 0 0
1 262.324 855.887 3094.07 0 0 0
1 801.873 181.179 3090.58 0 0 0
1 257.519 132.272 2910.11 0 0 0
1 286.471 627.482 3095.15 0 0 0
1 65.042 732.574 3224.86 0 0 0
1 3090.79 2930.99 627.533 0 0 0
1 3050.85 2875.95 979.171 0 0 0
1 2804.52 2852.39 870.364 0 0 0
1 2911.02 2816.55 816.032 0 0 0
1 2959.22 2984.28 550.206 0 0 0
1 4877.37 5000 0 0 0 0
1 2671.38 3085.93 1108.06 0 0 0
1 2726.32 3024.54 290.329 0 0 0
1 2833.59 2875.78 283.868 0 0 0
1 2649.91 2868.07 421.645 0 0 0
1 2500.27 2500.2 2044.88 0 0 0
1 2566.3 2797.81 510.394 0 0 0
1 2909.4 3062.87 1026.56 0 0 0
1 2892.89 3107.13 528.605 0 0 0
1 2805.42 2559.64 423.294 0 0 0
1 3028.27 2635.95 127.154 0 0 0
1 2963.46 2792.92 328.282 0 0 0
1 2905.79 2862.01 945.181 0 0 0
1 2868.31 2864.69 76.961 0 0 0
1 4520.36 2803.13 928.938 0 0 0
1 3149.81 2869.6 126.363 0 0 0
1 2724.87 2596.55 747.986 0 0 0
1 2500 2952.97 443.148 0 0 0
1 2980.44 3077.86 182.109 0 0 0
1 2714.67 3091.08 39.265 0 0 0
1 2768.6 151.305 2992.29 0 0 0
1 3075.02 346.916 3015.76 0 0 0
1 2948.03 392.704 2821.27 0 0 0
1 2510.02 577.207 2784.52 0 0 0
1 2809.49 60.303 2851.74 0 0 0
1 2996.6 818.566 2916.06 0 0 0
1 2719.49 0 3084.12 0 0 0
1 2944.18 156.612 3019.33 0 0 0
1 2860.88 554.699 2839.64 0 0 0
1 2666.2 847.804 2714.96 0 0 0
1 2863.86 83.155 2719.39 0 0 0
1 2500.01 839.886 2798.48 0 0 0
1 2992.3 267.932 2974.68 0 0 0
1 2748.78 191.749 2855.12 0 0 0
1 2943.67 512.8 2743.04 0 0 0
1 2832.16 249.275 2504.76 0 0 0
1 2947.46 879.518 2820.21 0 0 0
1 2833.89 449.256 2783.7 0 0 0
1 2728.26 611.216 2764.4 0 0 0
1 2947.4 464.785 2924.56 0 0 0
1 2743.7 369.88 3024.63 0 0 0
1 3042 566.312 2952.11 0 0 0
1 3094.61 493.104 2836.05 0 0 0
1 2774.73 310.536 2770.97 0 0 0
1 2904.9 717.314 2910.01 0 0 0
1 176.609 2692.2 2680.93 0 0 0
1 566.922 2500.88 2929.12 0 0 0
1 425.778 2788.62 2962.37 0 0 0
1 208.33 2668.51 2798.05 0 0 0
1 1401.36 5000 5000 0 0 0
1 463.657 2682.53 2842.51 0 0 0
1 527.923 2873.7 2885.13 0 0 0
1 637.336 2821.55 2884.92 0 0 0
1 596.511 2879.87 2745.74 0 0 0
1 732.991 2880.66 2933.74 0 0 0
1 197.332 2832.17 2746.22 0 0 0
1 122.443 2910.8 2691.9 0 0 0
1 186.327 2866.04 2916.47 0 0 0
1 747.328 2696.97 2729.35 0 0 0
1 695.312 2985.59 2861.22 0 0 0
1 91.845 2772.05 2742.49 0 0 0
1 95.81 2955.77 2882.18 0 0 0
1 522.764 2991.76 2851.27 0 0 0
1 295.955 2735.73 2748.48 0 0 0
1 730.315 2916.87 2746.83 0 0 0
1 846.606 2775.18 2743.48 0 0 0
1 298.484 2852.36 2975.33 0 0 0
1 129.59 2751.81 2860.66 0 0 0
1 316.745 2917.76 2658.6 0 0 0
1 717.789 2729.65 2891.34 0 0 0
1 3804.51 3825.51 3921.71 0 0 0
1 2868.39 3202.57 3218.85 0 0 0
1 3428.93 3175.76 4578.11 0 0 0
1 3389.45 2545.1 3782.45 0 0 0
1 2550.22 3014.08 3123.72 0 0 0
1 3282.06 4703.28 2710.67 0 0 0
1 3246.7 2885.7 3049.35 0 0 0
1 4952.5 2539.88 4467.81 0 0 0
1 3115.5 2505.23 4929.24 0 0 0
1 2874.27 3345.01 3554.31 0 0 0
1 2880.55 2977.18 2876.33 0 0 0
1 3164.31 2530.76 2584.8 0 0 0
1 2904.92 2878.32 3282.26 0 0 0
1 2515.43 3210.91 2623.34 0 0 0
1 3065.99 2540.89 4046.52 0 0 0
1 4262.54 3594.38 3219.78 0 0 0
1 2609.34 2569.19 3138.24 0 0 0
1 2550.01 3410.28 2508.91 0 0 0
1 2970 3217.8 3050.3 0 0 0
1 3483.47 4123.93 3105.9 0 0 0
1 2861.55 3147.34 3105.76 0 0 0
1 3042.28 2507.62 2508.01 0 0 0
1 3035.24 3191.73 3205.63 0 0 0
1 3242.24 3083.21 3074.1 0 0 0
1 3095.41 4417.48 2533.8 0 0 0
2 746.538 929.462 490.92 0 0 0
2 1474.3 2495.84 2295.11 0 0 0
2 2500 2209.41 0 0 0 0
2 792.112 230.95 941.419 0 0 0
2 803.959 674.078 368.649 0 0 0
2 110.419 126.258 442.629 0 0 0
2 28.434 186.981 287.31 0 0 0
2 3.846 782.916 19.654 0 0 0
2 493.211 948.879 96.525 0 0 0
2 287.545 762.19 0 0 0 0
2 109.582 866.587 940.214 0 0 0
2 31.998 543.785 56.084 0 0 0
2 940.22 705.741 636.617 0 0 0
2 515.244 91.453 473.794 0 0 0
2 516.62 914.812 243.43 0 0 0
2 513.359 915.174 819.231 0 0 0
2 244.051 74.515 741.876 0 0 0
2 560.457 782.149 515.575 0 0 0
2 621.461 865.16 960.106 0 0 0
2 347.391 439.102 53.91 0 0 0
2 611.331 343.232 122.609 0 0 0
2 263.174 325.079 91.803 0 0 0
2 251.153 238.617 846.006 0 0 0
2 900.937 313.62 594.905 0 0 0
2 330.162 2.242 850.785 0 0 0
2 606.286 789.399 330.82 0 0 0
2 523.232 82.88 347.788 0 0 0
2 395.449 820.809 862.835 0 0 0
2 311.642 330.099 792.3 0 0 0
2 931.098 554.819 30.872 0 0 0
2 366.599 534.273 838.225 0 0 0
2 905.905 12.816 277.573 0 0 0
2 411.869 526.946 209.701 0 0 0
2 577.201 783 153.52 0 0 0
2 910.531 177.84 717.838 0 0 0
2 569.524 753.403 7.606 0 0 0
2 314.133 876.768 405.798 0 0 0
2 805.599 115.083 883.25 0 0 0
2 660.612 205.022 470.234 0 0 0
2 275.258 583.126 571.432 0 0 0
2 279.789 33.653 82.854 0 0 0
2 178.293 377.562 251.904 0 0 0
2 208.047 763.003 145.994 0 0 0
2 483.802 523.245 608.01 0 0 0
2 345.697 749.358 440.991 0 0 0
2 100.459 277.697 535.548 0 0 0
2 400.203 13.575 667.502 0 0 0
2 130.855 777.055 385.345 0 0 0
2 440.265 39.725 895.856 0 0 0
2 713.467 652.407 522.859 0 0 0
2 208.173 196.612 243.574 0 0 0
2 45.683 502.339 189.053 0 0 0
2 850.514 788.145 671 0 0 0
2 70.054 371.803 887.281 0 0 0
2 600.017 480.188 376.073 0 0 0
2 270.836 688.316 301.629 0 0 0
2 328.181 374.062 572.553 0 0 0
2 655.845 844.387 663.795 0 0 0
2 447.197 214.026 244.775 0 0 0
2 925.832 271.345 220.879 0 0 0
2 800.783 721.979 250.869 0 0 0
2 958.854 714.728 963.331 0 0 0
2 286.419 713.429 888.194 0 0 0
2 578.684 263.761 1009.18 0 0 0
2 432.24 363.988 452.447 0 0 0
2 276.319 387.308 966.28 0 0 0
2 195.69 535.04 949.477 0 0 0
2 371.936 261.875 930.318 0 0 0
2 442.976 904.005 376.14 0 0 0
2 740.298 15.277 171.175 0 0 0
2 532.029 647.372 465.64 0 0 0
2 430.667 635.392 344.551 0 0 0
2 121.793 86.164 91.291 0 0 0
2 561.497 12.532 99.698 0 0 0
2 896.61 154.837 531.975 0 0 0
2 712.92 144.25 377.082 0 0 0
2 815.974 98.712 233.138 0 0 0
2 796.471 49.217 633.507 0 0 0
2 0 1992.02 2500 0 0 0
2 460.695 849 728.237 0 0 0
2 980.69 511.217 269.079 0 0 0
2 769.128 800.641 27.626 0 0 0
2 867.905 534.174 318.455 0 0 0
2 350.074 703.49 590.446 0 0 0
2 960.216 883.391 764.26 0 0 0
2 225.082 874.372 735.282 0 0 0
2 834.077 424.477 511.446 0 0 0
2 185.146 120.617 984.73 0 0 0
2 213.405 717.262 541.729 0 0 0
2 543.553 732.162 799.424 0 0 0
2 387.548 142.114 131.693 0 0 0
2 707.27 181.007 21.766 0 0 0
2 66.27 1039.96 326.415 0 0 0
2 59.896 916.043 522.232 0 0 0
2 463.287 468.881 778.822 0 0 0
2 73.358 909.374 71.436 0 0 0
2 285.64 630.876 704.326 0 0 0
2 454.148 700.981 238.818 0 0 0
2 361.968 539.483 437.64 0 0 0
2 833.734 942.054 815.593 0 0 0
2 2945.43 225.049 30.118 0 0 0
2 2514.19 1658.68 2046.22 0 0 0
2 4341.4 9.637 2497.61 0 0 0
2 2733.97 702.814 371.394 0 0 0
2 2771.09 351.968 491.247 0 0 0
2 2701.55 394.249 36.092 0 0 0
2 2672.32 786.154 779.728 0 0 0
2 2874.74 49.243 680.938 0 0 0
2 2895.87 356.9 269.698 0 0 0
2 2977.43 438.075 721.285 0 0 0
2 2732.47 258.896 871.405 0 0 0
2 2817.44 606.447 812.46 0 0 0
2 2777.67 84.818 487.238 0 0 0
2 2856.54 623.509 698.791 0 0 0
2 2784.81 845.185 925.965 0 0 0
2 2757.02 825.665 332.779 0 0 0
2 2828.98 257.362 409.517 0 0 0
2 4993.92 1.512 4.145 0 0 0
2 2874.75 745.686 695.37 0 0 0
2 2888.4 530.858 199.379 0 0 0
2 2701.28 573.955 1000.83 0 0 0
2 2933.2 43.513 161.269 0 0 0
2 2893.66 501.525 627.226 0 0 0
2 2725.92 381.648 167.841 0 0 0
2 2825.37 422.16 0 0 0 0
2 2958.67 216.253 928.218 0 0 0
2 2921 780.105 528.029 0 0 0
2 2697.02 574.022 369.158 0 0 0
2 2629.87 835.907 938.385 0 0 0
2 2825.37 312.744 164.558 0 0 0
2 2947.78 79.086 929.565 0 0 0
2 2926.09 882.732 670.961 0 0 0
2 2702.18 423.785 984.925 0 0 0
2 2948.05 821.314 785.599 0 0 0
2 2859.6 290.297 716.69 0 0 0
2 2756.88 704.442 1030.91 0 0 0
2 2752.28 206.986 504.849 0 0 0
2 2907.4 356.264 852.977 0 0 0
2 2814.64 726.3 479.746 0 0 0
2 2703.01 624.018 54.096 0 0 0
2 2851.27 451.894 522.657 0 0 0
2 2717.36 208.311 758.024 0 0 0
2 2957.62 227.304 597.362 0 0 0
2 2802.43 104.352 369.495 0 0 0
2 2788.92 836.223 659.502 0 0 0
2 2769.49 713.908 769.503 0 0 0
2 2859.85 903.742 420.762 0 0 0
2 2897.75 912.862 216.846 0 0 0
2 2801.4 161.225 83.936 0 0 0
2 3115.35 661.686 837.838 0 0 0
2 2877.47 414.111 115.938 0 0 0
2 2505.78 2493.91 6.862 0 0 0
2 2686.68 370.619 782.108 0 0 0
2 2890.22 181.324 164.054 0 0 0
2 2922.34 486.385 888.027 0 0 0
2 2810.08 318.245 956.354 0 0 0
2 2823.89 188.067 661.526 0 0 0
2 3003.42 410.576 605.797 0 0 0
2 2938.6 767.959 925.835 0 0 0
2 2956.39 116.867 266.066 0 0 0
2 2676.29 614.902 847.209 0 0 0
2 2991.68 615.025 93.689 0 0 0
2 2927.55 423.504 384.715 0 0 0
2 2929.19 710.735 201.71 0 0 0
2 2667.29 943.113 580.773 0 0 0
2 2688.22 200.129 401.778 0 0 0
2 2729.87 969.082 988.453 0 0 0
2 2989.52 543.973 974.221 0 0 0
2 2947.29 304.257 161.729 0 0 0
2 2919.85 348.662 486.923 0 0 0
2 2758.06 985.608 487.934 0 0 0
2 3000.49 295.767 770.042 0 0 0
2 2738.8 274.998 287.636 0 0 0
2 2762.23 28.682 593.801 0 0 0
2 2823.06 485.906 382.227 0 0 0
2 2681.94 768.106 552.634 0 0 0
2 2736.77 229.797 161.093 0 0 0
2 2877.32 231.151 287.571 0 0 0
2 2806.91 817.725 218.055 0 0 0
2 2916.2 828.144 339.062 0 0 0
2 2729.89 384.243 349.259 0 0 0
2 2694.69 978.252 693.346 0 0 0
2 2858.85 945.204 954.517 0 0 0
2 2751.12 149.543 933.82 0 0 0
2 2718.06 657.348 518.138 0 0 0
2 2865.77 556.15 77.849 0 0 0
2 2663.34 663.123 267.189 0 0 0
2 2685.23 650.499 652.7 0 0 0
2 2841.45 960.47 591.873 0 0 0
2 2965.58 899.264 989.708 0 0 0
2 2713.96 481.201 268.707 0 0 0
2 3021.3 382.139 254.175 0 0 0
2 3013.93 561.767 620.97 0 0 0
2 2953.67 55.155 402.847 0 0 0
2 2664.07 487.226 859.903 0 0 0
2 3064.88 803.687 859.838 0 0 0
2 2925.88 662.852 832.04 0 0 0
2 2702.66 139.223 260.549 0 0 0
2 2913.73 675.99 0 0 0 0
2 2648.83 454.943 676.137 0 0 0
2 5.817 3155.15 2476.68 0 0 0
2 0 2500 0 0 0 0
2 1010.68 2891.13 182.93 0 0 0
2 9.113 2505.19 2495.03 0 0 0
2 0 4808.77 2500 0 0 0
2 471.32 3032.18 770.222 0 0 0
2 441.271 2784.41 96.135 0 0 0
2 202.818 3079.82 585.326 0 0 0
2 330.322 2971.51 260.623 0 0 0
2 830.389 2765.61 256.538 0 0 0
2 330.386 2765.82 26.74 0 0 0
2 834.149 2725.17 405.64 0 0 0
2 856.283 2937.84 623.092 0 0 0
2 835.896 2940.84 485.694 0 0 0
2 825.449 2741.99 811.379 0 0 0
2 185.766 2701.14 785.6 0 0 0
2 2493.44 2501.43 2377.65 0 0 0
2 349.26 2847.14 716.594 0 0 0
2 475.644 2677.24 385.505 0 0 0
2 153.175 2712.05 111.545 0 0 0
2 865.601 2916.33 797.122 0 0 0
2 62.721 2711.3 449.577 0 0 0
2 302.71 2951.01 125.123 0 0 0
2 58.42 2789.24 16.761 0 0 0
2 136.588 2854.82 114.489 0 0 0
2 389.587 2936.59 806.561 0 0 0
2 956.347 2984.65 572.45 0 0 0
2 625.53 2747.25 209.002 0 0 0
2 202.574 2930.07 500.212 0 0 0
2 86.804 3052.7 708.362 0 0 0
2 89.041 2930.07 597.984 0 0 0
2 638.842 2920.6 450.274 0 0 0
2 447.487 3043.91 186.643 0 0 0
2 196.629 3013.05 244.599 0 0 0
2 306.084 2770.77 476.819 0 0 0
2 116.746 2882.23 920.402 0 0 0
2 688.28 2689.04 431.822 0 0 0
2 481.309 2801.79 435.145 0 0 0
2 344.158 2727.25 182.881 0 0 0
2 2.576 2771.72 265.735 0 0 0
2 607.778 2770.57 738.764 0 0 0
2 508.296 2826.8 671.973 0 0 0
2 626.915 2848.3 840.535 0 0 0
2 514.116 2997.85 477.977 0 0 0
2 109.188 3010.34 476.359 0 0 0
2 917.604 2893.15 962.284 0 0 0
2 2233.37 4303.5 10.445 0 0 0
2 843.804 3015.16 142.722 0 0 0
2 957.6 2941.62 374.57 0 0 0
2 287.279 2831.13 881.705 0 0 0
2 565.079 2990.71 57.805 0 0 0
2 217.269 2977.13 779.186 0 0 0
2 244.154 2760.59 301.669 0 0 0
2 302.64 2918.39 587.266 0 0 0
2 370.233 3030.28 358.575 0 0 0
2 337.947 2800.91 603.734 0 0 0
2 636.455 2886.77 159.069 0 0 0
2 770.414 2645.1 609.314 0 0 0
2 459.595 2930.16 911.127 0 0 0
2 901.25 3033.16 821.542 0 0 0
2 769.706 3042.72 358.76 0 0 0
2 266.47 2981.51 400.597 0 0 0
2 886.977 2837.53 399.361 0 0 0
2 566.333 2762.01 351.869 0 0 0
2 240.216 2825.39 769.882 0 0 0
2 915.565 2750.13 171.262 0 0 0
2 266.491 2933.8 942.269 0 0 0
2 88.668 2861.84 488.22 0 0 0
2 907.737 2728.57 634.318 0 0 0
2 176.787 2675.55 430.921 0 0 0
2 674.08 2920.76 927.701 0 0 0
2 848.983 2834.35 689.09 0 0 0
2 11.438 2974.13 850.057 0 0 0
2 634.191 3057.49 356.809 0 0 0
2 645.852 2742.94 581.299 0 0 0
2 572.488 3046.39 905.381 0 0 0
2 775.665 2854.55 150.766 0 0 0
2 383.363 2963.96 665.042 0 0 0
2 197.104 2668.03 225.479 0 0 0
2 2500 5000 0 0 0 0
2 189.535 2836.72 419.318 0 0 0
2 197.868 3068.94 352.212 0 0 0
2 739.85 2700.59 723.122 0 0 0
2 553.256 2953.55 820.151 0 0 0
2 722.745 2828.89 763.044 0 0 0
2 801.864 2977.27 883.281 0 0 0
2 434.066 2912.41 134.085 0 0 0
2 541.756 2709.04 528.558 0 0 0
2 153.967 2971.33 86.042 0 0 0
2 419.893 3044.39 879.681 0 0 0
2 192.381 2626.53 637.176 0 0 0
2 485.409 3060.56 325.069 0 0 0
2 564.754 2919.62 555.75 0 0 0
2 96.775 2889.64 273.668 0 0 0
2 337.941 3053.83 523.034 0 0 0
2 136.088 2773.4 235.985 0 0 0
2 393.751 2905.54 461.752 0 0 0
2 945.758 2740.04 308.755 0 0 0
2 873.829 2792.54 53.004 0 0 0
2 100.04 2912.57 766.284 0 0 0
2 808.965 484.988 3078.44 0 0 0
2 0 1864.06 4105.82 0 0 0
2 635.184 2500 5000 0 0 0
2 18.198 407.654 3108 0 0 0
2 277.75 303.438 2764.48 0 0 0
2 992.44 782.626 2500 0 0 0
2 0 227.687 3381.97 0 0 0
2 462.046 482.821 2846.8 0 0 0
2 531.663 523.42 2986.94 0 0 0
2 562.215 434.013 2906.23 0 0 0
2 942.014 737.339 3017.29 0 0 0
2 150.421 971.753 2850.56 0 0 0
2 819.687 807.844 2989.78 0 0 0
2 25.133 641.864 2771 0 0 0
2 559.498 140.586 3176.86 0 0 0
2 729.77 226.889 2931.74 0 0 0
2 994.702 245.928 2881.97 0 0 0
2 741.151 493.009 2864.78 0 0 0
2 1843.21 0 2500 0 0 0
2 208.323 30.604 2954.91 0 0 0
2 124.094 428.371 2977.94 0 0 0
2 885.387 801.347 2885.7 0 0 0
2 371.206 440.177 2775.54 0 0 0
2 684.479 328.352 2982.9 0 0 0
2 798.466 150.611 2719.92 0 0 0
2 341.174 343.785 2862.77 0 0 0
2 321.72 215.849 2988.91 0 0 0
2 366.048 882.197 2921.62 0 0 0
2 390.259 564.08 3045.6 0 0 0
2 530.395 251.718 2679.6 0 0 0
2 769.82 32.514 3079.18 0 0 0
2 187.975 121.25 3038.93 0 0 0
2 751.28 430.74 2985.94 0 0 0
2 1066.79 401.9 2848.58 0 0 0
2 165.043 558.426 3045.1 0 0 0
2 711.827 134.701 2844.94 0 0 0
2 440.214 112.364 3062.55 0 0 0
2 567.456 943.881 2868.46 0 0 0
2 544.861 469.895 3143.1 0 0 0
2 279.111 779.915 2954.06 0 0 0
2 377.089 845.199 2806.39 0 0 0
2 83.005 32.871 3001.4 0 0 0
2 540.631 667.635 2942.28 0 0 0
2 126.44 17.448 2555.28 0 0 0
2 501.134 839.285 2895.84 0 0 0
2 94.58 656.133 2955.71 0 0 0
2 271.861 917.794 2847.13 0 0 0
2 545.406 832.379 2764.18 0 0 0
2 193.533 939.772 2692.53 0 0 0
2 922.933 389.643 2828.81 0 0 0
2 300.526 533.835 2813.41 0 0 0
2 534.279 83.798 2708.01 0 0 0
2 933.408 88.059 2786.72 0 0 0
2 205.43 703.085 2867.03 0 0 0
2 173.976 72.393 2800.03 0 0 0
2 2500 1666.4 3060.75 0 0 0
2 636.016 466.495 3026.49 0 0 0
2 677.89 221.784 3041.45 0 0 0
2 373.792 818.722 3142.09 0 0 0
2 594.797 440.699 2789.25 0 0 0
2 389.438 1016.05 2864.99 0 0 0
2 478.941 329.063 2812.57 0 0 0
2 23.156 223.482 2744.06 0 0 0
2 438.244 307.213 2927.44 0 0 0
2 454.153 748.432 2761.15 0 0 0
2 624.269 642.623 3057.06 0 0 0
2 736.235 883.435 3057.48 0 0 0
2 541.596 161.688 2949.97 0 0 0
2 884.257 474.786 2964.31 0 0 0
2 234.159 406.244 2931.74 0 0 0
2 604.207 338.019 3094.15 0 0 0
2 289.225 650.58 2941.62 0 0 0
2 696.842 768.516 3046.51 0 0 0
2 204.671 277.992 3008.08 0 0 0
2 669.216 85.04 2721.04 0 0 0
2 238.685 635.39 2771.83 0 0 0
2 495.911 467.376 2715.42 0 0 0
2 98.658 738.108 2818.06 0 0 0
2 853.954 654.094 2946.93 0 0 0
2 997.49 581.74 2880.08 0 0 0
2 97.829 781.719 2946.54 0 0 0
2 560.784 304.4 2922.22 0 0 0
2 820.301 763.86 2753.51 0 0 0
2 184.146 228.744 2884.03 0 0 0
2 701.071 310.634 2733.64 0 0 0
2 921.833 154.683 2991.62 0 0 0
2 869.617 240.167 2760.99 0 0 0
2 1013.11 428.974 2963.43 0 0 0
2 435.734 427.337 2991.35 0 0 0
2 357.587 480.124 2908.86 0 0 0
2 183.515 225.28 2750.49 0 0 0
2 334.779 698.594 2732.59 0 0 0
2 372.438 84.439 2938.68 0 0 0
2 990.035 728.847 2891.99 0 0 0
2 853.041 263.565 2920.71 0 0 0
2 1099.96 790.296 3079.82 0 0 0
2 639.703 238.753 2837.49 0 0 0
2 507.991 974.523 2734.71 0 0 0
2 308.803 900.738 2720.28 0 0 0
2 770.575 439.147 2723.22 0 0 0
2 3011.61 3175.58 910.16 0 0 0
2 5000 2500 2496.63 0 0 0
2 2500 2500 2500 0 0 0
2 3037.59 2737.67 422.847 0 0 0
2 3004.93 2645.09 547.798 0 0 0
2 3075.73 2670.24 984.981 0 0 0
2 3077.64 2952.97 13.555 0 0 0
2 4894.81 2797.11 294.843 0 0 0
2 3016.2 3088.17 589.448 0 0 0
2 3100.81 2754.73 750.499 0 0 0
2 2854.1 2914.19 733.306 0 0 0
2 2622.53 2833.86 632.777 0 0 0
2 3052.41 2925.41 171.702 0 0 0
2 2882.72 2791.03 1133.18 0 0 0
2 2839.3 3035.83 242.07 0 0 0
2 2898.09 2795.16 696.788 0 0 0
2 2994.83 3104.79 812.724 0 0 0
2 2902.34 2737.54 123.282 0 0 0
2 2652.67 2931.72 559.126 0 0 0
2 2916.71 2725.78 961.185 0 0 0
2 3120.89 2985.58 332.247 0 0 0
2 2765.3 3064.53 734.37 0 0 0
2 4571.55 2500 0 0 0 0
2 3067.68 2682.85 318.641 0 0 0
2 2690.22 2762.34 215.586 0 0 0
2 2901.3 2607.89 860.4 0 0 0
2 2834.95 2713.42 606.465 0 0 0
2 2967.8 2825.35 185.006 0 0 0
2 3003.97 2875.65 71.267 0 0 0
2 3079.82 3032.02 739.252 0 0 0
2 3068.94 3029.3 111.8 0 0 0
2 2835.64 2741.44 15.49 0 0 0
2 2687.1 2909.49 281.784 0 0 0
2 2756.91 2630.12 278.347 0 0 0
2 2939.89 2990.69 933.698 0 0 0
2 2801.44 3039.42 569.798 0 0 0
2 2751.87 2705.34 437.864 0 0 0
2 3033.53 2767.27 851.199 0 0 0
2 3130 3015.37 921.765 0 0 0
2 3200.62 2849.65 711.152 0 0 0
2 2775.59 2814.15 135.996 0 0 0
2 5000 5000 2500 0 0 0
2 2606.03 2641.77 378.58 0 0 0
2 2692.15 2979.63 952.071 0 0 0
2 2654.24 2776.11 758.333 0 0 0
2 2881.36 3094.31 858.022 0 0 0
2 2875.81 2632.38 514.153 0 0 0
2 2921.82 3095.63 307.318 0 0 0
2 3016.09 2998.4 1063.7 0 0 0
2 2946.48 2868.22 456.749 0 0 0
2 2721.91 2636.4 143.645 0 0 0
2 2839.77 2668.48 775.637 0 0 0
2 2970.7 2655.44 684.315 0 0 0
2 2845.51 2744.01 287.789 0 0 0
2 2783.42 2817.77 386.401 0 0 0
2 2829.24 3028.91 117.823 0 0 0
2 3051.7 2915.34 402.415 0 0 0
2 2751.88 2969.44 1056.85 0 0 0
2 2705.04 2710.52 846.464 0 0 0
2 3087.14 2848.33 258.306 0 0 0
2 2737.34 2969.45 840.289 0 0 0
2 3020.29 2725.09 5.553 0 0 0
2 3016.22 2957.97 817.472 0 0 0
2 2748.18 2828.52 7.576 0 0 0
2 2837 2931.49 443.194 0 0 0
2 3033.35 2624.64 813.663 0 0 0
2 2703.84 2879.48 709.893 0 0 0
2 2783.6 2748.16 956.81 0 0 0
2 2596.89 3077.27 832.114 0 0 0
2 2800.63 2782.68 767.452 0 0 0
2 2910.78 2698.92 407.406 0 0 0
2 2728.98 2969.63 7.135 0 0 0
2 2891.11 2931.13 180.485 0 0 0
2 3132.97 2876.86 848.311 0 0 0
2 2673.73 2708.07 659.994 0 0 0
2 2927.07 2799.48 572.417 0 0 0
2 2679.8 2915.55 115.719 0 0 0
2 2749.92 3093.3 449.352 0 0 0
2 2949.76 3024.91 412.936 0 0 0
2 2578.87 2890.49 219.554 0 0 0
2 3150.74 2834.26 389.147 0 0 0
2 2795.96 3041.74 930.401 0 0 0
2 3122.82 2973.87 485.516 0 0 0
2 3003.64 2847.76 1099.39 0 0 0
2 2720.08 2993.99 647.052 0 0 0
2 2936.29 3167.34 664.535 0 0 0
2 2722.66 2590.12 595.532 0 0 0
2 2988.88 2912.17 703.435 0 0 0
2 3054.92 2759.37 635.215 0 0 0
2 2850.75 2569.72 616.565 0 0 0
2 2953.2 2985.81 67.596 0 0 0
2 2662.07 2989.43 429.808 0 0 0
2 2665.64 2862.64 850.154 0 0 0
2 2721.15 2823.03 551.765 0 0 0
2 2650.28 2853.12 988.497 0 0 0
2 3085.04 2829.86 492.303 0 0 0
2 2771.4 2945.79 190.431 0 0 0
2 4999.99 2500 1783.01 0 0 0
2 2830.95 2872.93 575.207 0 0 0
2 2904.68 2636.99 227.565 0 0 0
2 3180.53 937.909 3618.1 0 0 0
2 2832.04 121.658 2593.39 0 0 0
2 2508.76 1869.62 2500.39 0 0 0
2 2509.02 2075.85 2514.66 0 0 0
2 2500 427.535 2500 0 0 0
2 2575.68 0 2729.79 0 0 0
2 2814.56 0 2500 0 0 0
2 3151.02 778.067 2849.92 0 0 0
2 2752.52 483.865 3211.4 0 0 0
2 3010.64 591.219 2564.55 0 0 0
2 3150.71 0 2883.16 0 0 0
2 3032.13 600.652 3252.55 0 0 0
2 3626.21 0 2500 0 0 0
2 2564.77 643.743 2506.27 0 0 0
2 3231.48 971.189 2758.8 0 0 0
2 2508.24 315.032 3098.02 0 0 0
2 3067.22 0 2999.22 0 0 0
2 3567.41 0 2850.52 0 0 0
2 2767.06 179.134 3110.58 0 0 0
2 3197.85 459.175 2500 0 0 0
2 2996.53 403.749 3404.71 0 0 0
2 2620.1 634.15 3109.59 0 0 0
2 2613.31 388.351 2999.84 0 0 0
2 3227.56 1392.57 2500 0 0 0
2 3088.57 691.966 3629.67 0 0 0
2 3596.88 979.763 2773.57 0 0 0
2 3242.14 855.901 2824.81 0 0 0
2 4833.9 886.432 3180.48 0 0 0
2 2994.19 794.976 2701.08 0 0 0
2 2500 0 3119.91 0 0 0
2 3678.76 4.367 2897.67 0 0 0
2 2697.83 828.569 3098.25 0 0 0
2 2770.63 982.968 2854.93 0 0 0
2 3029.38 242.064 3096.06 0 0 0
2 3380.21 1010.64 2961.93 0 0 0
2 2617.22 723.847 2730.12 0 0 0
2 2500 0 2825.28 0 0 0
2 3195.51 666.451 2886.62 0 0 0
2 3230.15 242.046 3078.59 0 0 0
2 3161.67 765.212 3007.05 0 0 0
2 3047.86 588.771 3436.57 0 0 0
2 3856.92 223.32 2898.83 0 0 0
2 3221.16 33.828 3756.49 0 0 0
2 3532.29 440.686 3488.72 0 0 0
2 3362.49 227.305 3157.59 0 0 0
2 2996.75 732.266 3514.37 0 0 0
2 2846.03 991.253 3311.9 0 0 0
2 2500 773.201 3310.66 0 0 0
2 2558.76 998.449 2579.2 0 0 0
2 2693.25 0 2500 0 0 0
2 2778.24 624.016 3092.09 0 0 0
2 2613.3 1252.09 3086.33 0 0 0
2 2916.45 631.23 2500 0 0 0
2 2840.05 1026.15 3023.33 0 0 0
2 3285.21 1076.6 2924.25 0 0 0
2 3304.14 22.664 2517.75 0 0 0
2 2500 398.109 2732.19 0 0 0
2 3437.35 592.769 2500 0 0 0
2 3213.29 884.936 2660.61 0 0 0
2 3212.81 0 2998.01 0 0 0
2 2895.98 24.702 2613.62 0 0 0
2 2919.96 277.814 2849.22 0 0 0
2 2578.24 70.088 2565.39 0 0 0
2 2673.46 1603.23 2500 0 0 0
2 2953.28 992.522 3073.15 0 0 0
2 3232.53 0 3311.39 0 0 0
2 3494.37 561.878 2970.86 0 0 0
2 2587.61 268.977 3018.35 0 0 0
2 3405.28 469.188 3040.32 0 0 0
2 2500 745.817 2500 0 0 0
2 3643.84 422.945 3160.72 0 0 0
2 4671.61 4.682 2582.62 0 0 0
2 2844.66 963.245 2500 0 0 0
2 2500 974.319 2798.57 0 0 0
2 2783.47 467.2 3334.03 0 0 0
2 2565.79 227.712 3302.04 0 0 0
2 2618.28 190.82 2515.86 0 0 0
2 2500 896.183 2963.31 0 0 0
2 2535.48 2434.15 4992.54 0 0 0
2 2500 0 2946.28 0 0 0
2 4043.26 0 2963.3 0 0 0
2 2500 730.191 2679.6 0 0 0
2 3325.6 648.306 2867.57 0 0 0
2 2500 119.465 3581.94 0 0 0
2 2500 210.71 2500 0 0 0
2 2743.44 670.591 2558.04 0 0 0
2 2932.04 626.207 2666.98 0 0 0
2 2780.91 791.991 2737.55 0 0 0
2 2500 246.951 3608.61 0 0 0
2 2500 262.063 3206.51 0 0 0
2 3042.17 190.19 3262.02 0 0 0
2 2798.52 812.203 2923.12 0 0 0
2 2500 184.571 2649.47 0 0 0
2 4994.43 27.11 4982.92 0 0 0
2 3105.93 522.253 2594.41 0 0 0
2 3232.32 275.427 3694.93 0 0 0
2 2500 362.617 2602.11 0 0 0
2 2951.17 1457.88 3263.94 0 0 0
2 2500 615.244 2604.41 0 0 0
2 3507.9 1050.1 2580.98 0 0 0
2 478.169 3962.71 2500 0 0 0
2 301.323 2500.27 4969.85 0 0 0
2 17.165 4996.9 4997 0 0 0
2 10.035 4561.82 4988.78 0 0 0
2 887.822 3319.19 2500.06 0 0 0
2 1646.28 4978.68 3011.22 0 0 0
2 180.625 2883.72 2505.05 0 0 0
2 0.007 3824.97 2871.95 0 0 0
2 2407.56 4980.87 4085.14 0 0 0
2 145.1 2500.01 3394.78 0 0 0
2 2445.62 4969.14 2551.3 0 0 0
2 0.01 2500.01 3107.42 0 0 0
2 1051.63 2500 2713.97 0 0 0
2 776.969 2717.32 2500 0 0 0
2 942.885 2902.58 2604.25 0 0 0
2 477.355 3742.54 2504.12 0 0 0
2 1752.29 2743.37 2689.31 0 0 0
2 25.091 2607.16 2598.21 0 0 0
2 0 4470.87 3288.41 0 0 0
2 0.554 3487.02 3108.92 0 0 0
2 767.046 2500.9 2719.11 0 0 0
2 0 2794.2 2503.25 0 0 0
2 0 2500.02 3469.5 0 0 0
2 585.662 2500.02 2754.41 0 0 0
2 705.723 2500 2500 0 0 0
2 1557.76 2500 3628.72 0 0 0
2 232.55 2500 3765.18 0 0 0
2 2147.85 3140.17 2509.07 0 0 0
2 1867.05 3382.73 2500 0 0 0
2 39.721 2536.21 4100.86 0 0 0
2 399.607 2500.01 3093.15 0 0 0
2 569.244 2500 3104.95 0 0 0
2 0.001 3133.14 3640.16 0 0 0
2 1946.53 2566.03 2964.46 0 0 0
2 90.492 3138.56 2850.34 0 0 0
2 481.738 2500.05 3016.01 0 0 0
2 88.796 2600.28 2958.07 0 0 0
2 2286.01 2500.86 4807.44 0 0 0
2 244.903 2958.35 2767.89 0 0 0
2 34.493 2853.04 2975.07 0 0 0
2 0 4022.27 3199.05 0 0 0
2 110.738 2600.96 4170.62 0 0 0
2 1796.74 2785.86 4995.41 0 0 0
2 900.878 2952.26 2921.26 0 0 0
2 654.044 2842.77 2500 0 0 0
2 954.519 2500 3989.32 0 0 0
2 1267.47 2500 2523.16 0 0 0
2 0.003 2500.01 2665.89 0 0 0
2 2354.97 3914.57 2910.65 0 0 0
2 965.761 2962.53 2500 0 0 0
2 437.308 3495.94 3880.84 0 0 0
2 1322 2870.57 2500 0 0 0
2 1398.69 2985.95 3062.31 0 0 0
2 653.054 2670.81 2500 0 0 0
2 212.322 2500 3618.73 0 0 0
2 1232.12 2500 3407.51 0 0 0
2 0.006 2702.63 2971.6 0 0 0
2 809.017 2500 3645.5 0 0 0
2 2312.07 4225.59 4368.9 0 0 0
2 0 3661.68 2681.33 0 0 0
2 2464.44 2565.99 4977.99 0 0 0
2 1247.58 3898.73 2500 0 0 0
2 0.01 2617.85 3143.75 0 0 0
2 504.645 3182.34 2897.81 0 0 0
2 288.052 2500 2838.93 0 0 0
2 1016.15 2500 2973.21 0 0 0
2 1324.45 3543.74 2500 0 0 0
2 824.67 3036.18 2500 0 0 0
2 1482.4 3285.49 3072.37 0 0 0
2 0 3886.73 3576.98 0 0 0
2 702.739 2500.02 2831.56 0 0 0
2 0 3896.33 2538.69 0 0 0
2 2500 2500 4563.06 0 0 0
2 0.808 2568.76 3327.12 0 0 0
2 320.393 2623.55 2671 0 0 0
2 237.445 3389.44 2500 0 0 0
2 1934.35 3134.07 3367.84 0 0 0
2 962.578 3181.82 4284.34 0 0 0
2 627.637 2591.77 2942 0 0 0
2 841.257 3200.47 2912.08 0 0 0
2 0.008 2972.67 3016.18 0 0 0
2 416.886 2524.7 2510.14 0 0 0
2 144.966 2536.81 3044.48 0 0 0
2 494.37 2800.57 2742.09 0 0 0
2 1634.88 2500 4197.34 0 0 0
2 354.691 2822.77 2517.9 0 0 0
2 136.428 2521.68 2617.4 0 0 0
2 553.324 2601.8 2675.06 0 0 0
2 2054.63 2500 3217.46 0 0 0
2 88.77 3472.28 2810.76 0 0 0
2 931.233 3884.99 3741.18 0 0 0
2 1089.27 2876.2 2613.54 0 0 0
2 108.706 2688.21 2524.6 0 0 0
2 2494.5 2514.72 4342.89 0 0 0
2 245.169 3911.73 3117.78 0 0 0
2 554.946 2942.19 2500 0 0 0
2 0 2534.55 3785.88 0 0 0
2 0.035 4994.69 2500.59 0 0 0
2 2218.23 2735.75 2782.57 0 0 0
2 588.969 2866.7 3039.6 0 0 0
2 2828.79 3158.94 2568.96 0 0 0
2 2500 5000 5000 0 0 0
2 3288.89 2500 3513.96 0 0 0
2 2910.17 2839.8 2739.55 0 0 0
2 3358.06 2500 2500 0 0 0
2 3055.43 2760.7 2976.52 0 0 0
2 2743.28 2685.62 2861.83 0 0 0
2 2935.47 2775.51 3190.83 0 0 0
2 2602.05 2660.53 2963.05 0 0 0
2 3115.47 2929.52 2580.12 0 0 0
2 2946.21 2522.74 2762.25 0 0 0
2 2877.33 2786.67 2632.68 0 0 0
2 3119.84 3015.96 3020.99 0 0 0
2 2953.14 2943.32 2621.64 0 0 0
2 3066.69 3028.72 2630.58 0 0 0
2 2941.99 2648.39 2736.32 0 0 0
2 3062.97 2829.95 2759.02 0 0 0
2 2785.66 2794.89 3045.98 0 0 0
2 3117.56 2711.27 2868.9 0 0 0
2 2666.94 2913.19 2690.78 0 0 0
2 2973.88 2709.43 2636.16 0 0 0
2 2974.14 2758.37 2802.19 0 0 0
2 2785.3 3039.81 2696.45 0 0 0
2 2717.03 2692.68 2982.72 0 0 0
2 2916.55 2622.66 3068.04 0 0 0
2 2647.19 2773.79 2899.92 0 0 0
2 2668.05 3070.09 2936.95 0 0 0
2 3123.3 2818.18 2647.81 0 0 0
2 2803.08 2895.67 2713.13 0 0 0
2 2697.63 2837.67 2785.92 0 0 0
2 3086.32 2659.85 2622.21 0 0 0
2 2944.81 2986.54 2506.76 0 0 0
2 2694.01 2681.34 2556.03 0 0 0
2 2738.94 3155.03 2699.17 0 0 0
2 2861.2 3235.64 2787.7 0 0 0
2 2993.05 2620.47 2973.66 0 0 0
2 2842.41 2699.36 2930.43 0 0 0
2 2652.75 2944.26 2856.51 0 0 0
2 2695.88 3099.32 2592.91 0 0 0
2 2665.34 3187.07 2977.76 0 0 0
2 2707.16 2960.89 2579.68 0 0 0
2 2785.17 2530.96 2764.22 0 0 0
2 2883.01 2946.78 3003.17 0 0 0
2 2828.78 3119.48 2777.49 0 0 0
2 3421.74 5000 2500 0 0 0
2 2976.68 2790.11 2543.39 0 0 0
2 2781.78 2752.88 2513.38 0 0 0
2 2762.71 2849.96 2584.49 0 0 0
2 2714.32 3083.62 2796.56 0 0 0
2 2635.4 2667.34 2681.42 0 0 0
2 2645.59 2955.75 2986.75 0 0 0
2 3108.37 2837.29 2881.48 0 0 0
2 2887.81 2813.47 2924.16 0 0 0
2 3003.05 3016.39 2962.21 0 0 0
2 3001.36 2834.85 2653.1 0 0 0
2 3151.64 2612.17 2783.28 0 0 0
2 2864.42 2706.58 2811.22 0 0 0
2 3046.96 2729.74 3100.39 0 0 0
2 2737.26 2555.33 2877.53 0 0 0
2 2797.95 3073.64 2913.51 0 0 0
2 2755.01 2818.91 2931.26 0 0 0