LAMMPS (23 Jun 2022 - Update 1)
OMP_NUM_THREADS environment is not set. Defaulting to 1 thread. (src/comm.cpp:98)
  using 1 OpenMP thread(s) per MPI task
# Read restart
read_restart ${read_res}
read_restart ./pgnpmf/trial2/100/equpmf71.res
Reading restart file ...
  restart file = 23 Jun 2022, LAMMPS = 23 Jun 2022
  restoring atom style atomic from restart
  orthogonal box = (1748.0803 1748.0803 1748.0803) to (2251.9197 2251.9197 2251.9197)
  1 by 2 by 2 MPI processor grid
  restoring pair style table from restart
  1000 atoms
  read_restart CPU = 0.032 seconds

# Settings

pair_style table spline 9941

pair_coeff 1 1 ./pgnpmf/N20.txt DE_GNP 75.6
pair_coeff 2 2 ./pgnpmf/N100.txt DE_GNP 115.92
WARNING: 3 of 9941 force values in table DE_GNP are inconsistent with -dE/dr.
WARNING:  Should only be flagged at inflection points (src/pair_table.cpp:463)
pair_coeff 1 2 ./pgnpmf/mixed_potential.txt DE_GNP 95.66
WARNING: 1562 of 9941 force values in table DE_GNP are inconsistent with -dE/dr.
WARNING:  Should only be flagged at inflection points (src/pair_table.cpp:463)

#Neigh_list Calc Frequency

neigh_modify delay 0 every 1 check yes

# computes
compute vor all voronoi/atom

# Saving Frequency (50 frames)
variable ts_save equal ${steps_equ}
variable ts_save equal 5000

# Dump
dump 1 all custom 100000 ./pgnpmf/${folder}/voronoi/voronoi_${usic}_${trial}.custom type x y z ix iy iz c_vor[1] c_vor[2]
dump 1 all custom 100000 ./pgnpmf/trial2/100/voronoi/voronoi_${usic}_${trial}.custom type x y z ix iy iz c_vor[1] c_vor[2]
dump 1 all custom 100000 ./pgnpmf/trial2/100/voronoi/voronoi_1_${trial}.custom type x y z ix iy iz c_vor[1] c_vor[2]
dump 1 all custom 100000 ./pgnpmf/trial2/100/voronoi/voronoi_1_1.custom type x y z ix iy iz c_vor[1] c_vor[2]
dump_modify 1 first no sort id
#dump 2 all cfg 50000 ./pgnpmf/${folder}/equilibration/trajectory/dumpgen.tens_*.cfg mass type xs ys zs fx fy fz
#dump_modify 2 element N20 N100

# thermo_style
thermo_style custom step temp press pe density ke etotal lx ly lz xlo xhi ylo yhi zlo zhi vol dt time cpu tpcpu spcpu cpuremain

# run info
timestep ${ts}
timestep 0.5
thermo 200

# fix

fix 1 all momentum 1000 linear 1 1 1 angular
variable T equal ${temp}
variable T equal 300
fix 2 all nvt temp ${T} ${T} 100.0
fix 2 all nvt temp 300 ${T} 100.0
fix 2 all nvt temp 300 300 100.0

run 100000
Generated 0 of 1 mixed pair_coeff terms from geometric mixing rule
Unused restart file global fix info:
  fix style: npt, fix ID: 5
Neighbor list info ...
  update every 1 steps, delay 0 steps, check yes
  max neighbors/atom: 2000, page size: 100000
  master list distance cutoff = 117.92
  ghost atom cutoff = 117.92
  binsize = 58.96, bins = 9 9 9
  1 neighbor lists, perpetual/occasional/extra = 1 0 0
  (1) pair table, perpetual
      attributes: half, newton on
      pair build: half/bin/atomonly/newton
      stencil: half/bin/3d
      bin: standard
Per MPI rank memory allocation (min/avg/max) = 3.118 | 3.118 | 3.118 Mbytes
   Step          Temp          Press          PotEng        Density         KinEng         TotEng           Lx             Ly             Lz            Xlo            Xhi            Ylo            Yhi            Zlo            Zhi           Volume           Dt            Time           CPU           T/CPU          S/CPU         CPULeft    
  50110000   303.33705      3.1731912     -5293582        2.8802747      903.28593     -5292678.7      503.83946      503.83946      503.83946      1748.0803      2251.9197      1748.0803      2251.9197      1748.0803      2251.9197      1.2790177e+08  0.5            5660000        0              0              0              0            
  50110200   351.06924      1.7744765     -5293792.4      2.8802747      1045.4242     -5292747        503.83946      503.83946      503.83946      1748.0803      2251.9197      1748.0803      2251.9197      1748.0803      2251.9197      1.2790177e+08  0.5            5660100        0.017629151    5672.1108      11343.561      8.7984808    
  50110400   374.13758      0.23411106    -5293642        2.8802747      1114.1178     -5292527.9      503.83946      503.83946      503.83946      1748.0803      2251.9197      1748.0803      2251.9197      1748.0803      2251.9197      1.2790177e+08  0.5            5660200        0.034003156    6107.3737      12214.928      8.4673302    
  50110600   375.34221     -1.9892162     -5293860.7      2.8802747      1117.705      -5292743        503.83946      503.83946      503.83946      1748.0803      2251.9197      1748.0803      2251.9197      1748.0803      2251.9197      1.2790177e+08  0.5            5660300        0.048223069    7032.3978      14064.825      7.9893126    
  50110800   368.2121      -4.3424069     -5294076.7      2.8802747      1096.4727     -5292980.2      503.83946      503.83946      503.83946      1748.0803      2251.9197      1748.0803      2251.9197      1748.0803      2251.9197      1.2790177e+08  0.5            5660400        0.062536903    6986.246       13972.433      7.75485      
  50111000   359.19795     -6.6086461     -5294289.7      2.8802747      1069.6302     -5293220.1      503.83946      503.83946      503.83946      1748.0803      2251.9197      1748.0803      2251.9197      1748.0803      2251.9197      1.2790177e+08  0.5            5660500        0.076829886    6996.4641      13992.987      7.6063648    
  50111200   351.79677     -9.0097037     -5294868.5      2.8802747      1047.5907     -5293820.9      503.83946      503.83946      503.83946      1748.0803      2251.9197      1748.0803      2251.9197      1748.0803      2251.9197      1.2790177e+08  0.5            5660600        0.091105376    7004.9659      14009.888      7.5011937    
  50111400   346.49941     -10.894079     -5295077.6      2.8802747      1031.8161     -5294045.8      503.83946      503.83946      503.83946      1748.0803      2251.9197      1748.0803      2251.9197      1748.0803      2251.9197      1.2790177e+08  0.5            5660700        0.10537176     7009.5181      14019.086      7.4213308    
  50111600   343.01031     -12.206898     -5294917.7      2.8802747      1021.4261     -5293896.3      503.83946      503.83946      503.83946      1748.0803      2251.9197      1748.0803      2251.9197      1748.0803      2251.9197      1.2790177e+08  0.5            5660800        0.11960565     7025.4893      14051.004      7.3558728    
  50111800   340.71073     -13.627651     -5295126.1      2.8802747      1014.5784     -5294111.5      503.83946      503.83946      503.83946      1748.0803      2251.9197      1748.0803      2251.9197      1748.0803      2251.9197      1.2790177e+08  0.5            5660900        0.13384421     7023.2226      14046.424      7.3020557    
  50112000   338.83516     -15.293521     -5295702.4      2.8802747      1008.9932     -5294693.4      503.83946      503.83946      503.83946      1748.0803      2251.9197      1748.0803      2251.9197      1748.0803      2251.9197      1.2790177e+08  0.5            5661000        0.14809196     7018.6604      14037.319      7.2566045    
  50112200   337.50359     -16.587042     -5295908.7      2.8802747      1005.028      -5294903.6      503.83946      503.83946      503.83946      1748.0803      2251.9197      1748.0803      2251.9197      1748.0803      2251.9197      1.2790177e+08  0.5            5661100        0.16230707     7034.7734      14069.522      7.2153761    
  50112400   336.20861     -17.458802     -5295744.4      2.8802747      1001.1718     -5294743.3      503.83946      503.83946      503.83946      1748.0803      2251.9197      1748.0803      2251.9197      1748.0803      2251.9197      1.2790177e+08  0.5            5661200        0.17650784     7041.8756      14083.744      7.1780673    
  50112600   334.84268     -18.598066     -5295945.9      2.8802747      997.10432     -5294948.8      503.83946      503.83946      503.83946      1748.0803      2251.9197      1748.0803      2251.9197      1748.0803      2251.9197      1.2790177e+08  0.5            5661300        0.19073403     7029.2677      14058.566      7.1452645    
  50112800   333.51778     -19.694568     -5296144.8      2.8802747      993.159       -5295151.7      503.83946      503.83946      503.83946      1748.0803      2251.9197      1748.0803      2251.9197      1748.0803      2251.9197      1.2790177e+08  0.5            5661400        0.20497008     7024.4209      14048.839      7.1154603    
  50113000   332.2022      -20.832581     -5296341.7      2.8802747      989.24144     -5295352.4      503.83946      503.83946      503.83946      1748.0803      2251.9197      1748.0803      2251.9197      1748.0803      2251.9197      1.2790177e+08  0.5            5661500        0.21937858     6940.3434      13880.67       7.0933078    
  50113200   331.48152     -22.083604     -5296537.1      2.8802747      987.09537     -5295550        503.83946      503.83946      503.83946      1748.0803      2251.9197      1748.0803      2251.9197      1748.0803      2251.9197      1.2790177e+08  0.5            5661600        0.23361823     7022.6662      14045.351      7.067011     
  50113400   331.1728      -23.457381     -5296732.6      2.8802747      986.17605     -5295746.4      503.83946      503.83946      503.83946      1748.0803      2251.9197      1748.0803      2251.9197      1748.0803      2251.9197      1.2790177e+08  0.5            5661700        0.24783907     7031.9324      14063.874      7.041601     
  50113600   331.16184     -24.543951     -5296560.4      2.8802747      986.14341     -5295574.2      503.83946      503.83946      503.83946      1748.0803      2251.9197      1748.0803      2251.9197      1748.0803      2251.9197      1.2790177e+08  0.5            5661800        0.26206622     7028.8008      14057.619      7.0176042    
  50113800   331.34759     -25.842979     -5296757.8      2.8802747      986.69655     -5295771.1      503.83946      503.83946      503.83946      1748.0803      2251.9197      1748.0803      2251.9197      1748.0803      2251.9197      1.2790177e+08  0.5            5661900        0.2763204      7015.4929      14030.971      6.9953184    
  50114000   331.25712     -26.916576     -5296955.8      2.8802747      986.42715     -5295969.4      503.83946      503.83946      503.83946      1748.0803      2251.9197      1748.0803      2251.9197      1748.0803      2251.9197      1.2790177e+08  0.5            5662000        0.29056865     7018.4117      14036.799      6.9736956    
  50114200   331.16451     -27.821603     -5297153.2      2.8802747      986.15137     -5296167        503.83946      503.83946      503.83946      1748.0803      2251.9197      1748.0803      2251.9197      1748.0803      2251.9197      1.2790177e+08  0.5            5662100        0.30479458     7029.4169      14058.87       6.9522645    
  50114400   330.78469     -28.746182     -5297349        2.8802747      985.02032     -5296364        503.83946      503.83946      503.83946      1748.0803      2251.9197      1748.0803      2251.9197      1748.0803      2251.9197      1.2790177e+08  0.5            5662200        0.319001       7039.0458      14078.095      6.931065     
  50114600   330.24147     -29.385636     -5297174.6      2.8802747      983.4027      -5296191.2      503.83946      503.83946      503.83946      1748.0803      2251.9197      1748.0803      2251.9197      1748.0803      2251.9197      1.2790177e+08  0.5            5662300        0.3332339      7025.9997      14051.978      6.911023     
  50114800   329.77407     -30.385402     -5297367.5      2.8802747      982.01087     -5296385.5      503.83946      503.83946      503.83946      1748.0803      2251.9197      1748.0803      2251.9197      1748.0803      2251.9197      1.2790177e+08  0.5            5662400        0.34745805     7030.3045      14060.63       6.8912899    
  50115000   329.28931     -31.563869     -5297559.9      2.8802747      980.56733     -5296579.3      503.83946      503.83946      503.83946      1748.0803      2251.9197      1748.0803      2251.9197      1748.0803      2251.9197      1.2790177e+08  0.5            5662500        0.36168037     7031.1987      14062.383      6.8719645    
  50115200   329.07635     -32.704378     -5297382.7      2.8802747      979.93319     -5296402.8      503.83946      503.83946      503.83946      1748.0803      2251.9197      1748.0803      2251.9197      1748.0803      2251.9197      1.2790177e+08  0.5            5662600        0.37589985     7032.6154      14065.205      6.852979     
  50115400   328.96026     -35.004923     -5298310.6      2.8802747      979.58748     -5297331        503.83946      503.83946      503.83946      1748.0803      2251.9197      1748.0803      2251.9197      1748.0803      2251.9197      1.2790177e+08  0.5            5662700        0.39016247     7011.3321      14022.683      6.8351026    
  50115600   328.8846      -36.547141     -5298132.9      2.8802747      979.36218     -5297153.5      503.83946      503.83946      503.83946      1748.0803      2251.9197      1748.0803      2251.9197      1748.0803      2251.9197      1.2790177e+08  0.5            5662800        0.40441097     7018.2738      14036.529      6.8172471    
  50115800   328.83974     -38.336223     -5297955.1      2.8802747      979.22858     -5296975.9      503.83946      503.83946      503.83946      1748.0803      2251.9197      1748.0803      2251.9197      1748.0803      2251.9197      1.2790177e+08  0.5            5662900        0.41862327     7036.1613      14072.314      6.7990509    
  50116000   328.75536     -40.583827     -5298146.3      2.8802747      978.97734     -5297167.3      503.83946      503.83946      503.83946      1748.0803      2251.9197      1748.0803      2251.9197      1748.0803      2251.9197      1.2790177e+08  0.5            5663000        0.43285418     7026.961       14053.911      6.7814126    
  50116200   328.88259     -42.697854     -5298337.6      2.8802747      979.35619     -5297358.2      503.83946      503.83946      503.83946      1748.0803      2251.9197      1748.0803      2251.9197      1748.0803      2251.9197      1.2790177e+08  0.5            5663100        0.44707369     7032.5966      14065.211      6.7638219    
  50116400   328.90088     -44.555857     -5298528.7      2.8802747      979.41067     -5297549.2      503.83946      503.83946      503.83946      1748.0803      2251.9197      1748.0803      2251.9197      1748.0803      2251.9197      1.2790177e+08  0.5            5663200        0.46128639     7035.9766      14071.953      6.7463423    
  50116600   328.73173     -46.141036     -5298719        2.8802747      978.90695     -5297740.1      503.83946      503.83946      503.83946      1748.0803      2251.9197      1748.0803      2251.9197      1748.0803      2251.9197      1.2790177e+08  0.5            5663300        0.47550001     7035.4811      14070.992      6.7290727    
  50116800   328.48855     -47.608797     -5298908.7      2.8802747      978.1828      -5297930.6      503.83946      503.83946      503.83946      1748.0803      2251.9197      1748.0803      2251.9197      1748.0803      2251.9197      1.2790177e+08  0.5            5663400        0.48971436     7035.1554      14070.317      6.7119934    
  50117000   328.20598     -48.987994     -5299098.3      2.8802747      977.34138     -5298120.9      503.83946      503.83946      503.83946      1748.0803      2251.9197      1748.0803      2251.9197      1748.0803      2251.9197      1.2790177e+08  0.5            5663500        0.50396196     7018.7107      14037.409      6.6955205    
  50117200   328.19736     -50.161365     -5299287.6      2.8802747      977.3157      -5298310.3      503.83946      503.83946      503.83946      1748.0803      2251.9197      1748.0803      2251.9197      1748.0803      2251.9197      1.2790177e+08  0.5            5663600        0.51816727     7039.6449      14079.294      6.6786251    
  50117400   328.17295     -51.171734     -5299476.7      2.8802747      977.24301     -5298499.5      503.83946      503.83946      503.83946      1748.0803      2251.9197      1748.0803      2251.9197      1748.0803      2251.9197      1.2790177e+08  0.5            5663700        0.53238063     7035.6207      14071.242      6.6619759    
  50117600   328.0154      -51.868034     -5299296.7      2.8802747      976.77384     -5298320        503.83946      503.83946      503.83946      1748.0803      2251.9197      1748.0803      2251.9197      1748.0803      2251.9197      1.2790177e+08  0.5            5663800        0.54692208     6876.8611      13753.691      6.6494463    
  50117800   327.78465     -53.742729     -5300221.1      2.8802747      976.08671     -5299245        503.83946      503.83946      503.83946      1748.0803      2251.9197      1748.0803      2251.9197      1748.0803      2251.9197      1.2790177e+08  0.5            5663900        0.56122178     6993.1718      13986.318      6.6339538    
  50118000   327.35889     -55.223701     -5300407.5      2.8802747      974.81889     -5299432.7      503.83946      503.83946      503.83946      1748.0803      2251.9197      1748.0803      2251.9197      1748.0803      2251.9197      1.2790177e+08  0.5            5664000        0.57552722     6990.3712      13980.757      6.6185852    
  50118200   327.03331     -56.912123     -5300592.5      2.8802747      973.84935     -5299618.7      503.83946      503.83946      503.83946      1748.0803      2251.9197      1748.0803      2251.9197      1748.0803      2251.9197      1.2790177e+08  0.5            5664100        0.58983112     6991.0994      13982.148      6.6032549    
  50118400   326.66746     -58.807233     -5300776.1      2.8802747      972.75992     -5299803.3      503.83946      503.83946      503.83946      1748.0803      2251.9197      1748.0803      2251.9197      1748.0803      2251.9197      1.2790177e+08  0.5            5664200        0.60417365     6972.2463      13944.564      6.5883919    
  50118600   326.3106      -60.799008     -5300958.4      2.8802747      971.69724     -5299986.7      503.83946      503.83946      503.83946      1748.0803      2251.9197      1748.0803      2251.9197      1748.0803      2251.9197      1.2790177e+08  0.5            5664300        0.61850846     6976.0343      13952.019      6.5734722    
  50118800   326.11541     -62.375732     -5300771.6      2.8802747      971.116       -5299800.5      503.83946      503.83946      503.83946      1748.0803      2251.9197      1748.0803      2251.9197      1748.0803      2251.9197      1.2790177e+08  0.5            5664400        0.6327979      6998.1768      13996.412      6.558108     
  50119000   325.75495     -63.958053     -5300952.6      2.8802747      970.0426      -5299982.5      503.83946      503.83946      503.83946      1748.0803      2251.9197      1748.0803      2251.9197      1748.0803      2251.9197      1.2790177e+08  0.5            5664500        0.64707282     7005.2814      14010.579      6.5426449    
  50119200   325.59994     -65.200674     -5301132.1      2.8802747      969.58102     -5300162.6      503.83946      503.83946      503.83946      1748.0803      2251.9197      1748.0803      2251.9197      1748.0803      2251.9197      1.2790177e+08  0.5            5664600        0.66135856     7000.0119      14000.035      6.5273401    
  50119400   325.50162     -66.278584     -5301311        2.8802747      969.28825     -5300341.7      503.83946      503.83946      503.83946      1748.0803      2251.9197      1748.0803      2251.9197      1748.0803      2251.9197      1.2790177e+08  0.5            5664700        0.67562987     7007.0559      14014.11       6.5119406    
  50119600   325.51291     -67.289283     -5301489.9      2.8802747      969.32185     -5300520.6      503.83946      503.83946      503.83946      1748.0803      2251.9197      1748.0803      2251.9197      1748.0803      2251.9197      1.2790177e+08  0.5            5664800        0.68990586     7004.7608      14009.538      6.4966315    
  50119800   325.56772     -68.17393      -5301668.8      2.8802747      969.48507     -5300699.3      503.83946      503.83946      503.83946      1748.0803      2251.9197      1748.0803      2251.9197      1748.0803      2251.9197      1.2790177e+08  0.5            5664900        0.70419907     6996.3119      13992.544      6.4815254    
  50120000   325.37566     -68.948885     -5301847.4      2.8802747      968.91316     -5300878.5      503.83946      503.83946      503.83946      1748.0803      2251.9197      1748.0803      2251.9197      1748.0803      2251.9197      1.2790177e+08  0.5            5665000        0.71848517     6999.8399      13999.696      6.466385     
  50120200   325.47278     -69.581243     -5302025.6      2.8802747      969.20237     -5301056.4      503.83946      503.83946      503.83946      1748.0803      2251.9197      1748.0803      2251.9197      1748.0803      2251.9197      1.2790177e+08  0.5            5665100        0.73277839     6996.3388      13992.652      6.4513409    
  50120400   325.61241     -70.134665     -5302203.9      2.8802747      969.61816     -5301234.3      503.83946      503.83946      503.83946      1748.0803      2251.9197      1748.0803      2251.9197      1748.0803      2251.9197      1.2790177e+08  0.5            5665200        0.74709467     6985.0318      13970.076      6.436525     
  50120600   325.66205     -70.652809     -5302382        2.8802747      969.76597     -5301412.2      503.83946      503.83946      503.83946      1748.0803      2251.9197      1748.0803      2251.9197      1748.0803      2251.9197      1.2790177e+08  0.5            5665300        0.7613821      6999.155       13998.269      6.4214853    
  50120800   325.49376     -71.52817      -5302927.5      2.8802747      969.26483     -5301958.3      503.83946      503.83946      503.83946      1748.0803      2251.9197      1748.0803      2251.9197      1748.0803      2251.9197      1.2790177e+08  0.5            5665400        0.77569291     6987.7515      13975.546      6.4066648    
  50121000   324.87107     -72.3232       -5303102.6      2.8802747      967.41058     -5302135.2      503.83946      503.83946      503.83946      1748.0803      2251.9197      1748.0803      2251.9197      1748.0803      2251.9197      1.2790177e+08  0.5            5665500        0.79032255     6835.4167      13670.859      6.394444     
  50121200   324.33147     -73.424991     -5303275.3      2.8802747      965.80372     -5302309.5      503.83946      503.83946      503.83946      1748.0803      2251.9197      1748.0803      2251.9197      1748.0803      2251.9197      1.2790177e+08  0.5            5665600        0.80500205     6812.2063      13624.408      6.3825322    
  50121400   323.94344     -74.749013     -5303446.5      2.8802747      964.64825     -5302481.8      503.83946      503.83946      503.83946      1748.0803      2251.9197      1748.0803      2251.9197      1748.0803      2251.9197      1.2790177e+08  0.5            5665700        0.81930022     6993.9177      13987.82       6.3675597    
  50121600   323.85968     -76.433691     -5303985.7      2.8802747      964.39882     -5303021.3      503.83946      503.83946      503.83946      1748.0803      2251.9197      1748.0803      2251.9197      1748.0803      2251.9197      1.2790177e+08  0.5            5665800        0.83361034     6988.0645      13976.123      6.3527009    
  50121800   324.04034     -77.620032     -5304157.1      2.8802747      964.93681     -5303192.2      503.83946      503.83946      503.83946      1748.0803      2251.9197      1748.0803      2251.9197      1748.0803      2251.9197      1.2790177e+08  0.5            5665900        0.8479008      6997.6612      13995.355      6.3377141    
  50122000   324.13218     -78.539938     -5304329.1      2.8802747      965.21029     -5303363.9      503.83946      503.83946      503.83946      1748.0803      2251.9197      1748.0803      2251.9197      1748.0803      2251.9197      1.2790177e+08  0.5            5666000        0.86221599     6985.6115      13971.223      6.3229313    
  50122200   324.3961      -79.025628     -5304501.1      2.8802747      965.9962      -5303535.1      503.83946      503.83946      503.83946      1748.0803      2251.9197      1748.0803      2251.9197      1748.0803      2251.9197      1.2790177e+08  0.5            5666100        0.87680478     6854.556       13709.024      6.3101346    
  50122400   324.4546      -78.985151     -5304672.6      2.8802747      966.17039     -5303706.5      503.83946      503.83946      503.83946      1748.0803      2251.9197      1748.0803      2251.9197      1748.0803      2251.9197      1.2790177e+08  0.5            5666200        0.89115426     6968.9286      13937.956      6.2955873    
  50122600   324.25767     -78.825761     -5304842.9      2.8802747      965.58397     -5303877.3      503.83946      503.83946      503.83946      1748.0803      2251.9197      1748.0803      2251.9197      1748.0803      2251.9197      1.2790177e+08  0.5            5666300        0.90549481     6973.2255      13946.408      6.2809857    
  50122800   324.05846     -79.082212     -5305012.2      2.8802747      964.99076     -5304047.2      503.83946      503.83946      503.83946      1748.0803      2251.9197      1748.0803      2251.9197      1748.0803      2251.9197      1.2790177e+08  0.5            5666400        0.91978584     6997.3928      13994.818      6.2660543    
  50123000   323.82859     -79.862769     -5305181.2      2.8802747      964.30624     -5304216.9      503.83946      503.83946      503.83946      1748.0803      2251.9197      1748.0803      2251.9197      1748.0803      2251.9197      1.2790177e+08  0.5            5666500        0.93409688     6987.6021      13975.189      6.2512773    
  50123200   324.00203     -80.956845     -5305350        2.8802747      964.82272     -5304385.2      503.83946      503.83946      503.83946      1748.0803      2251.9197      1748.0803      2251.9197      1748.0803      2251.9197      1.2790177e+08  0.5            5666600        0.94841124     6986.0107      13972.061      6.2365349    
  50123400   324.21554     -82.070546     -5305519.2      2.8802747      965.45851     -5304553.7      503.83946      503.83946      503.83946      1748.0803      2251.9197      1748.0803      2251.9197      1748.0803      2251.9197      1.2790177e+08  0.5            5666700        0.96278691     6956.1941      13912.371      6.2222025    
  50123600   324.26251     -83.004615     -5305688        2.8802747      965.59839     -5304722.4      503.83946      503.83946      503.83946      1748.0803      2251.9197      1748.0803      2251.9197      1748.0803      2251.9197      1.2790177e+08  0.5            5666800        0.9771005      6986.3499      13972.662      6.2074748    
  50123800   324.15985     -83.829854     -5305855.9      2.8802747      965.29268     -5304890.6      503.83946      503.83946      503.83946      1748.0803      2251.9197      1748.0803      2251.9197      1748.0803      2251.9197      1.2790177e+08  0.5            5666900        0.99144406     6971.7733      13943.562      6.1929456    
  50124000   323.90753     -85.088047     -5306391.6      2.8802747      964.54133     -5305427.1      503.83946      503.83946      503.83946      1748.0803      2251.9197      1748.0803      2251.9197      1748.0803      2251.9197      1.2790177e+08  0.5            5667000        1.0057915      6969.8976      13939.804      6.1784454    
  50124200   323.93617     -86.308532     -5306558.5      2.8802747      964.62659     -5305593.8      503.83946      503.83946      503.83946      1748.0803      2251.9197      1748.0803      2251.9197      1748.0803      2251.9197      1.2790177e+08  0.5            5667100        1.0200866      6995.4177      13990.835      6.1636336    
  50124400   324.04064     -87.808763     -5306725.2      2.8802747      964.9377      -5305760.2      503.83946      503.83946      503.83946      1748.0803      2251.9197      1748.0803      2251.9197      1748.0803      2251.9197      1.2790177e+08  0.5            5667200        1.0344408      6966.5808      13933.14       6.1491879    
  50124600   324.19907     -89.07208      -5306523.6      2.8802747      965.40948     -5305558.2      503.83946      503.83946      503.83946      1748.0803      2251.9197      1748.0803      2251.9197      1748.0803      2251.9197      1.2790177e+08  0.5            5667300        1.048801       6963.6937      13927.415      6.1347788    
  50124800   324.3797      -90.598148     -5306690.9      2.8802747      965.94735     -5305725        503.83946      503.83946      503.83946      1748.0803      2251.9197      1748.0803      2251.9197      1748.0803      2251.9197      1.2790177e+08  0.5            5667400        1.0631578      6965.357       13930.641      6.1203521    
  50125000   324.27037     -91.934045     -5306858.5      2.8802747      965.6218      -5305892.8      503.83946      503.83946      503.83946      1748.0803      2251.9197      1748.0803      2251.9197      1748.0803      2251.9197      1.2790177e+08  0.5            5667500        1.077745       6855.2702      13710.582      6.1072336    
  50125200   324.21008     -92.858678     -5307025.1      2.8802747      965.44225     -5306059.7      503.83946      503.83946      503.83946      1748.0803      2251.9197      1748.0803      2251.9197      1748.0803      2251.9197      1.2790177e+08  0.5            5667600        1.0920033      7013.4947      14027.013      6.0922398    
  50125400   323.90699     -93.253324     -5307190.1      2.8802747      964.53972     -5306225.6      503.83946      503.83946      503.83946      1748.0803      2251.9197      1748.0803      2251.9197      1748.0803      2251.9197      1.2790177e+08  0.5            5667700        1.1063295      6980.2444      13960.453      6.0776391    
  50125600   323.43267     -93.270494     -5307353.4      2.8802747      963.12725     -5306390.2      503.83946      503.83946      503.83946      1748.0803      2251.9197      1748.0803      2251.9197      1748.0803      2251.9197      1.2790177e+08  0.5            5667800        1.1205919      7011.454       14022.895      6.0627002    
  50125800   322.99944     -92.988737     -5307146.6      2.8802747      961.83717     -5306184.8      503.83946      503.83946      503.83946      1748.0803      2251.9197      1748.0803      2251.9197      1748.0803      2251.9197      1.2790177e+08  0.5            5667900        1.1348456      7015.7089      14031.481      6.0477314    
  50126000   322.44444     -93.491733     -5307307.3      2.8802747      960.18448     -5306347.1      503.83946      503.83946      503.83946      1748.0803      2251.9197      1748.0803      2251.9197      1748.0803      2251.9197      1.2790177e+08  0.5            5668000        1.1491311      7000.0893      14000.219      6.032948     
  50126200   322.39109     -94.902399     -5307835.5      2.8802747      960.02563     -5306875.4      503.83946      503.83946      503.83946      1748.0803      2251.9197      1748.0803      2251.9197      1748.0803      2251.9197      1.2790177e+08  0.5            5668100        1.1633854      7015.4309      14030.831      6.0180157    
  50126400   322.50171     -96.511979     -5307994.9      2.8802747      960.35503     -5307034.5      503.83946      503.83946      503.83946      1748.0803      2251.9197      1748.0803      2251.9197      1748.0803      2251.9197      1.2790177e+08  0.5            5668200        1.1775996      7035.2495      14070.468      6.0028951    
  50126600   322.68537     -98.186348     -5307785.8      2.8802747      960.90192     -5306824.9      503.83946      503.83946      503.83946      1748.0803      2251.9197      1748.0803      2251.9197      1748.0803      2251.9197      1.2790177e+08  0.5            5668300        1.1919244      6980.8613      13961.701      5.988353     
  50126800   322.86435     -100.33835     -5307945.5      2.8802747      961.4349      -5306984.1      503.83946      503.83946      503.83946      1748.0803      2251.9197      1748.0803      2251.9197      1748.0803      2251.9197      1.2790177e+08  0.5            5668400        1.2061891      7010.3289      14020.665      5.9735175    
  50127000   322.66426     -102.51011     -5308104.8      2.8802747      960.83907     -5307143.9      503.83946      503.83946      503.83946      1748.0803      2251.9197      1748.0803      2251.9197      1748.0803      2251.9197      1.2790177e+08  0.5            5668500        1.2204578      7008.3563      14016.768      5.958715     
  50127200   322.5574      -104.72692     -5308262.7      2.8802747      960.52087     -5307302.1      503.83946      503.83946      503.83946      1748.0803      2251.9197      1748.0803      2251.9197      1748.0803      2251.9197      1.2790177e+08  0.5            5668600        1.2347323      7005.4807      14010.966      5.9439527    
  50127400   322.23103     -106.98972     -5308418.9      2.8802747      959.549       -5307459.4      503.83946      503.83946      503.83946      1748.0803      2251.9197      1748.0803      2251.9197      1748.0803      2251.9197      1.2790177e+08  0.5            5668700        1.2489757      7020.8232      14041.622      5.9290542    
  50127600   321.69399     -109.09813     -5308572.9      2.8802747      957.94976     -5307614.9      503.83946      503.83946      503.83946      1748.0803      2251.9197      1748.0803      2251.9197      1748.0803      2251.9197      1.2790177e+08  0.5            5668800        1.2632303      7015.2478      14030.468      5.9142237    
  50127800   321.16259     -111.29529     -5309093.3      2.8802747      956.36736     -5308137        503.83946      503.83946      503.83946      1748.0803      2251.9197      1748.0803      2251.9197      1748.0803      2251.9197      1.2790177e+08  0.5            5668900        1.2774586      7028.2663      14056.56       5.8992839    
  50128000   320.56083     -112.88367     -5309244        2.8802747      954.57541     -5308289.4      503.83946      503.83946      503.83946      1748.0803      2251.9197      1748.0803      2251.9197      1748.0803      2251.9197      1.2790177e+08  0.5            5669000        1.29176        6992.252       13984.458      5.884694     
  50128200   320.54826     -114.11358     -5309393.8      2.8802747      954.53798     -5308439.3      503.83946      503.83946      503.83946      1748.0803      2251.9197      1748.0803      2251.9197      1748.0803      2251.9197      1.2790177e+08  0.5            5669100        1.3060609      6992.6226      13985.294      5.8701066    
  50128400   320.77885     -115.0315      -5309543.6      2.8802747      955.22465     -5308588.4      503.83946      503.83946      503.83946      1748.0803      2251.9197      1748.0803      2251.9197      1748.0803      2251.9197      1.2790177e+08  0.5            5669200        1.3203401      7003.2062      14006.417      5.8554295    
  50128600   321.07766     -115.70514     -5309693.8      2.8802747      956.11443     -5308737.7      503.83946      503.83946      503.83946      1748.0803      2251.9197      1748.0803      2251.9197      1748.0803      2251.9197      1.2790177e+08  0.5            5669300        1.3346347      6995.6291      13991.208      5.8408293    
  50128800   321.36495     -116.19443     -5309844.4      2.8802747      956.96993     -5308887.5      503.83946      503.83946      503.83946      1748.0803      2251.9197      1748.0803      2251.9197      1748.0803      2251.9197      1.2790177e+08  0.5            5669400        1.3488683      7025.6433      14051.277      5.8259713    
  50129000   321.30467     -116.659       -5309995.2      2.8802747      956.79043     -5309038.4      503.83946      503.83946      503.83946      1748.0803      2251.9197      1748.0803      2251.9197      1748.0803      2251.9197      1.2790177e+08  0.5            5669500        1.3631812      6986.7297      13973.49       5.8114648    
  50129200   321.58097     -117.29306     -5310145.6      2.8802747      957.61321     -5309188        503.83946      503.83946      503.83946      1748.0803      2251.9197      1748.0803      2251.9197      1748.0803      2251.9197      1.2790177e+08  0.5            5669600        1.3774446      7010.926       14021.848      5.7967541    
  50129400   321.96041     -118.53013     -5310665.3      2.8802747      958.74311     -5309706.5      503.83946      503.83946      503.83946      1748.0803      2251.9197      1748.0803      2251.9197      1748.0803      2251.9197      1.2790177e+08  0.5            5669700        1.391709       7010.4434      14020.938      5.7820565    
  50129600   322.42251     -119.61787     -5310817.7      2.8802747      960.11916     -5309857.5      503.83946      503.83946      503.83946      1748.0803      2251.9197      1748.0803      2251.9197      1748.0803      2251.9197      1.2790177e+08  0.5            5669800        1.4059768      7008.816       14017.593      5.767382     
  50129800   322.85495     -120.67158     -5310971.3      2.8802747      961.40691     -5310009.8      503.83946      503.83946      503.83946      1748.0803      2251.9197      1748.0803      2251.9197      1748.0803      2251.9197      1.2790177e+08  0.5            5669900        1.4202031      7029.1951      14058.393      5.7525477    
  50130000   322.84179     -121.59647     -5311125.2      2.8802747      961.36773     -5310163.9      503.83946      503.83946      503.83946      1748.0803      2251.9197      1748.0803      2251.9197      1748.0803      2251.9197      1.2790177e+08  0.5            5670000        1.4344492      7019.4798      14038.947      5.7378047    
  50130200   322.88895     -122.02711     -5310909.8      2.8802747      961.50814     -5309948.3      503.83946      503.83946      503.83946      1748.0803      2251.9197      1748.0803      2251.9197      1748.0803      2251.9197      1.2790177e+08  0.5            5670100        1.448676       7028.988       14057.986      5.722995     
  50130400   322.72574     -122.66277     -5311061.7      2.8802747      961.02216     -5310100.7      503.83946      503.83946      503.83946      1748.0803      2251.9197      1748.0803      2251.9197      1748.0803      2251.9197      1.2790177e+08  0.5            5670200        1.4629652      6998.3198      13996.651      5.7084402    
  50130600   322.42215     -123.16066     -5311212.4      2.8802747      960.11811     -5310252.3      503.83946      503.83946      503.83946      1748.0803      2251.9197      1748.0803      2251.9197      1748.0803      2251.9197      1.2790177e+08  0.5            5670300        1.4771741      7037.8425      14075.652      5.6935812    
  50130800   322.08339     -123.29092     -5310993.6      2.8802747      959.10933     -5310034.5      503.83946      503.83946      503.83946      1748.0803      2251.9197      1748.0803      2251.9197      1748.0803      2251.9197      1.2790177e+08  0.5            5670400        1.4914053      7026.7719      14053.55       5.67882      
  50131000   321.52721     -123.89314     -5311141.9      2.8802747      957.45313     -5310184.4      503.83946      503.83946      503.83946      1748.0803      2251.9197      1748.0803      2251.9197      1748.0803      2251.9197      1.2790177e+08  0.5            5670500        1.5056802      7005.3123      14010.667      5.6642326    
  50131200   321.27355     -124.44933     -5310920.1      2.8802747      956.69777     -5309963.4      503.83946      503.83946      503.83946      1748.0803      2251.9197      1748.0803      2251.9197      1748.0803      2251.9197      1.2790177e+08  0.5            5670600        1.5198747      7045.0085      14090.009      5.6493522    
  50131400   321.16713     -125.69538     -5311066        2.8802747      956.38087     -5310109.6      503.83946      503.83946      503.83946      1748.0803      2251.9197      1748.0803      2251.9197      1748.0803      2251.9197      1.2790177e+08  0.5            5670700        1.5340585      7050.2938      14100.564      5.6344461    
  50131600   321.18417     -127.20472     -5311211.8      2.8802747      956.43162     -5310255.4      503.83946      503.83946      503.83946      1748.0803      2251.9197      1748.0803      2251.9197      1748.0803      2251.9197      1.2790177e+08  0.5            5670800        1.5482466      7048.1745      14096.332      5.6195684    
  50131800   321.26166     -128.46723     -5310989.2      2.8802747      956.66235     -5310032.6      503.83946      503.83946      503.83946      1748.0803      2251.9197      1748.0803      2251.9197      1748.0803      2251.9197      1.2790177e+08  0.5            5670900        1.5624896      7020.9765      14041.987      5.6049006    
  50132000   321.12629     -129.8929      -5311135.1      2.8802747      956.25926     -5310178.8      503.83946      503.83946      503.83946      1748.0803      2251.9197      1748.0803      2251.9197      1748.0803      2251.9197      1.2790177e+08  0.5            5671000        1.5767934      6991.1653      13982.332      5.590456     
  50132200   321.21668     -130.921       -5311280.2      2.8802747      956.52841     -5310323.7      503.83946      503.83946      503.83946      1748.0803      2251.9197      1748.0803      2251.9197      1748.0803      2251.9197      1.2790177e+08  0.5            5671100        1.5910318      7023.264       14046.483      5.5757848    
  50132400   321.31092     -131.60162     -5311425.3      2.8802747      956.80904     -5310468.4      503.83946      503.83946      503.83946      1748.0803      2251.9197      1748.0803      2251.9197      1748.0803      2251.9197      1.2790177e+08  0.5            5671200        1.6052805      7018.1669      14036.35       5.5611572    
  50132600   321.58991     -132.43641     -5311939.5      2.8802747      957.63985     -5310981.8      503.83946      503.83946      503.83946      1748.0803      2251.9197      1748.0803      2251.9197      1748.0803      2251.9197      1.2790177e+08  0.5            5671300        1.6195077      7028.7618      14057.555      5.5464623    
  50132800   321.9489      -132.72254     -5312086        2.8802747      958.70885     -5311127.3      503.83946      503.83946      503.83946      1748.0803      2251.9197      1748.0803      2251.9197      1748.0803      2251.9197      1.2790177e+08  0.5            5671400        1.6337614      7015.7434      14031.487      5.5318651    
  50133000   322.11461     -132.34648     -5311865.4      2.8802747      959.2023      -5310906.2      503.83946      503.83946      503.83946      1748.0803      2251.9197      1748.0803      2251.9197      1748.0803      2251.9197      1.2790177e+08  0.5            5671500        1.6479931      7026.5842      14053.194      5.5172004    
  50133200   322.51341     -131.87291     -5312013.6      2.8802747      960.38985     -5311053.2      503.83946      503.83946      503.83946      1748.0803      2251.9197      1748.0803      2251.9197      1748.0803      2251.9197      1.2790177e+08  0.5            5671600        1.6625116      6887.7601      13775.471      5.5034931    
  50133400   322.63046     -131.18812     -5312161.3      2.8802747      960.73841     -5311200.6      503.83946      503.83946      503.83946      1748.0803      2251.9197      1748.0803      2251.9197      1748.0803      2251.9197      1.2790177e+08  0.5            5671700        1.6767285      7033.8857      14067.766      5.4887842    
  50133600   322.48475     -130.75719     -5312308.2      2.8802747      960.30453     -5311347.9      503.83946      503.83946      503.83946      1748.0803      2251.9197      1748.0803      2251.9197      1748.0803      2251.9197      1.2790177e+08  0.5            5671800        1.6909776      7017.9452      14035.919      5.474188     
  50133800   322.32566     -130.28471     -5311717.5      2.8802747      959.83077     -5310757.7      503.83946      503.83946      503.83946      1748.0803      2251.9197      1748.0803      2251.9197      1748.0803      2251.9197      1.2790177e+08  0.5            5671900        1.705217       7022.7885      14045.563      5.4595664    
  50134000   322.10825     -131.03729     -5311864        2.8802747      959.18336     -5310904.9      503.83946      503.83946      503.83946      1748.0803      2251.9197      1748.0803      2251.9197      1748.0803      2251.9197      1.2790177e+08  0.5            5672000        1.7194848      7008.8072      14017.677      5.445041     
  50134200   322.28375     -131.91806     -5312010.8      2.8802747      959.70596     -5311051.1      503.83946      503.83946      503.83946      1748.0803      2251.9197      1748.0803      2251.9197      1748.0803      2251.9197      1.2790177e+08  0.5            5672100        1.7337002      7034.6022      14069.12       5.4303564    
  50134400   322.43226     -132.82703     -5312526.1      2.8802747      960.1482      -5311565.9      503.83946      503.83946      503.83946      1748.0803      2251.9197      1748.0803      2251.9197      1748.0803      2251.9197      1.2790177e+08  0.5            5672200        1.7479564      7014.4939      14029.016      5.4158052    
  50134600   322.27336     -133.13039     -5312671.6      2.8802747      959.67504     -5311711.9      503.83946      503.83946      503.83946      1748.0803      2251.9197      1748.0803      2251.9197      1748.0803      2251.9197      1.2790177e+08  0.5            5672300        1.7621753      7032.9102      14065.818      5.4011447    
  50134800   321.86636     -133.4917      -5312815.2      2.8802747      958.46307     -5311856.8      503.83946      503.83946      503.83946      1748.0803      2251.9197      1748.0803      2251.9197      1748.0803      2251.9197      1.2790177e+08  0.5            5672400        1.7763763      7041.7695      14083.572      5.3864369    
  50135000   321.25421     -134.30352     -5312957.6      2.8802747      956.64017     -5312000.9      503.83946      503.83946      503.83946      1748.0803      2251.9197      1748.0803      2251.9197      1748.0803      2251.9197      1.2790177e+08  0.5            5672500        1.7906746      6993.7939      13987.558      5.3720298    
  50135200   321.16026     -135.62229     -5313099.7      2.8802747      956.36042     -5312143.3      503.83946      503.83946      503.83946      1748.0803      2251.9197      1748.0803      2251.9197      1748.0803      2251.9197      1.2790177e+08  0.5            5672600        1.8049198      7019.9513      14039.906      5.3574658    
  50135400   321.53264     -137.72583     -5313980.1      2.8802747      957.46929     -5313022.7      503.83946      503.83946      503.83946      1748.0803      2251.9197      1748.0803      2251.9197      1748.0803      2251.9197      1.2790177e+08  0.5            5672700        1.8191455      7029.5266      14059.061      5.34285      
  50135600   321.93164     -139.06533     -5314124.6      2.8802747      958.65745     -5313166        503.83946      503.83946      503.83946      1748.0803      2251.9197      1748.0803      2251.9197      1748.0803      2251.9197      1.2790177e+08  0.5            5672800        1.8334061      7012.3178      14024.641      5.3283419    
  50135800   322.20734     -140.09648     -5313901.1      2.8802747      959.47843     -5312941.6      503.83946      503.83946      503.83946      1748.0803      2251.9197      1748.0803      2251.9197      1748.0803      2251.9197      1.2790177e+08  0.5            5672900        1.8476293      7030.7844      14061.549      5.3137298    
  50136000   321.83052     -141.55598     -5314044.6      2.8802747      958.35633     -5313086.3      503.83946      503.83946      503.83946      1748.0803      2251.9197      1748.0803      2251.9197      1748.0803      2251.9197      1.2790177e+08  0.5            5673000        1.8618841      7015.1813      14030.383      5.2992138    
  50136200   321.28315     -142.92948     -5314185.8      2.8802747      956.72636     -5313229.1      503.83946      503.83946      503.83946      1748.0803      2251.9197      1748.0803      2251.9197      1748.0803      2251.9197      1.2790177e+08  0.5            5673100        1.876104       7032.3805      14064.727      5.2846037    
  50136400   320.75747     -144.10593     -5314325.3      2.8802747      955.16097     -5313370.1      503.83946      503.83946      503.83946      1748.0803      2251.9197      1748.0803      2251.9197      1748.0803      2251.9197      1.2790177e+08  0.5            5673200        1.8903259      7031.4459      14062.903      5.2700045    
  50136600   320.4119      -145.07036     -5314463.8      2.8802747      954.13193     -5313509.6      503.83946      503.83946      503.83946      1748.0803      2251.9197      1748.0803      2251.9197      1748.0803      2251.9197      1.2790177e+08  0.5            5673300        1.9045644      7023.1451      14046.322      5.2554575    
  50136800   320.26258     -145.82469     -5314601.9      2.8802747      953.68728     -5313648.2      503.83946      503.83946      503.83946      1748.0803      2251.9197      1748.0803      2251.9197      1748.0803      2251.9197      1.2790177e+08  0.5            5673400        1.9187808      7034.1677      14068.321      5.2408541    
  50137000   320.14617     -146.52099     -5314740.1      2.8802747      953.34062     -5313786.8      503.83946      503.83946      503.83946      1748.0803      2251.9197      1748.0803      2251.9197      1748.0803      2251.9197      1.2790177e+08  0.5            5673500        1.9330274      7019.2186      14038.419      5.2263384    
  50137200   320.54917     -147.27396     -5314879.4      2.8802747      954.54068     -5313924.8      503.83946      503.83946      503.83946      1748.0803      2251.9197      1748.0803      2251.9197      1748.0803      2251.9197      1.2790177e+08  0.5            5673600        1.9472536      7029.28        14058.528      5.2117721    
  50137400   321.04997     -147.9586      -5315020        2.8802747      956.03198     -5314064        503.83946      503.83946      503.83946      1748.0803      2251.9197      1748.0803      2251.9197      1748.0803      2251.9197      1.2790177e+08  0.5            5673700        1.9614915      7023.4963      14047.063      5.1972415    
  50137600   321.16636     -148.4617      -5315160.2      2.8802747      956.37859     -5314203.9      503.83946      503.83946      503.83946      1748.0803      2251.9197      1748.0803      2251.9197      1748.0803      2251.9197      1.2790177e+08  0.5            5673800        1.975705       7035.5539      14071.068      5.1826514    
  50137800   320.72756     -149.09357     -5315666.9      2.8802747      955.07191     -5314711.8      503.83946      503.83946      503.83946      1748.0803      2251.9197      1748.0803      2251.9197      1748.0803      2251.9197      1.2790177e+08  0.5            5673900        1.989942       7023.9837      14047.988      5.1681276    
  50138000   319.81614     -149.69958     -5315802.6      2.8802747      952.35785     -5314850.2      503.83946      503.83946      503.83946      1748.0803      2251.9197      1748.0803      2251.9197      1748.0803      2251.9197      1.2790177e+08  0.5            5674000        2.0042326      6997.6014      13995.168      5.153746     
  50138200   319.33854     -150.71153     -5315936.2      2.8802747      950.93565     -5314985.3      503.83946      503.83946      503.83946      1748.0803      2251.9197      1748.0803      2251.9197      1748.0803      2251.9197      1.2790177e+08  0.5            5674100        2.018448       7034.6254      14069.286      5.1391739    
  50138400   319.14456     -152.02562     -5316068.9      2.8802747      950.358       -5315118.5      503.83946      503.83946      503.83946      1748.0803      2251.9197      1748.0803      2251.9197      1748.0803      2251.9197      1.2790177e+08  0.5            5674200        2.0327017      7015.6957      14031.368      5.1247035    
  50138600   319.213       -153.39128     -5315833.1      2.8802747      950.56181     -5314882.5      503.83946      503.83946      503.83946      1748.0803      2251.9197      1748.0803      2251.9197      1748.0803      2251.9197      1.2790177e+08  0.5            5674300        2.0469296      7028.4392      14056.9        5.1101718    
  50138800   319.52914     -155.59899     -5315966.5      2.8802747      951.50321     -5315015        503.83946      503.83946      503.83946      1748.0803      2251.9197      1748.0803      2251.9197      1748.0803      2251.9197      1.2790177e+08  0.5            5674400        2.0611574      7028.4876      14056.969      5.0956439    
  50139000   319.80186     -158.19318     -5316101.5      2.8802747      952.31532     -5315149.2      503.83946      503.83946      503.83946      1748.0803      2251.9197      1748.0803      2251.9197      1748.0803      2251.9197      1.2790177e+08  0.5            5674500        2.07538        7031.0711      14062.15       5.0811075    
  50139200   320.40482     -160.63862     -5316237.5      2.8802747      954.11084     -5315283.4      503.83946      503.83946      503.83946      1748.0803      2251.9197      1748.0803      2251.9197      1748.0803      2251.9197      1.2790177e+08  0.5            5674600        2.089596       7034.3404      14068.683      5.0665593    
  50139400   320.85667     -162.69062     -5316374.1      2.8802747      955.45639     -5315418.7      503.83946      503.83946      503.83946      1748.0803      2251.9197      1748.0803      2251.9197      1748.0803      2251.9197      1.2790177e+08  0.5            5674700        2.1038636      7008.8799      14017.75       5.0521398    
  50139600   321.0835      -164.56843     -5316879.2      2.8802747      956.13184     -5315923.1      503.83946      503.83946      503.83946      1748.0803      2251.9197      1748.0803      2251.9197      1748.0803      2251.9197      1.2790177e+08  0.5            5674800        2.1183573      6899.5656      13799.115      5.0382598    
  50139800   321.00661     -165.42314     -5316646.6      2.8802747      955.90288     -5315690.7      503.83946      503.83946      503.83946      1748.0803      2251.9197      1748.0803      2251.9197      1748.0803      2251.9197      1.2790177e+08  0.5            5674900        2.1325716      7035.1842      14070.358      5.0237133    
  50140000   320.35441     -166.32408     -5316780.7      2.8802747      953.96072     -5315826.8      503.83946      503.83946      503.83946      1748.0803      2251.9197      1748.0803      2251.9197      1748.0803      2251.9197      1.2790177e+08  0.5            5675000        2.146791       7032.5847      14065.203      5.0091835    
  50140200   319.79277     -167.14244     -5316912.4      2.8802747      952.28827     -5315960.1      503.83946      503.83946      503.83946      1748.0803      2251.9197      1748.0803      2251.9197      1748.0803      2251.9197      1.2790177e+08  0.5            5675100        2.1610367      7019.7237      14039.438      4.9947183    
  50140400   319.44718     -168.10021     -5317043        2.8802747      951.25915     -5316091.7      503.83946      503.83946      503.83946      1748.0803      2251.9197      1748.0803      2251.9197      1748.0803      2251.9197      1.2790177e+08  0.5            5675200        2.175307       7007.5027      14015.027      4.9803125    
  50140600   319.34312     -169.29        -5317173.4      2.8802747      950.94927     -5316222.5      503.83946      503.83946      503.83946      1748.0803      2251.9197      1748.0803      2251.9197      1748.0803      2251.9197      1.2790177e+08  0.5            5675300        2.1895343      7028.7539      14057.462      4.965811     
  50140800   319.29109     -170.61892     -5317303.5      2.8802747      950.79435     -5316352.7      503.83946      503.83946      503.83946      1748.0803      2251.9197      1748.0803      2251.9197      1748.0803      2251.9197      1.2790177e+08  0.5            5675400        2.2037985      7010.607       14021.249      4.9513955    
  50141000   319.05176     -171.7812      -5317433.3      2.8802747      950.08167     -5316483.3      503.83946      503.83946      503.83946      1748.0803      2251.9197      1748.0803      2251.9197      1748.0803      2251.9197      1.2790177e+08  0.5            5675500        2.2180588      7012.4663      14024.901      4.9369738    
  50141200   319.2589      -172.54384     -5317563.2      2.8802747      950.69848     -5316612.5      503.83946      503.83946      503.83946      1748.0803      2251.9197      1748.0803      2251.9197      1748.0803      2251.9197      1.2790177e+08  0.5            5675600        2.2322704      7036.4965      14073.015      4.9224465    
  50141400   319.5542      -172.69449     -5317693.6      2.8802747      951.57783     -5316742        503.83946      503.83946      503.83946      1748.0803      2251.9197      1748.0803      2251.9197      1748.0803      2251.9197      1.2790177e+08  0.5            5675700        2.2464855      7034.8046      14069.59       4.9079309    
  50141600   319.65115     -172.26297     -5317823.7      2.8802747      951.86655     -5316871.8      503.83946      503.83946      503.83946      1748.0803      2251.9197      1748.0803      2251.9197      1748.0803      2251.9197      1.2790177e+08  0.5            5675800        2.2607174      7026.4519      14052.916      4.8934556    
  50141800   319.46998     -171.66361     -5317952.5      2.8802747      951.32706     -5317001.2      503.83946      503.83946      503.83946      1748.0803      2251.9197      1748.0803      2251.9197      1748.0803      2251.9197      1.2790177e+08  0.5            5675900        2.2749785      7012.039       14024.077      4.879046     
  50142000   318.93819     -171.24909     -5318080        2.8802747      949.74348     -5317130.2      503.83946      503.83946      503.83946      1748.0803      2251.9197      1748.0803      2251.9197      1748.0803      2251.9197      1.2790177e+08  0.5            5676000        2.2892674      6998.4526      13996.913      4.8646974    
  50142200   318.76715     -171.25772     -5318206.5      2.8802747      949.23413     -5317257.2      503.83946      503.83946      503.83946      1748.0803      2251.9197      1748.0803      2251.9197      1748.0803      2251.9197      1.2790177e+08  0.5            5676100        2.3035891      6982.3986      13964.804      4.8504183    
  50142400   318.843       -172.13688     -5318701.6      2.8802747      949.46002     -5317752.1      503.83946      503.83946      503.83946      1748.0803      2251.9197      1748.0803      2251.9197      1748.0803      2251.9197      1.2790177e+08  0.5            5676200        2.3178333      7020.4205      14040.856      4.8359771    
  50142600   319.21145     -172.94392     -5318460.9      2.8802747      950.55718     -5317510.3      503.83946      503.83946      503.83946      1748.0803      2251.9197      1748.0803      2251.9197      1748.0803      2251.9197      1.2790177e+08  0.5            5676300        2.3320583      7029.8839      14059.745      4.8214987    
  50142800   319.86464     -173.37479     -5317485.2      2.8802747      952.50228     -5316532.7      503.83946      503.83946      503.83946      1748.0803      2251.9197      1748.0803      2251.9197      1748.0803      2251.9197      1.2790177e+08  0.5            5676400        2.3463042      7019.5625      14039.136      4.8070661    
  50143000   320.49723     -174.5542      -5317617.1      2.8802747      954.38602     -5316662.7      503.83946      503.83946      503.83946      1748.0803      2251.9197      1748.0803      2251.9197      1748.0803      2251.9197      1.2790177e+08  0.5            5676500        2.3605651      7012.1516      14024.338      4.7926664    
  50143200   321.01063     -175.76292     -5318118.1      2.8802747      955.91485     -5317162.2      503.83946      503.83946      503.83946      1748.0803      2251.9197      1748.0803      2251.9197      1748.0803      2251.9197      1.2790177e+08  0.5            5676600        2.3748369      7006.8664      14013.691      4.77829      
  50143400   321.28084     -176.63327     -5318250.8      2.8802747      956.71948     -5317294.1      503.83946      503.83946      503.83946      1748.0803      2251.9197      1748.0803      2251.9197      1748.0803      2251.9197      1.2790177e+08  0.5            5676700        2.389073       7024.3444      14048.685      4.7638441    
  50143600   321.36768     -177.75748     -5318383.6      2.8802747      956.97807     -5317426.6      503.83946      503.83946      503.83946      1748.0803      2251.9197      1748.0803      2251.9197      1748.0803      2251.9197      1.2790177e+08  0.5            5676800        2.4033583      7000.2138      14000.448      4.7494975    
  50143800   321.32708     -179.08649     -5318516.4      2.8802747      956.85718     -5317559.5      503.83946      503.83946      503.83946      1748.0803      2251.9197      1748.0803      2251.9197      1748.0803      2251.9197      1.2790177e+08  0.5            5676900        2.4175829      7030.0836      14060.151      4.735033     
  50144000   320.98645     -180.05642     -5318280.1      2.8802747      955.84284     -5317324.2      503.83946      503.83946      503.83946      1748.0803      2251.9197      1748.0803      2251.9197      1748.0803      2251.9197      1.2790177e+08  0.5            5677000        2.4318463      7010.9457      14021.899      4.7206465    
  50144200   320.54431     -181.1914      -5318410.8      2.8802747      954.52622     -5317456.2      503.83946      503.83946      503.83946      1748.0803      2251.9197      1748.0803      2251.9197      1748.0803      2251.9197      1.2790177e+08  0.5            5677100        2.4460678      7031.6155      14063.202      4.7061809    
  50144400   320.02004     -182.14752     -5318540        2.8802747      952.96503     -5317587        503.83946      503.83946      503.83946      1748.0803      2251.9197      1748.0803      2251.9197      1748.0803      2251.9197      1.2790177e+08  0.5            5677200        2.4603043      7024.1831      14048.392      4.6917468    
  50144600   319.54798     -182.88762     -5318668        2.8802747      951.55932     -5317716.5      503.83946      503.83946      503.83946      1748.0803      2251.9197      1748.0803      2251.9197      1748.0803      2251.9197      1.2790177e+08  0.5            5677300        2.4745778      7006.0269      14012.035      4.6773847    
  50144800   319.14382     -183.58825     -5318795        2.8802747      950.3558      -5317844.6      503.83946      503.83946      503.83946      1748.0803      2251.9197      1748.0803      2251.9197      1748.0803      2251.9197      1.2790177e+08  0.5            5677400        2.4888064      7028.0949      14056.186      4.6629397    
  50145000   318.6382      -184.12862     -5318552.1      2.8802747      948.85014     -5317603.3      503.83946      503.83946      503.83946      1748.0803      2251.9197      1748.0803      2251.9197      1748.0803      2251.9197      1.2790177e+08  0.5            5677500        2.5030929      6999.6106      13999.226      4.6486047    
  50145200   318.28379     -185.44019     -5319044.7      2.8802747      947.79478     -5318096.9      503.83946      503.83946      503.83946      1748.0803      2251.9197      1748.0803      2251.9197      1748.0803      2251.9197      1.2790177e+08  0.5            5677600        2.5173323      7022.7673      14045.534      4.6341834    
  50145400   318.03268     -186.03272     -5318799.2      2.8802747      947.04702     -5317852.1      503.83946      503.83946      503.83946      1748.0803      2251.9197      1748.0803      2251.9197      1748.0803      2251.9197      1.2790177e+08  0.5            5677700        2.531885       6871.5289      13743.055      4.6203362    
  50145600   317.99771     -186.76911     -5318922        2.8802747      946.94287     -5317975        503.83946      503.83946      503.83946      1748.0803      2251.9197      1748.0803      2251.9197      1748.0803      2251.9197      1.2790177e+08  0.5            5677800        2.5461102      7029.792       14059.546      4.6058884    
  50145800   318.05295     -187.25544     -5319044.6      2.8802747      947.10736     -5318097.5      503.83946      503.83946      503.83946      1748.0803      2251.9197      1748.0803      2251.9197      1748.0803      2251.9197      1.2790177e+08  0.5            5677900        2.560346       7024.5743      14049.205      4.5914618    
  50146000   318.03493     -187.50981     -5319167.2      2.8802747      947.05373     -5318220.1      503.83946      503.83946      503.83946      1748.0803      2251.9197      1748.0803      2251.9197      1748.0803      2251.9197      1.2790177e+08  0.5            5678000        2.5745903      7020.3569      14040.704      4.5770527    
  50146200   318.24896     -187.37095     -5318921.3      2.8802747      947.69105     -5317973.6      503.83946      503.83946      503.83946      1748.0803      2251.9197      1748.0803      2251.9197      1748.0803      2251.9197      1.2790177e+08  0.5            5678100        2.5888078      7033.5799      14067.168      4.5625983    
  50146400   318.46886     -187.5496      -5319044.2      2.8802747      948.34589     -5318095.9      503.83946      503.83946      503.83946      1748.0803      2251.9197      1748.0803      2251.9197      1748.0803      2251.9197      1.2790177e+08  0.5            5678200        2.6030745      7009.3397      14018.666      4.5482324    
  50146600   318.56624     -187.87661     -5319166.8      2.8802747      948.63585     -5318218.2      503.83946      503.83946      503.83946      1748.0803      2251.9197      1748.0803      2251.9197      1748.0803      2251.9197      1.2790177e+08  0.5            5678300        2.6173197      7019.9021      14039.824      4.5338303    
  50146800   318.64142     -188.56845     -5319289        2.8802747      948.85974     -5318340.2      503.83946      503.83946      503.83946      1748.0803      2251.9197      1748.0803      2251.9197      1748.0803      2251.9197      1.2790177e+08  0.5            5678400        2.6316035      7000.9239      14001.861      4.5194962    
  50147000   318.57865     -189.61513     -5319411.8      2.8802747      948.67283     -5318463.1      503.83946      503.83946      503.83946      1748.0803      2251.9197      1748.0803      2251.9197      1748.0803      2251.9197      1.2790177e+08  0.5            5678500        2.6458205      7033.8288      14067.653      4.505049     
  50147200   318.73201     -190.60195     -5319166.3      2.8802747      949.1295      -5318217.1      503.83946      503.83946      503.83946      1748.0803      2251.9197      1748.0803      2251.9197      1748.0803      2251.9197      1.2790177e+08  0.5            5678600        2.6600448      7030.258       14060.47       4.4906166    
  50147400   318.68006     -191.71785     -5318920.1      2.8802747      948.9748      -5317971.2      503.83946      503.83946      503.83946      1748.0803      2251.9197      1748.0803      2251.9197      1748.0803      2251.9197      1.2790177e+08  0.5            5678700        2.6742957      7017.1076      14034.249      4.4762306    
  50147600   318.41361     -193.17039     -5319041.2      2.8802747      948.18137     -5318093        503.83946      503.83946      503.83946      1748.0803      2251.9197      1748.0803      2251.9197      1748.0803      2251.9197      1.2790177e+08  0.5            5678800        2.6885583      7011.3006      14022.626      4.4618658    
  50147800   318.11688     -194.54967     -5319161.1      2.8802747      947.29775     -5318213.8      503.83946      503.83946      503.83946      1748.0803      2251.9197      1748.0803      2251.9197      1748.0803      2251.9197      1.2790177e+08  0.5            5678900        2.7028561      6994.1153      13988.189      4.44756      
  50148000   317.73464     -195.95928     -5319280.5      2.8802747      946.1595      -5318334.4      503.83946      503.83946      503.83946      1748.0803      2251.9197      1748.0803      2251.9197      1748.0803      2251.9197      1.2790177e+08  0.5            5679000        2.7171189      7011.2446      14022.492      4.4331971    
  50148200   317.78515     -197.63775     -5319399.5      2.8802747      946.30991     -5318453.2      503.83946      503.83946      503.83946      1748.0803      2251.9197      1748.0803      2251.9197      1748.0803      2251.9197      1.2790177e+08  0.5            5679100        2.7313281      7037.6746      14075.344      4.4187486    
  50148400   317.93546     -199.46428     -5319518.8      2.8802747      946.7575      -5318572        503.83946      503.83946      503.83946      1748.0803      2251.9197      1748.0803      2251.9197      1748.0803      2251.9197      1.2790177e+08  0.5            5679200        2.7455821      7015.5977      14031.216      4.4043742    
  50148600   318.0503      -201.08578     -5319638.3      2.8802747      947.09947     -5318691.2      503.83946      503.83946      503.83946      1748.0803      2251.9197      1748.0803      2251.9197      1748.0803      2251.9197      1.2790177e+08  0.5            5679300        2.7598067      7030.0445      14060.111      4.3899545    
  50148800   318.09958     -202.74942     -5320494.4      2.8802747      947.24624     -5319547.2      503.83946      503.83946      503.83946      1748.0803      2251.9197      1748.0803      2251.9197      1748.0803      2251.9197      1.2790177e+08  0.5            5679400        2.7740958      6998.3703      13996.712      4.3756387    
  50149000   317.95591     -203.05939     -5320613.3      2.8802747      946.8184      -5319666.4      503.83946      503.83946      503.83946      1748.0803      2251.9197      1748.0803      2251.9197      1748.0803      2251.9197      1.2790177e+08  0.5            5679500        2.7883424      7019.2255      14038.469      4.3612564    
  50149200   317.81296     -202.76902     -5320730.8      2.8802747      946.39272     -5319784.4      503.83946      503.83946      503.83946      1748.0803      2251.9197      1748.0803      2251.9197      1748.0803      2251.9197      1.2790177e+08  0.5            5679600        2.8028128      6910.6385      13821.256      4.3472228    
  50149400   317.55563     -202.13318     -5320847.1      2.8802747      945.62644     -5319901.5      503.83946      503.83946      503.83946      1748.0803      2251.9197      1748.0803      2251.9197      1748.0803      2251.9197      1.2790177e+08  0.5            5679700        2.8170651      7016.3927      14032.803      4.3328492    
  50149600   317.28171     -201.37497     -5320962.3      2.8802747      944.81075     -5320017.5      503.83946      503.83946      503.83946      1748.0803      2251.9197      1748.0803      2251.9197      1748.0803      2251.9197      1.2790177e+08  0.5            5679800        2.8312981      7025.9355      14051.888      4.3184474    
  50149800   317.13891     -201.03695     -5321445.5      2.8802747      944.38551     -5320501.1      503.83946      503.83946      503.83946      1748.0803      2251.9197      1748.0803      2251.9197      1748.0803      2251.9197      1.2790177e+08  0.5            5679900        2.845555       7014.1224      14028.231      4.3040836    
  50150000   316.94163     -200.77482     -5321559.7      2.8802747      943.79807     -5320615.9      503.83946      503.83946      503.83946      1748.0803      2251.9197      1748.0803      2251.9197      1748.0803      2251.9197      1.2790177e+08  0.5            5680000        2.8597984      7020.8464      14041.704      4.2897003    
  50150200   317.02582     -201.0642      -5321673.7      2.8802747      944.04876     -5320729.6      503.83946      503.83946      503.83946      1748.0803      2251.9197      1748.0803      2251.9197      1748.0803      2251.9197      1.2790177e+08  0.5            5680100        2.8740235      7029.8177      14059.608      4.2752914    
  50150400   317.30581     -201.83952     -5321788.2      2.8802747      944.88251     -5320843.3      503.83946      503.83946      503.83946      1748.0803      2251.9197      1748.0803      2251.9197      1748.0803      2251.9197      1.2790177e+08  0.5            5680200        2.8882739      7017.3346      14034.645      4.2609217    
  50150600   317.72095     -202.91489     -5321903.7      2.8802747      946.11872     -5320957.6      503.83946      503.83946      503.83946      1748.0803      2251.9197      1748.0803      2251.9197      1748.0803      2251.9197      1.2790177e+08  0.5            5680300        2.9025824      6988.8718      13977.765      4.2466381    
  50150800   318.2001      -203.78733     -5321652        2.8802747      947.54557     -5320704.4      503.83946      503.83946      503.83946      1748.0803      2251.9197      1748.0803      2251.9197      1748.0803      2251.9197      1.2790177e+08  0.5            5680400        2.9168183      7024.4806      14049.001      4.2322488    
  50151000   318.55635     -204.67395     -5321401.5      2.8802747      948.60642     -5320452.9      503.83946      503.83946      503.83946      1748.0803      2251.9197      1748.0803      2251.9197      1748.0803      2251.9197      1.2790177e+08  0.5            5680500        2.9310553      7023.9724      14047.934      4.2178627    
  50151200   318.94901     -205.58595     -5321151.7      2.8802747      949.7757      -5320201.9      503.83946      503.83946      503.83946      1748.0803      2251.9197      1748.0803      2251.9197      1748.0803      2251.9197      1.2790177e+08  0.5            5680600        2.9452652      7037.3378      14074.66       4.2034395    
  50151400   319.28173     -207.27846     -5321639.5      2.8802747      950.76648     -5320688.7      503.83946      503.83946      503.83946      1748.0803      2251.9197      1748.0803      2251.9197      1748.0803      2251.9197      1.2790177e+08  0.5            5680700        2.959479       7035.4084      14070.803      4.1890236    
  50151600   319.47549     -208.82634     -5321759.3      2.8802747      951.34345     -5320807.9      503.83946      503.83946      503.83946      1748.0803      2251.9197      1748.0803      2251.9197      1748.0803      2251.9197      1.2790177e+08  0.5            5680800        2.9736986      7032.5516      14065.118      4.174618     
  50151800   319.40488     -210.42185     -5321878.7      2.8802747      951.13318     -5320927.6      503.83946      503.83946      503.83946      1748.0803      2251.9197      1748.0803      2251.9197      1748.0803      2251.9197      1.2790177e+08  0.5            5680900        2.9879342      7024.6597      14049.333      4.1602363    
  50152000   318.88332     -212.07273     -5321997        2.8802747      949.58007     -5321047.5      503.83946      503.83946      503.83946      1748.0803      2251.9197      1748.0803      2251.9197      1748.0803      2251.9197      1.2790177e+08  0.5            5681000        3.002184       7017.603       14035.126      4.1458759    
  50152200   318.38725     -213.88195     -5322113.6      2.8802747      948.10286     -5321165.5      503.83946      503.83946      503.83946      1748.0803      2251.9197      1748.0803      2251.9197      1748.0803      2251.9197      1.2790177e+08  0.5            5681100        3.0163657      7051.3378      14102.747      4.1314229    
  50152400   317.9908      -216.17226     -5322597.6      2.8802747      946.9223      -5321650.7      503.83946      503.83946      503.83946      1748.0803      2251.9197      1748.0803      2251.9197      1748.0803      2251.9197      1.2790177e+08  0.5            5681200        3.03058        7035.1584      14070.309      4.1170169    
  50152600   317.83331     -217.78067     -5322344.5      2.8802747      946.45333     -5321398        503.83946      503.83946      503.83946      1748.0803      2251.9197      1748.0803      2251.9197      1748.0803      2251.9197      1.2790177e+08  0.5            5681300        3.0448418      7011.7411      14023.46       4.1026769    
  50152800   317.81605     -219.28407     -5322459.9      2.8802747      946.40194     -5321513.5      503.83946      503.83946      503.83946      1748.0803      2251.9197      1748.0803      2251.9197      1748.0803      2251.9197      1.2790177e+08  0.5            5681400        3.0591015      7012.785       14025.584      4.0883345    
  50153000   317.5664      -220.10542     -5322575.1      2.8802747      945.65852     -5321629.4      503.83946      503.83946      503.83946      1748.0803      2251.9197      1748.0803      2251.9197      1748.0803      2251.9197      1.2790177e+08  0.5            5681500        3.0733128      7036.6401      14073.318      4.0739288    
  50153200   317.46245     -220.29479     -5322689.4      2.8802747      945.34895     -5321744.1      503.83946      503.83946      503.83946      1748.0803      2251.9197      1748.0803      2251.9197      1748.0803      2251.9197      1.2790177e+08  0.5            5681600        3.0875446      7026.523       14052.983      4.0595519    
  50153400   317.30412     -220.08841     -5322802.9      2.8802747      944.87747     -5321858.1      503.83946      503.83946      503.83946      1748.0803      2251.9197      1748.0803      2251.9197      1748.0803      2251.9197      1.2790177e+08  0.5            5681700        3.1017852      7022.181       14044.378      4.0451878    
  50153600   317.16958     -219.75763     -5322915.9      2.8802747      944.47683     -5321971.4      503.83946      503.83946      503.83946      1748.0803      2251.9197      1748.0803      2251.9197      1748.0803      2251.9197      1.2790177e+08  0.5            5681800        3.1159741      7047.7503      14095.51       4.030758     
  50153800   317.14418     -219.49126     -5323028.6      2.8802747      944.40121     -5322084.2      503.83946      503.83946      503.83946      1748.0803      2251.9197      1748.0803      2251.9197      1748.0803      2251.9197      1.2790177e+08  0.5            5681900        3.1305018      6883.3874      13766.751      4.0167652    
  50154000   317.05166     -219.35014     -5323141.5      2.8802747      944.12572     -5322197.4      503.83946      503.83946      503.83946      1748.0803      2251.9197      1748.0803      2251.9197      1748.0803      2251.9197      1.2790177e+08  0.5            5682000        3.1447064      7040.0171      14080.111      4.0023559    
  50154200   317.30119     -219.3843      -5323254.7      2.8802747      944.86876     -5322309.8      503.83946      503.83946      503.83946      1748.0803      2251.9197      1748.0803      2251.9197      1748.0803      2251.9197      1.2790177e+08  0.5            5682100        3.158879       7055.8405      14111.628      3.9879085    
  50154400   317.57255     -219.3487      -5322999.7      2.8802747      945.67681     -5322054        503.83946      503.83946      503.83946      1748.0803      2251.9197      1748.0803      2251.9197      1748.0803      2251.9197      1.2790177e+08  0.5            5682200        3.173062       7050.6776      14101.358      3.9734764    
  50154600   317.71854     -220.11009     -5323113.1      2.8802747      946.11155     -5322167        503.83946      503.83946      503.83946      1748.0803      2251.9197      1748.0803      2251.9197      1748.0803      2251.9197      1.2790177e+08  0.5            5682300        3.1872379      7054.2771      14108.575      3.9590377    
[...]
  50199200   310.86593     -333.79366     -5342874.5      2.8802747      925.70567     -5341948.8      503.83946      503.83946      503.83946      1748.0803      2251.9197      1748.0803      2251.9197      1748.0803      2251.9197      1.2790177e+08  0.5            5704600        6.3479802      7125.5065      14250.981      0.76858976   
  50199400   310.63255     -334.48029     -5342944.8      2.8802747      925.0107      -5342019.8      503.83946      503.83946      503.83946      1748.0803      2251.9197      1748.0803      2251.9197      1748.0803      2251.9197      1.2790177e+08  0.5            5704700        6.362037       7113.9425      14227.935      0.75433572   
  50199600   310.58226     -335.11994     -5343014.7      2.8802747      924.86092     -5342089.8      503.83946      503.83946      503.83946      1748.0803      2251.9197      1748.0803      2251.9197      1748.0803      2251.9197      1.2790177e+08  0.5            5704800        6.3760461      7138.2723      14276.542      0.74007701   
  50199800   310.69828     -335.63093     -5343084.5      2.8802747      925.20644     -5342159.3      503.83946      503.83946      503.83946      1748.0803      2251.9197      1748.0803      2251.9197      1748.0803      2251.9197      1.2790177e+08  0.5            5704900        6.3900775      7126.8447      14253.633      0.72582195   
  50200000   310.81218     -336.0569      -5343154.7      2.8802747      925.5456      -5342229.2      503.83946      503.83946      503.83946      1748.0803      2251.9197      1748.0803      2251.9197      1748.0803      2251.9197      1.2790177e+08  0.5            5705000        6.4230767      3030.3676      6060.7164      0.71367543   
  50200200   311.31913     -336.4227      -5343225.9      2.8802747      927.05521     -5342298.8      503.83946      503.83946      503.83946      1748.0803      2251.9197      1748.0803      2251.9197      1748.0803      2251.9197      1.2790177e+08  0.5            5705100        6.43751        6928.4378      13856.939      0.69941928   
  50200400   311.97009     -336.94012     -5343298.5      2.8802747      928.99366     -5342369.5      503.83946      503.83946      503.83946      1748.0803      2251.9197      1748.0803      2251.9197      1748.0803      2251.9197      1.2790177e+08  0.5            5705200        6.4515532      7120.8846      14241.827      0.68512091   
  50200600   312.63233     -337.60831     -5343372.9      2.8802747      930.96569     -5342441.9      503.83946      503.83946      503.83946      1748.0803      2251.9197      1748.0803      2251.9197      1748.0803      2251.9197      1.2790177e+08  0.5            5705300        6.4655939      7122.1982      14244.378      0.67082341   
  50200800   313.08525     -338.43615     -5343448.5      2.8802747      932.31441     -5342516.1      503.83946      503.83946      503.83946      1748.0803      2251.9197      1748.0803      2251.9197      1748.0803      2251.9197      1.2790177e+08  0.5            5705400        6.4796528      7112.928       14225.834      0.6565289    
  50201000   312.84719     -339.43484     -5343524.3      2.8802747      931.60552     -5342592.7      503.83946      503.83946      503.83946      1748.0803      2251.9197      1748.0803      2251.9197      1748.0803      2251.9197      1.2790177e+08  0.5            5705500        6.4937582      7089.5161      14179.109      0.64224      
  50201200   312.45172     -340.2412      -5343230.3      2.8802747      930.42787     -5342299.9      503.83946      503.83946      503.83946      1748.0803      2251.9197      1748.0803      2251.9197      1748.0803      2251.9197      1.2790177e+08  0.5            5705600        6.5078734      7084.5553      14169.122      0.62795288   
  50201400   311.78159     -341.47397     -5343303.3      2.8802747      928.43233     -5342374.9      503.83946      503.83946      503.83946      1748.0803      2251.9197      1748.0803      2251.9197      1748.0803      2251.9197      1.2790177e+08  0.5            5705700        6.5219167      7120.8045      14241.579      0.61365974   
  50201600   311.02083     -342.47585     -5343374.6      2.8802747      926.16693     -5342448.4      503.83946      503.83946      503.83946      1748.0803      2251.9197      1748.0803      2251.9197      1748.0803      2251.9197      1.2790177e+08  0.5            5705800        6.5359654      7118.1156      14236.233      0.59936819   
  50201800   310.34282     -343.08322     -5343444.1      2.8802747      924.14793     -5342519.9      503.83946      503.83946      503.83946      1748.0803      2251.9197      1748.0803      2251.9197      1748.0803      2251.9197      1.2790177e+08  0.5            5705900        6.5500082      7121.093       14242.156      0.58507716   
  50202000   309.51486     -343.3995      -5343512        2.8802747      921.6824      -5342590.3      503.83946      503.83946      503.83946      1748.0803      2251.9197      1748.0803      2251.9197      1748.0803      2251.9197      1.2790177e+08  0.5            5706000        6.5640654      7113.8094      14227.63       0.57078846   
  50202200   309.21883     -343.34032     -5343578.1      2.8802747      920.80087     -5342657.3      503.83946      503.83946      503.83946      1748.0803      2251.9197      1748.0803      2251.9197      1748.0803      2251.9197      1.2790177e+08  0.5            5706100        6.5781264      7111.849       14223.669      0.5565011    
  50202400   309.14117     -343.33158     -5344011.6      2.8802747      920.56961     -5343091        503.83946      503.83946      503.83946      1748.0803      2251.9197      1748.0803      2251.9197      1748.0803      2251.9197      1.2790177e+08  0.5            5706200        6.5921543      7128.6665      14257.397      0.54221198   
  50202600   309.33776     -342.94816     -5344076.2      2.8802747      921.15504     -5343155        503.83946      503.83946      503.83946      1748.0803      2251.9197      1748.0803      2251.9197      1748.0803      2251.9197      1.2790177e+08  0.5            5706300        6.6062234      7107.7696      14215.501      0.52792729   
  50202800   309.78221     -342.83493     -5344141.2      2.8802747      922.47854     -5343218.7      503.83946      503.83946      503.83946      1748.0803      2251.9197      1748.0803      2251.9197      1748.0803      2251.9197      1.2790177e+08  0.5            5706400        6.6202377      7135.5819      14271.196      0.51363928   
  50203000   310.07321     -342.60091     -5343470        2.8802747      923.34508     -5342546.6      503.83946      503.83946      503.83946      1748.0803      2251.9197      1748.0803      2251.9197      1748.0803      2251.9197      1.2790177e+08  0.5            5706500        6.6342881      7117.2077      14234.412      0.49935516   
  50203200   310.87141     -343.45336     -5343536.4      2.8802747      925.72196     -5342610.7      503.83946      503.83946      503.83946      1748.0803      2251.9197      1748.0803      2251.9197      1748.0803      2251.9197      1.2790177e+08  0.5            5706600        6.6483445      7114.1763      14228.336      0.48507249   
  50203400   311.76981     -344.49792     -5343604.9      2.8802747      928.39724     -5342676.5      503.83946      503.83946      503.83946      1748.0803      2251.9197      1748.0803      2251.9197      1748.0803      2251.9197      1.2790177e+08  0.5            5706700        6.662418       7105.558       14211.104      0.47079199   
  50203600   312.7063      -345.0618      -5343307.5      2.8802747      931.18597     -5342376.3      503.83946      503.83946      503.83946      1748.0803      2251.9197      1748.0803      2251.9197      1748.0803      2251.9197      1.2790177e+08  0.5            5706800        6.6764583      7122.3849      14244.786      0.4565101    
  50203800   313.39937     -345.70802     -5343380.7      2.8802747      933.24981     -5342447.5      503.83946      503.83946      503.83946      1748.0803      2251.9197      1748.0803      2251.9197      1748.0803      2251.9197      1.2790177e+08  0.5            5706900        6.6905091      7117.0006      14234.032      0.44222994   
  50204000   313.06124     -346.21369     -5343454.3      2.8802747      932.24291     -5342522        503.83946      503.83946      503.83946      1748.0803      2251.9197      1748.0803      2251.9197      1748.0803      2251.9197      1.2790177e+08  0.5            5707000        6.7046131      7090.2173      14180.438      0.42795415   
  50204200   312.40137     -346.61883     -5343526.2      2.8802747      930.27794     -5342595.9      503.83946      503.83946      503.83946      1748.0803      2251.9197      1748.0803      2251.9197      1748.0803      2251.9197      1.2790177e+08  0.5            5707100        6.7186508      7123.6345      14247.25       0.41367502   
  50204400   311.32752     -347.04063     -5343595.9      2.8802747      927.08019     -5342668.9      503.83946      503.83946      503.83946      1748.0803      2251.9197      1748.0803      2251.9197      1748.0803      2251.9197      1.2790177e+08  0.5            5707200        6.7326923      7121.7625      14243.516      0.39939712   
  50204600   310.23863     -347.58991     -5343663.4      2.8802747      923.83766     -5342739.5      503.83946      503.83946      503.83946      1748.0803      2251.9197      1748.0803      2251.9197      1748.0803      2251.9197      1.2790177e+08  0.5            5707300        6.7467404      7118.3963      14236.795      0.3851206    
  50204800   309.5255      -348.15646     -5343729.2      2.8802747      921.71407     -5342807.5      503.83946      503.83946      503.83946      1748.0803      2251.9197      1748.0803      2251.9197      1748.0803      2251.9197      1.2790177e+08  0.5            5707400        6.760756       7134.8859      14269.785      0.37084326   
  50205000   309.03975     -347.9062      -5343058.1      2.8802747      920.2676      -5342137.8      503.83946      503.83946      503.83946      1748.0803      2251.9197      1748.0803      2251.9197      1748.0803      2251.9197      1.2790177e+08  0.5            5707500        6.7748067      7117.1059      14234.195      0.35656888   
  50205200   309.38092     -348.00986     -5343123.8      2.8802747      921.28355     -5342202.5      503.83946      503.83946      503.83946      1748.0803      2251.9197      1748.0803      2251.9197      1748.0803      2251.9197      1.2790177e+08  0.5            5707600        6.7888344      7128.7803      14257.577      0.34229427   
  50205400   309.82315     -348.01691     -5343189.5      2.8802747      922.60043     -5342266.9      503.83946      503.83946      503.83946      1748.0803      2251.9197      1748.0803      2251.9197      1748.0803      2251.9197      1.2790177e+08  0.5            5707700        6.8029663      7076.1623      14152.31       0.32802572   
  50205600   310.11321     -348.10996     -5343254.6      2.8802747      923.46418     -5342331.1      503.83946      503.83946      503.83946      1748.0803      2251.9197      1748.0803      2251.9197      1748.0803      2251.9197      1.2790177e+08  0.5            5707800        6.8170181      7116.5351      14233.08       0.31375406   
  50205800   310.26285     -348.59078     -5343319.1      2.8802747      923.90978     -5342395.2      503.83946      503.83946      503.83946      1748.0803      2251.9197      1748.0803      2251.9197      1748.0803      2251.9197      1.2790177e+08  0.5            5707900        6.8310454      7128.9643      14257.927      0.29948224   
  50206000   310.05974     -349.57344     -5343383.4      2.8802747      923.30496     -5342460.1      503.83946      503.83946      503.83946      1748.0803      2251.9197      1748.0803      2251.9197      1748.0803      2251.9197      1.2790177e+08  0.5            5708000        6.8450668      7131.9732      14263.954      0.28521119   
  50206200   310.27122     -350.56984     -5343079.1      2.8802747      923.93471     -5342155.2      503.83946      503.83946      503.83946      1748.0803      2251.9197      1748.0803      2251.9197      1748.0803      2251.9197      1.2790177e+08  0.5            5708100        6.8590911      7130.4756      14260.91       0.2709413    
  50206400   310.555       -351.94441     -5343143.8      2.8802747      924.77976     -5342219        503.83946      503.83946      503.83946      1748.0803      2251.9197      1748.0803      2251.9197      1748.0803      2251.9197      1.2790177e+08  0.5            5708200        6.8731262      7124.9603      14249.949      0.25667284   
  50206600   310.79176     -352.91547     -5343208.9      2.8802747      925.48479     -5342283.4      503.83946      503.83946      503.83946      1748.0803      2251.9197      1748.0803      2251.9197      1748.0803      2251.9197      1.2790177e+08  0.5            5708300        6.8871365      7137.6079      14275.223      0.24240446   
  50206800   310.81859     -353.27341     -5343273.8      2.8802747      925.56467     -5342348.2      503.83946      503.83946      503.83946      1748.0803      2251.9197      1748.0803      2251.9197      1748.0803      2251.9197      1.2790177e+08  0.5            5708400        6.901214       7103.5158      14207.032      0.22813937   
  50207000   310.39331     -353.19229     -5343338.4      2.8802747      924.29827     -5342414.1      503.83946      503.83946      503.83946      1748.0803      2251.9197      1748.0803      2251.9197      1748.0803      2251.9197      1.2790177e+08  0.5            5708500        6.9152551      7121.9912      14243.974      0.21387393   
  50207200   310.40165     -352.875       -5343402.9      2.8802747      924.32311     -5342478.6      503.83946      503.83946      503.83946      1748.0803      2251.9197      1748.0803      2251.9197      1748.0803      2251.9197      1.2790177e+08  0.5            5708600        6.9292828      7128.7326      14257.465      0.19960903   
  50207400   310.53621     -352.5689      -5343468        2.8802747      924.72381     -5342543.3      503.83946      503.83946      503.83946      1748.0803      2251.9197      1748.0803      2251.9197      1748.0803      2251.9197      1.2790177e+08  0.5            5708700        6.943348       7109.7481      14219.51       0.1853461    
  50207600   310.71008     -352.3387      -5343533.5      2.8802747      925.24156     -5342608.2      503.83946      503.83946      503.83946      1748.0803      2251.9197      1748.0803      2251.9197      1748.0803      2251.9197      1.2790177e+08  0.5            5708800        6.9574035      7114.6663      14229.315      0.17108374   
  50207800   310.78749     -352.23027     -5343598.8      2.8802747      925.47206     -5342673.4      503.83946      503.83946      503.83946      1748.0803      2251.9197      1748.0803      2251.9197      1748.0803      2251.9197      1.2790177e+08  0.5            5708900        6.9714432      7122.6598      14245.334      0.15682187   
  50208000   310.41517     -352.14774     -5343295.7      2.8802747      924.36337     -5342371.4      503.83946      503.83946      503.83946      1748.0803      2251.9197      1748.0803      2251.9197      1748.0803      2251.9197      1.2790177e+08  0.5            5709000        6.9854984      7114.7812      14229.563      0.14256123   
  50208200   310.48498     -352.7043      -5343361.3      2.8802747      924.57126     -5342436.7      503.83946      503.83946      503.83946      1748.0803      2251.9197      1748.0803      2251.9197      1748.0803      2251.9197      1.2790177e+08  0.5            5709100        6.9995426      7120.3756      14240.722      0.12830122   
  50208400   310.40299     -353.81161     -5343794.9      2.8802747      924.3271      -5342870.6      503.83946      503.83946      503.83946      1748.0803      2251.9197      1748.0803      2251.9197      1748.0803      2251.9197      1.2790177e+08  0.5            5709200        7.0136068      7110.243       14220.423      0.11404242   
  50208600   310.15121     -354.77483     -5343859        2.8802747      923.57735     -5342935.4      503.83946      503.83946      503.83946      1748.0803      2251.9197      1748.0803      2251.9197      1748.0803      2251.9197      1.2790177e+08  0.5            5709300        7.0276598      7115.9538      14231.965      0.099784244  
  50208800   309.88959     -356.16373     -5344290.7      2.8802747      922.79827     -5343367.9      503.83946      503.83946      503.83946      1748.0803      2251.9197      1748.0803      2251.9197      1748.0803      2251.9197      1.2790177e+08  0.5            5709400        7.0417215      7111.4813      14222.983      0.085527006  
  50209000   309.41588     -357.16497     -5344353.5      2.8802747      921.38766     -5343432.1      503.83946      503.83946      503.83946      1748.0803      2251.9197      1748.0803      2251.9197      1748.0803      2251.9197      1.2790177e+08  0.5            5709500        7.0561006      6954.5377      13909.048      0.071273764  
  50209200   309.49795     -358.0944      -5344415.5      2.8802747      921.63204     -5343493.9      503.83946      503.83946      503.83946      1748.0803      2251.9197      1748.0803      2251.9197      1748.0803      2251.9197      1.2790177e+08  0.5            5709600        7.0701731      7106.0796      14212.16       0.057017541  
  50209400   309.54551     -359.03096     -5344477        2.8802747      921.77368     -5343555.2      503.83946      503.83946      503.83946      1748.0803      2251.9197      1748.0803      2251.9197      1748.0803      2251.9197      1.2790177e+08  0.5            5709700        7.0842475      7105.0719      14210.194      0.042762069  
  50209600   309.61119     -360.0243      -5344538        2.8802747      921.96925     -5343616        503.83946      503.83946      503.83946      1748.0803      2251.9197      1748.0803      2251.9197      1748.0803      2251.9197      1.2790177e+08  0.5            5709800        7.0983323      7099.8453      14199.669      0.028507367  
  50209800   309.79662     -361.04333     -5344599.1      2.8802747      922.52143     -5343676.5      503.83946      503.83946      503.83946      1748.0803      2251.9197      1748.0803      2251.9197      1748.0803      2251.9197      1.2790177e+08  0.5            5709900        7.1124465      7085.0874      14170.178      0.014253404  
  50210000   309.92208     -361.84299     -5344661.4      2.8802747      922.89504     -5343738.5      503.83946      503.83946      503.83946      1748.0803      2251.9197      1748.0803      2251.9197      1748.0803      2251.9197      1.2790177e+08  0.5            5710000        7.126549       7090.9227      14181.847      0            
Loop time of 7.12656 on 4 procs for 100000 steps with 1000 atoms

Performance: 606.183 ns/day, 0.040 hours/ns, 14032.009 timesteps/s
99.9% CPU use with 4 MPI tasks x 1 OpenMP threads

MPI task timing breakdown:
Section |  min time  |  avg time  |  max time  |%varavg| %total
---------------------------------------------------------------
Pair    | 4.107      | 4.1481     | 4.2183     |   2.1 | 58.21
Neigh   | 0.0035485  | 0.0036157  | 0.0036549  |   0.1 |  0.05
Comm    | 2.0086     | 2.0753     | 2.1233     |   2.9 | 29.12
Output  | 0.030429   | 0.031685   | 0.035227   |   1.1 |  0.44
Modify  | 0.56684    | 0.57157    | 0.57788    |   0.5 |  8.02
Other   |            | 0.2963     |            |       |  4.16

Nlocal:            250 ave         252 max         248 min
Histogram: 1 0 1 0 0 0 0 1 0 1
Nghost:        1128.25 ave        1136 max        1120 min
Histogram: 1 0 0 0 1 0 1 0 0 1
Neighs:        1699.25 ave        1711 max        1681 min
Histogram: 1 0 0 0 0 1 0 0 0 2

Total # of neighbors = 6797
Ave neighs/atom = 6.797
Neighbor list builds = 14
Dangerous builds = 0

# run_style
run_style verlet


Total wall time: 0:00:07
