LAMMPS (23 Jun 2022 - Update 1)
OMP_NUM_THREADS environment is not set. Defaulting to 1 thread. (src/comm.cpp:98)
  using 1 OpenMP thread(s) per MPI task

# Init #
dimension   3
boundary    p p p
units       real
atom_style  atomic

# Atom Definition #
read_data ${input_data}
read_data ./pgnpmf/82/dat82.dat
Reading data file ...
  orthogonal box = (-100 -100 -100) to (4100 4100 4100)
  1 by 2 by 2 MPI processor grid
  reading atoms ...
  1000 atoms
  read_data CPU = 0.055 seconds

# Settings #
pair_style table spline 9941

pair_coeff 1 1 ./pgnpmf/N20.txt DE_GNP 75.6
pair_coeff 2 2 ./pgnpmf/N100.txt DE_GNP 115.92
WARNING: 3 of 9941 force values in table DE_GNP are inconsistent with -dE/dr.
WARNING:  Should only be flagged at inflection points (src/pair_table.cpp:463)
pair_coeff 1 2 ./pgnpmf/mixed_potential.txt DE_GNP 95.66
WARNING: 1562 of 9941 force values in table DE_GNP are inconsistent with -dE/dr.
WARNING:  Should only be flagged at inflection points (src/pair_table.cpp:463)

# Neighbor list calc frequency #
neigh_modify delay 0 every 1 check yes

# Saving frequency #
variable ts_save equal floor(${steps_gen}*0.01)
variable ts_save equal floor(5000*0.01)

# Dump #
dump 1 all custom 10000 ./pgnpmf/${folder}/generation/trajectory/trajectory_${usic}_${trial}.gen.custom type x y z ix iy iz
dump 1 all custom 10000 ./pgnpmf/82/generation/trajectory/trajectory_${usic}_${trial}.gen.custom type x y z ix iy iz
dump 1 all custom 10000 ./pgnpmf/82/generation/trajectory/trajectory_1_${trial}.gen.custom type x y z ix iy iz
dump 1 all custom 10000 ./pgnpmf/82/generation/trajectory/trajectory_1_1.gen.custom type x y z ix iy iz
dump_modify 1 first no sort id
dump 2 all cfg 10000 ./pgnpmf/${folder}/generation/trajectory/dumpgen.tens_*.cfg mass type xs ys zs fx fy fz
dump 2 all cfg 10000 ./pgnpmf/82/generation/trajectory/dumpgen.tens_*.cfg mass type xs ys zs fx fy fz
dump_modify 2 element N20 N100

# Fix #
fix 1 all momentum 1000 linear 1 1 1 angular

variable T equal ${Temp}
variable T equal 300

variable nts equal ${steps_gen}/${ts}
variable nts equal 5000/${ts}
variable nts equal 5000/1
variable long equal ${nts}*5
variable long equal 5000*5

# Velocity #
velocity all create ${T} ${Vseed} mom yes rot yes dist gaussian
velocity all create 300 ${Vseed} mom yes rot yes dist gaussian
velocity all create 300 97531 mom yes rot yes dist gaussian

fix 2 all nvt temp ${T} 370000 100.0 #iso 1.0 1.0 1000.0
fix 2 all nvt temp 300 370000 100.0 
run ${nts}
run 5000
Generated 0 of 1 mixed pair_coeff terms from geometric mixing rule
Neighbor list info ...
  update every 1 steps, delay 0 steps, check yes
  max neighbors/atom: 2000, page size: 100000
  master list distance cutoff = 117.92
  ghost atom cutoff = 117.92
  binsize = 58.96, bins = 72 72 72
  1 neighbor lists, perpetual/occasional/extra = 1 0 0
  (1) pair table, perpetual
      attributes: half, newton on
      pair build: half/bin/atomonly/newton
      stencil: half/bin/3d
      bin: standard
Per MPI rank memory allocation (min/avg/max) = 6.141 | 6.144 | 6.146 Mbytes
   Step          Temp          E_pair         E_mol          TotEng         Press     
         0   300            0              0              893.34877      0.00055119596
      5000   357461.68      0              0              1064459.8      0.65677144   
Loop time of 0.0913669 on 4 procs for 5000 steps with 1000 atoms

Performance: 4728.187 ns/day, 0.005 hours/ns, 54724.387 timesteps/s
99.5% CPU use with 4 MPI tasks x 1 OpenMP threads

MPI task timing breakdown:
Section |  min time  |  avg time  |  max time  |%varavg| %total
---------------------------------------------------------------
Pair    | 0.0049515  | 0.0056086  | 0.0064294  |   0.9 |  6.14
Neigh   | 0.0018545  | 0.0020661  | 0.0023396  |   0.5 |  2.26
Comm    | 0.034124   | 0.036083   | 0.03837    |   0.8 | 39.49
Output  | 1.7729e-05 | 2.0963e-05 | 3.0005e-05 |   0.0 |  0.02
Modify  | 0.02994    | 0.033099   | 0.035839   |   1.2 | 36.23
Other   |            | 0.01449    |            |       | 15.86

Nlocal:            250 ave         252 max         245 min
Histogram: 1 0 0 0 0 0 0 0 1 2
Nghost:           30.5 ave          42 max          19 min
Histogram: 1 0 0 1 0 0 1 0 0 1
Neighs:              0 ave           0 max           0 min
Histogram: 4 0 0 0 0 0 0 0 0 0

Total # of neighbors = 0
Ave neighs/atom = 0
Neighbor list builds = 17
Dangerous builds = 0

unfix 2

fix 3 all nvt temp 370000 370000 100.0
run ${long}
run 25000
Generated 0 of 1 mixed pair_coeff terms from geometric mixing rule
Per MPI rank memory allocation (min/avg/max) = 6.141 | 6.144 | 6.146 Mbytes
   Step          Temp          E_pair         E_mol          TotEng         Press     
      5000   357461.68      0              0              1064459.8      0.65677144   
     30000   380513.43     -83972.66       0              1049131.4      0.71344253   
Loop time of 0.449118 on 4 procs for 25000 steps with 1000 atoms

Performance: 4809.424 ns/day, 0.005 hours/ns, 55664.634 timesteps/s
99.9% CPU use with 4 MPI tasks x 1 OpenMP threads

MPI task timing breakdown:
Section |  min time  |  avg time  |  max time  |%varavg| %total
---------------------------------------------------------------
Pair    | 0.027581   | 0.032129   | 0.037678   |   2.2 |  7.15
Neigh   | 0.015014   | 0.015922   | 0.018218   |   1.1 |  3.55
Comm    | 0.17292    | 0.17647    | 0.18241    |   0.9 | 39.29
Output  | 0.0061197  | 0.0063914  | 0.0070578  |   0.5 |  1.42
Modify  | 0.14537    | 0.1549     | 0.16161    |   1.6 | 34.49
Other   |            | 0.06331    |            |       | 14.10

Nlocal:            250 ave         255 max         240 min
Histogram: 1 0 0 0 0 0 0 1 0 2
Nghost:          26.75 ave          43 max          17 min
Histogram: 2 0 0 0 1 0 0 0 0 1
Neighs:             17 ave          22 max          12 min
Histogram: 1 0 1 0 0 0 0 0 1 1

Total # of neighbors = 68
Ave neighs/atom = 0.068
Neighbor list builds = 140
Dangerous builds = 0

unfix 3

fix 4 all nvt temp 370000 3700000 $(100*dt)
fix 4 all nvt temp 370000 3700000 100
run ${long}
run 25000
Generated 0 of 1 mixed pair_coeff terms from geometric mixing rule
Per MPI rank memory allocation (min/avg/max) = 6.141 | 6.145 | 6.147 Mbytes
   Step          Temp          E_pair         E_mol          TotEng         Press     
     30000   380513.43     -83972.66       0              1049131.4      0.71344253   
     55000   3597779.9     -170526.02      0              10543048       6.6590584    
Loop time of 0.457954 on 4 procs for 25000 steps with 1000 atoms

Performance: 4716.629 ns/day, 0.005 hours/ns, 54590.608 timesteps/s
99.8% CPU use with 4 MPI tasks x 1 OpenMP threads

MPI task timing breakdown:
Section |  min time  |  avg time  |  max time  |%varavg| %total
---------------------------------------------------------------
Pair    | 0.042781   | 0.045141   | 0.048125   |   1.0 |  9.86
Neigh   | 0.033573   | 0.034247   | 0.035032   |   0.3 |  7.48
Comm    | 0.16888    | 0.17223    | 0.17355    |   0.5 | 37.61
Output  | 0.0037638  | 0.0039067  | 0.0041884  |   0.3 |  0.85
Modify  | 0.14029    | 0.1449     | 0.15211    |   1.2 | 31.64
Other   |            | 0.05753    |            |       | 12.56

Nlocal:            250 ave         257 max         242 min
Histogram: 1 0 0 0 1 0 1 0 0 1
Nghost:          30.75 ave          46 max          21 min
Histogram: 1 0 1 1 0 0 0 0 0 1
Neighs:          28.75 ave          37 max          26 min
Histogram: 3 0 0 0 0 0 0 0 0 1

Total # of neighbors = 115
Ave neighs/atom = 0.115
Neighbor list builds = 315
Dangerous builds = 0

unfix 4

fix 5 all nvt temp 3700000 ${T} 100.0
fix 5 all nvt temp 3700000 300 100.0
run ${nts}
run 5000
Generated 0 of 1 mixed pair_coeff terms from geometric mixing rule
Per MPI rank memory allocation (min/avg/max) = 6.141 | 6.145 | 6.147 Mbytes
   Step          Temp          E_pair         E_mol          TotEng         Press     
     55000   3597779.9     -170526.02      0              10543048       6.6590584    
     60000   70316.256     -193699.61      0              15690.195      0.096545011  
Loop time of 0.091897 on 4 procs for 5000 steps with 1000 atoms

Performance: 4700.917 ns/day, 0.005 hours/ns, 54408.763 timesteps/s
99.6% CPU use with 4 MPI tasks x 1 OpenMP threads

MPI task timing breakdown:
Section |  min time  |  avg time  |  max time  |%varavg| %total
---------------------------------------------------------------
Pair    | 0.0085577  | 0.0095856  | 0.010862   |   0.9 | 10.43
Neigh   | 0.0062434  | 0.0063402  | 0.0064349  |   0.1 |  6.90
Comm    | 0.033285   | 0.033565   | 0.034077   |   0.2 | 36.52
Output  | 0.0028515  | 0.0028558  | 0.0028683  |   0.0 |  3.11
Modify  | 0.026725   | 0.028334   | 0.030323   |   0.8 | 30.83
Other   |            | 0.01122    |            |       | 12.21

Nlocal:            250 ave         259 max         241 min
Histogram: 1 0 1 0 0 0 0 1 0 1
Nghost:           32.5 ave          49 max          25 min
Histogram: 2 0 1 0 0 0 0 0 0 1
Neighs:           26.5 ave          37 max          19 min
Histogram: 1 0 0 2 0 0 0 0 0 1

Total # of neighbors = 106
Ave neighs/atom = 0.106
Neighbor list builds = 59
Dangerous builds = 0

# Thermo #
thermo_style custom step temp press pe ke etotal epair lx ly lz xlo xhi ylo yhi zlo zhi vol density dt time

# Run stle #
run_style verlet

# Run #
timestep ${ts}
timestep 1
thermo ${ts_save}
thermo 50
# run ${steps_gen}

# write restart #
write_restart ${write_restart}
write_restart ./pgnpmf/82/genpmf.res
System init for write_restart ...
Generated 0 of 1 mixed pair_coeff terms from geometric mixing rule


Total wall time: 0:00:01
