LAMMPS (23 Jun 2022 - Update 1)
OMP_NUM_THREADS environment is not set. Defaulting to 1 thread. (src/comm.cpp:98)
  using 1 OpenMP thread(s) per MPI task
# Read restart
read_restart ${read_res}
read_restart ./pgnpmf/82/equpmf5.res
Reading restart file ...
  restart file = 23 Jun 2022, LAMMPS = 23 Jun 2022
  restoring atom style atomic from restart
  orthogonal box = (945.02624 945.02624 945.02624) to (3054.9738 3054.9738 3054.9738)
  1 by 2 by 2 MPI processor grid
  restoring pair style table from restart
  1000 atoms
  read_restart CPU = 0.038 seconds

# Settings

pair_style table spline 9941

pair_coeff 1 1 ./pgnpmf/N20.txt DE_GNP 75.6
pair_coeff 2 2 ./pgnpmf/N100.txt DE_GNP 115.92
WARNING: 3 of 9941 force values in table DE_GNP are inconsistent with -dE/dr.
WARNING:  Should only be flagged at inflection points (src/pair_table.cpp:463)
pair_coeff 1 2 ./pgnpmf/mixed_potential.txt DE_GNP 95.66
WARNING: 1562 of 9941 force values in table DE_GNP are inconsistent with -dE/dr.
WARNING:  Should only be flagged at inflection points (src/pair_table.cpp:463)

#Neigh_list Calc Frequency

neigh_modify delay 0 every 1 check yes

# Saving Frequency (50 frames)

variable ts_save equal ${steps_equ}
variable ts_save equal 5000

variable nts equal ${steps_equ}/${ts}
variable nts equal 5000/${ts}
variable nts equal 5000/0.25
variable medium equal ${nts}*3
variable medium equal 20000*3
variable long equal ${nts}*5
variable long equal 20000*5

# Dump
#dump 1 all custom ${ts_save} ./pgnpmf/${folder}/equilibration/trajectory/trajectory_${usic}_${trial}.equ.custom type x y z ix iy iz
#dump_modify 1 first no sort id
dump 2 all cfg 50000 ./pgnpmf/${folder}/equilibration/trajectory/dumpequ.tens_*.cfg mass type xs ys zs fx fy fz
dump 2 all cfg 50000 ./pgnpmf/82/equilibration/trajectory/dumpequ.tens_*.cfg mass type xs ys zs fx fy fz
dump_modify 2 element N20 N100

# thermo_style
thermo_style custom step temp press pe density ke etotal lx ly lz xlo xhi ylo yhi zlo zhi vol dt time cpu tpcpu spcpu cpuremain

# run info
timestep ${ts}
timestep 0.25
thermo 5000

# fix

fix 1 all momentum 1000 linear 1 1 1 angular
variable T equal ${temp}
variable T equal 300
fix 2 all nvt temp ${T} 370000 100.0
fix 2 all nvt temp 300 370000 100.0

run ${nts}
run 20000
Generated 0 of 1 mixed pair_coeff terms from geometric mixing rule
Unused restart file global fix info:
  fix style: npt, fix ID: 5
Neighbor list info ...
  update every 1 steps, delay 0 steps, check yes
  max neighbors/atom: 2000, page size: 100000
  master list distance cutoff = 117.92
  ghost atom cutoff = 117.92
  binsize = 58.96, bins = 36 36 36
  1 neighbor lists, perpetual/occasional/extra = 1 0 0
  (1) pair table, perpetual
      attributes: half, newton on
      pair build: half/bin/atomonly/newton
      stencil: half/bin/3d
      bin: standard
Per MPI rank memory allocation (min/avg/max) = 3.149 | 3.149 | 3.149 Mbytes
   Step          Temp          Press          PotEng        Density         KinEng         TotEng           Lx             Ly             Lz            Xlo            Xhi            Ylo            Yhi            Zlo            Zhi           Volume           Dt            Time           CPU           T/CPU          S/CPU         CPULeft    
   1060000   323.18012      1.0037993     -1195052.4      0.046297194    962.37521     -1194090        2109.9475      2109.9475      2109.9475      945.02624      3054.9738      945.02624      3054.9738      945.02624      3054.9738      9.3932301e+09  0.25           310000         0              0              0              0            
   1065000   87266.916     -2.0270734     -1223595.2      0.046297194    259865.97     -963729.25      2109.9475      2109.9475      2109.9475      945.02624      3054.9738      945.02624      3054.9738      945.02624      3054.9738      9.3932301e+09  0.25           311250         0.12695232     9846.1645      39384.37       0.38086448   
   1070000   181178.19      0.58184677    -1199722.9      0.046297194    539517.71     -660205.24      2109.9475      2109.9475      2109.9475      945.02624      3054.9738      945.02624      3054.9738      945.02624      3054.9738      9.3932301e+09  0.25           312500         0.25494617     9766.1039      39064.399      0.25494852   
   1075000   278895.09      5.2380563     -1160202.6      0.046297194    830501.97     -329700.61      2109.9475      2109.9475      2109.9475      945.02624      3054.9738      945.02624      3054.9738      945.02624      3054.9738      9.3932301e+09  0.25           313750         0.37724157     10221.152      40884.651      0.12574793   
   1080000   376902.63      8.4429834     -1131244.6      0.046297194    1122351.7     -8892.9312      2109.9475      2109.9475      2109.9475      945.02624      3054.9738      945.02624      3054.9738      945.02624      3054.9738      9.3932301e+09  0.25           315000         0.49449222     10660.918      42643.65       0            
Loop time of 0.494545 on 4 procs for 20000 steps with 1000 atoms

Performance: 873.529 ns/day, 0.027 hours/ns, 40441.175 timesteps/s
99.5% CPU use with 4 MPI tasks x 1 OpenMP threads

MPI task timing breakdown:
Section |  min time  |  avg time  |  max time  |%varavg| %total
---------------------------------------------------------------
Pair    | 0.084835   | 0.10195    | 0.12609    |   5.2 | 20.61
Neigh   | 0.002476   | 0.0028109  | 0.0030525  |   0.4 |  0.57
Comm    | 0.18373    | 0.20133    | 0.21309    |   2.7 | 40.71
Output  | 0.00015524 | 0.00018032 | 0.00024361 |   0.0 |  0.04
Modify  | 0.12726    | 0.13169    | 0.13624    |   1.0 | 26.63
Other   |            | 0.05658    |            |       | 11.44

Nlocal:            250 ave         262 max         239 min
Histogram: 1 0 0 1 0 1 0 0 0 1
Nghost:         108.75 ave         139 max          93 min
Histogram: 1 1 1 0 0 0 0 0 0 1
Neighs:          145.5 ave         174 max         130 min
Histogram: 2 0 0 1 0 0 0 0 0 1

Total # of neighbors = 582
Ave neighs/atom = 0.582
Neighbor list builds = 31
Dangerous builds = 0

unfix 2

fix 3 all nvt temp 370000 370000 $(100.0*dt) #iso 1.0 1.0 $(1000.0*dt)
fix 3 all nvt temp 370000 370000 25 

run ${long}
run 100000
Generated 0 of 1 mixed pair_coeff terms from geometric mixing rule
Per MPI rank memory allocation (min/avg/max) = 3.149 | 3.149 | 3.149 Mbytes
   Step          Temp          Press          PotEng        Density         KinEng         TotEng           Lx             Ly             Lz            Xlo            Xhi            Ylo            Yhi            Zlo            Zhi           Volume           Dt            Time           CPU           T/CPU          S/CPU         CPULeft    
   1080000   376902.63      8.4429834     -1131244.6      0.046297194    1122351.7     -8892.9312      2109.9475      2109.9475      2109.9475      945.02624      3054.9738      945.02624      3054.9738      945.02624      3054.9738      9.3932301e+09  0.25           315000         0              0              0              0            
   1085000   362870.36      6.9292387     -1102769        0.046297194    1080566       -22203.057      2109.9475      2109.9475      2109.9475      945.02624      3054.9738      945.02624      3054.9738      945.02624      3054.9738      9.3932301e+09  0.25           316250         0.11654702     10725.195      42900.446      2.214444     
   1090000   371691.33      5.9065293     -1155145.6      0.046297194    1106833.3     -48312.346      2109.9475      2109.9475      2109.9475      945.02624      3054.9738      945.02624      3054.9738      945.02624      3054.9738      9.3932301e+09  0.25           317500         0.23170277     10854.899      43419.625      2.0853463    
   1095000   366553.85      8.9934279     -1131673.8      0.046297194    1091534.8     -40139.032      2109.9475      2109.9475      2109.9475      945.02624      3054.9738      945.02624      3054.9738      945.02624      3054.9738      9.3932301e+09  0.25           318750         0.34679657     10860.704      43442.781      1.9651942    
   1100000   369094.36      10.900226     -1155379.6      0.046297194    1099100       -56279.59       2109.9475      2109.9475      2109.9475      945.02624      3054.9738      945.02624      3054.9738      945.02624      3054.9738      9.3932301e+09  0.25           320000         0.4634223      10718.042      42872.195      1.8536985    
   1105000   371512.88      10.196096     -1161296.3      0.046297194    1106301.9     -54994.412      2109.9475      2109.9475      2109.9475      945.02624      3054.9738      945.02624      3054.9738      945.02624      3054.9738      9.3932301e+09  0.25           321250         0.57478822     11224.264      44897.05       1.7243719    
   1110000   374099.98      9.4650287     -1161131        0.046297194    1114005.9     -47125.184      2109.9475      2109.9475      2109.9475      945.02624      3054.9738      945.02624      3054.9738      945.02624      3054.9738      9.3932301e+09  0.25           322500         0.68559342     11281.054      45124.202      1.5997236    
   1115000   373402.78      8.4569439     -1155509.1      0.046297194    1111929.7     -43579.342      2109.9475      2109.9475      2109.9475      945.02624      3054.9738      945.02624      3054.9738      945.02624      3054.9738      9.3932301e+09  0.25           323750         0.79640641     11280.241      45120.969      1.4790453    
   1120000   363043.44      7.8466786     -1156897.5      0.046297194    1081081.4     -75816.103      2109.9475      2109.9475      2109.9475      945.02624      3054.9738      945.02624      3054.9738      945.02624      3054.9738      9.3932301e+09  0.25           325000         0.90635543     11368.941      45475.781      1.3595366    
   1125000   366673.59      8.2695915     -1115680.5      0.046297194    1091891.3     -23789.157      2109.9475      2109.9475      2109.9475      945.02624      3054.9738      945.02624      3054.9738      945.02624      3054.9738      9.3932301e+09  0.25           326250         1.0179749      11198.776      44795.082      1.2441943    
   1130000   360051.55      7.9047862     -1101673.4      0.046297194    1072172       -29501.34       2109.9475      2109.9475      2109.9475      945.02624      3054.9738      945.02624      3054.9738      945.02624      3054.9738      9.3932301e+09  0.25           327500         1.1275406      11408.666      45634.693      1.1275429    
   1135000   375584.52      7.6098137     -1087078        0.046297194    1118426.6      31348.53       2109.9475      2109.9475      2109.9475      945.02624      3054.9738      945.02624      3054.9738      945.02624      3054.9738      9.3932301e+09  0.25           328750         1.2369234      11427.752      45710.992      1.0120302    
   1140000   383041.82      5.9154708     -1079125.5      0.046297194    1140633.1      61507.643      2109.9475      2109.9475      2109.9475      945.02624      3054.9738      945.02624      3054.9738      945.02624      3054.9738      9.3932301e+09  0.25           330000         1.3470566      11349.895      45399.567      0.8980393    
   1145000   386440.57      5.4277033     -1070792.3      0.046297194    1150754        79961.704      2109.9475      2109.9475      2109.9475      945.02624      3054.9738      945.02624      3054.9738      945.02624      3054.9738      9.3932301e+09  0.25           331250         1.4579017      11277.003      45108.018      0.7850252    
   1150000   383951.82      5.2033716     -1046181.8      0.046297194    1143343        97161.138      2109.9475      2109.9475      2109.9475      945.02624      3054.9738      945.02624      3054.9738      945.02624      3054.9738      9.3932301e+09  0.25           332500         1.5681198      11341.151      45364.624      0.67205231   
   1155000   376127.03      4.3806248     -1011142.8      0.046297194    1120042.1      108899.26      2109.9475      2109.9475      2109.9475      945.02624      3054.9738      945.02624      3054.9738      945.02624      3054.9738      9.3932301e+09  0.25           333750         1.6781275      11362.845      45451.363      0.55937656   
   1160000   356127.71      4.7433715     -1011261.3      0.046297194    1060487.5      49226.199      2109.9475      2109.9475      2109.9475      945.02624      3054.9738      945.02624      3054.9738      945.02624      3054.9738      9.3932301e+09  0.25           335000         1.7869379      11487.851      45951.409      0.44673508   
   1165000   372593.38      5.3573059     -981582.92      0.046297194    1109519.5      127936.56      2109.9475      2109.9475      2109.9475      945.02624      3054.9738      945.02624      3054.9738      945.02624      3054.9738      9.3932301e+09  0.25           336250         1.8948954      11578.65       46314.571      0.33439373   
   1170000   365723.86      4.999609      -960862.52      0.046297194    1089063.2      128200.68      2109.9475      2109.9475      2109.9475      945.02624      3054.9738      945.02624      3054.9738      945.02624      3054.9738      9.3932301e+09  0.25           337500         2.0035486      11504.49       46017.975      0.22261677   
   1175000   367767.37      5.303906      -937316.09      0.046297194    1095148.4      157832.33      2109.9475      2109.9475      2109.9475      945.02624      3054.9738      945.02624      3054.9738      945.02624      3054.9738      9.3932301e+09  0.25           338750         2.1107574      11659.486      46637.942      0.11109262   
   1180000   357306.92      4.9180326     -912995.88      0.046297194    1063999        151003.11      2109.9475      2109.9475      2109.9475      945.02624      3054.9738      945.02624      3054.9738      945.02624      3054.9738      9.3932301e+09  0.25           340000         2.2177199      11686.345      46745.383      0            
Loop time of 2.21777 on 4 procs for 100000 steps with 1000 atoms

Performance: 973.952 ns/day, 0.025 hours/ns, 45090.381 timesteps/s
99.7% CPU use with 4 MPI tasks x 1 OpenMP threads

MPI task timing breakdown:
Section |  min time  |  avg time  |  max time  |%varavg| %total
---------------------------------------------------------------
Pair    | 0.42432    | 0.44499    | 0.49435    |   4.3 | 20.06
Neigh   | 0.016059   | 0.016836   | 0.017391   |   0.4 |  0.76
Comm    | 0.88465    | 0.92138    | 0.94023    |   2.4 | 41.55
Output  | 0.003989   | 0.0041     | 0.0044303  |   0.3 |  0.18
Modify  | 0.57158    | 0.59015    | 0.61793    |   2.2 | 26.61
Other   |            | 0.2403     |            |       | 10.84

Nlocal:            250 ave         262 max         237 min
Histogram: 1 0 0 0 0 2 0 0 0 1
Nghost:            114 ave         138 max         101 min
Histogram: 2 0 0 1 0 0 0 0 0 1
Neighs:         116.25 ave         127 max         105 min
Histogram: 1 0 1 0 0 0 0 1 0 1

Total # of neighbors = 465
Ave neighs/atom = 0.465
Neighbor list builds = 201
Dangerous builds = 0

unfix 3

fix 4 all nvt temp 370000 ${T} 100.0
fix 4 all nvt temp 370000 300 100.0

run ${nts}
run 20000
Generated 0 of 1 mixed pair_coeff terms from geometric mixing rule
Per MPI rank memory allocation (min/avg/max) = 4.415 | 4.415 | 4.415 Mbytes
   Step          Temp          Press          PotEng        Density         KinEng         TotEng           Lx             Ly             Lz            Xlo            Xhi            Ylo            Yhi            Zlo            Zhi           Volume           Dt            Time           CPU           T/CPU          S/CPU         CPULeft    
   1180000   357306.92      4.9180326     -912995.88      0.046297194    1063999        151003.11      2109.9475      2109.9475      2109.9475      945.02624      3054.9738      945.02624      3054.9738      945.02624      3054.9738      9.3932301e+09  0.25           340000         0              0              0              0            
   1185000   281775.93      2.6579733     -938489.34      0.046297194    839080.6      -99408.741      2109.9475      2109.9475      2109.9475      945.02624      3054.9738      945.02624      3054.9738      945.02624      3054.9738      9.3932301e+09  0.25           341250         0.10691451     11691.506      46765.635      0.32075093   
   1190000   189815.99      1.1795565     -933996.81      0.046297194    565239.62     -368757.19      2109.9475      2109.9475      2109.9475      945.02624      3054.9738      945.02624      3054.9738      945.02624      3054.9738      9.3932301e+09  0.25           342500         0.21345877     11732.208      46928.826      0.21346128   
   1195000   97207.24      -0.014101306   -921815.93      0.046297194    289466.56     -632349.37      2109.9475      2109.9475      2109.9475      945.02624      3054.9738      945.02624      3054.9738      945.02624      3054.9738      9.3932301e+09  0.25           343750         0.31957873     11779.151      47116.609      0.10652699   
   1200000   7897.7516     -1.4919453     -921312.37      0.046297194    23518.156     -897794.21      2109.9475      2109.9475      2109.9475      945.02624      3054.9738      945.02624      3054.9738      945.02624      3054.9738      9.3932301e+09  0.25           345000         0.42550202     11800.971      47203.913      0            
Loop time of 0.425564 on 4 procs for 20000 steps with 1000 atoms

Performance: 1015.125 ns/day, 0.024 hours/ns, 46996.506 timesteps/s
99.6% CPU use with 4 MPI tasks x 1 OpenMP threads

MPI task timing breakdown:
Section |  min time  |  avg time  |  max time  |%varavg| %total
---------------------------------------------------------------
Pair    | 0.070095   | 0.076844   | 0.085261   |   2.2 | 18.06
Neigh   | 0.0021103  | 0.0022397  | 0.002313   |   0.2 |  0.53
Comm    | 0.17422    | 0.18118    | 0.18784    |   1.5 | 42.57
Output  | 0.0014797  | 0.0015011  | 0.0015632  |   0.1 |  0.35
Modify  | 0.11377    | 0.11611    | 0.12171    |   1.0 | 27.28
Other   |            | 0.0477     |            |       | 11.21

Nlocal:            250 ave         262 max         237 min
Histogram: 1 0 0 0 1 0 1 0 0 1
Nghost:         115.75 ave         141 max         101 min
Histogram: 1 1 0 1 0 0 0 0 0 1
Neighs:         109.25 ave         120 max          97 min
Histogram: 1 0 0 1 0 0 0 1 0 1

Total # of neighbors = 437
Ave neighs/atom = 0.437
Neighbor list builds = 27
Dangerous builds = 0

unfix 4

fix 5 all npt temp ${T} ${T} $(100.0*dt) iso 1.0 1.0 $(1000.0*dt)
fix 5 all npt temp 300 ${T} $(100.0*dt) iso 1.0 1.0 $(1000.0*dt)
fix 5 all npt temp 300 300 $(100.0*dt) iso 1.0 1.0 $(1000.0*dt)
fix 5 all npt temp 300 300 25 iso 1.0 1.0 $(1000.0*dt)
fix 5 all npt temp 300 300 25 iso 1.0 1.0 250

run ${medium}
run 60000
Generated 0 of 1 mixed pair_coeff terms from geometric mixing rule
Per MPI rank memory allocation (min/avg/max) = 4.415 | 4.415 | 4.415 Mbytes
   Step          Temp          Press          PotEng        Density         KinEng         TotEng           Lx             Ly             Lz            Xlo            Xhi            Ylo            Yhi            Zlo            Zhi           Volume           Dt            Time           CPU           T/CPU          S/CPU         CPULeft    
   1200000   7897.7516     -1.4919453     -921312.37      0.046297194    23518.156     -897794.21      2109.9475      2109.9475      2109.9475      945.02624      3054.9738      945.02624      3054.9738      945.02624      3054.9738      9.3932301e+09  0.25           345000         0              0              0              0            
   1205000   304.24108      1.0023792     -986571.14      0.050398974    905.97797     -985665.16      2051.0802      2051.0802      2051.0802      974.45989      3025.5401      974.45989      3025.5401      974.45989      3025.5401      8.6287511e+09  0.25           346250         0.17042273     7334.6738      29338.537      1.8746772    
   1210000   304.62598      0.99320956    -1010114.4      0.051149148    907.12415     -1009207.3      2041.0035      2041.0035      2041.0035      979.49827      3020.5017      979.49827      3020.5017      979.49827      3020.5017      8.5021982e+09  0.25           347500         0.333571       7661.7431      30646.977      1.667867     
   1215000   305.70427      1.0059582     -1026692.7      0.051876884    910.3351      -1025782.4      2031.4147      2031.4147      2031.4147      984.29266      3015.7073      984.29266      3015.7073      984.29266      3015.7073      8.3829283e+09  0.25           348750         0.50078174     7475.5986      29902.395      1.5023522    
   1220000   308.01223      1.0023313     -1049693.2      0.052541333    917.20784     -1048776        2022.8151      2022.8151      2022.8151      988.59246      3011.4075      988.59246      3011.4075      988.59246      3011.4075      8.2769159e+09  0.25           350000         0.67164263     7315.8859      29263.54       1.3432904    
   1225000   315.98479      1.0473635     -1088425        0.053287454    940.94875     -1087484        2013.3296      2013.3296      2013.3296      993.33518      3006.6648      993.33518      3006.6648      993.33518      3006.6648      8.1610241e+09  0.25           351250         0.83720769     7549.906       30199.628      1.1720942    
   1230000   323.1534       0.98672922    -1109360.1      0.053931491    962.29566     -1108397.8      2005.2833      2005.2833      2005.2833      997.35835      3002.6416      997.35835      3002.6416      997.35835      3002.6416      8.0635672e+09  0.25           352500         1.0069463      7364.2635      29457.058      1.0069488    
   1235000   322.81786      1.0102225     -1127745.4      0.05461952     961.29648     -1126784.1      1996.8277      1996.8277      1996.8277      1001.5862      2998.4138      1001.5862      2998.4138      1001.5862      2998.4138      7.9619923e+09  0.25           353750         1.1754273      7419.2358      29676.944      0.83959263   
   1240000   322.39662      1.000777      -1148183        0.055276309    960.04209     -1147223        1988.8874      1988.8874      1988.8874      1005.5563      2994.4437      1005.5563      2994.4437      1005.5563      2994.4437      7.8673885e+09  0.25           355000         1.3446197      7388.0428      29552.171      0.67231101   
   1245000   321.70087      0.99484352    -1157011        0.055899733    957.97025     -1156053        1981.466       1981.466       1981.466       1009.267       2990.733       1009.267       2990.733       1009.267       2990.733       7.7796472e+09  0.25           356250         1.5098715      7564.2133      30256.848      0.50329129   
   1250000   321.67174      0.99700474    -1183223.4      0.056571724    957.8835      -1182265.5      1973.5891      1973.5891      1973.5891      1013.2054      2986.7946      1013.2054      2986.7946      1013.2054      2986.7946      7.6872361e+09  0.25           357500         1.681474       7284.2793      29137.125      0.33629524   
   1255000   321.20763      1.0137121     -1200612.6      0.057231481    956.50147     -1199656        1965.976       1965.976       1965.976       1017.012       2982.988       1017.012       2982.988       1017.012       2982.988       7.5986187e+09  0.25           358750         1.8523288      7316.1509      29264.588      0.16839374   
   1260000   320.88508      1.0077267     -1212547.7      0.057852138    955.54096     -1211592.1      1958.9202      1958.9202      1958.9202      1020.5399      2979.4601      1020.5399      2979.4601      1020.5399      2979.4601      7.5170981e+09  0.25           360000         2.0167557      7602.1568      30408.648      0            
Loop time of 2.01681 on 4 procs for 60000 steps with 1000 atoms

Performance: 642.599 ns/day, 0.037 hours/ns, 29749.948 timesteps/s
99.5% CPU use with 4 MPI tasks x 1 OpenMP threads

MPI task timing breakdown:
Section |  min time  |  avg time  |  max time  |%varavg| %total
---------------------------------------------------------------
Pair    | 0.32622    | 0.35516    | 0.3827     |   3.6 | 17.61
Neigh   | 0.042293   | 0.044444   | 0.046145   |   0.7 |  2.20
Comm    | 0.5437     | 0.57037    | 0.60527    |   3.1 | 28.28
Output  | 0.0018226  | 0.0018917  | 0.002093   |   0.3 |  0.09
Modify  | 0.87374    | 0.89214    | 0.91026    |   1.4 | 44.24
Other   |            | 0.1528     |            |       |  7.58

Nlocal:            250 ave         262 max         237 min
Histogram: 1 0 0 0 1 0 1 0 0 1
Nghost:         128.75 ave         147 max         117 min
Histogram: 1 1 0 0 1 0 0 0 0 1
Neighs:          152.5 ave         163 max         142 min
Histogram: 2 0 0 0 0 0 0 0 0 2

Total # of neighbors = 610
Ave neighs/atom = 0.61
Neighbor list builds = 554
Dangerous builds = 50

# run_style
run_style verlet

# write restart
write_restart ${write_res}
write_restart ./pgnpmf/82/equpmf6.res
System init for write_restart ...
Generated 0 of 1 mixed pair_coeff terms from geometric mixing rule

Total wall time: 0:00:05
