LAMMPS (23 Jun 2022 - Update 1)
OMP_NUM_THREADS environment is not set. Defaulting to 1 thread. (src/comm.cpp:98)
  using 1 OpenMP thread(s) per MPI task
# Read restart
read_restart ${read_res}
read_restart ./pgnpmf/82/equpmf22.res
Reading restart file ...
  restart file = 23 Jun 2022, LAMMPS = 23 Jun 2022
  restoring atom style atomic from restart
  orthogonal box = (1583.0676 1583.0676 1583.0676) to (2416.9324 2416.9324 2416.9324)
  1 by 2 by 2 MPI processor grid
  restoring pair style table from restart
  1000 atoms
  read_restart CPU = 0.005 seconds

# Settings

pair_style table spline 9941

pair_coeff 1 1 ./pgnpmf/N20.txt DE_GNP 75.6
pair_coeff 2 2 ./pgnpmf/N100.txt DE_GNP 115.92
WARNING: 3 of 9941 force values in table DE_GNP are inconsistent with -dE/dr.
WARNING:  Should only be flagged at inflection points (src/pair_table.cpp:463)
pair_coeff 1 2 ./pgnpmf/mixed_potential.txt DE_GNP 95.66
WARNING: 1562 of 9941 force values in table DE_GNP are inconsistent with -dE/dr.
WARNING:  Should only be flagged at inflection points (src/pair_table.cpp:463)

#Neigh_list Calc Frequency

neigh_modify delay 0 every 1 check yes

# Saving Frequency (50 frames)

variable ts_save equal ${steps_equ}
variable ts_save equal 5000

variable nts equal ${steps_equ}/${ts}
variable nts equal 5000/${ts}
variable nts equal 5000/0.25
variable medium equal ${nts}*3
variable medium equal 20000*3
variable long equal ${nts}*5
variable long equal 20000*5

# Dump
#dump 1 all custom ${ts_save} ./pgnpmf/${folder}/equilibration/trajectory/trajectory_${usic}_${trial}.equ.custom type x y z ix iy iz
#dump_modify 1 first no sort id
dump 2 all cfg 50000 ./pgnpmf/${folder}/equilibration/trajectory/dumpequ.tens_*.cfg mass type xs ys zs fx fy fz
dump 2 all cfg 50000 ./pgnpmf/82/equilibration/trajectory/dumpequ.tens_*.cfg mass type xs ys zs fx fy fz
dump_modify 2 element N20 N100

# thermo_style
thermo_style custom step temp press pe density ke etotal lx ly lz xlo xhi ylo yhi zlo zhi vol dt time cpu tpcpu spcpu cpuremain

# run info
timestep ${ts}
timestep 0.25
thermo 5000

# fix

fix 1 all momentum 1000 linear 1 1 1 angular
variable T equal ${temp}
variable T equal 300
fix 2 all nvt temp ${T} 370000 100.0
fix 2 all nvt temp 300 370000 100.0

run ${nts}
run 20000
Generated 0 of 1 mixed pair_coeff terms from geometric mixing rule
Unused restart file global fix info:
  fix style: npt, fix ID: 5
Neighbor list info ...
  update every 1 steps, delay 0 steps, check yes
  max neighbors/atom: 2000, page size: 100000
  master list distance cutoff = 117.92
  ghost atom cutoff = 117.92
  binsize = 58.96, bins = 15 15 15
  1 neighbor lists, perpetual/occasional/extra = 1 0 0
  (1) pair table, perpetual
      attributes: half, newton on
      pair build: half/bin/atomonly/newton
      stencil: half/bin/3d
      bin: standard
Per MPI rank memory allocation (min/avg/max) = 3.075 | 3.075 | 3.075 Mbytes
   Step          Temp          Press          PotEng        Density         KinEng         TotEng           Lx             Ly             Lz            Xlo            Xhi            Ylo            Yhi            Zlo            Zhi           Volume           Dt            Time           CPU           T/CPU          S/CPU         CPULeft    
   4460000   333.12612      0.45397892    -5074632.5      0.75003677     991.9927      -5073640.5      833.8649       833.8649       833.8649       1583.0676      2416.9324      1583.0676      2416.9324      1583.0676      2416.9324      5.7981184e+08  0.25           1160000        0              0              0              0            
   4465000   94563.022     -121.37269     -5152074        0.75003677     281592.53     -4870481.5      833.8649       833.8649       833.8649       1583.0676      2416.9324      1583.0676      2416.9324      1583.0676      2416.9324      5.7981184e+08  0.25           1161250        0.21847443     5721.4773      22885.827      0.65543016   
   4470000   181566.5      -173.81789     -5127917.1      0.75003677     540674.03     -4587243.1      833.8649       833.8649       833.8649       1583.0676      2416.9324      1583.0676      2416.9324      1583.0676      2416.9324      5.7981184e+08  0.25           1162500        0.43714911     5716.256       22865.015      0.4371514    
   4475000   273453.33      12.972547     -5044382.6      0.75003677     814297.33     -4230085.3      833.8649       833.8649       833.8649       1583.0676      2416.9324      1583.0676      2416.9324      1583.0676      2416.9324      5.7981184e+08  0.25           1163750        0.66047216     5597.2631      22389.056      0.22015826   
   4480000   370020.81      202.00283     -4979329.2      0.75003677     1101858.8     -3877470.4      833.8649       833.8649       833.8649       1583.0676      2416.9324      1583.0676      2416.9324      1583.0676      2416.9324      5.7981184e+08  0.25           1165000        0.88531505     5559.4424      22237.764      0            
Loop time of 0.885355 on 4 procs for 20000 steps with 1000 atoms

Performance: 487.940 ns/day, 0.049 hours/ns, 22589.818 timesteps/s
99.9% CPU use with 4 MPI tasks x 1 OpenMP threads

MPI task timing breakdown:
Section |  min time  |  avg time  |  max time  |%varavg| %total
---------------------------------------------------------------
Pair    | 0.30641    | 0.33633    | 0.39328    |   6.1 | 37.99
Neigh   | 0.0024406  | 0.0026111  | 0.0028737  |   0.3 |  0.29
Comm    | 0.31763    | 0.37366    | 0.40223    |   5.6 | 42.21
Output  | 0.00014472 | 0.00017053 | 0.00023818 |   0.0 |  0.02
Modify  | 0.11427    | 0.11793    | 0.12199    |   0.8 | 13.32
Other   |            | 0.05464    |            |       |  6.17

Nlocal:            250 ave         268 max         234 min
Histogram: 1 0 0 1 0 1 0 0 0 1
Nghost:          526.5 ave         538 max         500 min
Histogram: 1 0 0 0 0 0 0 0 1 2
Neighs:         587.25 ave         613 max         561 min
Histogram: 2 0 0 0 0 0 0 0 0 2

Total # of neighbors = 2349
Ave neighs/atom = 2.349
Neighbor list builds = 18
Dangerous builds = 0

unfix 2

fix 3 all nvt temp 370000 370000 $(100.0*dt) #iso 1.0 1.0 $(1000.0*dt)
fix 3 all nvt temp 370000 370000 25 

run ${long}
run 100000
Generated 0 of 1 mixed pair_coeff terms from geometric mixing rule
Per MPI rank memory allocation (min/avg/max) = 3.075 | 3.075 | 3.075 Mbytes
   Step          Temp          Press          PotEng        Density         KinEng         TotEng           Lx             Ly             Lz            Xlo            Xhi            Ylo            Yhi            Zlo            Zhi           Volume           Dt            Time           CPU           T/CPU          S/CPU         CPULeft    
   4480000   370020.81      202.00283     -4979329.2      0.75003677     1101858.8     -3877470.4      833.8649       833.8649       833.8649       1583.0676      2416.9324      1583.0676      2416.9324      1583.0676      2416.9324      5.7981184e+08  0.25           1165000        0              0              0              0            
   4485000   372273.54      233.24753     -5014145.6      0.75003677     1108567       -3905578.6      833.8649       833.8649       833.8649       1583.0676      2416.9324      1583.0676      2416.9324      1583.0676      2416.9324      5.7981184e+08  0.25           1166250        0.22744612     5495.7936      21983.098      4.3215189    
   4490000   378066.83      149.66748     -5108526.8      0.75003677     1125818.5     -3982708.3      833.8649       833.8649       833.8649       1583.0676      2416.9324      1583.0676      2416.9324      1583.0676      2416.9324      5.7981184e+08  0.25           1167500        0.45596622     5469.9768      21879.91       4.1037162    
   4495000   375883.87      107.10062     -5114519.3      0.75003677     1119318       -3995201.3      833.8649       833.8649       833.8649       1583.0676      2416.9324      1583.0676      2416.9324      1583.0676      2416.9324      5.7981184e+08  0.25           1168750        0.68636382     5425.4001      21701.601      3.8894084    
   4500000   368918.48      96.534485     -5089924.3      0.75003677     1098576.2     -3991348.1      833.8649       833.8649       833.8649       1583.0676      2416.9324      1583.0676      2416.9324      1583.0676      2416.9324      5.7981184e+08  0.25           1170000        0.91855002     5383.6122      21534.446      3.6742095    
   4505000   370206.47      99.100532     -5044336.8      0.75003677     1102411.7     -3941925.1      833.8649       833.8649       833.8649       1583.0676      2416.9324      1583.0676      2416.9324      1583.0676      2416.9324      5.7981184e+08  0.25           1171250        1.1485336      5435.1728      21740.687      3.4456076    
   4510000   374868.39      103.38917     -5016263        0.75003677     1116294       -3899969        833.8649       833.8649       833.8649       1583.0676      2416.9324      1583.0676      2416.9324      1583.0676      2416.9324      5.7981184e+08  0.25           1172500        1.3758096      5499.9203      21999.679      3.2102278    
   4515000   363040.6       114.39686     -5013080.8      0.75003677     1081072.9     -3932007.9      833.8649       833.8649       833.8649       1583.0676      2416.9324      1583.0676      2416.9324      1583.0676      2416.9324      5.7981184e+08  0.25           1173750        1.6038748      5480.8898      21923.564      2.9786288    
   4520000   364308.13      103.06716     -5035843.3      0.75003677     1084847.4     -3950995.9      833.8649       833.8649       833.8649       1583.0676      2416.9324      1583.0676      2416.9324      1583.0676      2416.9324      5.7981184e+08  0.25           1175000        1.8316035      5488.9817      21955.919      2.7474091    
   4525000   357622.54      87.273639     -5054512.6      0.75003677     1064938.8     -3989573.7      833.8649       833.8649       833.8649       1583.0676      2416.9324      1583.0676      2416.9324      1583.0676      2416.9324      5.7981184e+08  0.25           1176250        2.0590818      5495.0362      21980.15       2.5166582    
   4530000   370152.25      76.483875     -5045961.6      0.75003677     1102250.2     -3943711.5      833.8649       833.8649       833.8649       1583.0676      2416.9324      1583.0676      2416.9324      1583.0676      2416.9324      5.7981184e+08  0.25           1177500        2.2890609      5435.2754      21741.109      2.2890631    
   4535000   376114.31      56.225625     -5090103        0.75003677     1120004.2     -3970098.8      833.8649       833.8649       833.8649       1583.0676      2416.9324      1583.0676      2416.9324      1583.0676      2416.9324      5.7981184e+08  0.25           1178750        2.5179422      5461.3476      21845.386      2.0601363    
   4540000   371453.45      52.539977     -5103543.4      0.75003677     1106125       -3997418.4      833.8649       833.8649       833.8649       1583.0676      2416.9324      1583.0676      2416.9324      1583.0676      2416.9324      5.7981184e+08  0.25           1180000        2.7486282      5418.6176      21674.469      1.8324204    
   4545000   364479.85      85.672456     -5076006.8      0.75003677     1085358.7     -3990648        833.8649       833.8649       833.8649       1583.0676      2416.9324      1583.0676      2416.9324      1583.0676      2416.9324      5.7981184e+08  0.25           1181250        2.9788897      5428.6101      21714.442      1.6040188    
   4550000   372709.78      105.25231     -5093672.3      0.75003677     1109866.1     -3983806.2      833.8649       833.8649       833.8649       1583.0676      2416.9324      1583.0676      2416.9324      1583.0676      2416.9324      5.7981184e+08  0.25           1182500        3.2095385      5419.4988      21677.996      1.3755174    
   4555000   371564.98      98.785078     -5129642.5      0.75003677     1106457       -4023185.5      833.8649       833.8649       833.8649       1583.0676      2416.9324      1583.0676      2416.9324      1583.0676      2416.9324      5.7981184e+08  0.25           1183750        3.4369398      5496.8901      21987.554      1.1456474    
   4560000   373677.7       95.323256     -5143368.5      0.75003677     1112748.4     -4030620.1      833.8649       833.8649       833.8649       1583.0676      2416.9324      1583.0676      2416.9324      1583.0676      2416.9324      5.7981184e+08  0.25           1185000        3.6633075      5521.9891      22087.961      0.91582743   
   4565000   378780.82      91.670329     -5129295.5      0.75003677     1127944.6     -4001350.9      833.8649       833.8649       833.8649       1583.0676      2416.9324      1583.0676      2416.9324      1583.0676      2416.9324      5.7981184e+08  0.25           1186250        3.8875043      5575.4569      22301.824      0.68603058   
   4570000   376033.72      64.267322     -5164029.2      0.75003677     1119764.2     -4044265        833.8649       833.8649       833.8649       1583.0676      2416.9324      1583.0676      2416.9324      1583.0676      2416.9324      5.7981184e+08  0.25           1187500        4.1122606      5561.5759      22246.308      0.45691811   
   4575000   369518.84      61.145815     -5156087.3      0.75003677     1100364       -4055723.3      833.8649       833.8649       833.8649       1583.0676      2416.9324      1583.0676      2416.9324      1583.0676      2416.9324      5.7981184e+08  0.25           1188750        4.3360417      5585.8178      22343.27       0.22821285   
   4580000   371018.65      54.957329     -5133960.7      0.75003677     1104830.2     -4029130.5      833.8649       833.8649       833.8649       1583.0676      2416.9324      1583.0676      2416.9324      1583.0676      2416.9324      5.7981184e+08  0.25           1190000        4.5585497      5617.7741      22471.094      0            
Loop time of 4.55858 on 4 procs for 100000 steps with 1000 atoms

Performance: 473.831 ns/day, 0.051 hours/ns, 21936.634 timesteps/s
99.8% CPU use with 4 MPI tasks x 1 OpenMP threads

MPI task timing breakdown:
Section |  min time  |  avg time  |  max time  |%varavg| %total
---------------------------------------------------------------
Pair    | 1.569      | 1.7353     | 2.0378     |  14.1 | 38.07
Neigh   | 0.018955   | 0.020317   | 0.021868   |   0.8 |  0.45
Comm    | 1.632      | 1.9277     | 2.0888     |  13.0 | 42.29
Output  | 0.0049233  | 0.0050087  | 0.0052635  |   0.2 |  0.11
Modify  | 0.58999    | 0.59565    | 0.60734    |   0.9 | 13.07
Other   |            | 0.2746     |            |       |  6.02

Nlocal:            250 ave         261 max         240 min
Histogram: 2 0 0 0 0 0 0 0 1 1
Nghost:         520.25 ave         542 max         503 min
Histogram: 2 0 0 0 0 0 0 1 0 1
Neighs:         594.25 ave         632 max         568 min
Histogram: 1 1 0 0 0 1 0 0 0 1

Total # of neighbors = 2377
Ave neighs/atom = 2.377
Neighbor list builds = 140
Dangerous builds = 0

unfix 3

fix 4 all nvt temp 370000 ${T} 100.0
fix 4 all nvt temp 370000 300 100.0

run ${nts}
run 20000
Generated 0 of 1 mixed pair_coeff terms from geometric mixing rule
Per MPI rank memory allocation (min/avg/max) = 4.345 | 4.345 | 4.346 Mbytes
   Step          Temp          Press          PotEng        Density         KinEng         TotEng           Lx             Ly             Lz            Xlo            Xhi            Ylo            Yhi            Zlo            Zhi           Volume           Dt            Time           CPU           T/CPU          S/CPU         CPULeft    
   4580000   371018.65      54.957329     -5133960.7      0.75003677     1104830.2     -4029130.5      833.8649       833.8649       833.8649       1583.0676      2416.9324      1583.0676      2416.9324      1583.0676      2416.9324      5.7981184e+08  0.25           1190000        0              0              0              0            
   4585000   283984.51      3.2381808     -5148623.4      0.75003677     845657.37     -4302966.1      833.8649       833.8649       833.8649       1583.0676      2416.9324      1583.0676      2416.9324      1583.0676      2416.9324      5.7981184e+08  0.25           1191250        0.2223223      5622.4537      22489.731      0.66697364   
   4590000   190003.48     -35.004537     -5158222.8      0.75003677     565797.93     -4592424.9      833.8649       833.8649       833.8649       1583.0676      2416.9324      1583.0676      2416.9324      1583.0676      2416.9324      5.7981184e+08  0.25           1192500        0.44576554     5594.2614      22377.049      0.44576776   
   4595000   97623.415     -83.119559     -5172478.7      0.75003677     290705.86     -4881772.8      833.8649       833.8649       833.8649       1583.0676      2416.9324      1583.0676      2416.9324      1583.0676      2416.9324      5.7981184e+08  0.25           1193750        0.6677764      5630.3536      22521.415      0.22259289   
   4600000   8380.2852     -147.1439      -5201104.9      0.75003677     24955.058     -5176149.9      833.8649       833.8649       833.8649       1583.0676      2416.9324      1583.0676      2416.9324      1583.0676      2416.9324      5.7981184e+08  0.25           1195000        0.89032888     5616.6548      22466.617      0            
Loop time of 0.890372 on 4 procs for 20000 steps with 1000 atoms

Performance: 485.191 ns/day, 0.049 hours/ns, 22462.524 timesteps/s
100.0% CPU use with 4 MPI tasks x 1 OpenMP threads

MPI task timing breakdown:
Section |  min time  |  avg time  |  max time  |%varavg| %total
---------------------------------------------------------------
Pair    | 0.30476    | 0.34289    | 0.3943     |   5.7 | 38.51
Neigh   | 0.0024334  | 0.0026128  | 0.0027512  |   0.3 |  0.29
Comm    | 0.32179    | 0.37101    | 0.40877    |   5.3 | 41.67
Output  | 0.0016693  | 0.0016841  | 0.0017277  |   0.1 |  0.19
Modify  | 0.11643    | 0.11828    | 0.12055    |   0.5 | 13.28
Other   |            | 0.0539     |            |       |  6.05

Nlocal:            250 ave         262 max         239 min
Histogram: 2 0 0 0 0 0 0 0 1 1
Nghost:          521.5 ave         542 max         503 min
Histogram: 2 0 0 0 0 0 0 0 1 1
Neighs:          590.5 ave         632 max         561 min
Histogram: 1 0 1 0 1 0 0 0 0 1

Total # of neighbors = 2362
Ave neighs/atom = 2.362
Neighbor list builds = 18
Dangerous builds = 0

unfix 4

fix 5 all npt temp ${T} ${T} $(100.0*dt) iso 1.0 1.0 $(1000.0*dt)
fix 5 all npt temp 300 ${T} $(100.0*dt) iso 1.0 1.0 $(1000.0*dt)
fix 5 all npt temp 300 300 $(100.0*dt) iso 1.0 1.0 $(1000.0*dt)
fix 5 all npt temp 300 300 25 iso 1.0 1.0 $(1000.0*dt)
fix 5 all npt temp 300 300 25 iso 1.0 1.0 250

run ${medium}
run 60000
Generated 0 of 1 mixed pair_coeff terms from geometric mixing rule
Per MPI rank memory allocation (min/avg/max) = 4.345 | 4.345 | 4.346 Mbytes
   Step          Temp          Press          PotEng        Density         KinEng         TotEng           Lx             Ly             Lz            Xlo            Xhi            Ylo            Yhi            Zlo            Zhi           Volume           Dt            Time           CPU           T/CPU          S/CPU         CPULeft    
   4600000   8380.2852     -147.1439      -5201104.9      0.75003677     24955.058     -5176149.9      833.8649       833.8649       833.8649       1583.0676      2416.9324      1583.0676      2416.9324      1583.0676      2416.9324      5.7981184e+08  0.25           1195000        0              0              0              0            
   4605000   322.069        1.0106607     -5410400.6      0.78826328     959.06648     -5409441.5      820.16163      820.16163      820.16163      1589.9192      2410.0808      1589.9192      2410.0808      1589.9192      2410.0808      5.516941e+08   0.25           1196250        0.29314348     4264.1153      17056.415      3.224602     
   4610000   322.30256      0.98127602    -5444674.7      0.79226503     959.762       -5443715        818.77841      818.77841      818.77841      1590.6108      2409.3892      1590.6108      2409.3892      1590.6108      2409.3892      5.4890748e+08  0.25           1197500        0.57893919     4373.7528      17495.007      2.8947075    
   4615000   324.10254      1.1951295     -5481112.3      0.79658069     965.12202     -5480147.2      817.29709      817.29709      817.29709      1591.3515      2408.6485      1591.3515      2408.6485      1591.3515      2408.6485      5.4593364e+08  0.25           1198750        0.86542825     4363.1681      17452.675      2.5962917    
   4620000   326.41996      1.0739978     -5525503.9      0.80013826     972.0229      -5524531.9      816.084        816.084        816.084        1591.958       2408.042       1591.958       2408.042       1591.958       2408.042       5.4350632e+08  0.25           1200000        1.1510755      4376.026       17504.102      2.3021557    
   4625000   330.60091      0.22647395    -5550514.9      0.80398437     984.47306     -5549530.4      814.78059      814.78059      814.78059      1592.6097      2407.3903      1592.6097      2407.3903      1592.6097      2407.3903      5.4090628e+08  0.25           1201250        1.4348781      4404.4715      17617.887      2.0088325    
   4630000   334.39864      0.85015009    -5586367.5      0.80757095     995.78205     -5585371.7      813.5726       813.5726       813.5726       1593.2137      2406.7863      1593.2137      2406.7863      1593.2137      2406.7863      5.3850401e+08  0.25           1202500        1.7189581      4400.1688      17600.679      1.7189603    
   4635000   336.48453      1.4971244     -5610422.1      0.81152789     1001.9935     -5609420.2      812.24814      812.24814      812.24814      1593.8759      2406.1241      1593.8759      2406.1241      1593.8759      2406.1241      5.3587831e+08  0.25           1203750        2.0049351      4370.9811      17483.92       1.4320982    
   4640000   336.38617      0.05701614    -5628354.3      0.81475172     1001.7006     -5627352.6      811.17542      811.17542      811.17542      1594.4123      2405.5877      1594.4123      2405.5877      1594.4123      2405.5877      5.3375794e+08  0.25           1205000        2.2984774      4258.3236      17033.296      1.14924      
   4645000   335.70396      1.127245      -5645104.6      0.8182707      999.66908     -5644104.9      810.01093      810.01093      810.01093      1594.9945      2405.0055      1594.9945      2405.0055      1594.9945      2405.0055      5.3146251e+08  0.25           1206250        2.5845743      4369.1564      17476.625      0.8615255    
   4650000   335.08185      1.4492649     -5682629.4      0.82186748     997.81653     -5681631.6      808.82757      808.82757      808.82757      1595.5862      2404.4138      1595.5862      2404.4138      1595.5862      2404.4138      5.2913664e+08  0.25           1207500        2.873076       4332.7294      17330.918      0.57461565   
   4655000   334.43227      0.25955042    -5699307.8      0.82494839     995.88219     -5698311.9      807.81941      807.81941      807.81941      1596.0903      2403.9097      1596.0903      2403.9097      1596.0903      2403.9097      5.2716049e+08  0.25           1208750        3.1588995      4373.3292      17493.313      0.28717289   
   4660000   333.37609      1.0003192     -5725747.5      0.82832929     992.73708     -5724754.8      806.71885      806.71885      806.71885      1596.6406      2403.3594      1596.6406      2403.3594      1596.6406      2403.3594      5.2500884e+08  0.25           1210000        3.4452971      4364.5616      17458.248      0            
Loop time of 3.44532 on 4 procs for 60000 steps with 1000 atoms

Performance: 376.162 ns/day, 0.064 hours/ns, 17414.910 timesteps/s
99.9% CPU use with 4 MPI tasks x 1 OpenMP threads

MPI task timing breakdown:
Section |  min time  |  avg time  |  max time  |%varavg| %total
---------------------------------------------------------------
Pair    | 1.1683     | 1.2969     | 1.4003     |   7.9 | 37.64
Neigh   | 0.0085234  | 0.0092505  | 0.0098644  |   0.6 |  0.27
Comm    | 0.96871    | 1.066      | 1.1959     |   8.5 | 30.94
Output  | 0.0021622  | 0.0022099  | 0.0023519  |   0.2 |  0.06
Modify  | 0.88532    | 0.8984     | 0.91183    |   1.3 | 26.08
Other   |            | 0.1726     |            |       |  5.01

Nlocal:            250 ave         262 max         239 min
Histogram: 2 0 0 0 0 0 0 0 1 1
Nghost:         544.75 ave         561 max         530 min
Histogram: 2 0 0 0 0 0 0 0 1 1
Neighs:         646.75 ave         705 max         621 min
Histogram: 2 1 0 0 0 0 0 0 0 1

Total # of neighbors = 2587
Ave neighs/atom = 2.587
Neighbor list builds = 59
Dangerous builds = 21

# run_style
run_style verlet

# write restart
write_restart ${write_res}
write_restart ./pgnpmf/82/equpmf23.res
System init for write_restart ...
Generated 0 of 1 mixed pair_coeff terms from geometric mixing rule

Total wall time: 0:00:09
