LAMMPS (23 Jun 2022 - Update 1)
OMP_NUM_THREADS environment is not set. Defaulting to 1 thread. (src/comm.cpp:98)
  using 1 OpenMP thread(s) per MPI task
# Read restart
read_restart ${read_res}
read_restart ./pgnpmf/82/equpmf63.res
Reading restart file ...
  restart file = 23 Jun 2022, LAMMPS = 23 Jun 2022
  restoring atom style atomic from restart
  orthogonal box = (1712.758 1712.758 1712.758) to (2287.242 2287.242 2287.242)
  1 by 2 by 2 MPI processor grid
  restoring pair style table from restart
  1000 atoms
  read_restart CPU = 0.005 seconds

# Settings

pair_style table spline 9941

pair_coeff 1 1 ./pgnpmf/N20.txt DE_GNP 75.6
pair_coeff 2 2 ./pgnpmf/N100.txt DE_GNP 115.92
WARNING: 3 of 9941 force values in table DE_GNP are inconsistent with -dE/dr.
WARNING:  Should only be flagged at inflection points (src/pair_table.cpp:463)
pair_coeff 1 2 ./pgnpmf/mixed_potential.txt DE_GNP 95.66
WARNING: 1562 of 9941 force values in table DE_GNP are inconsistent with -dE/dr.
WARNING:  Should only be flagged at inflection points (src/pair_table.cpp:463)

#Neigh_list Calc Frequency

neigh_modify delay 0 every 1 check yes

# Saving Frequency (50 frames)

variable ts_save equal ${steps_equ}
variable ts_save equal 5000

variable nts equal ${steps_equ}/${ts}
variable nts equal 5000/${ts}
variable nts equal 5000/0.25
variable medium equal ${nts}*3
variable medium equal 20000*3
variable long equal ${nts}*5
variable long equal 20000*5

# Dump
#dump 1 all custom ${ts_save} ./pgnpmf/${folder}/equilibration/trajectory/trajectory_${usic}_${trial}.equ.custom type x y z ix iy iz
#dump_modify 1 first no sort id
dump 2 all cfg 50000 ./pgnpmf/${folder}/equilibration/trajectory/dumpequ.tens_*.cfg mass type xs ys zs fx fy fz
dump 2 all cfg 50000 ./pgnpmf/82/equilibration/trajectory/dumpequ.tens_*.cfg mass type xs ys zs fx fy fz
dump_modify 2 element N20 N100

# thermo_style
thermo_style custom step temp press pe density ke etotal lx ly lz xlo xhi ylo yhi zlo zhi vol dt time cpu tpcpu spcpu cpuremain

# run info
timestep ${ts}
timestep 0.25
thermo 5000

# fix

fix 1 all momentum 1000 linear 1 1 1 angular
variable T equal ${temp}
variable T equal 300
fix 2 all nvt temp ${T} 370000 100.0
fix 2 all nvt temp 300 370000 100.0

run ${nts}
run 20000
Generated 0 of 1 mixed pair_coeff terms from geometric mixing rule
Unused restart file global fix info:
  fix style: npt, fix ID: 5
Neighbor list info ...
  update every 1 steps, delay 0 steps, check yes
  max neighbors/atom: 2000, page size: 100000
  master list distance cutoff = 117.92
  ghost atom cutoff = 117.92
  binsize = 58.96, bins = 10 10 10
  1 neighbor lists, perpetual/occasional/extra = 1 0 0
  (1) pair table, perpetual
      attributes: half, newton on
      pair build: half/bin/atomonly/newton
      stencil: half/bin/3d
      bin: standard
Per MPI rank memory allocation (min/avg/max) = 3.093 | 3.093 | 3.093 Mbytes
   Step          Temp          Press          PotEng        Density         KinEng         TotEng           Lx             Ly             Lz            Xlo            Xhi            Ylo            Yhi            Zlo            Zhi           Volume           Dt            Time           CPU           T/CPU          S/CPU         CPULeft    
  12660000   327.4274       8.0080253     -15305569       2.2936955      975.02288     -15304594       574.48402      574.48402      574.48402      1712.758       2287.242       1712.758       2287.242       1712.758       2287.242       1.8959805e+08  0.25           3210000        0              0              0              0            
  12665000   91733.082     -236.86826     -15376524       2.2936955      273165.45     -15103359       574.48402      574.48402      574.48402      1712.758       2287.242       1712.758       2287.242       1712.758       2287.242       1.8959805e+08  0.25           3211250        0.40552344     3082.4308      12329.695      1.2165778    
  12670000   179698.6      -112.57673     -15339342       2.2936955      535111.76     -14804230       574.48402      574.48402      574.48402      1712.758       2287.242       1712.758       2287.242       1712.758       2287.242       1.8959805e+08  0.25           3212500        0.80844241     3102.3612      12409.446      0.80844476   
  12675000   275414.46      767.67337     -15116501       2.2936955      820137.25     -14296364       574.48402      574.48402      574.48402      1712.758       2287.242       1712.758       2287.242       1712.758       2287.242       1.8959805e+08  0.25           3213750        1.2215629      3025.7525      12103.01       0.40718838   
  12680000   371591.73      1724.948      -14900471       2.2936955      1106536.7     -13793934       574.48402      574.48402      574.48402      1712.758       2287.242       1712.758       2287.242       1712.758       2287.242       1.8959805e+08  0.25           3215000        1.6321307      3044.5639      12178.255      0            
Loop time of 1.63218 on 4 procs for 20000 steps with 1000 atoms

Performance: 264.677 ns/day, 0.091 hours/ns, 12253.577 timesteps/s
99.7% CPU use with 4 MPI tasks x 1 OpenMP threads

MPI task timing breakdown:
Section |  min time  |  avg time  |  max time  |%varavg| %total
---------------------------------------------------------------
Pair    | 0.82459    | 0.90726    | 0.9607     |   5.9 | 55.59
Neigh   | 0.0034716  | 0.0035677  | 0.003664   |   0.2 |  0.22
Comm    | 0.48444    | 0.53595    | 0.61706    |   7.5 | 32.84
Output  | 0.00014562 | 0.00016393 | 0.00021714 |   0.0 |  0.01
Modify  | 0.12035    | 0.12469    | 0.12805    |   0.8 |  7.64
Other   |            | 0.06054    |            |       |  3.71

Nlocal:            250 ave         255 max         244 min
Histogram: 1 0 1 0 0 0 0 0 0 2
Nghost:         906.25 ave         912 max         902 min
Histogram: 1 0 1 0 0 1 0 0 0 1
Neighs:         1686.5 ave        1783 max        1588 min
Histogram: 1 0 0 1 0 0 1 0 0 1

Total # of neighbors = 6746
Ave neighs/atom = 6.746
Neighbor list builds = 16
Dangerous builds = 0

unfix 2

fix 3 all nvt temp 370000 370000 $(100.0*dt) #iso 1.0 1.0 $(1000.0*dt)
fix 3 all nvt temp 370000 370000 25 

run ${long}
run 100000
Generated 0 of 1 mixed pair_coeff terms from geometric mixing rule
Per MPI rank memory allocation (min/avg/max) = 3.093 | 3.093 | 3.093 Mbytes
   Step          Temp          Press          PotEng        Density         KinEng         TotEng           Lx             Ly             Lz            Xlo            Xhi            Ylo            Yhi            Zlo            Zhi           Volume           Dt            Time           CPU           T/CPU          S/CPU         CPULeft    
  12680000   371591.73      1724.948      -14900471       2.2936955      1106536.7     -13793934       574.48402      574.48402      574.48402      1712.758       2287.242       1712.758       2287.242       1712.758       2287.242       1.8959805e+08  0.25           3215000        0              0              0              0            
  12685000   357953.72      2485.4954     -14702491       2.2936955      1065925.1     -13636566       574.48402      574.48402      574.48402      1712.758       2287.242       1712.758       2287.242       1712.758       2287.242       1.8959805e+08  0.25           3216250        0.41624994     3002.9994      12011.974      7.908792     
  12690000   369404.12      2956.2        -14666833       2.2936955      1100022.4     -13566810       574.48402      574.48402      574.48402      1712.758       2287.242       1712.758       2287.242       1712.758       2287.242       1.8959805e+08  0.25           3217500        0.83347925     2995.9542      11983.815      7.5013344    
  12695000   363829.16      3108.8468     -14669050       2.2936955      1083421.1     -13585629       574.48402      574.48402      574.48402      1712.758       2287.242       1712.758       2287.242       1712.758       2287.242       1.8959805e+08  0.25           3218750        1.248723       3010.281       12041.126      7.0761092    
  12700000   375532.2       3153.8324     -14594159       2.2936955      1118270.8     -13475888       574.48402      574.48402      574.48402      1712.758       2287.242       1712.758       2287.242       1712.758       2287.242       1.8959805e+08  0.25           3220000        1.6596749      3041.7183      12166.872      6.6387084    
  12705000   372142.34      3152.2475     -14597137       2.2936955      1108176.3     -13488960       574.48402      574.48402      574.48402      1712.758       2287.242       1712.758       2287.242       1712.758       2287.242       1.8959805e+08  0.25           3221250        2.0641503      3090.4226      12361.69       6.1924577    
  12710000   381740.93      3129.8492     -14643722       2.2936955      1136759.3     -13506962       574.48402      574.48402      574.48402      1712.758       2287.242       1712.758       2287.242       1712.758       2287.242       1.8959805e+08  0.25           3222500        2.4692143      3085.9324      12343.727      5.7615053    
  12715000   372050.68      3156.3051     -14641637       2.2936955      1107903.4     -13533734       574.48402      574.48402      574.48402      1712.758       2287.242       1712.758       2287.242       1712.758       2287.242       1.8959805e+08  0.25           3223750        2.875225       3078.7361      12314.947      5.3397078    
  12720000   362998.97      2998.9941     -14668585       2.2936955      1080948.9     -13587636       574.48402      574.48402      574.48402      1712.758       2287.242       1712.758       2287.242       1712.758       2287.242       1.8959805e+08  0.25           3225000        3.2828069      3066.8685      12267.465      4.9242142    
  12725000   371834.14      3031.6899     -14657613       2.2936955      1107258.6     -13550354       574.48402      574.48402      574.48402      1712.758       2287.242       1712.758       2287.242       1712.758       2287.242       1.8959805e+08  0.25           3226250        3.7012934      2986.9541      11947.824      4.5238059    
  12730000   373764.91      2975.5522     -14717443       2.2936955      1113008.1     -13604435       574.48402      574.48402      574.48402      1712.758       2287.242       1712.758       2287.242       1712.758       2287.242       1.8959805e+08  0.25           3227500        4.1091328      3064.9319      12259.728      4.1091351    
  12735000   363300.76      2953.5622     -14748250       2.2936955      1081847.6     -13666402       574.48402      574.48402      574.48402      1712.758       2287.242       1712.758       2287.242       1712.758       2287.242       1.8959805e+08  0.25           3228750        4.5147931      3081.3959      12325.583      3.6939236    
  12740000   364911.79      2985.8217     -14711687       2.2936955      1086645       -13625042       574.48402      574.48402      574.48402      1712.758       2287.242       1712.758       2287.242       1712.758       2287.242       1.8959805e+08  0.25           3230000        4.9189094      3093.1685      12372.675      3.2792745    
  12745000   376843.3       2953.4461     -14726275       2.2936955      1122175       -13604100       574.48402      574.48402      574.48402      1712.758       2287.242       1712.758       2287.242       1712.758       2287.242       1.8959805e+08  0.25           3231250        5.3256956      3072.8683      12291.472      2.8676835    
  12750000   375045.66      2882.1323     -14710133       2.2936955      1116821.9     -13593312       574.48402      574.48402      574.48402      1712.758       2287.242       1712.758       2287.242       1712.758       2287.242       1.8959805e+08  0.25           3232500        5.7360937      3045.8224      12183.289      2.4583269    
  12755000   368947.98      2805.9885     -14705175       2.2936955      1098664.1     -13606511       574.48402      574.48402      574.48402      1712.758       2287.242       1712.758       2287.242       1712.758       2287.242       1.8959805e+08  0.25           3233750        6.1447044      3059.1471      12236.59       2.0482356    
  12760000   368102.41      2722.1218     -14693157       2.2936955      1096146.1     -13597011       574.48402      574.48402      574.48402      1712.758       2287.242       1712.758       2287.242       1712.758       2287.242       1.8959805e+08  0.25           3235000        6.5544964      3050.3275      12201.312      1.6386246    
  12765000   380721.86      2806.4178     -14639468       2.2936955      1133724.7     -13505743       574.48402      574.48402      574.48402      1712.758       2287.242       1712.758       2287.242       1712.758       2287.242       1.8959805e+08  0.25           3236250        6.963919       3053.0803      12212.316      1.2289273    
  12770000   364717.48      2772.5108     -14705037       2.2936955      1086066.4     -13618971       574.48402      574.48402      574.48402      1712.758       2287.242       1712.758       2287.242       1712.758       2287.242       1.8959805e+08  0.25           3237500        7.3772176      3024.4478      12097.795      0.81969109   
  12775000   356668.27      2674.0368     -14786845       2.2936955      1062097.2     -13724747       574.48402      574.48402      574.48402      1712.758       2287.242       1712.758       2287.242       1712.758       2287.242       1.8959805e+08  0.25           3238750        7.79232        3011.3048      12045.216      0.41012223   
  12780000   367272.68      2773.5966     -14737996       2.2936955      1093675.3     -13644320       574.48402      574.48402      574.48402      1712.758       2287.242       1712.758       2287.242       1712.758       2287.242       1.8959805e+08  0.25           3240000        8.2060674      3021.1669      12084.671      0            
Loop time of 8.20613 on 4 procs for 100000 steps with 1000 atoms

Performance: 263.218 ns/day, 0.091 hours/ns, 12186.017 timesteps/s
99.7% CPU use with 4 MPI tasks x 1 OpenMP threads

MPI task timing breakdown:
Section |  min time  |  avg time  |  max time  |%varavg| %total
---------------------------------------------------------------
Pair    | 4.4143     | 4.6529     | 4.8355     |   8.3 | 56.70
Neigh   | 0.026491   | 0.027547   | 0.0284     |   0.4 |  0.34
Comm    | 2.4246     | 2.6028     | 2.8423     |  11.0 | 31.72
Output  | 0.0046124  | 0.0047003  | 0.0049364  |   0.2 |  0.06
Modify  | 0.60634    | 0.6158     | 0.62445    |   1.1 |  7.50
Other   |            | 0.3024     |            |       |  3.68

Nlocal:            250 ave         262 max         242 min
Histogram: 1 0 1 1 0 0 0 0 0 1
Nghost:         909.25 ave         917 max         897 min
Histogram: 1 0 0 0 0 1 0 0 0 2
Neighs:         1695.5 ave        1762 max        1609 min
Histogram: 1 0 1 0 0 0 0 0 0 2

Total # of neighbors = 6782
Ave neighs/atom = 6.782
Neighbor list builds = 124
Dangerous builds = 0

unfix 3

fix 4 all nvt temp 370000 ${T} 100.0
fix 4 all nvt temp 370000 300 100.0

run ${nts}
run 20000
Generated 0 of 1 mixed pair_coeff terms from geometric mixing rule
Per MPI rank memory allocation (min/avg/max) = 4.358 | 4.359 | 4.359 Mbytes
   Step          Temp          Press          PotEng        Density         KinEng         TotEng           Lx             Ly             Lz            Xlo            Xhi            Ylo            Yhi            Zlo            Zhi           Volume           Dt            Time           CPU           T/CPU          S/CPU         CPULeft    
  12780000   367272.68      2773.5966     -14737996       2.2936955      1093675.3     -13644320       574.48402      574.48402      574.48402      1712.758       2287.242       1712.758       2287.242       1712.758       2287.242       1.8959805e+08  0.25           3240000        0              0              0              0            
  12785000   283253.04      2613.5737     -14734093       2.2936955      843479.19     -13890614       574.48402      574.48402      574.48402      1712.758       2287.242       1712.758       2287.242       1712.758       2287.242       1.8959805e+08  0.25           3241250        0.41252113     3030.1431      12120.548      1.2375704    
  12790000   191198.15      2036.9887     -14863321       2.2936955      569355.45     -14293965       574.48402      574.48402      574.48402      1712.758       2287.242       1712.758       2287.242       1712.758       2287.242       1.8959805e+08  0.25           3242500        0.82177554     3054.3354      12217.341      0.82177785   
  12795000   100714.47      1374.2001     -15023964       2.2936955      299910.49     -14724053       574.48402      574.48402      574.48402      1712.758       2287.242       1712.758       2287.242       1712.758       2287.242       1.8959805e+08  0.25           3243750        1.2288416      3070.7547      12283.02       0.40961462   
  12800000   9685.8424      733.19973     -15195967       2.2936955      28842.785     -15167125       574.48402      574.48402      574.48402      1712.758       2287.242       1712.758       2287.242       1712.758       2287.242       1.8959805e+08  0.25           3245000        1.634779       3079.2928      12317.17       0            
Loop time of 1.63483 on 4 procs for 20000 steps with 1000 atoms

Performance: 264.247 ns/day, 0.091 hours/ns, 12233.660 timesteps/s
99.9% CPU use with 4 MPI tasks x 1 OpenMP threads

MPI task timing breakdown:
Section |  min time  |  avg time  |  max time  |%varavg| %total
---------------------------------------------------------------
Pair    | 0.85617    | 0.92293    | 0.98167    |   5.3 | 56.45
Neigh   | 0.003298   | 0.0034963  | 0.0036799  |   0.2 |  0.21
Comm    | 0.46928    | 0.5238     | 0.59187    |   6.9 | 32.04
Output  | 0.0020886  | 0.0021053  | 0.002153   |   0.1 |  0.13
Modify  | 0.11876    | 0.12333    | 0.12904    |   1.1 |  7.54
Other   |            | 0.05918    |            |       |  3.62

Nlocal:            250 ave         262 max         243 min
Histogram: 1 1 0 1 0 0 0 0 0 1
Nghost:         908.75 ave         921 max         892 min
Histogram: 1 0 0 0 1 0 0 0 1 1
Neighs:        1687.75 ave        1767 max        1581 min
Histogram: 1 0 0 1 0 0 0 0 0 2

Total # of neighbors = 6751
Ave neighs/atom = 6.751
Neighbor list builds = 16
Dangerous builds = 0

unfix 4

fix 5 all npt temp ${T} ${T} $(100.0*dt) iso 1.0 1.0 $(1000.0*dt)
fix 5 all npt temp 300 ${T} $(100.0*dt) iso 1.0 1.0 $(1000.0*dt)
fix 5 all npt temp 300 300 $(100.0*dt) iso 1.0 1.0 $(1000.0*dt)
fix 5 all npt temp 300 300 25 iso 1.0 1.0 $(1000.0*dt)
fix 5 all npt temp 300 300 25 iso 1.0 1.0 250

run ${medium}
run 60000
Generated 0 of 1 mixed pair_coeff terms from geometric mixing rule
Per MPI rank memory allocation (min/avg/max) = 4.359 | 4.359 | 4.359 Mbytes
   Step          Temp          Press          PotEng        Density         KinEng         TotEng           Lx             Ly             Lz            Xlo            Xhi            Ylo            Yhi            Zlo            Zhi           Volume           Dt            Time           CPU           T/CPU          S/CPU         CPULeft    
  12800000   9685.8424      733.19973     -15195967       2.2936955      28842.785     -15167125       574.48402      574.48402      574.48402      1712.758       2287.242       1712.758       2287.242       1712.758       2287.242       1.8959805e+08  0.25           3245000        0              0              0              0            
  12805000   324.35824      0.9899009     -15141731       2.2672475      965.88345     -15140765       576.70923      576.70923      576.70923      1711.6454      2288.3546      1711.6454      2288.3546      1711.6454      2288.3546      1.9180976e+08  0.25           3246250        0.48491709     2577.7566      10311.008      5.3341152    
  12810000   322.88007      5.0422287     -15174889       2.2705907      961.48171     -15173927       576.42604      576.42604      576.42604      1711.787       2288.213       1711.787       2288.213       1711.787       2288.213       1.9152734e+08  0.25           3247500        0.96153801     2622.63        10490.519      4.8077015    
  12815000   322.10487      1.5499395     -15194716       2.2731471      959.1733      -15193757       576.20988      576.20988      576.20988      1711.8951      2288.1049      1711.8951      2288.1049      1711.8951      2288.1049      1.9131195e+08  0.25           3248750        1.4376989      2625.1635      10500.653      4.3131036    
  12820000   322.61613      0.27095121    -15217755       2.2756786      960.69575     -15216794       575.99614      575.99614      575.99614      1712.0019      2287.9981      1712.0019      2287.9981      1712.0019      2287.9981      1.9109913e+08  0.25           3250000        1.9121992      2634.3504      10537.404      3.8244027    
  12825000   324.40528      2.1848486     -15250507       2.2784108      966.02353     -15249541       575.7658       575.7658       575.7658       1712.1171      2287.8829      1712.1171      2287.8829      1712.1171      2287.8829      1.9086997e+08  0.25           3251250        2.3867247      2634.2103      10536.841      3.3414177    
  12830000   327.74749     -0.51504887    -15266199       2.2808252      975.97605     -15265223       575.56257      575.56257      575.56257      1712.2187      2287.7813      1712.2187      2287.7813      1712.2187      2287.7813      1.9066792e+08  0.25           3252500        2.8614051      2633.351       10533.403      2.8614073    
  12835000   330.58403      2.6734469     -15285881       2.2830667      984.4228      -15284897       575.37414      575.37414      575.37414      1712.3129      2287.6871      1712.3129      2287.6871      1712.3129      2287.6871      1.9048072e+08  0.25           3253750        3.3351447      2638.5803      10554.323      2.3822477    
  12840000   331.31862     -3.177412      -15306697       2.2851452      986.61029     -15305710       575.19965      575.19965      575.19965      1712.4002      2287.5998      1712.4002      2287.5998      1712.4002      2287.5998      1.9030747e+08  0.25           3255000        3.8073991      2646.8781      10587.511      1.9037006    
  12845000   330.02133      0.55649048    -15321990       2.2870786      982.74718     -15321007       575.03752      575.03752      575.03752      1712.4812      2287.5188      1712.4812      2287.5188      1712.4812      2287.5188      1.9014659e+08  0.25           3256250        4.2820377      2633.5829      10534.332      1.4273466    
  12850000   329.20388      6.1848994     -15339913       2.2895268      980.31293     -15338933       574.83248      574.83248      574.83248      1712.5838      2287.4162      1712.5838      2287.4162      1712.5838      2287.4162      1.8994327e+08  0.25           3257500        4.7567042      2633.4275      10533.709      0.95134129   
  12855000   327.9344       0.05659065    -15350354       2.291381       976.53264     -15349378       574.67739      574.67739      574.67739      1712.6613      2287.3387      1712.6613      2287.3387      1712.6613      2287.3387      1.8978956e+08  0.25           3258750        5.2289504      2646.9238      10587.697      0.47535933   
  12860000   326.67104      1.8292006     -15357655       2.2931424      972.77058     -15356682       574.53021      574.53021      574.53021      1712.7349      2287.2651      1712.7349      2287.2651      1712.7349      2287.2651      1.8964378e+08  0.25           3260000        5.7026998      2638.5259      10554.103      0            
Loop time of 5.70276 on 4 procs for 60000 steps with 1000 atoms

Performance: 227.258 ns/day, 0.106 hours/ns, 10521.221 timesteps/s
99.9% CPU use with 4 MPI tasks x 1 OpenMP threads

MPI task timing breakdown:
Section |  min time  |  avg time  |  max time  |%varavg| %total
---------------------------------------------------------------
Pair    | 2.7961     | 3.004      | 3.1979     |   9.2 | 52.68
Neigh   | 0.0071392  | 0.0074514  | 0.0078506  |   0.3 |  0.13
Comm    | 1.3933     | 1.5653     | 1.7825     |  12.4 | 27.45
Output  | 0.0018491  | 0.0018998  | 0.0020426  |   0.2 |  0.03
Modify  | 0.91971    | 0.93124    | 0.93727    |   0.7 | 16.33
Other   |            | 0.1929     |            |       |  3.38

Nlocal:            250 ave         262 max         243 min
Histogram: 1 1 0 1 0 0 0 0 0 1
Nghost:            911 ave         925 max         892 min
Histogram: 1 0 0 1 0 0 0 0 0 2
Neighs:        1686.25 ave        1766 max        1581 min
Histogram: 1 0 0 1 0 0 0 0 0 2

Total # of neighbors = 6745
Ave neighs/atom = 6.745
Neighbor list builds = 34
Dangerous builds = 12

# run_style
run_style verlet

# write restart
write_restart ${write_res}
write_restart ./pgnpmf/82/equpmf64.res
System init for write_restart ...
Generated 0 of 1 mixed pair_coeff terms from geometric mixing rule

Total wall time: 0:00:17
