LAMMPS (23 Jun 2022 - Update 1)
OMP_NUM_THREADS environment is not set. Defaulting to 1 thread. (src/comm.cpp:98)
  using 1 OpenMP thread(s) per MPI task
# Read restart
read_restart ${read_res}
read_restart ./pgnpmf/82/equpmf67.res
Reading restart file ...
  restart file = 23 Jun 2022, LAMMPS = 23 Jun 2022
  restoring atom style atomic from restart
  orthogonal box = (1712.4336 1712.4336 1712.4336) to (2287.5664 2287.5664 2287.5664)
  1 by 2 by 2 MPI processor grid
  restoring pair style table from restart
  1000 atoms
  read_restart CPU = 0.005 seconds

# Settings

pair_style table spline 9941

pair_coeff 1 1 ./pgnpmf/N20.txt DE_GNP 75.6
pair_coeff 2 2 ./pgnpmf/N100.txt DE_GNP 115.92
WARNING: 3 of 9941 force values in table DE_GNP are inconsistent with -dE/dr.
WARNING:  Should only be flagged at inflection points (src/pair_table.cpp:463)
pair_coeff 1 2 ./pgnpmf/mixed_potential.txt DE_GNP 95.66
WARNING: 1562 of 9941 force values in table DE_GNP are inconsistent with -dE/dr.
WARNING:  Should only be flagged at inflection points (src/pair_table.cpp:463)

#Neigh_list Calc Frequency

neigh_modify delay 0 every 1 check yes

# Saving Frequency (50 frames)

variable ts_save equal ${steps_equ}
variable ts_save equal 5000

variable nts equal ${steps_equ}/${ts}
variable nts equal 5000/${ts}
variable nts equal 5000/0.25
variable medium equal ${nts}*3
variable medium equal 20000*3
variable long equal ${nts}*5
variable long equal 20000*5

# Dump
#dump 1 all custom ${ts_save} ./pgnpmf/${folder}/equilibration/trajectory/trajectory_${usic}_${trial}.equ.custom type x y z ix iy iz
#dump_modify 1 first no sort id
dump 2 all cfg 50000 ./pgnpmf/${folder}/equilibration/trajectory/dumpequ.tens_*.cfg mass type xs ys zs fx fy fz
dump 2 all cfg 50000 ./pgnpmf/82/equilibration/trajectory/dumpequ.tens_*.cfg mass type xs ys zs fx fy fz
dump_modify 2 element N20 N100

# thermo_style
thermo_style custom step temp press pe density ke etotal lx ly lz xlo xhi ylo yhi zlo zhi vol dt time cpu tpcpu spcpu cpuremain

# run info
timestep ${ts}
timestep 0.25
thermo 5000

# fix

fix 1 all momentum 1000 linear 1 1 1 angular
variable T equal ${temp}
variable T equal 300
fix 2 all nvt temp ${T} 370000 100.0
fix 2 all nvt temp 300 370000 100.0

run ${nts}
run 20000
Generated 0 of 1 mixed pair_coeff terms from geometric mixing rule
Unused restart file global fix info:
  fix style: npt, fix ID: 5
Neighbor list info ...
  update every 1 steps, delay 0 steps, check yes
  max neighbors/atom: 2000, page size: 100000
  master list distance cutoff = 117.92
  ghost atom cutoff = 117.92
  binsize = 58.96, bins = 10 10 10
  1 neighbor lists, perpetual/occasional/extra = 1 0 0
  (1) pair table, perpetual
      attributes: half, newton on
      pair build: half/bin/atomonly/newton
      stencil: half/bin/3d
      bin: standard
Per MPI rank memory allocation (min/avg/max) = 3.093 | 3.093 | 3.093 Mbytes
   Step          Temp          Press          PotEng        Density         KinEng         TotEng           Lx             Ly             Lz            Xlo            Xhi            Ylo            Yhi            Zlo            Zhi           Volume           Dt            Time           CPU           T/CPU          S/CPU         CPULeft    
  13460000   326.18886      3.2681281     -15327195       2.2859423      971.33473     -15326224       575.13278      575.13278      575.13278      1712.4336      2287.5664      1712.4336      2287.5664      1712.4336      2287.5664      1.9024111e+08  0.25           3410000        0              0              0              0            
  13465000   90753.582     -245.98904     -15394340       2.2859423      270248.67     -15124091       575.13278      575.13278      575.13278      1712.4336      2287.5664      1712.4336      2287.5664      1712.4336      2287.5664      1.9024111e+08  0.25           3411250        0.40593561     3079.3011      12317.18       1.2178142    
  13470000   179069.32     -250.23684     -15377555       2.2859423      533237.86     -14844317       575.13278      575.13278      575.13278      1712.4336      2287.5664      1712.4336      2287.5664      1712.4336      2287.5664      1.9024111e+08  0.25           3412500        0.8104963      3089.7717      12359.083      0.81049879   
  13475000   275414.13      421.97026     -15153144       2.2859423      820136.25     -14333008       575.13278      575.13278      575.13278      1712.4336      2287.5664      1712.4336      2287.5664      1712.4336      2287.5664      1.9024111e+08  0.25           3413750        1.220345       3049.9059      12199.623      0.4067825    
  13480000   372349.35      1342.797      -14953350       2.2859423      1108792.8     -13844557       575.13278      575.13278      575.13278      1712.4336      2287.5664      1712.4336      2287.5664      1712.4336      2287.5664      1.9024111e+08  0.25           3415000        1.6269559      3074.1929      12296.775      0            
Loop time of 1.62701 on 4 procs for 20000 steps with 1000 atoms

Performance: 265.518 ns/day, 0.090 hours/ns, 12292.480 timesteps/s
99.6% CPU use with 4 MPI tasks x 1 OpenMP threads

MPI task timing breakdown:
Section |  min time  |  avg time  |  max time  |%varavg| %total
---------------------------------------------------------------
Pair    | 0.84816    | 0.9001     | 0.95216    |   3.9 | 55.32
Neigh   | 0.0034361  | 0.0036195  | 0.0038829  |   0.3 |  0.22
Comm    | 0.48531    | 0.53653    | 0.58925    |   5.0 | 32.98
Output  | 0.00015923 | 0.00018915 | 0.00027618 |   0.0 |  0.01
Modify  | 0.12221    | 0.12566    | 0.12771    |   0.6 |  7.72
Other   |            | 0.06091    |            |       |  3.74

Nlocal:            250 ave         261 max         241 min
Histogram: 1 0 0 1 1 0 0 0 0 1
Nghost:          909.5 ave         923 max         893 min
Histogram: 1 0 0 0 1 0 0 1 0 1
Neighs:        1683.25 ave        1769 max        1620 min
Histogram: 2 0 0 0 0 0 1 0 0 1

Total # of neighbors = 6733
Ave neighs/atom = 6.733
Neighbor list builds = 16
Dangerous builds = 0

unfix 2

fix 3 all nvt temp 370000 370000 $(100.0*dt) #iso 1.0 1.0 $(1000.0*dt)
fix 3 all nvt temp 370000 370000 25 

run ${long}
run 100000
Generated 0 of 1 mixed pair_coeff terms from geometric mixing rule
Per MPI rank memory allocation (min/avg/max) = 3.093 | 3.093 | 3.093 Mbytes
   Step          Temp          Press          PotEng        Density         KinEng         TotEng           Lx             Ly             Lz            Xlo            Xhi            Ylo            Yhi            Zlo            Zhi           Volume           Dt            Time           CPU           T/CPU          S/CPU         CPULeft    
  13480000   372349.35      1342.797      -14953350       2.2859423      1108792.8     -13844557       575.13278      575.13278      575.13278      1712.4336      2287.5664      1712.4336      2287.5664      1712.4336      2287.5664      1.9024111e+08  0.25           3415000        0              0              0              0            
  13485000   358419.66      2224.6039     -14693177       2.2859423      1067312.5     -13625865       575.13278      575.13278      575.13278      1712.4336      2287.5664      1712.4336      2287.5664      1712.4336      2287.5664      1.9024111e+08  0.25           3416250        0.40952809     3052.2886      12209.127      7.7810822    
  13490000   355724.58      2590.803      -14627013       2.2859423      1059287.1     -13567726       575.13278      575.13278      575.13278      1712.4336      2287.5664      1712.4336      2287.5664      1712.4336      2287.5664      1.9024111e+08  0.25           3417500        0.81381165     3091.89        12367.562      7.3243264    
  13495000   366380.46      2823.0986     -14591611       2.2859423      1091018.5     -13500592       575.13278      575.13278      575.13278      1712.4336      2287.5664      1712.4336      2287.5664      1712.4336      2287.5664      1.9024111e+08  0.25           3418750        1.2162847      3105.7979      12423.191      6.8922937    
  13500000   368277.38      2866.9268     -14615529       2.2859423      1096667.2     -13518862       575.13278      575.13278      575.13278      1712.4336      2287.5664      1712.4336      2287.5664      1712.4336      2287.5664      1.9024111e+08  0.25           3420000        1.624831       3059.6293      12238.518      6.4993334    
  13505000   370661.19      2944.0119     -14596325       2.2859423      1103765.7     -13492560       575.13278      575.13278      575.13278      1712.4336      2287.5664      1712.4336      2287.5664      1712.4336      2287.5664      1.9024111e+08  0.25           3421250        2.030341       3082.5371      12330.147      6.0910306    
  13510000   378971.68      2954.8666     -14616401       2.2859423      1128512.9     -13487888       575.13278      575.13278      575.13278      1712.4336      2287.5664      1712.4336      2287.5664      1712.4336      2287.5664      1.9024111e+08  0.25           3422500        2.4369725      3074.0366      12296.146      5.686275     
  13515000   368231.59      2969.4175     -14611196       2.2859423      1096530.8     -13514666       575.13278      575.13278      575.13278      1712.4336      2287.5664      1712.4336      2287.5664      1712.4336      2287.5664      1.9024111e+08  0.25           3423750        2.8395127      3105.2802      12421.121      5.2733852    
  13520000   369888.95      2840.8418     -14649378       2.2859423      1101466.1     -13547911       575.13278      575.13278      575.13278      1712.4336      2287.5664      1712.4336      2287.5664      1712.4336      2287.5664      1.9024111e+08  0.25           3425000        3.2430742      3097.4214      12389.689      4.8646147    
  13525000   376015.51      2757.8303     -14623390       2.2859423      1119710       -13503680       575.13278      575.13278      575.13278      1712.4336      2287.5664      1712.4336      2287.5664      1712.4336      2287.5664      1.9024111e+08  0.25           3426250        3.6509601      3064.5827      12258.33       4.4622875    
  13530000   364512.19      2644.1738     -14622662       2.2859423      1085455.1     -13537207       575.13278      575.13278      575.13278      1712.4336      2287.5664      1712.4336      2287.5664      1712.4336      2287.5664      1.9024111e+08  0.25           3427500        4.0532928      3106.8811      12427.524      4.0532952    
  13535000   366831.61      2691.539      -14653834       2.2859423      1092361.9     -13561472       575.13278      575.13278      575.13278      1712.4336      2287.5664      1712.4336      2287.5664      1712.4336      2287.5664      1.9024111e+08  0.25           3428750        4.4556777      3106.4794      12425.917      3.6455563    
  13540000   391008.16      2669.7553     -14633905       2.2859423      1164355.5     -13469549       575.13278      575.13278      575.13278      1712.4336      2287.5664      1712.4336      2287.5664      1712.4336      2287.5664      1.9024111e+08  0.25           3430000        4.8572643      3112.6525      12450.608      3.2381779    
  13545000   370448.39      2679.9141     -14666569       2.2859423      1103132       -13563437       575.13278      575.13278      575.13278      1712.4336      2287.5664      1712.4336      2287.5664      1712.4336      2287.5664      1.9024111e+08  0.25           3431250        5.257949       3119.6604      12478.642      2.8312046    
  13550000   384121.76      2628.1765     -14741766       2.2859423      1143849       -13597917       575.13278      575.13278      575.13278      1712.4336      2287.5664      1712.4336      2287.5664      1712.4336      2287.5664      1.9024111e+08  0.25           3432500        5.6605059      3105.1505      12420.605      2.4259321    
  13555000   378711.61      2770.5947     -14645961       2.2859423      1127738.5     -13518223       575.13278      575.13278      575.13278      1712.4336      2287.5664      1712.4336      2287.5664      1712.4336      2287.5664      1.9024111e+08  0.25           3433750        6.0616532      3116.0626      12464.242      2.0205519    
  13560000   364719.03      2879.3327     -14571817       2.2859423      1086071       -13485746       575.13278      575.13278      575.13278      1712.4336      2287.5664      1712.4336      2287.5664      1712.4336      2287.5664      1.9024111e+08  0.25           3435000        6.4642032      3105.2051      12420.825      1.6160514    
  13565000   363260.74      2976.8673     -14573296       2.2859423      1081728.4     -13491567       575.13278      575.13278      575.13278      1712.4336      2287.5664      1712.4336      2287.5664      1712.4336      2287.5664      1.9024111e+08  0.25           3436250        6.8675261      3099.2538      12397.015      1.2119168    
  13570000   364680.89      2875.2983     -14623497       2.2859423      1085957.4     -13537540       575.13278      575.13278      575.13278      1712.4336      2287.5664      1712.4336      2287.5664      1712.4336      2287.5664      1.9024111e+08  0.25           3437500        7.269746       3107.752       12431.008      0.80774983   
  13575000   355097.92      2793.299      -14686365       2.2859423      1057421       -13628944       575.13278      575.13278      575.13278      1712.4336      2287.5664      1712.4336      2287.5664      1712.4336      2287.5664      1.9024111e+08  0.25           3438750        7.6729609      3100.0843      12400.338      0.40384017   
  13580000   370861.62      2757.1351     -14698601       2.2859423      1104362.6     -13594238       575.13278      575.13278      575.13278      1712.4336      2287.5664      1712.4336      2287.5664      1712.4336      2287.5664      1.9024111e+08  0.25           3440000        8.0765231      3097.4153      12389.662      0            
Loop time of 8.07657 on 4 procs for 100000 steps with 1000 atoms

Performance: 267.440 ns/day, 0.090 hours/ns, 12381.496 timesteps/s
99.7% CPU use with 4 MPI tasks x 1 OpenMP threads

MPI task timing breakdown:
Section |  min time  |  avg time  |  max time  |%varavg| %total
---------------------------------------------------------------
Pair    | 4.4232     | 4.594      | 4.6917     |   4.8 | 56.88
Neigh   | 0.025979   | 0.027228   | 0.028285   |   0.6 |  0.34
Comm    | 2.4305     | 2.5285     | 2.704      |   6.6 | 31.31
Output  | 0.0039118  | 0.0040317  | 0.0043765  |   0.3 |  0.05
Modify  | 0.60247    | 0.61877    | 0.63095    |   1.3 |  7.66
Other   |            | 0.3041     |            |       |  3.76

Nlocal:            250 ave         261 max         245 min
Histogram: 2 0 1 0 0 0 0 0 0 1
Nghost:         911.75 ave         920 max         898 min
Histogram: 1 0 0 0 0 1 0 0 0 2
Neighs:        1700.75 ave        1773 max        1614 min
Histogram: 1 0 0 1 0 0 0 1 0 1

Total # of neighbors = 6803
Ave neighs/atom = 6.803
Neighbor list builds = 122
Dangerous builds = 0

unfix 3

fix 4 all nvt temp 370000 ${T} 100.0
fix 4 all nvt temp 370000 300 100.0

run ${nts}
run 20000
Generated 0 of 1 mixed pair_coeff terms from geometric mixing rule
Per MPI rank memory allocation (min/avg/max) = 4.358 | 4.359 | 4.359 Mbytes
   Step          Temp          Press          PotEng        Density         KinEng         TotEng           Lx             Ly             Lz            Xlo            Xhi            Ylo            Yhi            Zlo            Zhi           Volume           Dt            Time           CPU           T/CPU          S/CPU         CPULeft    
  13580000   370861.62      2757.1351     -14698601       2.2859423      1104362.6     -13594238       575.13278      575.13278      575.13278      1712.4336      2287.5664      1712.4336      2287.5664      1712.4336      2287.5664      1.9024111e+08  0.25           3440000        0              0              0              0            
  13585000   266882.27      2641.9544     -14716461       2.2859423      794729.83     -13921731       575.13278      575.13278      575.13278      1712.4336      2287.5664      1712.4336      2287.5664      1712.4336      2287.5664      1.9024111e+08  0.25           3441250        0.40560683     3081.7947      12327.149      1.2168291    
  13590000   192387.3       2103.5711     -14888265       2.2859423      572896.52     -14315369       575.13278      575.13278      575.13278      1712.4336      2287.5664      1712.4336      2287.5664      1712.4336      2287.5664      1.9024111e+08  0.25           3442500        0.8077972      3107.9832      12431.934      0.80779974   
  13595000   100735.07      1301.6531     -15063011       2.2859423      299971.85     -14763039       575.13278      575.13278      575.13278      1712.4336      2287.5664      1712.4336      2287.5664      1712.4336      2287.5664      1.9024111e+08  0.25           3443750        1.2337751      2934.4252      11737.701      0.41125918   
  13600000   9696.3355      613.57915     -15203662       2.2859423      28874.031     -15174788       575.13278      575.13278      575.13278      1712.4336      2287.5664      1712.4336      2287.5664      1712.4336      2287.5664      1.9024111e+08  0.25           3445000        1.6380855      3091.6843      12366.739      0            
Loop time of 1.63813 on 4 procs for 20000 steps with 1000 atoms

Performance: 263.715 ns/day, 0.091 hours/ns, 12209.031 timesteps/s
99.4% CPU use with 4 MPI tasks x 1 OpenMP threads

MPI task timing breakdown:
Section |  min time  |  avg time  |  max time  |%varavg| %total
---------------------------------------------------------------
Pair    | 0.85294    | 0.91755    | 0.941      |   3.9 | 56.01
Neigh   | 0.0031755  | 0.0033397  | 0.0035229  |   0.2 |  0.20
Comm    | 0.50489    | 0.52873    | 0.59422    |   5.2 | 32.28
Output  | 0.0028891  | 0.0029122  | 0.0029776  |   0.1 |  0.18
Modify  | 0.12228    | 0.12486    | 0.12745    |   0.5 |  7.62
Other   |            | 0.06074    |            |       |  3.71

Nlocal:            250 ave         261 max         241 min
Histogram: 1 0 1 0 0 0 1 0 0 1
Nghost:         903.25 ave         918 max         891 min
Histogram: 1 0 0 0 2 0 0 0 0 1
Neighs:        1697.75 ave        1761 max        1583 min
Histogram: 1 0 0 0 0 0 0 1 1 1

Total # of neighbors = 6791
Ave neighs/atom = 6.791
Neighbor list builds = 15
Dangerous builds = 0

unfix 4

fix 5 all npt temp ${T} ${T} $(100.0*dt) iso 1.0 1.0 $(1000.0*dt)
fix 5 all npt temp 300 ${T} $(100.0*dt) iso 1.0 1.0 $(1000.0*dt)
fix 5 all npt temp 300 300 $(100.0*dt) iso 1.0 1.0 $(1000.0*dt)
fix 5 all npt temp 300 300 25 iso 1.0 1.0 $(1000.0*dt)
fix 5 all npt temp 300 300 25 iso 1.0 1.0 250

run ${medium}
run 60000
Generated 0 of 1 mixed pair_coeff terms from geometric mixing rule
Per MPI rank memory allocation (min/avg/max) = 4.359 | 4.359 | 4.359 Mbytes
   Step          Temp          Press          PotEng        Density         KinEng         TotEng           Lx             Ly             Lz            Xlo            Xhi            Ylo            Yhi            Zlo            Zhi           Volume           Dt            Time           CPU           T/CPU          S/CPU         CPULeft    
  13600000   9696.3355      613.57915     -15203662       2.2859423      28874.031     -15174788       575.13278      575.13278      575.13278      1712.4336      2287.5664      1712.4336      2287.5664      1712.4336      2287.5664      1.9024111e+08  0.25           3445000        0              0              0              0            
  13605000   325.08024      0.294008      -15171973       2.2639083      968.03345     -15171005       576.99263      576.99263      576.99263      1711.5037      2288.4963      1711.5037      2288.4963      1711.5037      2288.4963      1.9209267e+08  0.25           3446250        0.47330002     2641.027       10564.085      5.2063289    
  13610000   322.86261      2.9946197     -15199470       2.2665474      961.42971     -15198509       576.7686       576.7686       576.7686       1711.6157      2288.3843      1711.6157      2288.3843      1711.6157      2288.3843      1.9186901e+08  0.25           3447500        0.94156041     2669.4557      10677.825      4.7078141    
  13615000   322.08054      2.2155418     -15224678       2.2694395      959.10086     -15223719       576.52349      576.52349      576.52349      1711.7383      2288.2617      1711.7383      2288.2617      1711.7383      2288.2617      1.9162449e+08  0.25           3448750        1.4056826      2693.2567      10773.029      4.2170544    
  13620000   322.11426     -0.092182497   -15232314       2.271869       959.20127     -15231354       576.31791      576.31791      576.31791      1711.841       2288.159       1711.841       2288.159       1711.841       2288.159       1.9141958e+08  0.25           3450000        1.8702013      2690.9568      10763.827      3.7404073    
  13625000   323.71847      5.4959577     -15259957       2.2745042      963.97833     -15258993       576.09526      576.09526      576.09526      1711.9524      2288.0476      1711.9524      2288.0476      1711.9524      2288.0476      1.911978e+08   0.25           3451250        2.3342715      2693.5585      10774.234      3.2679833    
  13630000   326.58998      0.44217775    -15280223       2.2766288      972.52919     -15279251       575.91599      575.91599      575.91599      1712.042       2287.958       1712.042       2287.958       1712.042       2287.958       1.9101937e+08  0.25           3452500        2.7984905      2692.6944      10770.777      2.7984928    
  13635000   329.98696     -0.86647412    -15302246       2.2788498      982.64483     -15301263       575.72883      575.72883      575.72883      1712.1356      2287.8644      1712.1356      2287.8644      1712.1356      2287.8644      1.908332e+08   0.25           3453750        3.2628235      2692.0338      10768.137      2.3305898    
  13640000   330.477        1.7967879     -15313884       2.2809092      984.10408     -15312900       575.5555       575.5555       575.5555       1712.2222      2287.7778      1712.2222      2287.7778      1712.2222      2287.7778      1.906609e+08   0.25           3455000        3.7301278      2674.9163      10699.667      1.865065     
  13645000   329.63914      1.7328043     -15322513       2.2827627      981.60906     -15321531       575.39969      575.39969      575.39969      1712.3002      2287.6998      1712.3002      2287.6998      1712.3002      2287.6998      1.9050609e+08  0.25           3456250        4.1942478      2693.2693      10773.077      1.3980833    
  13650000   328.41324     -2.6272451     -15342398       2.2845831      977.95856     -15341420       575.24682      575.24682      575.24682      1712.3766      2287.6234      1712.3766      2287.6234      1712.3766      2287.6234      1.9035429e+08  0.25           3457500        4.6607239      2679.6655      10718.661      0.93214523   
  13655000   326.91036      0.037443012   -15355143       2.2863243      973.48323     -15354170       575.10075      575.10075      575.10075      1712.4496      2287.5504      1712.4496      2287.5504      1712.4496      2287.5504      1.9020932e+08  0.25           3458750        5.124435       2695.6436      10782.573      0.46585794   
  13660000   325.86297     -2.1677814     -15365094       2.288149       970.36429     -15364124       574.94784      574.94784      574.94784      1712.5261      2287.4739      1712.5261      2287.4739      1712.5261      2287.4739      1.9005764e+08  0.25           3460000        5.5890126      2690.6163      10762.466      0            
Loop time of 5.58907 on 4 procs for 60000 steps with 1000 atoms

Performance: 231.881 ns/day, 0.104 hours/ns, 10735.241 timesteps/s
99.7% CPU use with 4 MPI tasks x 1 OpenMP threads

MPI task timing breakdown:
Section |  min time  |  avg time  |  max time  |%varavg| %total
---------------------------------------------------------------
Pair    | 2.7816     | 2.967      | 3.0702     |   6.4 | 53.09
Neigh   | 0.006168   | 0.0064318  | 0.0066412  |   0.2 |  0.12
Comm    | 1.4058     | 1.5077     | 1.6952     |   9.0 | 26.98
Output  | 0.0022562  | 0.0023202  | 0.0025081  |   0.2 |  0.04
Modify  | 0.91656    | 0.92323    | 0.93213    |   0.6 | 16.52
Other   |            | 0.1824     |            |       |  3.26

Nlocal:            250 ave         258 max         244 min
Histogram: 1 0 1 0 0 1 0 0 0 1
Nghost:          904.5 ave         917 max         895 min
Histogram: 1 0 1 0 0 1 0 0 0 1
Neighs:        1696.75 ave        1732 max        1603 min
Histogram: 1 0 0 0 0 0 0 0 0 3

Total # of neighbors = 6787
Ave neighs/atom = 6.787
Neighbor list builds = 29
Dangerous builds = 12

# run_style
run_style verlet

# write restart
write_restart ${write_res}
write_restart ./pgnpmf/82/equpmf68.res
System init for write_restart ...
Generated 0 of 1 mixed pair_coeff terms from geometric mixing rule

Total wall time: 0:00:17
