ITEM: TIMESTEP
0
ITEM: NUMBER OF ATOMS
1000
ITEM: BOX BOUNDS pp pp pp
-1.0000000000000000e+02 5.1000000000000000e+03
-1.0000000000000000e+02 5.1000000000000000e+03
-1.0000000000000000e+02 5.1000000000000000e+03
ITEM: ATOMS type x y z ix iy iz
1 1894.21 3897.57 3632.84 0 0 0
1 3691.41 1626.15 3113.36 0 0 0
1 4665.43 2260.4 1081.48 0 0 0
1 115.501 3413.8 2722.55 0 0 0
1 2153.16 783.716 4016.33 0 0 0
1 1522.49 1224.42 1157.4 0 0 0
1 1.216 2125.5 3759.26 0 0 0
1 110.891 3080.18 2482.96 0 0 0
1 4999.81 3550.15 0.277 0 0 0
1 2343.2 819.973 3408.51 0 0 0
1 559.214 444.82 1293.06 0 0 0
1 306.809 1955.64 1613.11 0 0 0
1 1473.83 2214.62 1303.74 0 0 0
1 2786.74 2524.82 3555.19 0 0 0
1 2193.79 544.819 1787.64 0 0 0
1 1366.35 2730.56 3048.44 0 0 0
1 2016.49 1294.55 1740.79 0 0 0
1 2789.92 1778.85 168.631 0 0 0
1 2752.69 2171.41 3077.05 0 0 0
1 1440.23 1041.7 3422.17 0 0 0
1 1339.57 0 1762.47 0 0 0
1 0 483.275 1103.35 0 0 0
1 3840.64 4479.32 2497.21 0 0 0
1 1517.68 1156.58 1351.7 0 0 0
1 529.174 409.821 234.878 0 0 0
1 643.02 977.457 863.144 0 0 0
1 848.719 587.192 650.215 0 0 0
1 221.094 443.43 1044.83 0 0 0
1 0 301.639 359.32 0 0 0
1 172.224 92.925 209.174 0 0 0
1 788.022 762.483 1016.05 0 0 0
1 746.184 731.856 452.971 0 0 0
1 631.156 833.926 433.235 0 0 0
1 853.177 710.198 75.211 0 0 0
1 3536.75 4999.12 6.695 0 0 0
1 1890.61 0 2362.19 0 0 0
1 784.404 638.132 236.367 0 0 0
1 229.161 436.784 688.563 0 0 0
1 184.613 408.829 577.381 0 0 0
1 694.918 938.765 356.381 0 0 0
1 230.624 535.906 603.979 0 0 0
1 506.617 625.23 859.856 0 0 0
1 377.839 853.263 666.135 0 0 0
1 399.997 121.805 0 0 0 0
1 636.456 550.646 783.83 0 0 0
1 2995.2 4679.57 3843.8 0 0 0
1 747.423 153.6 624.058 0 0 0
1 501.671 536.298 264.227 0 0 0
1 905.731 1036.25 884.94 0 0 0
1 593.582 801.228 156.229 0 0 0
1 346.785 1371.88 1051.4 0 0 0
1 54.895 262.959 803.561 0 0 0
1 619.695 188.93 299.907 0 0 0
1 891.017 811.141 32.27 0 0 0
1 893.905 602.338 283.4 0 0 0
1 516.297 110.886 806.663 0 0 0
1 1019.71 577.839 163.058 0 0 0
1 701.201 385.806 338.57 0 0 0
1 158.203 0 721.99 0 0 0
1 631.691 373.659 443.004 0 0 0
1 669.038 481.579 660.687 0 0 0
1 1427.77 1818.46 3697.05 0 0 0
1 455.94 975.375 679.239 0 0 0
1 444.862 270.471 297.279 0 0 0
1 0 188.151 1047.41 0 0 0
1 556.853 281.56 252.817 0 0 0
1 440.691 856.902 803.336 0 0 0
1 692.159 1064.52 779.294 0 0 0
1 381.912 823.536 131.496 0 0 0
1 205.666 865.139 843.857 0 0 0
1 1004.09 1626.1 319.233 0 0 0
1 876.941 133.487 601.051 0 0 0
1 778.8 196.476 137.571 0 0 0
1 157.42 258.926 724.539 0 0 0
1 544.809 641.843 579.672 0 0 0
1 641.386 126.582 184.03 0 0 0
1 917.379 903.621 171.973 0 0 0
1 504.386 234.124 561.078 0 0 0
1 240.167 975.178 93.731 0 0 0
1 2646.86 1691.73 2339.56 0 0 0
1 907.085 126.902 91.604 0 0 0
1 956.765 389.719 526.332 0 0 0
1 848.3 259.555 0 0 0 0
1 1292.66 799.552 0 0 0 0
1 871.891 480.917 779.331 0 0 0
1 316.206 889.794 799.46 0 0 0
1 574.271 855.655 559.445 0 0 0
1 30.715 381.261 1070.29 0 0 0
1 960.053 221.272 957.608 0 0 0
1 279.231 392.751 450.604 0 0 0
1 1028.07 813.449 925.859 0 0 0
1 323.467 1681.49 4448.26 0 0 0
1 380.931 74.832 230.814 0 0 0
1 1977.91 2259.59 11.525 0 0 0
1 4470.07 646.802 2003.46 0 0 0
1 262.836 830.022 629.263 0 0 0
1 889.07 174.98 438.839 0 0 0
1 1990.73 2248.56 1473.11 0 0 0
1 476.995 280.546 886.035 0 0 0
1 358.097 718.946 1216.79 0 0 0
1 994.72 512.357 730.923 0 0 0
1 682.094 412.693 925.445 0 0 0
1 196.238 905.327 967.047 0 0 0
1 414.736 258.958 759.332 0 0 0
1 745.792 788.516 675.074 0 0 0
1 129.17 222.663 524.437 0 0 0
1 84.8 687.873 1305.64 0 0 0
1 244.825 898.06 3.369 0 0 0
1 319.854 980.854 0 0 0 0
1 232.804 261.748 470.789 0 0 0
1 477.947 460.059 644.792 0 0 0
1 0 702.26 2297.54 0 0 0
1 716.917 962.573 957.795 0 0 0
1 567.351 974.991 596.997 0 0 0
1 961.39 309.295 1.598 0 0 0
1 2132.33 2137.03 2265.25 0 0 0
1 364.534 300.176 204.591 0 0 0
1 255.551 248.964 799.604 0 0 0
1 521.277 492.91 0 0 0 0
1 355.076 464.921 608.796 0 0 0
1 865.497 469.95 114.631 0 0 0
1 1144.45 1099.93 1449.99 0 0 0
1 175.963 283.771 1077.86 0 0 0
1 816.846 971.666 141.273 0 0 0
1 239.39 1154.37 524.873 0 0 0
1 38.605 354.58 897.454 0 0 0
1 1006.37 220.52 406.921 0 0 0
1 943.946 654.044 599.571 0 0 0
1 15.687 351.887 503.462 0 0 0
1 3086.6 1331.28 1289 0 0 0
1 996.077 971.073 943.347 0 0 0
1 738.56 199.601 839.118 0 0 0
1 859.786 147.796 996.316 0 0 0
1 71.69 680.124 193.167 0 0 0
1 9.331 864.004 175.257 0 0 0
1 555.508 209.777 115.459 0 0 0
1 93.08 1066.69 430.689 0 0 0
1 494.856 386.833 752.471 0 0 0
1 160.122 172.221 635.286 0 0 0
1 822.91 601.574 67.504 0 0 0
1 997.131 118.925 4.843 0 0 0
1 865.831 967.778 365.282 0 0 0
1 769.853 572.059 514.383 0 0 0
1 1573.84 0 248.269 0 0 0
1 717.36 450.735 778.559 0 0 0
1 175.578 473.024 809.564 0 0 0
1 1679.27 1292.79 710.523 0 0 0
1 1202.72 83.556 509.184 0 0 0
1 592.375 278.533 375.156 0 0 0
1 352.913 839.7 961.275 0 0 0
1 282.311 79.987 80.49 0 0 0
1 829.546 28.622 861.471 0 0 0
1 367.44 549.585 724.517 0 0 0
1 9.235 306.683 1429.1 0 0 0
1 168.772 496.49 345.245 0 0 0
1 254.281 258.523 613.709 0 0 0
1 514.978 409.953 435.364 0 0 0
1 712.453 645.257 737.968 0 0 0
1 699.325 748.203 339.64 0 0 0
1 814.408 658.069 943.52 0 0 0
1 273.977 389.847 278.933 0 0 0
1 410.508 634.429 158.809 0 0 0
1 148.899 659.833 896.366 0 0 0
1 1814 1081.34 0 0 0 0
1 767.183 964.419 631.42 0 0 0
1 523.194 1521.18 583.57 0 0 0
1 392.186 1296.59 458.369 0 0 0
1 693.324 857.21 581.772 0 0 0
1 0.363 198.063 152.453 0 0 0
1 765.751 850.196 314.199 0 0 0
1 968.881 229.899 112.837 0 0 0
1 676.939 218.552 977.342 0 0 0
1 108.154 175.82 151.12 0 0 0
1 281.772 1009.78 204.198 0 0 0
1 1193.92 647.173 617.734 0 0 0
1 858.353 316.049 263.932 0 0 0
1 35.78 1190.13 938.671 0 0 0
1 108.676 822.656 231.417 0 0 0
1 1043.89 869.667 357.356 0 0 0
1 717.424 689.371 592.695 0 0 0
1 762.864 457.115 258.995 0 0 0
1 1473.18 1260.46 734.765 0 0 0
1 892.316 486.381 574.429 0 0 0
1 959.803 29.918 1015.55 0 0 0
1 374.981 230.057 615.15 0 0 0
1 1531.58 957.264 3432.74 0 0 0
1 423.807 93.265 330.679 0 0 0
1 863.738 1750.76 1190.62 0 0 0
1 785.51 1073.22 645.099 0 0 0
1 864.579 516.478 1268.24 0 0 0
1 763.242 546.768 842.983 0 0 0
1 645.542 439.168 209.744 0 0 0
1 546.504 458.819 856.945 0 0 0
1 250.164 887.887 510.379 0 0 0
1 1002.51 264.392 784.682 0 0 0
1 0 678.52 520.59 0 0 0
1 897.048 348.316 1082.22 0 0 0
1 457.881 755.031 890.267 0 0 0
1 773.117 435.428 523.097 0 0 0
1 970.785 997.126 250.138 0 0 0
1 778.311 916.538 518.448 0 0 0
1 303.524 678.166 102.249 0 0 0
1 218.212 820.927 324.251 0 0 0
1 851.117 273.181 978.534 0 0 0
1 802.477 598.495 383.45 0 0 0
1 181.841 131.008 441.635 0 0 0
1 46.585 144.642 309.507 0 0 0
1 818.142 1806.15 1429.55 0 0 0
1 602.569 983.786 203.819 0 0 0
1 1131.58 438.684 671.171 0 0 0
1 1344.16 1166.23 1045.44 0 0 0
1 2169.23 931.088 1061.32 0 0 0
1 1047.29 510.259 632.475 0 0 0
1 599.687 51.067 475.202 0 0 0
1 69.779 968.943 144.034 0 0 0
1 529.958 951.974 827.255 0 0 0
1 173.663 175.391 805.617 0 0 0
1 400.081 667.56 624.534 0 0 0
1 645.022 872.532 995.873 0 0 0
1 576.959 3883.41 466.909 0 0 0
1 646.57 322.988 133.811 0 0 0
1 302.243 409.458 128.355 0 0 0
1 263.56 185.001 904.901 0 0 0
1 924.016 304.419 651.183 0 0 0
1 730.371 105.905 931.3 0 0 0
1 568.151 766.507 333.292 0 0 0
1 1300.83 4907.94 110.901 0 0 0
1 546.277 885.635 927.18 0 0 0
1 347.634 383.234 765.245 0 0 0
1 950.701 559.585 36.054 0 0 0
1 416.452 557.381 869.823 0 0 0
1 910.526 24.534 346.978 0 0 0
1 374.089 534.13 237.593 0 0 0
1 703.809 1016.31 450.32 0 0 0
1 964.112 352.341 914.579 0 0 0
1 275.419 596.169 0 0 0 0
1 389.753 467.243 492.731 0 0 0
1 905.991 147.258 895.395 0 0 0
1 648.557 188.15 517.353 0 0 0
1 316.785 854.269 406.326 0 0 0
1 142.059 54.943 532.024 0 0 0
1 143.428 469.457 216.192 0 0 0
1 315.66 790.935 239.299 0 0 0
1 795.577 482.879 685.144 0 0 0
1 397.619 778.41 416.207 0 0 0
1 379.935 315.589 388.933 0 0 0
1 248.535 0 597.605 0 0 0
1 63.131 570.18 244.922 0 0 0
1 177.679 328.423 837.296 0 0 0
1 656.142 568.977 577.823 0 0 0
1 459.295 312.569 645.426 0 0 0
1 135.77 620.42 584.297 0 0 0
1 876.934 840.762 675.911 0 0 0
1 310.974 175.208 1088.6 0 0 0
1 643.606 551.892 383.894 0 0 0
1 280.119 669.676 261.756 0 0 0
1 327.554 354.023 568.981 0 0 0
1 644.573 888.927 722.755 0 0 0
1 1740.67 376.891 2852.19 0 0 0
1 1002.36 267.504 227.717 0 0 0
1 782.537 744.893 178.735 0 0 0
1 1000.72 737.064 505.594 0 0 0
1 284.102 714.967 945.234 0 0 0
1 507.294 462.826 1052.19 0 0 0
1 436.97 327.726 524.5 0 0 0
1 220.17 306.362 948.43 0 0 0
1 177.97 580.798 1039.29 0 0 0
1 1172.6 2684.11 842.784 0 0 0
1 450.998 914.236 385.446 0 0 0
1 487.133 47.892 218.178 0 0 0
1 628.445 692.716 481.823 0 0 0
1 450.115 846.448 234.834 0 0 0
1 555.887 1926.7 1739.05 0 0 0
1 2345.72 2991.95 4087.79 0 0 0
1 1222.92 1976.08 2778.57 0 0 0
1 431.054 444.764 355.452 0 0 0
1 754.292 288.149 388.948 0 0 0
1 487.221 788.417 569.971 0 0 0
1 1357.06 2042.49 4929.32 0 0 0
1 519.207 877.839 712.961 0 0 0
1 998.448 517.003 275.736 0 0 0
1 1810.14 783.174 96.679 0 0 0
1 608.625 421.288 25.649 0 0 0
1 356.613 772.01 573.833 0 0 0
1 977.604 893.389 783.168 0 0 0
1 220.25 909.043 721.081 0 0 0
1 1008.38 567.197 504.218 0 0 0
1 195.857 140.428 1026.91 0 0 0
1 191.865 988.16 550.536 0 0 0
1 562.263 719.559 803.309 0 0 0
1 467.826 239.152 54.323 0 0 0
1 759.056 2268.84 98.877 0 0 0
1 8.181 971.978 413.889 0 0 0
1 776.438 2711.7 2585.43 0 0 0
1 501.77 756.592 698.789 0 0 0
1 1019.49 3213.45 2150.58 0 0 0
1 691.737 2908.58 3289.44 0 0 0
1 1106.93 214.818 1056.68 0 0 0
1 4160.94 1574.44 1725.85 0 0 0
1 861.992 938.35 816.435 0 0 0
2 0 1875.57 4230.43 0 0 0
2 1950.59 781.117 4738.54 0 0 0
2 3079.35 4508.83 4478.09 0 0 0
2 5000 654.025 4136.68 0 0 0
2 4999.32 4995.15 3.947 0 0 0
2 2903.86 2190.44 4996.62 0 0 0
2 1824.72 4390.09 4539.4 0 0 0
2 0.014 1222.17 5000 0 0 0
2 1267.68 4996.95 584.224 0 0 0
2 0.165 4999.98 4997.95 0 0 0
2 4421.45 2913.17 0.019 0 0 0
2 55.335 2628.75 4973.36 0 0 0
2 1.003 1470.2 4399.81 0 0 0
2 1090.54 2905.74 4997.21 0 0 0
2 3923.05 2494.42 4999.03 0 0 0
2 315.855 5000 3210.12 0 0 0
2 0.615 1.311 0.14 0 0 0
2 3365.72 3290.11 5000 0 0 0
2 2275.89 4209.14 4999.56 0 0 0
2 750.963 1868.52 0.01 0 0 0
2 4997.69 5.186 4994.42 0 0 0
2 0.024 3733.61 4972.37 0 0 0
2 3135.76 4998.74 1.08 0 0 0
2 3896.03 1760.56 3955.53 0 0 0
2 2594.17 2.73 431.165 0 0 0
2 3122.17 1077.92 510.955 0 0 0
2 0.495 5.152 3835.97 0 0 0
2 3242.65 4105.7 5000 0 0 0
2 3112.75 0 5000 0 0 0
2 1508.68 5000 0.002 0 0 0
2 554.643 2430.57 1766.91 0 0 0
2 3599.74 4999.98 422.745 0 0 0
2 4850.1 4448.3 346.281 0 0 0
2 278.721 1402.31 2294.5 0 0 0
2 3.349 4509.46 2206.87 0 0 0
2 4996.57 1162.36 1324.36 0 0 0
2 3977.98 0.757 4996.12 0 0 0
2 4552.6 0.016 1494.68 0 0 0
2 4998.92 3956.75 0.111 0 0 0
2 4999.98 2141.85 0.004 0 0 0
2 4999.99 4846.16 1329.14 0 0 0
2 4977.76 339.1 582.846 0 0 0
2 2485.11 1543.84 6.009 0 0 0
2 3.675 4998.1 170.477 0 0 0
2 2553.55 0.002 3144.14 0 0 0
2 2991.94 4894.33 4780.24 0 0 0
2 4997.29 892.248 4994.9 0 0 0
2 4466.91 0.852 0.526 0 0 0
2 4999.36 470.067 3368.19 0 0 0
2 4256.4 4999.62 1103.1 0 0 0
2 4926.27 2207.03 1641.05 0 0 0
2 4999.7 1506.81 2417.22 0 0 0
2 2718.2 1730 4999.55 0 0 0
2 3441.57 4719.66 2461.54 0 0 0
2 0 2725.02 4808.08 0 0 0
2 2321.22 4984.77 4996.32 0 0 0
2 647.545 4990.64 115.268 0 0 0
2 4761.09 0 1458.26 0 0 0
2 5000 3433.14 3994.8 0 0 0
2 4998.2 2888.93 4999.34 0 0 0
2 3203.32 70.581 972.83 0 0 0
2 1428.71 2079.26 1321.83 0 0 0
2 4999.99 0.019 252.408 0 0 0
2 1965.78 3255.45 1109.24 0 0 0
2 703.222 770.218 1654.79 0 0 0
2 254.733 3210.71 3315.78 0 0 0
2 3585.74 1678.44 2527.99 0 0 0
2 195.154 116.578 2347.93 0 0 0
2 3318.56 537.281 154.173 0 0 0
2 4568.39 43.872 2392.2 0 0 0
2 1872.67 172.027 2920.31 0 0 0
2 2691.24 2130.93 5000 0 0 0
2 1255.94 148.284 364.223 0 0 0
2 4995.83 4935.55 3425.08 0 0 0
2 4999.79 4999.97 1032.09 0 0 0
2 0 2235.72 2919.16 0 0 0
2 950.032 1731.91 83.976 0 0 0
2 310.403 120.667 2619.79 0 0 0
2 0 1849.67 1712.64 0 0 0
2 2155.1 197.516 124.335 0 0 0
2 624.599 0 2013.07 0 0 0
2 0 2541.38 365.839 0 0 0
2 905.112 2978.68 2630.08 0 0 0
2 2227.3 4988.2 2460.67 0 0 0
2 4052.37 2337.49 4140.16 0 0 0
2 1095.32 1595.54 32.869 0 0 0
2 1098.24 152.919 1796.35 0 0 0
2 1316.97 7.822 2573.77 0 0 0
2 721.228 1085.25 2501.49 0 0 0
2 2339.82 190.389 5000 0 0 0
2 12.709 4867.3 644.005 0 0 0
2 2670.36 354.879 233.817 0 0 0
2 2087.22 2611.32 4775.23 0 0 0
2 2068.14 3164.4 4481.86 0 0 0
2 861.975 28.711 3281.57 0 0 0
2 3169.04 1107.37 1078.6 0 0 0
2 2599.73 26.795 1575.36 0 0 0
2 630.83 0 1793.64 0 0 0
2 202.357 1878.12 1197.22 0 0 0
2 69.577 1051.73 658.109 0 0 0
2 2682.56 2567.08 502.352 0 0 0
2 4933.91 258.191 1161.62 0 0 0
2 2912.03 65.331 3958.07 0 0 0
2 2199.95 1296.14 1642.38 0 0 0
2 3932.11 5000 2970.24 0 0 0
2 4940.11 514.745 33.289 0 0 0
2 2341.97 39.95 189.866 0 0 0
2 4717.94 2.415 2056.9 0 0 0
2 4078.05 5000 1919.11 0 0 0
2 942.057 110.532 2863.81 0 0 0
2 3986.72 0 423.872 0 0 0
2 1474.68 4.571 132.561 0 0 0
2 4713.31 0 198.842 0 0 0
2 88.418 1890.49 2310.61 0 0 0
2 1738.63 1158.28 5000 0 0 0
2 4787.41 37.247 3230.81 0 0 0
2 0 1427.41 4066.39 0 0 0
2 129.115 4913.96 71.674 0 0 0
2 0 2382.88 1854.27 0 0 0
2 106.064 16.069 1309.06 0 0 0
2 1158.96 25.908 2012.35 0 0 0
2 0 3826.54 1550.67 0 0 0
2 1931.84 0 1789.95 0 0 0
2 951.397 1475.31 1371.36 0 0 0
2 239.937 1916.83 1.109 0 0 0
2 1184.79 844.748 578.544 0 0 0
2 1444.77 623.799 148.297 0 0 0
2 1116.44 373.061 113.28 0 0 0
2 807.841 895.808 2114.73 0 0 0
2 0 1069.86 1552.55 0 0 0
2 0.851 1940.19 2096.44 0 0 0
2 37.367 2061.52 269.445 0 0 0
2 279.118 1849.5 451.861 0 0 0
2 3633.93 778.59 1991.34 0 0 0
2 269.553 1257.43 34.703 0 0 0
2 5.289 905.76 1638.11 0 0 0
2 4657.7 4183.06 5000 0 0 0
2 56.296 2139.1 481.772 0 0 0
2 2029.26 151.262 842.682 0 0 0
2 0 2297.81 215.237 0 0 0
2 1972.04 942.144 3107.89 0 0 0
2 3000.69 142.886 4.46 0 0 0
2 1247.37 2261.39 133.906 0 0 0
2 472.696 3073.69 0 0 0 0
2 3622.42 2198.86 4230.5 0 0 0
2 1497.23 2540.76 2553.89 0 0 0
2 210.459 2614.98 1588.07 0 0 0
2 1769.36 1477.47 16.05 0 0 0
2 2182.87 1748.84 244.385 0 0 0
2 908.833 456.993 1842.1 0 0 0
2 343.459 1431.78 169.666 0 0 0
2 305.056 2530.31 808.183 0 0 0
2 1113.59 1002.88 402.096 0 0 0
2 3865.53 0 1480.01 0 0 0
2 1894.05 1222.09 2841.3 0 0 0
2 1762.11 1463.33 2469.54 0 0 0
2 1688.1 1782.2 0 0 0 0
2 2645.2 298.343 1499.91 0 0 0
2 197.1 509.053 2215.15 0 0 0
2 1951.16 1881.38 910.487 0 0 0
2 195.449 2691.12 633.465 0 0 0
2 7.695 1630.79 1710.12 0 0 0
2 2412.18 1820.34 1403.41 0 0 0
2 893.229 732.196 1508.97 0 0 0
2 121.846 1610.07 733.057 0 0 0
2 2370.41 212.812 22.532 0 0 0
2 62.981 69.299 3211.59 0 0 0
2 1001.74 1294.03 1690.15 0 0 0
2 2167.41 0 616.959 0 0 0
2 10.148 556.986 688.169 0 0 0
2 1553.59 502.919 2496.19 0 0 0
2 1134.26 2513.97 0 0 0 0
2 3681.99 2741.22 5000 0 0 0
2 1138.66 687.614 174.628 0 0 0
2 669.635 475.324 1084.74 0 0 0
2 997.699 2521.43 1286.36 0 0 0
2 1013.91 1930.73 2102.58 0 0 0
2 3792.37 1542.89 2029.68 0 0 0
2 4977.85 4969.15 384.713 0 0 0
2 88.494 3388.51 4999.77 0 0 0
2 2242.55 2818.82 201.605 0 0 0
2 2230.02 2304.53 1214.28 0 0 0
2 239.871 4958.91 4927.99 0 0 0
2 8.486 1118.86 2066.69 0 0 0
2 806.296 3693.86 2550.68 0 0 0
2 1028.3 1052.19 2192.29 0 0 0
2 420.362 883.281 0 0 0 0
2 1374.22 143.629 704.693 0 0 0
2 2788.73 2166.2 3488.43 0 0 0
2 1231.54 626.382 1721.9 0 0 0
2 2684.02 130.019 3458.92 0 0 0
2 1039.37 2054.37 211.832 0 0 0
2 1693.43 965.471 4823.35 0 0 0
2 277.84 1647.13 538.335 0 0 0
2 299.703 2429.86 2294.45 0 0 0
2 2012.78 506.622 355.645 0 0 0
2 823.577 939.332 1500.66 0 0 0
2 2721.16 20.887 1049.12 0 0 0
2 990.109 985.219 2643.26 0 0 0
2 63.918 2307.67 2185.36 0 0 0
2 3103.61 370.612 2775.27 0 0 0
2 41.17 1978.47 3117.56 0 0 0
2 678.964 3160.12 1804.17 0 0 0
2 2658.05 3669.63 3764.37 0 0 0
2 4896.15 2787.43 2449.3 0 0 0
2 1697.85 0 897.277 0 0 0
2 0 2890.33 2526.46 0 0 0
2 3376.24 55.978 1326.61 0 0 0
2 253.868 1690.8 1707.79 0 0 0
2 71.101 2052.54 1109.51 0 0 0
2 1317.68 1711.67 1569.33 0 0 0
2 0 2777 1199.61 0 0 0
2 1276.94 1365.59 568.317 0 0 0
2 2871.01 3089.93 1561.93 0 0 0
2 677.081 373.625 1555.51 0 0 0
2 279.074 534.171 930.379 0 0 0
2 2513.53 142.099 255.976 0 0 0
2 694.606 1718.56 59.124 0 0 0
2 0 1492.61 1172.04 0 0 0
2 619.493 1960.74 1476.67 0 0 0
2 2151.35 1143.02 1284.7 0 0 0
2 1081.29 1101.11 572.351 0 0 0
2 1094.22 1717.56 178.635 0 0 0
2 2460.72 245.828 535.633 0 0 0
2 2753.87 663.926 0 0 0 0
2 264.451 4436.29 1668.07 0 0 0
2 965.837 384.153 372.666 0 0 0
2 449.717 1199.59 162.52 0 0 0
2 1510.1 178.323 559.744 0 0 0
2 1518.09 1008.5 965.167 0 0 0
2 1273.57 96.069 1110.83 0 0 0
2 938.393 36.208 1708.95 0 0 0
2 7.785 358.866 1258.41 0 0 0
2 5000 3554.88 5000 0 0 0
2 0 798.287 2937.07 0 0 0
2 656.612 2433.91 98.004 0 0 0
2 269.119 0 1908.46 0 0 0
2 1282.18 1722.69 345.299 0 0 0
2 11.475 54.816 1790.31 0 0 0
2 169.723 2997.57 3327.82 0 0 0
2 4134.98 0 180.715 0 0 0
2 1052.94 1121.63 3488 0 0 0
2 3529.42 42.786 557.205 0 0 0
2 1983.57 162.493 4934.11 0 0 0
2 806.17 1163 894.185 0 0 0
2 541.663 2277.95 0 0 0 0
2 1323.44 1762.95 0 0 0 0
2 780.542 1547.8 120.052 0 0 0
2 1345.89 391.162 1621.92 0 0 0
2 2877.97 358.457 0 0 0 0
2 473.045 1119.58 14.343 0 0 0
2 599.478 274.17 784.669 0 0 0
2 1113.78 31.039 101.615 0 0 0
2 4854.18 2813.31 4949.64 0 0 0
2 5000 487.803 3772.06 0 0 0
2 4019.49 1390.01 1486 0 0 0
2 7.536 1626.6 1023.68 0 0 0
2 1373.08 0 3593.89 0 0 0
2 8.519 572.7 3236.04 0 0 0
2 658.759 84.866 751.07 0 0 0
2 143.718 3087.16 0.175 0 0 0
2 2414.59 1540.57 1974.32 0 0 0
2 1491.57 591.82 1056.05 0 0 0
2 1.15 133.872 2473.11 0 0 0
2 3932.59 93.823 21.629 0 0 0
2 709.675 1302.33 2329.88 0 0 0
2 1325.27 702.744 3299.66 0 0 0
2 2707.41 1350.16 2559.69 0 0 0
2 2314.4 496.202 448.516 0 0 0
2 275.063 1002.21 1709.94 0 0 0
2 819.247 408.488 2846.53 0 0 0
2 167.882 330.046 172.824 0 0 0
2 1854.67 133.759 2049.58 0 0 0
2 910.494 0 1992.23 0 0 0
2 3246.2 1186.1 4996.86 0 0 0
2 954.182 1527.71 2687.12 0 0 0
2 664.569 3529.43 161.9 0 0 0
2 4991.87 1062.61 4984.56 0 0 0
2 619.725 1078.81 1592.64 0 0 0
2 2832.6 382.496 419.781 0 0 0
2 1634.44 2089.53 1453.3 0 0 0
2 188.749 746.674 508.45 0 0 0
2 3548.44 2063.24 734.201 0 0 0
2 1111.86 2035.09 1784.8 0 0 0
2 798.231 2794.11 1158.62 0 0 0
2 2320.41 1572.97 43.583 0 0 0
2 4189.94 3387.85 0 0 0 0
2 1258.89 561.689 1025.88 0 0 0
2 1545.19 595.311 1748.48 0 0 0
2 700.058 1673.73 4642.38 0 0 0
2 2734.31 1585.21 532.876 0 0 0
2 2680.05 2989.56 1474.24 0 0 0
2 978.163 1694.91 2603.02 0 0 0
2 2569.01 1654.98 906.819 0 0 0
2 2115.38 191.073 494.558 0 0 0
2 1426.21 585.16 853.595 0 0 0
2 1149.44 982.599 0 0 0 0
2 144.321 2068.01 52.265 0 0 0
2 3967.5 3928.12 2051.51 0 0 0
2 4707.8 4553.76 1497.86 0 0 0
2 1301.37 2700.52 1533.73 0 0 0
2 481.065 596.531 430.07 0 0 0
2 1872.58 681.385 1070.99 0 0 0
2 1343.48 28.747 553.384 0 0 0
2 1662.62 4.491 405.697 0 0 0
2 1679.95 48.884 1906 0 0 0
2 4911.34 40.18 4036.95 0 0 0
2 1146.15 1947.79 0 0 0 0
2 122.549 216.444 4930.65 0 0 0
2 937.992 2154.13 3515.54 0 0 0
2 489.407 1269.9 3108.5 0 0 0
2 1582.04 1971.23 324.842 0 0 0
2 3450.53 511.09 384.985 0 0 0
2 0 926.629 1985.67 0 0 0
2 1180.06 1448.87 188.277 0 0 0
2 1067.28 2187.35 1059.01 0 0 0
2 598.938 2091.91 0 0 0 0
2 1100.2 725.77 1971.86 0 0 0
2 1749.42 5000 280.33 0 0 0
2 1343.31 407.887 715.629 0 0 0
2 1866.5 910.332 14.396 0 0 0
2 0 3903.45 2502.05 0 0 0
2 1753.01 1452.09 2661.07 0 0 0
2 4962.47 3356.67 4965.98 0 0 0
2 785.439 2263.45 1873.38 0 0 0
2 1952.61 2871.79 314.025 0 0 0
2 446.503 32.313 1180.33 0 0 0
2 1590.05 2919.86 1323.79 0 0 0
2 2593.63 162.035 0 0 0 0
2 898.777 1895.92 225.972 0 0 0
2 1845.93 1185.77 696.797 0 0 0
2 2627.43 1418.06 519.938 0 0 0
2 0 545.64 1791.54 0 0 0
2 1239.14 150.053 26.168 0 0 0
2 308.044 1152.56 2325.68 0 0 0
2 694.372 1889.68 1095.63 0 0 0
2 1506.94 1695.07 1.05 0 0 0
2 1925.32 0 2683.85 0 0 0
2 2860.74 195.302 1921.1 0 0 0
2 2725.35 1088.6 593.387 0 0 0
2 482.052 2669.88 694.515 0 0 0
2 518.911 1905.14 0.376 0 0 0
2 47.757 2902.46 4958.88 0 0 0
2 7.353 1697.74 3199.56 0 0 0
2 1589.11 520.929 67.17 0 0 0
2 0.787 2951.11 1367.26 0 0 0
2 2294.4 359.364 184.063 0 0 0
2 121.369 2154.75 1304.56 0 0 0
2 946.963 457.624 2980.73 0 0 0
2 1480.72 1408.53 1555.9 0 0 0
2 2257.54 708.955 530.296 0 0 0
2 252.663 147.106 1461.69 0 0 0
2 1326.45 3234.22 2280.42 0 0 0
2 2707.03 1814.64 2931.73 0 0 0
2 153.118 0 2873.61 0 0 0
2 2793.23 1424.86 378.366 0 0 0
2 3526.08 1995.03 1219.17 0 0 0
2 1665.46 1212.9 3028.94 0 0 0
2 1080.09 613.988 910.535 0 0 0
2 2325.28 632.659 0 0 0 0
2 1163.97 2285.62 3329.51 0 0 0
2 765.317 134.81 384.234 0 0 0
2 1472.07 1102.15 1604.24 0 0 0
2 493.302 1173.92 465.211 0 0 0
2 885.411 742.614 359.993 0 0 0
2 1535.64 16.242 1299.59 0 0 0
2 5000 3746.1 1753.06 0 0 0
2 720.994 130.215 1301.68 0 0 0
2 0 1573.24 847.518 0 0 0
2 390.103 268.957 2678.05 0 0 0
2 0 586.59 4156.71 0 0 0
2 423.895 4783.21 1457.05 0 0 0
2 1327.77 1030.84 315.05 0 0 0
2 293.062 0 2423.65 0 0 0
2 1482.63 4032 0 0 0 0
2 580.522 652.204 1858.84 0 0 0
2 4999.98 4999.98 4798.35 0 0 0
2 2575.3 0 2227.26 0 0 0
2 1250.08 1950.28 287.77 0 0 0
2 0 432.145 245.133 0 0 0
2 1748.95 329.291 260.917 0 0 0
2 238.63 1240.07 841.208 0 0 0
2 610.424 2146.39 335.31 0 0 0
2 1836.32 887.565 1726.85 0 0 0
2 33.847 894.668 2257.75 0 0 0
2 600.66 1495.12 2131.97 0 0 0
2 116.725 192.468 1173.89 0 0 0
2 56.929 103.731 4384.23 0 0 0
2 278.901 3401.95 189.774 0 0 0
2 272.896 0 1342.89 0 0 0
2 2749.31 880.108 3464.26 0 0 0
2 2596.72 536.364 1250.13 0 0 0
2 896.631 83.757 1221.45 0 0 0
2 5000 4654.09 2189.93 0 0 0
2 67.218 438.435 2037.19 0 0 0
2 2340.03 63.02 1121.15 0 0 0
2 863.555 1543.83 3421.87 0 0 0
2 4865.77 4969.14 1674 0 0 0
2 986.048 782.121 2562.09 0 0 0
2 618.721 2092.04 542.854 0 0 0
2 2867.04 2713.81 1770.66 0 0 0
2 1344.5 113.141 1321.76 0 0 0
2 2956.39 3970.44 870.754 0 0 0
2 1090.95 3865 0 0 0 0
2 873.606 1520.95 3166.26 0 0 0
2 1271.96 250.651 1905.18 0 0 0
2 3119 2893.07 5000 0 0 0
2 2558.94 1388.09 9.009 0 0 0
2 942.338 1039.3 0 0 0 0
2 4800.04 5000 4753.95 0 0 0
2 281.012 3430.39 1614.4 0 0 0
2 2911.98 798.759 1628.18 0 0 0
2 4257.86 2418.48 1365.4 0 0 0
2 1452.85 1099.49 1141.65 0 0 0
2 2802.94 3265.59 1715.31 0 0 0
2 1195.88 1849.62 2063.32 0 0 0
2 1623.23 6.044 680.614 0 0 0
2 776.309 0 2537.35 0 0 0
2 292.386 1382.23 566.895 0 0 0
2 725.878 451.275 1718.74 0 0 0
2 2075.31 27.654 1045.51 0 0 0
2 0 1157.17 2529.99 0 0 0
2 1127.06 1064.77 1023.36 0 0 0
2 3121.31 489.621 2247.79 0 0 0
2 1611.37 2165.12 176.132 0 0 0
2 2059.01 311.949 0 0 0 0
2 2265.83 1754.7 6.121 0 0 0
2 2343.7 4179.1 1091.61 0 0 0
2 1492.49 1281.51 109.663 0 0 0
2 2778.27 2597.24 2250.38 0 0 0
2 1838.2 132.471 1391.9 0 0 0
2 2082.24 1190.37 1462.86 0 0 0
2 118.476 1667.15 138.69 0 0 0
2 1429.73 343.099 1211 0 0 0
2 326.247 3393.31 410.526 0 0 0
2 657.379 1242.23 93.566 0 0 0
2 763.513 323.445 698.835 0 0 0
2 2584.25 821.478 0 0 0 0
2 1374.41 0.926 842.805 0 0 0
2 768.767 1114.41 324.45 0 0 0
2 402.758 2993.2 4819.87 0 0 0
2 3407.7 42.786 1521.57 0 0 0
2 1068.39 2960.84 2790.45 0 0 0
2 3207.59 917.226 2.308 0 0 0
2 0 664.181 1946.97 0 0 0
2 3125.89 3356.73 3005.7 0 0 0
2 1554.1 2306.53 2499.65 0 0 0
2 2835.61 2595.39 0.891 0 0 0
2 2848.5 1558.21 0 0 0 0
2 490.357 610.181 2125.65 0 0 0
2 2244.99 705.589 2041.57 0 0 0
2 44.448 1128.99 1854.21 0 0 0
2 3789.92 1157.14 2717.81 0 0 0
2 1334.61 2678.69 2920 0 0 0
2 4298.14 2587.3 638.327 0 0 0
2 2280.05 4191.63 1541.23 0 0 0
2 3301.6 1670.04 1338.85 0 0 0
2 1635.45 1583.59 0 0 0 0
2 3588.6 823.705 0 0 0 0
2 1848.77 698.93 689.395 0 0 0
2 2811.75 5000 2708.72 0 0 0
2 3650.88 1954.98 0 0 0 0
2 1.165 2031.56 1823.8 0 0 0
2 0 2648.79 1846.03 0 0 0
2 1300.87 1789.27 2211.29 0 0 0
2 1854.69 82.248 1072.4 0 0 0
2 1143.67 952.795 198.806 0 0 0
2 2226.35 2.638 881.496 0 0 0
2 3302.42 746.298 0 0 0 0
2 2034.06 705.151 185.175 0 0 0
2 3806.62 1419.4 2954.4 0 0 0
2 3910.32 2780.74 376.872 0 0 0
2 2312.58 1284.28 0.841 0 0 0
2 1318.85 2156.49 448.399 0 0 0
2 43.861 38.441 2615 0 0 0
2 2260.27 872.561 4201.98 0 0 0
2 941.962 78.771 2230.68 0 0 0
2 0 914.145 3853.31 0 0 0
2 0 1794.42 3038.15 0 0 0
2 436.676 2013.2 320.534 0 0 0
2 21.843 1372.95 1548.51 0 0 0
2 835.679 3939.13 477.87 0 0 0
2 1753.27 1247.03 127.367 0 0 0
2 383.507 0 2063.26 0 0 0
2 1968.06 920.767 784.073 0 0 0
2 41.128 3233.23 19.251 0 0 0
2 1448.47 115.175 275.171 0 0 0
2 2518.88 1647.13 214.526 0 0 0
2 408.277 337.736 1011.7 0 0 0
2 919.856 3318.45 912.688 0 0 0
2 30.622 2263.43 1094.87 0 0 0
2 2989.89 4114.66 1365.47 0 0 0
2 3087.99 5000 861.132 0 0 0
2 1659.7 57.493 1705.92 0 0 0
2 415.802 84.383 611.012 0 0 0
2 632.148 50.819 319.537 0 0 0
2 2449.18 4447.77 3852.65 0 0 0
2 8.381 1595.71 2367.59 0 0 0
2 263.167 811.127 1429.6 0 0 0
2 2634.09 1211.36 718.107 0 0 0
2 883.294 2925.07 727.329 0 0 0
2 2003.71 1253.12 2148.72 0 0 0
2 2526.18 1602.23 2139.15 0 0 0
2 648.125 1224.27 1265.55 0 0 0
2 2533.99 4541.81 0 0 0 0
2 2602.67 2090.97 25.841 0 0 0
2 1035.49 1855.86 1665.11 0 0 0
2 699.521 2676.85 359.059 0 0 0
2 618.839 1850.37 654.098 0 0 0
2 210.679 236.699 2918.2 0 0 0
2 109.988 408.394 2523.11 0 0 0
2 59.261 1804.73 1548.49 0 0 0
2 2006.81 2574 2482.94 0 0 0
2 31.097 2517.14 955.977 0 0 0
2 3394.38 0 833.785 0 0 0
2 2148.06 4700.16 2142.69 0 0 0
2 2343.13 1947.2 1277.87 0 0 0
2 2119.09 0 313.089 0 0 0
2 78.903 1062.9 3487.23 0 0 0
2 2.728 601.113 1500.45 0 0 0
2 2282.45 1799.46 2281.43 0 0 0
2 3106.23 4228.46 4479.43 0 0 0
2 879.368 1307.62 93.268 0 0 0
2 2865.6 0 928.868 0 0 0
2 3571.57 2570.56 1262.84 0 0 0
2 870.172 1066.24 1925.21 0 0 0
2 4176.38 3336.65 5000 0 0 0
2 2488.26 2852.57 3246.35 0 0 0
2 143.364 1279.44 155.964 0 0 0
2 2082.42 26.857 126.316 0 0 0
2 277.821 85.114 745.003 0 0 0
2 1136.28 0 2533.67 0 0 0
2 2186.68 621.221 302.959 0 0 0
2 1768.08 1601.08 824.416 0 0 0
2 13.991 1800.81 1069.01 0 0 0
2 210.176 0 1566.75 0 0 0
2 1436.62 7.07 4428.28 0 0 0
2 2790.57 2188.17 1612.9 0 0 0
2 752.44 1634.95 1917.65 0 0 0
2 227.015 1822.61 936.43 0 0 0
2 159.453 1497.61 1680.58 0 0 0
2 236.03 1639.17 1546.02 0 0 0
2 3907.38 1681.16 4553.89 0 0 0
2 1601.15 974.797 0 0 0 0
2 1830.3 1607.85 1478.23 0 0 0
2 1067.86 946.447 1641.95 0 0 0
2 1421.37 596.694 1449.49 0 0 0
2 3232.74 1769.22 495.939 0 0 0
2 259.048 905.719 1113.88 0 0 0
2 1238.97 729.342 345.313 0 0 0
2 80.882 1714.19 594.945 0 0 0
2 1298.31 943.646 1419.65 0 0 0
2 11.438 1897.19 2495.46 0 0 0
2 2848.35 3453.08 808.006 0 0 0
2 0 36.917 3007.59 0 0 0
2 1456.88 1396.67 2623.78 0 0 0
2 981.671 13.652 596.057 0 0 0
2 1634.03 2715.72 2315.13 0 0 0
2 1150.03 3076.08 4476.6 0 0 0
2 63.592 1245.06 1185.51 0 0 0
2 0 3955.11 414.401 0 0 0
2 2457.41 440.365 605.862 0 0 0
2 1943.1 121.306 301.547 0 0 0
2 1.442 454.278 2351.15 0 0 0
2 955.644 0 2461.37 0 0 0
2 438.012 414.886 1868.98 0 0 0
2 141.927 2511.11 0 0 0 0
2 2839.65 604.789 1133.8 0 0 0
2 2687.86 936.77 3195.33 0 0 0
2 1425.08 2066.53 1613.39 0 0 0
2 1310.2 3651.31 3536.08 0 0 0
2 159.588 2913.98 1036.94 0 0 0
2 2363.78 1482.93 680.815 0 0 0
2 0 776.163 3706.41 0 0 0
2 3084.39 4380.87 2750.32 0 0 0
2 0 1322.81 1831.23 0 0 0
2 1547.38 158.737 1410.37 0 0 0
2 481.273 2647.85 66.074 0 0 0
2 2551.85 2113.17 1205.22 0 0 0
2 339.18 1556.42 1301.07 0 0 0
2 0 2304.9 2678.93 0 0 0
2 2484.03 5000 2122.2 0 0 0
2 243.741 2018.85 793.863 0 0 0
2 470.161 3089.77 1645.58 0 0 0
2 1566.2 1706.12 3474.41 0 0 0
2 4799.21 110.386 724.724 0 0 0
2 0 2399.19 724.739 0 0 0
2 3637.61 428.763 2610.47 0 0 0
2 0 250.843 2672.3 0 0 0
2 273.756 244.777 47.605 0 0 0
2 133.429 3389.04 438.254 0 0 0
2 2526.95 1052.24 0 0 0 0
2 4607.21 556.52 3281.17 0 0 0
2 1200.52 2502.71 282.05 0 0 0
2 488.942 3213.69 317.291 0 0 0
2 1344.83 1044.12 4.517 0 0 0
2 4630.57 2985.74 5000 0 0 0
2 0 1946.24 874.315 0 0 0
2 2775.73 3890.38 0 0 0 0
2 2139.14 3860.15 85.774 0 0 0
2 128.496 2182.69 1563.22 0 0 0
2 1421.25 2000.52 52.713 0 0 0
2 3186.69 2329.62 2798.86 0 0 0
2 3408.36 244.163 188.047 0 0 0
2 1419.95 329.765 1997.07 0 0 0
2 3085.42 0 1676.45 0 0 0
2 2785.69 23.345 1685.62 0 0 0
2 1149.03 3184.65 110.808 0 0 0
2 1501.84 64.703 4593.69 0 0 0
2 514.481 1842.07 876.501 0 0 0
2 2022.58 468.497 1161.51 0 0 0
2 667.608 2679.36 1245.06 0 0 0
2 1207.99 1238.78 808.228 0 0 0
2 1551.55 1811.91 151.336 0 0 0
2 1287.33 1393.7 0 0 0 0
2 3575.46 577.786 6.861 0 0 0
2 153.026 2783.18 2326.82 0 0 0
2 309.662 362.169 2288.47 0 0 0
2 1970.01 0 3772.6 0 0 0
2 3694.82 965.993 165.541 0 0 0
2 3487.74 4266.27 2166.99 0 0 0
2 266.713 3521.86 808.806 0 0 0
2 1043.17 3504.38 1060.95 0 0 0
2 401.595 420.126 9.956 0 0 0
2 1460.46 890.972 3329.76 0 0 0
2 2660.76 1395.03 2854.18 0 0 0
2 528.64 2260.07 851.8 0 0 0
2 47.347 340.423 654.078 0 0 0
2 1142.78 2207.42 3065.87 0 0 0
2 4114.69 0 1862.11 0 0 0
2 1369.37 0 374.964 0 0 0
2 150.996 279.17 353.707 0 0 0
2 100.029 118.412 3529.72 0 0 0
2 1487.2 436.789 1370.51 0 0 0
2 2876.82 2678.48 1023.89 0 0 0
2 35.039 549.739 1224.08 0 0 0
2 1459.7 995.871 512.516 0 0 0
2 430.062 2451.79 37.306 0 0 0
2 0 1295.82 627.361 0 0 0
2 3018.11 1682.02 0 0 0 0
2 845.374 1606.77 2202.84 0 0 0
2 1740.13 348.2 3145.68 0 0 0
2 1430.28 2343.27 0 0 0 0
2 574.397 3273.75 0 0 0 0
2 1965.73 54.849 1222.18 0 0 0
2 1674.84 934.308 211.185 0 0 0
2 1501.24 259.211 4355.58 0 0 0
2 281.438 4653.83 2629.51 0 0 0
2 2612 2048.88 4528.8 0 0 0
2 5000 1937.48 1978.54 0 0 0
2 22.12 1349.12 852.65 0 0 0
2 1129.59 1763.93 11.606 0 0 0
2 2527.54 113.907 893.265 0 0 0
2 2060.03 2380.48 3.264 0 0 0
2 22.756 1806.88 1242.51 0 0 0
2 1045.02 0 1241.21 0 0 0
2 3209.38 17.387 693.223 0 0 0
2 1578.78 1424.54 217.151 0 0 0
2 1463.51 406.512 377.424 0 0 0
2 2544.11 3194.2 5.144 0 0 0
2 2403.16 466.878 2352.19 0 0 0
2 1174.43 2178.31 818.522 0 0 0
2 0 1473.97 354.798 0 0 0
2 2496.31 2457.78 1300.57 0 0 0
2 4992.43 1285.35 3440.75 0 0 0
2 2332.33 2474.4 2172.53 0 0 0
2 3803.2 4324.96 2348.06 0 0 0
2 3697.8 1517.21 2292.19 0 0 0
2 3362.41 4999.99 0.004 0 0 0
2 418.942 4999.99 3627.28 0 0 0
2 1995.43 0.275 4983.56 0 0 0
2 3893.57 625.231 3131.38 0 0 0
2 1514.59 4067.96 4091.42 0 0 0