LAMMPS (23 Jun 2022 - Update 1)
OMP_NUM_THREADS environment is not set. Defaulting to 1 thread. (src/comm.cpp:98)
  using 1 OpenMP thread(s) per MPI task

# Init #
dimension   3
boundary    p p p
units       real
atom_style  atomic

# Atom Definition #
read_data ${input_data}
read_data ./pgnpmf/82/dat82.dat
Reading data file ...
  orthogonal box = (-100 -100 -100) to (4100 4100 4100)
  1 by 1 by 1 MPI processor grid
  reading atoms ...
  1000 atoms
  read_data CPU = 0.014 seconds

# Settings #
pair_style table spline 9941

pair_coeff 1 1 ./pgnpmf/N20.txt DE_GNP 75.6
pair_coeff 2 2 ./pgnpmf/N100.txt DE_GNP 115.92
WARNING: 3 of 9941 force values in table DE_GNP are inconsistent with -dE/dr.
WARNING:  Should only be flagged at inflection points (src/pair_table.cpp:463)
pair_coeff 1 2 ./pgnpmf/mixed_potential.txt DE_GNP 95.66
WARNING: 1562 of 9941 force values in table DE_GNP are inconsistent with -dE/dr.
WARNING:  Should only be flagged at inflection points (src/pair_table.cpp:463)

# Neighbor list calc frequency #
neigh_modify delay 0 every 1 check yes

# Saving frequency #
variable ts_save equal floor(${steps_gen}*0.01)
variable ts_save equal floor(5000*0.01)

# Dump #
dump 1 all custom 5000 ./pgnpmf/${folder}/generation/trajectory/trajectory_${usic}_${trial}.gen.custom type x y z ix iy iz
dump 1 all custom 5000 ./pgnpmf/82/generation/trajectory/trajectory_${usic}_${trial}.gen.custom type x y z ix iy iz
dump 1 all custom 5000 ./pgnpmf/82/generation/trajectory/trajectory_1_${trial}.gen.custom type x y z ix iy iz
dump 1 all custom 5000 ./pgnpmf/82/generation/trajectory/trajectory_1_1.gen.custom type x y z ix iy iz
dump_modify 1 first no sort id
dump 2 all cfg 5000 ./pgnpmf/${folder}/generation/trajectory/dumpgen.tens_*.cfg mass type xs ys zs fx fy fz
dump 2 all cfg 5000 ./pgnpmf/82/generation/trajectory/dumpgen.tens_*.cfg mass type xs ys zs fx fy fz
dump_modify 2 element N20 N100

# Fix #
fix 1 all momentum 1000 linear 1 1 1 angular

variable T equal ${Temp}
variable T equal 300

# Velocity #
velocity all create ${T} ${Vseed} mom yes rot yes dist gaussian
velocity all create 300 ${Vseed} mom yes rot yes dist gaussian
velocity all create 300 57138 mom yes rot yes dist gaussian

fix 2 all nvt temp ${T} 370000 100.0 #iso 1.0 1.0 1000.0
fix 2 all nvt temp 300 370000 100.0 
run ${steps_gen}
run 5000
Generated 0 of 1 mixed pair_coeff terms from geometric mixing rule
Neighbor list info ...
  update every 1 steps, delay 0 steps, check yes
  max neighbors/atom: 2000, page size: 100000
  master list distance cutoff = 117.92
  ghost atom cutoff = 117.92
  binsize = 58.96, bins = 72 72 72
  1 neighbor lists, perpetual/occasional/extra = 1 0 0
  (1) pair table, perpetual
      attributes: half, newton on
      pair build: half/bin/atomonly/newton
      stencil: half/bin/3d
      bin: standard
Per MPI rank memory allocation (min/avg/max) = 7.485 | 7.485 | 7.485 Mbytes
   Step          Temp          E_pair         E_mol          TotEng         Press     
         0   300            0              0              893.34877      0.00055119596
      5000   357461.68      0              0              1064459.8      0.65677144   
Loop time of 0.115673 on 1 procs for 5000 steps with 1000 atoms

Performance: 3734.674 ns/day, 0.006 hours/ns, 43225.389 timesteps/s
99.4% CPU use with 1 MPI tasks x 1 OpenMP threads

MPI task timing breakdown:
Section |  min time  |  avg time  |  max time  |%varavg| %total
---------------------------------------------------------------
Pair    | 0.014654   | 0.014654   | 0.014654   |   0.0 | 12.67
Neigh   | 0.0063069  | 0.0063069  | 0.0063069  |   0.0 |  5.45
Comm    | 0.0052848  | 0.0052848  | 0.0052848  |   0.0 |  4.57
Output  | 0.0043148  | 0.0043148  | 0.0043148  |   0.0 |  3.73
Modify  | 0.071179   | 0.071179   | 0.071179   |   0.0 | 61.53
Other   |            | 0.01393    |            |       | 12.05

Nlocal:           1000 ave        1000 max        1000 min
Histogram: 1 0 0 0 0 0 0 0 0 0
Nghost:             72 ave          72 max          72 min
Histogram: 1 0 0 0 0 0 0 0 0 0
Neighs:              0 ave           0 max           0 min
Histogram: 1 0 0 0 0 0 0 0 0 0

Total # of neighbors = 0
Ave neighs/atom = 0
Neighbor list builds = 13
Dangerous builds = 0

fix 3 all nvt temp 370000 370000 100.0
run 400000
Generated 0 of 1 mixed pair_coeff terms from geometric mixing rule
WARNING: One or more atoms are time integrated more than once (src/modify.cpp:292)
Per MPI rank memory allocation (min/avg/max) = 7.485 | 7.485 | 7.485 Mbytes
   Step          Temp          E_pair         E_mol          TotEng         Press     
      5000   357461.68      0              0              1064459.8      0.65677144   
    405000   360564.44     -72255.47       0              1001443.9      0.65098624   
Loop time of 16.8591 on 1 procs for 400000 steps with 1000 atoms

Performance: 2049.930 ns/day, 0.012 hours/ns, 23726.044 timesteps/s
99.1% CPU use with 1 MPI tasks x 1 OpenMP threads

MPI task timing breakdown:
Section |  min time  |  avg time  |  max time  |%varavg| %total
---------------------------------------------------------------
Pair    | 1.8589     | 1.8589     | 1.8589     |   0.0 | 11.03
Neigh   | 1.5113     | 1.5113     | 1.5113     |   0.0 |  8.96
Comm    | 0.59632    | 0.59632    | 0.59632    |   0.0 |  3.54
Output  | 0.39867    | 0.39867    | 0.39867    |   0.0 |  2.36
Modify  | 11.355     | 11.355     | 11.355     |   0.0 | 67.35
Other   |            | 1.139      |            |       |  6.75

Nlocal:           1000 ave        1000 max        1000 min
Histogram: 1 0 0 0 0 0 0 0 0 0
Nghost:            170 ave         170 max         170 min
Histogram: 1 0 0 0 0 0 0 0 0 0
Neighs:             34 ave          34 max          34 min
Histogram: 1 0 0 0 0 0 0 0 0 0

Total # of neighbors = 34
Ave neighs/atom = 0.034
Neighbor list builds = 3153
Dangerous builds = 0

fix 4 all nvt temp 370000 ${T} 100.0
fix 4 all nvt temp 370000 300 100.0
run ${steps_gen}
run 5000
Generated 0 of 1 mixed pair_coeff terms from geometric mixing rule
WARNING: One or more atoms are time integrated more than once (src/modify.cpp:292)
Per MPI rank memory allocation (min/avg/max) = 7.486 | 7.486 | 7.486 Mbytes
   Step          Temp          E_pair         E_mol          TotEng         Press     
    405000   360564.44     -72255.47       0              1001443.9      0.65098624   
    410000   32833.484     -78683.486      0              19089.022      0.041614935  
Loop time of 0.284971 on 1 procs for 5000 steps with 1000 atoms

Performance: 1515.946 ns/day, 0.016 hours/ns, 17545.668 timesteps/s
99.6% CPU use with 1 MPI tasks x 1 OpenMP threads

MPI task timing breakdown:
Section |  min time  |  avg time  |  max time  |%varavg| %total
---------------------------------------------------------------
Pair    | 0.020849   | 0.020849   | 0.020849   |   0.0 |  7.32
Neigh   | 0.024441   | 0.024441   | 0.024441   |   0.0 |  8.58
Comm    | 0.0080532  | 0.0080532  | 0.0080532  |   0.0 |  2.83
Output  | 0.0042664  | 0.0042664  | 0.0042664  |   0.0 |  1.50
Modify  | 0.21286    | 0.21286    | 0.21286    |   0.0 | 74.69
Other   |            | 0.01451    |            |       |  5.09

Nlocal:           1000 ave        1000 max        1000 min
Histogram: 1 0 0 0 0 0 0 0 0 0
Nghost:            174 ave         174 max         174 min
Histogram: 1 0 0 0 0 0 0 0 0 0
Neighs:             30 ave          30 max          30 min
Histogram: 1 0 0 0 0 0 0 0 0 0

Total # of neighbors = 30
Ave neighs/atom = 0.03
Neighbor list builds = 51
Dangerous builds = 0


# Thermo #
thermo_style custom step temp press pe ke etotal epair lx ly lz xlo xhi ylo yhi zlo zhi vol density dt time

# Run stle #
run_style verlet

# Run #
timestep ${ts}
timestep 1
thermo ${ts_save}
thermo 50
# run ${steps_gen}

# write restart #
write_restart ${write_restart}
write_restart ./pgnpmf/82/genpmf.res
System init for write_restart ...
Generated 0 of 1 mixed pair_coeff terms from geometric mixing rule
WARNING: One or more atoms are time integrated more than once (src/modify.cpp:292)


Total wall time: 0:00:17
