LAMMPS (23 Jun 2022 - Update 1)
# Read restart
read_restart ${read_res}
read_restart ./pgnpmf/82/equpmf62.res
Reading restart file ...
  restart file = 23 Jun 2022, LAMMPS = 23 Jun 2022
  restoring atom style atomic from restart
  orthogonal box = (1716.7575 1716.7575 1716.7575) to (2283.2425 2283.2425 2283.2425)
  1 by 2 by 2 MPI processor grid
  restoring pair style table from restart
  1000 atoms
  read_restart CPU = 0.008 seconds

# Settings

pair_style table spline 9941

pair_coeff 1 1 ./pgnpmf/N20.txt DE_GNP 75.6
pair_coeff 2 2 ./pgnpmf/N100.txt DE_GNP 115.92
WARNING: 3 of 9941 force values in table DE_GNP are inconsistent with -dE/dr.
WARNING:  Should only be flagged at inflection points (../pair_table.cpp:463)
pair_coeff 1 2 ./pgnpmf/mixed_potential.txt DE_GNP 95.66
WARNING: 1562 of 9941 force values in table DE_GNP are inconsistent with -dE/dr.
WARNING:  Should only be flagged at inflection points (../pair_table.cpp:463)

#Neigh_list Calc Frequency

neigh_modify delay 0 every 1 check yes

# Saving Frequency (50 frames)

variable ts_save equal ${steps_equ}
variable ts_save equal 5000

# Dump
#dump 1 all custom ${ts_save} ./pgnpmf/${folder}/equilibration/trajectory/trajectory_${usic}_${trial}.equ.custom type x y z ix iy iz
#dump_modify 1 first no sort id
dump 2 all cfg 50000 ./pgnpmf/${folder}/equilibration/trajectory/dumpgen.tens_*.cfg mass type xs ys zs fx fy fz
dump 2 all cfg 50000 ./pgnpmf/82/equilibration/trajectory/dumpgen.tens_*.cfg mass type xs ys zs fx fy fz
dump_modify 2 element N20 N100

# thermo_style
thermo_style custom step temp press pe density ke etotal lx ly lz xlo xhi ylo yhi zlo zhi vol dt time cpu tpcpu spcpu cpuremain

# run info
timestep ${ts}
timestep 0.5
thermo 200

# fix

fix 1 all momentum 1000 linear 1 1 1 angular
variable T equal ${temp}
variable T equal 300
fix 2 all nvt temp ${T} 370000 100.0
fix 2 all nvt temp 300 370000 100.0

run 100000
Generated 0 of 1 mixed pair_coeff terms from geometric mixing rule
Unused restart file global fix info:
  fix style: npt, fix ID: 5
Neighbor list info ...
  update every 1 steps, delay 0 steps, check yes
  max neighbors/atom: 2000, page size: 100000
  master list distance cutoff = 117.92
  ghost atom cutoff = 117.92
  binsize = 58.96, bins = 10 10 10
  1 neighbor lists, perpetual/occasional/extra = 1 0 0
  (1) pair table, perpetual
      attributes: half, newton on
      pair build: half/bin/atomonly/newton
      stencil: half/bin/3d
      bin: standard
Per MPI rank memory allocation (min/avg/max) = 3.092 | 3.093 | 3.095 Mbytes
   Step          Temp          Press          PotEng        Density         KinEng         TotEng           Lx             Ly             Lz            Xlo            Xhi            Ylo            Yhi            Zlo            Zhi           Volume           Dt            Time           CPU           T/CPU          S/CPU         CPULeft    
  43810000   299.25627     -2.0647098     -16177428       2.3922382      891.13408     -16176537       566.48499      566.48499      566.48499      1716.7575      2283.2425      1716.7575      2283.2425      1716.7575      2283.2425      1.81788e+08    0.5            22110000       0              0              0              0            
  43810200   356.20859     -2.0306913     -16177434       2.3922382      1060.7284     -16176373       566.48499      566.48499      566.48499      1716.7575      2283.2425      1716.7575      2283.2425      1716.7575      2283.2425      1.81788e+08    0.5            22110100       0.013361994    7483.5293      14966.185      6.6687513    
  43810400   499.35963     -1.493455      -16177071       2.3922382      1487.0077     -16175584       566.48499      566.48499      566.48499      1716.7575      2283.2425      1716.7575      2283.2425      1716.7575      2283.2425      1.81788e+08    0.5            22110200       0.025658525    8132.5045      16265.133      6.3894374    
  43810600   745.02834     -0.94405753    -16177075       2.3922382      2218.5672     -16174856       566.48499      566.48499      566.48499      1716.7575      2283.2425      1716.7575      2283.2425      1716.7575      2283.2425      1.81788e+08    0.5            22110300       0.037889741    8175.7572      16351.556      6.2773746    
  43810800   1142.1161     -0.14857632    -16177069       2.3922382      3401.0266     -16173668       566.48499      566.48499      566.48499      1716.7575      2283.2425      1716.7575      2283.2425      1716.7575      2283.2425      1.81788e+08    0.5            22110400       0.050111656    8182.058       16363.99       6.214089     
  43811000   1759.242       1.4358431     -16177042       2.3922382      5238.7223     -16171803       566.48499      566.48499      566.48499      1716.7575      2283.2425      1716.7575      2283.2425      1716.7575      2283.2425      1.81788e+08    0.5            22110500       0.06275749     7907.7395      15815.514      6.213183     
  43811200   2672.2526      2.9912447     -16176974       2.3922382      7957.512      -16169016       566.48499      566.48499      566.48499      1716.7575      2283.2425      1716.7575      2283.2425      1716.7575      2283.2425      1.81788e+08    0.5            22110600       0.075189718    8043.6092      16087.279      6.190772     
  43811400   3924.9273      4.1433372     -16177219       2.3922382      11687.763     -16165532       566.48499      566.48499      566.48499      1716.7575      2283.2425      1716.7575      2283.2425      1716.7575      2283.2425      1.81788e+08    0.5            22110700       0.087492531    8128.2343      16256.42       6.16211      
  43811600   5440.3426      6.2912674     -16175119       2.3922382      16200.411     -16158919       566.48499      566.48499      566.48499      1716.7575      2283.2425      1716.7575      2283.2425      1716.7575      2283.2425      1.81788e+08    0.5            22110800       0.099729076    8172.2261      16344.447      6.1334566    
  43811800   6929.6848      9.726431      -16174795       2.3922382      20635.418     -16154160       566.48499      566.48499      566.48499      1716.7575      2283.2425      1716.7575      2283.2425      1716.7575      2283.2425      1.81788e+08    0.5            22110900       0.11196341     8173.7177      16347.457      6.1083295    
  43812000   7968.1822      12.675746     -16176237       2.3922382      23727.886     -16152509       566.48499      566.48499      566.48499      1716.7575      2283.2425      1716.7575      2283.2425      1716.7575      2283.2425      1.81788e+08    0.5            22111000       0.12450465     7973.6226      15947.116      6.1008415    
  43812200   8433.0116      18.7594       -16173765       2.3922382      25112.068     -16148653       566.48499      566.48499      566.48499      1716.7575      2283.2425      1716.7575      2283.2425      1716.7575      2283.2425      1.81788e+08    0.5            22111100       0.13728992     7821.6054      15643.333      6.1032434    
  43812400   8861.5876      22.225789     -16173069       2.3922382      26388.295     -16146681       566.48499      566.48499      566.48499      1716.7575      2283.2425      1716.7575      2283.2425      1716.7575      2283.2425      1.81788e+08    0.5            22111200       0.14958651     8132.3425      16264.735      6.0832573    
  43812600   9730.7324      25.30927      -16174505       2.3922382      28976.46      -16145529       566.48499      566.48499      566.48499      1716.7575      2283.2425      1716.7575      2283.2425      1716.7575      2283.2425      1.81788e+08    0.5            22111300       0.16273612     7604.8033      15209.586      6.0964124    
  43812800   10748.338      28.712086     -16173903       2.3922382      32006.715     -16141897       566.48499      566.48499      566.48499      1716.7575      2283.2425      1716.7575      2283.2425      1716.7575      2283.2425      1.81788e+08    0.5            22111400       0.17522793     8005.2284      16010.485      6.0829749    
  43813000   11476.183      34.645059     -16170881       2.3922382      34174.113     -16136707       566.48499      566.48499      566.48499      1716.7575      2283.2425      1716.7575      2283.2425      1716.7575      2283.2425      1.81788e+08    0.5            22111500       0.18762913     8063.6746      16127.174      6.0667449    
  43813200   12003.591      41.983464     -16168912       2.3922382      35744.644     -16133168       566.48499      566.48499      566.48499      1716.7575      2283.2425      1716.7575      2283.2425      1716.7575      2283.2425      1.81788e+08    0.5            22111600       0.20124534     7344.2442      14688.615      6.0877266    
  43813400   12690.1        48.944951     -16167575       2.3922382      37788.95      -16129787       566.48499      566.48499      566.48499      1716.7575      2283.2425      1716.7575      2283.2425      1716.7575      2283.2425      1.81788e+08    0.5            22111700       0.2135014      8159.2157      16318.425      6.0660034    
  43813600   13585.03       55.476382     -16165012       2.3922382      40453.898     -16124558       566.48499      566.48499      566.48499      1716.7575      2283.2425      1716.7575      2283.2425      1716.7575      2283.2425      1.81788e+08    0.5            22111800       0.22603578     7978.0081      15955.879      6.0527946    
  43813800   14414.409      61.636876     -16170436       2.3922382      42923.648     -16127512       566.48499      566.48499      566.48499      1716.7575      2283.2425      1716.7575      2283.2425      1716.7575      2283.2425      1.81788e+08    0.5            22111900       0.23825326     8185.0549      16370.2        6.0316176    
  43814000   15066.736      68.535888     -16171042       2.3922382      44866.166     -16126176       566.48499      566.48499      566.48499      1716.7575      2283.2425      1716.7575      2283.2425      1716.7575      2283.2425      1.81788e+08    0.5            22112000       0.25048424     8175.9223      16351.79       6.0116706    
  43814200   15706.329      78.093607     -16169310       2.3922382      46770.765     -16122539       566.48499      566.48499      566.48499      1716.7575      2283.2425      1716.7575      2283.2425      1716.7575      2283.2425      1.81788e+08    0.5            22112100       0.2632481      7834.6623      15669.396      6.0046061    
  43814400   16504.042      84.481815     -16166023       2.3922382      49146.218     -16116877       566.48499      566.48499      566.48499      1716.7575      2283.2425      1716.7575      2283.2425      1716.7575      2283.2425      1.81788e+08    0.5            22112200       0.27581533     7957.1264      15914.117      5.992761     
  43814600   17350.383      91.466573     -16164969       2.3922382      51666.478     -16113302       566.48499      566.48499      566.48499      1716.7575      2283.2425      1716.7575      2283.2425      1716.7575      2283.2425      1.81788e+08    0.5            22112300       0.28800468     8203.9307      16407.961      5.9730066    
  43814800   18081.813      100.05541     -16155790       2.3922382      53844.552     -16101945       566.48499      566.48499      566.48499      1716.7575      2283.2425      1716.7575      2283.2425      1716.7575      2283.2425      1.81788e+08    0.5            22112400       0.30021016     8193.0485      16386.084      5.9542065    
  43815000   18737.085      107.41561     -16155535       2.3922382      55795.839     -16099739       566.48499      566.48499      566.48499      1716.7575      2283.2425      1716.7575      2283.2425      1716.7575      2283.2425      1.81788e+08    0.5            22112500       0.31271948     7994.0109      15987.944      5.9417109    
  43815200   19460.74       115.5601      -16149968       2.3922382      57950.762     -16092017       566.48499      566.48499      566.48499      1716.7575      2283.2425      1716.7575      2283.2425      1716.7575      2283.2425      1.81788e+08    0.5            22112600       0.3254756      7839.2207      15678.582      5.9337097    
  43815400   20276.913      125.09908     -16150097       2.3922382      60381.184     -16089715       566.48499      566.48499      566.48499      1716.7575      2283.2425      1716.7575      2283.2425      1716.7575      2283.2425      1.81788e+08    0.5            22112700       0.33771893     8167.9487      16335.968      5.9163656    
  43815600   21068.15       134.67663     -16149542       2.3922382      62737.353     -16086804       566.48499      566.48499      566.48499      1716.7575      2283.2425      1716.7575      2283.2425      1716.7575      2283.2425      1.81788e+08    0.5            22112800       0.35018455     8021.9873      16043.955      5.9031427    
  43815800   21755.825      137.74391     -16155251       2.3922382      64785.131     -16090466       566.48499      566.48499      566.48499      1716.7575      2283.2425      1716.7575      2283.2425      1716.7575      2283.2425      1.81788e+08    0.5            22112900       0.3628294      7908.4299      15816.626      5.8928815    
  43816000   22433.934      146.17529     -16155150       2.3922382      66804.426     -16088345       566.48499      566.48499      566.48499      1716.7575      2283.2425      1716.7575      2283.2425      1716.7575      2283.2425      1.81788e+08    0.5            22113000       0.37505738     8177.882       16355.791      5.8759325    
  43816200   23209.819      152.19764     -16157361       2.3922382      69114.878     -16088246       566.48499      566.48499      566.48499      1716.7575      2283.2425      1716.7575      2283.2425      1716.7575      2283.2425      1.81788e+08    0.5            22113100       0.38864727     7358.4275      14717.027      5.8798861    
  43816400   24014.265      160.3728      -16157701       2.3922382      71510.379     -16086190       566.48499      566.48499      566.48499      1716.7575      2283.2425      1716.7575      2283.2425      1716.7575      2283.2425      1.81788e+08    0.5            22113200       0.40094526     8131.4412      16262.866      5.8638512    
  43816600   24745.551      168.94419     -16147277       2.3922382      73688.025     -16073589       566.48499      566.48499      566.48499      1716.7575      2283.2425      1716.7575      2283.2425      1716.7575      2283.2425      1.81788e+08    0.5            22113300       0.41314197     8198.9417      16397.8        5.8466114    
  43816800   25421.026      172.85747     -16145786       2.3922382      75699.473     -16070086       566.48499      566.48499      566.48499      1716.7575      2283.2425      1716.7575      2283.2425      1716.7575      2283.2425      1.81788e+08    0.5            22113400       0.42562095     8013.4196      16026.933      5.8335368    
  43817000   26147.186      181.47754     -16140522       2.3922382      77861.856     -16062660       566.48499      566.48499      566.48499      1716.7575      2283.2425      1716.7575      2283.2425      1716.7575      2283.2425      1.81788e+08    0.5            22113500       0.43779231     8216.0243      16431.807      5.8164125    
  43817200   26949.137      189.56125     -16138712       2.3922382      80249.927     -16058462       566.48499      566.48499      566.48499      1716.7575      2283.2425      1716.7575      2283.2425      1716.7575      2283.2425      1.81788e+08    0.5            22113600       0.45030556     7991.5635      15983.343      5.8039617    
  43817400   27719.047      198.02386     -16137289       2.3922382      82542.589     -16054746       566.48499      566.48499      566.48499      1716.7575      2283.2425      1716.7575      2283.2425      1716.7575      2283.2425      1.81788e+08    0.5            22113700       0.46327579     7709.9677      15419.96       5.7972315    
  43817600   28405.363      205.56735     -16134345       2.3922382      84586.32      -16049758       566.48499      566.48499      566.48499      1716.7575      2283.2425      1716.7575      2283.2425      1716.7575      2283.2425      1.81788e+08    0.5            22113800       0.47545579     8210.2008      16420.278      5.7805641    
  43817800   29101.151      209.81087     -16134415       2.3922382      86658.258     -16047757       566.48499      566.48499      566.48499      1716.7575      2283.2425      1716.7575      2283.2425      1716.7575      2283.2425      1.81788e+08    0.5            22113900       0.48791926     8023.4226      16046.929      5.7674776    
  43818000   29874.918      217.24248     -16131475       2.3922382      88962.404     -16042512       566.48499      566.48499      566.48499      1716.7575      2283.2425      1716.7575      2283.2425      1716.7575      2283.2425      1.81788e+08    0.5            22114000       0.50020065     8142.365       16284.522      5.7523327    
  43818200   30667.581      227.01413     -16122303       2.3922382      91322.821     -16030980       566.48499      566.48499      566.48499      1716.7575      2283.2425      1716.7575      2283.2425      1716.7575      2283.2425      1.81788e+08    0.5            22114100       0.5128794      7887.2321      15774.662      5.7417685    
  43818400   31391.453      232.56125     -16119345       2.3922382      93478.387     -16025867       566.48499      566.48499      566.48499      1716.7575      2283.2425      1716.7575      2283.2425      1716.7575      2283.2425      1.81788e+08    0.5            22114200       0.52507        8203.0356      16405.986      5.7257844    
  43818600   32078.204      238.61464     -16118659       2.3922382      95523.413     -16023136       566.48499      566.48499      566.48499      1716.7575      2283.2425      1716.7575      2283.2425      1716.7575      2283.2425      1.81788e+08    0.5            22114300       0.53748234     8056.5207      16113.122      5.7123316    
  43818800   32809.15       243.80476     -16116417       2.3922382      97700.046     -16018717       566.48499      566.48499      566.48499      1716.7575      2283.2425      1716.7575      2283.2425      1716.7575      2283.2425      1.81788e+08    0.5            22114400       0.54964693     8220.613       16441.088      5.69636      
  43819000   33602.305      253.82117     -16114169       2.3922382      100061.93     -16014107       566.48499      566.48499      566.48499      1716.7575      2283.2425      1716.7575      2283.2425      1716.7575      2283.2425      1.81788e+08    0.5            22114500       0.56233634     7880.5181      15761.097      5.6858652    
  43819200   34359.517      264.6589      -16113036       2.3922382      102316.78     -16010720       566.48499      566.48499      566.48499      1716.7575      2283.2425      1716.7575      2283.2425      1716.7575      2283.2425      1.81788e+08    0.5            22114600       0.57488715     7967.6583      15935.373      5.6739048    
  43819400   35047.588      274.45003     -16109583       2.3922382      104365.73     -16005218       566.48499      566.48499      566.48499      1716.7575      2283.2425      1716.7575      2283.2425      1716.7575      2283.2425      1.81788e+08    0.5            22114700       0.58705064     8221.3145      16442.575      5.6581873    
  43819600   35751.841      277.90005     -16107597       2.3922382      106462.88     -16001135       566.48499      566.48499      566.48499      1716.7575      2283.2425      1716.7575      2283.2425      1716.7575      2283.2425      1.81788e+08    0.5            22114800       0.59947797     8046.7613      16093.59       5.6451015    
  43819800   36529.22       282.89615     -16103647       2.3922382      108777.78     -15994869       566.48499      566.48499      566.48499      1716.7575      2283.2425      1716.7575      2283.2425      1716.7575      2283.2425      1.81788e+08    0.5            22114900       0.61161837     8236.9867      16473.929      5.629403     
  43820000   37316.37       291.6174      -16093780       2.3922382      111121.78     -15982658       566.48499      566.48499      566.48499      1716.7575      2283.2425      1716.7575      2283.2425      1716.7575      2283.2425      1.81788e+08    0.5            22115000       0.6241014      8010.8319      16021.598      5.6169311    
  43820200   38039.877      298.14962     -16092355       2.3922382      113276.26     -15979079       566.48499      566.48499      566.48499      1716.7575      2283.2425      1716.7575      2283.2425      1716.7575      2283.2425      1.81788e+08    0.5            22115100       0.63749385     7466.9427      14933.958      5.6124622    
  43820400   38732.21       309.34894     -16086732       2.3922382      115337.91     -15971394       566.48499      566.48499      566.48499      1716.7575      2283.2425      1716.7575      2283.2425      1716.7575      2283.2425      1.81788e+08    0.5            22115200       0.64994122     8033.7811      16067.565      5.5995099    
  43820600   39483.773      318.53729     -16084539       2.3922382      117575.93     -15966963       566.48499      566.48499      566.48499      1716.7575      2283.2425      1716.7575      2283.2425      1716.7575      2283.2425      1.81788e+08    0.5            22115300       0.66258905     7906.5309      15813.071      5.5882665    
  43820800   40264.217      324.65546     -16081153       2.3922382      119899.96     -15961253       566.48499      566.48499      566.48499      1716.7575      2283.2425      1716.7575      2283.2425      1716.7575      2283.2425      1.81788e+08    0.5            22115400       0.67503247     8036.3345      16072.641      5.575284     
  43821000   41024.689      330.40329     -16082753       2.3922382      122164.52     -15960589       566.48499      566.48499      566.48499      1716.7575      2283.2425      1716.7575      2283.2425      1716.7575      2283.2425      1.81788e+08    0.5            22115500       0.68715779     8247.2601      16494.456      5.559747     
  43821200   41731.106      342.07864     -16078696       2.3922382      124268.11     -15954428       566.48499      566.48499      566.48499      1716.7575      2283.2425      1716.7575      2283.2425      1716.7575      2283.2425      1.81788e+08    0.5            22115600       0.6996784      7986.8147      15973.742      5.5474647    
  43821400   42443.903      350.64206     -16076929       2.3922382      126390.69     -15950538       566.48499      566.48499      566.48499      1716.7575      2283.2425      1716.7575      2283.2425      1716.7575      2283.2425      1.81788e+08    0.5            22115700       0.71182864     8230.2874      16460.491      5.5322969    
  43821600   43214.817      353.05243     -16075950       2.3922382      128686.34     -15947263       566.48499      566.48499      566.48499      1716.7575      2283.2425      1716.7575      2283.2425      1716.7575      2283.2425      1.81788e+08    0.5            22115800       0.724189       8090.3341      16180.76       5.5188341    
  43821800   43981.705      358.90933     -16073501       2.3922382      130970.01     -15942531       566.48499      566.48499      566.48499      1716.7575      2283.2425      1716.7575      2283.2425      1716.7575      2283.2425      1.81788e+08    0.5            22115900       0.73631115     8249.425       16498.764      5.5036281    
  43822000   44700.156      366.06892     -16072161       2.3922382      133109.43     -15939052       566.48499      566.48499      566.48499      1716.7575      2283.2425      1716.7575      2283.2425      1716.7575      2283.2425      1.81788e+08    0.5            22116000       0.7486066      8133.0204      16265.975      5.4897975    
  43822200   45398.08       372.94164     -16071936       2.3922382      135187.73     -15936749       566.48499      566.48499      566.48499      1716.7575      2283.2425      1716.7575      2283.2425      1716.7575      2283.2425      1.81788e+08    0.5            22116100       0.76123742     7917.2088      15834.567      5.4784265    
  43822400   46144.936      385.93598     -16070490       2.3922382      137411.74     -15933078       566.48499      566.48499      566.48499      1716.7575      2283.2425      1716.7575      2283.2425      1716.7575      2283.2425      1.81788e+08    0.5            22116200       0.77389881     7898.0014      15795.95       5.4672341    
  43822600   46916.568      395.26239     -16059302       2.3922382      139709.53     -15919593       566.48499      566.48499      566.48499      1716.7575      2283.2425      1716.7575      2283.2425      1716.7575      2283.2425      1.81788e+08    0.5            22116300       0.78748602     7359.8188      14719.56       5.462418     
  43822800   47644.802      405.88551     -16055693       2.3922382      141878.08     -15913815       566.48499      566.48499      566.48499      1716.7575      2283.2425      1716.7575      2283.2425      1716.7575      2283.2425      1.81788e+08    0.5            22116400       0.7995132      8314.5833      16629.197      5.4466966    
  43823000   48347.997      414.83562     -16060431       2.3922382      143972.08     -15916459       566.48499      566.48499      566.48499      1716.7575      2283.2425      1716.7575      2283.2425      1716.7575      2283.2425      1.81788e+08    0.5            22116500       0.81181463     8129.0721      16258.089      5.4329277    
  43823200   49081.12       419.26251     -16057942       2.3922382      146155.2      -15911787       566.48499      566.48499      566.48499      1716.7575      2283.2425      1716.7575      2283.2425      1716.7575      2283.2425      1.81788e+08    0.5            22116600       0.82425761     8036.7039      16073.564      5.4201302    
  43823400   49845.207      437.35858     -16054484       2.3922382      148430.51     -15906054       566.48499      566.48499      566.48499      1716.7575      2283.2425      1716.7575      2283.2425      1716.7575      2283.2425      1.81788e+08    0.5            22116700       0.8367732      7990.038       15980.056      5.4078148    
  43823600   50594.638      446.59332     -16053382       2.3922382      150662.19     -15902720       566.48499      566.48499      566.48499      1716.7575      2283.2425      1716.7575      2283.2425      1716.7575      2283.2425      1.81788e+08    0.5            22116800       0.84887029     8266.4317      16532.829      5.3928352    
  43823800   51315.342      461.48249     -16047961       2.3922382      152808.33     -15895153       566.48499      566.48499      566.48499      1716.7575      2283.2425      1716.7575      2283.2425      1716.7575      2283.2425      1.81788e+08    0.5            22116900       0.8611929      8115.21        16230.413      5.3793467    
  43824000   52038.163      476.77554     -16044224       2.3922382      154960.76     -15889264       566.48499      566.48499      566.48499      1716.7575      2283.2425      1716.7575      2283.2425      1716.7575      2283.2425      1.81788e+08    0.5            22117000       0.87393161     7850.0015      15699.992      5.3684499    
  43824200   52785.036      490.01014     -16040312       2.3922382      157184.82     -15883127       566.48499      566.48499      566.48499      1716.7575      2283.2425      1716.7575      2283.2425      1716.7575      2283.2425      1.81788e+08    0.5            22117100       0.88654844     7926.0374      15852.095      5.3567611    
  43824400   53524.53       501.21626     -16036284       2.3922382      159386.91     -15876897       566.48499      566.48499      566.48499      1716.7575      2283.2425      1716.7575      2283.2425      1716.7575      2283.2425      1.81788e+08    0.5            22117200       0.89907428     7983.436       15966.849      5.3445085    
  43824600   54249.669      515.07608     -16034098       2.3922382      161546.25     -15872551       566.48499      566.48499      566.48499      1716.7575      2283.2425      1716.7575      2283.2425      1716.7575      2283.2425      1.81788e+08    0.5            22117300       0.9112244      8230.3782      16460.751      5.3300499    
  43824800   54974.414      529.21057     -16030021       2.3922382      163704.42     -15866317       566.48499      566.48499      566.48499      1716.7575      2283.2425      1716.7575      2283.2425      1716.7575      2283.2425      1.81788e+08    0.5            22117400       0.92334887     8247.7873      16495.607      5.3155056    
  43825000   55611.031      549.37627     -16025644       2.3922382      165600.15     -15860044       566.48499      566.48499      566.48499      1716.7575      2283.2425      1716.7575      2283.2425      1716.7575      2283.2425      1.81788e+08    0.5            22117500       0.93576194     8055.9203      16111.745      5.3026634    
  43825200   55657.439      556.62448     -16026678       2.3922382      165738.35     -15860940       566.48499      566.48499      566.48499      1716.7575      2283.2425      1716.7575      2283.2425      1716.7575      2283.2425      1.81788e+08    0.5            22117600       0.94797001     8191.3949      16382.88       5.2886857    
  43825400   55675.88       567.06638     -16024913       2.3922382      165793.26     -15859120       566.48499      566.48499      566.48499      1716.7575      2283.2425      1716.7575      2283.2425      1716.7575      2283.2425      1.81788e+08    0.5            22117700       0.96021954     8163.5938      16327.206      5.2749824    
  43825600   57545.352      584.16454     -16019597       2.3922382      171360.23     -15848237       566.48499      566.48499      566.48499      1716.7575      2283.2425      1716.7575      2283.2425      1716.7575      2283.2425      1.81788e+08    0.5            22117800       0.97284986     7917.4539      15834.917      5.2633772    
  43825800   58904.107      596.69066     -16017919       2.3922382      175406.37     -15842512       566.48499      566.48499      566.48499      1716.7575      2283.2425      1716.7575      2283.2425      1716.7575      2283.2425      1.81788e+08    0.5            22117900       0.98496898     8251.4576      16502.802      5.2490219    
  43826000   59422.212      604.53315     -16023844       2.3922382      176949.2      -15846895       566.48499      566.48499      566.48499      1716.7575      2283.2425      1716.7575      2283.2425      1716.7575      2283.2425      1.81788e+08    0.5            22118000       0.99737637     8059.6394      16119.293      5.2362367    
  43826200   60494.576      613.91611     -16022230       2.3922382      180142.52     -15842088       566.48499      566.48499      566.48499      1716.7575      2283.2425      1716.7575      2283.2425      1716.7575      2283.2425      1.81788e+08    0.5            22118100       1.0098686      8005.0393      16010.206      5.2238972    
  43826400   63339.23       624.64888     -16010823       2.3922382      188613.41     -15822210       566.48499      566.48499      566.48499      1716.7575      2283.2425      1716.7575      2283.2425      1716.7575      2283.2425      1.81788e+08    0.5            22118200       1.0220037      8240.5496      16481.018      5.2097357    
  43826600   63492.4        635.82656     -16000701       2.3922382      189069.52     -15811632       566.48499      566.48499      566.48499      1716.7575      2283.2425      1716.7575      2283.2425      1716.7575      2283.2425      1.81788e+08    0.5            22118300       1.0343802      8079.8313      16159.738      5.1968349    
  43826800   58260.626      644.52437     -15996265       2.3922382      173490.2      -15822775       566.48499      566.48499      566.48499      1716.7575      2283.2425      1716.7575      2283.2425      1716.7575      2283.2425      1.81788e+08    0.5            22118400       1.0465252      8233.8662      16467.684      5.1828006    
  43827000   59488.507      657.49887     -15985789       2.3922382      177146.62     -15808643       566.48499      566.48499      566.48499      1716.7575      2283.2425      1716.7575      2283.2425      1716.7575      2283.2425      1.81788e+08    0.5            22118500       1.0589292      8061.8947      16123.67       5.1700761    
  43827200   62599.244      667.88468     -15975382       2.3922382      186409.86     -15788972       566.48499      566.48499      566.48499      1716.7575      2283.2425      1716.7575      2283.2425      1716.7575      2283.2425      1.81788e+08    0.5            22118600       1.0722018      7534.3449      15068.81       5.1615383    
  43827400   64896.29       681.42417     -15976530       2.3922382      193250.07     -15783280       566.48499      566.48499      566.48499      1716.7575      2283.2425      1716.7575      2283.2425      1716.7575      2283.2425      1.81788e+08    0.5            22118700       1.0843703      8217.9695      16435.907      5.1476514    
  43827600   66071.662      693.26954     -15966883       2.3922382      196750.13     -15770133       566.48499      566.48499      566.48499      1716.7575      2283.2425      1716.7575      2283.2425      1716.7575      2283.2425      1.81788e+08    0.5            22118800       1.0966926      8115.3332      16230.689      5.1345238    
  43827800   66188.969      697.74722     -15963377       2.3922382      197099.45     -15766278       566.48499      566.48499      566.48499      1716.7575      2283.2425      1716.7575      2283.2425      1716.7575      2283.2425      1.81788e+08    0.5            22118900       1.1087971      8261.3802      16522.67       5.1204091    
  43828000   66896.105      700.47368     -15968630       2.3922382      199205.18     -15769425       566.48499      566.48499      566.48499      1716.7575      2283.2425      1716.7575      2283.2425      1716.7575      2283.2425      1.81788e+08    0.5            22119000       1.1211916      8068.0765      16123.77       5.1077033    
  43828200   69429.056      713.886       -15963724       2.3922382      206747.87     -15756976       566.48499      566.48499      566.48499      1716.7575      2283.2425      1716.7575      2283.2425      1716.7575      2283.2425      1.81788e+08    0.5            22119100       1.1339047      7865.9565      15743.804      5.0963488    
  43828400   69440.115      726.20389     -15957137       2.3922382      206780.8      -15750357       566.48499      566.48499      566.48499      1716.7575      2283.2425      1716.7575      2283.2425      1716.7575      2283.2425      1.81788e+08    0.5            22119200       1.1464595      7965.0716      15930.146      5.0843062    
  43828600   66328.389      737.384       -15956063       2.3922382      197514.62     -15758548       566.48499      566.48499      566.48499      1716.7575      2283.2425      1716.7575      2283.2425      1716.7575      2283.2425      1.81788e+08    0.5            22119300       1.1585737      8254.7277      16509.371      5.0703253    
  43828800   65789.911      742.7193      -15955677       2.3922382      195911.12     -15759766       566.48499      566.48499      566.48499      1716.7575      2283.2425      1716.7575      2283.2425      1716.7575      2283.2425      1.81788e+08    0.5            22119400       1.1712814      7869.275       15738.565      5.0589468    
  43829000   70187.203      754.2471      -15955161       2.3922382      209005.5      -15746156       566.48499      566.48499      566.48499      1716.7575      2283.2425      1716.7575      2283.2425      1716.7575      2283.2425      1.81788e+08    0.5            22119500       1.1833971      8253.7234      16507.275      5.0450176    
  43829200   71367.799      761.36081     -15955635       2.3922382      212521.12     -15743114       566.48499      566.48499      566.48499      1716.7575      2283.2425      1716.7575      2283.2425      1716.7575      2283.2425      1.81788e+08    0.5            22119600       1.1961366      7849.6072      15699.44       5.0337492    
  43829400   72265.131      774.17991     -15952206       2.3922382      215193.22     -15737013       566.48499      566.48499      566.48499      1716.7575      2283.2425      1716.7575      2283.2425      1716.7575      2283.2425      1.81788e+08    0.5            22119700       1.2085741      8040.2359      16080.468      5.0211963    
  43829600   73348.14       789.47787     -15950686       2.3922382      218418.24     -15732267       566.48499      566.48499      566.48499      1716.7575      2283.2425      1716.7575      2283.2425      1716.7575      2283.2425      1.81788e+08    0.5            22119800       1.2208768      8128.2607      16256.556      5.0080939    
  43829800   74821.865      803.09813     -15950229       2.3922382      222806.74     -15727423       566.48499      566.48499      566.48499      1716.7575      2283.2425      1716.7575      2283.2425      1716.7575      2283.2425      1.81788e+08    0.5            22119900       1.2333202      8036.3694      16072.722      4.9955769    
  43830000   76474.445      812.30706     -15948976       2.3922382      227727.84     -15721248       566.48499      566.48499      566.48499      1716.7575      2283.2425      1716.7575      2283.2425      1716.7575      2283.2425      1.81788e+08    0.5            22120000       1.2455315      8189.1282      16378.106      4.982134     
  43830200   76206.801      819.55672     -15948057       2.3922382      226930.84     -15721126       566.48499      566.48499      566.48499      1716.7575      2283.2425      1716.7575      2283.2425      1716.7575      2283.2425      1.81788e+08    0.5            22120100       1.2582762      7846.4186      15692.963      4.9708211    
  43830400   73105.674      833.60121     -15943433       2.3922382      217696.21     -15725737       566.48499      566.48499      566.48499      1716.7575      2283.2425      1716.7575      2283.2425      1716.7575      2283.2425      1.81788e+08    0.5            22120200       1.2709567      7886.1287      15772.203      4.9592305    
  43830600   73658.451      850.80613     -15943478       2.3922382      219342.29     -15724136       566.48499      566.48499      566.48499      1716.7575      2283.2425      1716.7575      2283.2425      1716.7575      2283.2425      1.81788e+08    0.5            22120300       1.2834092      8030.4882      16061.024      4.9467395    
  43830800   77545.583      864.2427      -15937024       2.3922382      230917.5      -15706107       566.48499      566.48499      566.48499      1716.7575      2283.2425      1716.7575      2283.2425      1716.7575      2283.2425      1.81788e+08    0.5            22120400       1.2955802      8216.2889      16432.517      4.9331777    
  43831000   77923.308      874.49396     -15926963       2.3922382      232042.3      -15694920       566.48499      566.48499      566.48499      1716.7575      2283.2425      1716.7575      2283.2425      1716.7575      2283.2425      1.81788e+08    0.5            22120500       1.308029       8032.8712      16065.643      4.9206882    
  43831200   78311.111      882.37072     -15933517       2.3922382      233197.12     -15700320       566.48499      566.48499      566.48499      1716.7575      2283.2425      1716.7575      2283.2425      1716.7575      2283.2425      1.81788e+08    0.5            22120600       1.3205451      7989.7667      15979.729      4.9084477    
  43831400   80829.037      903.37855     -15928831       2.3922382      240695.07     -15688135       566.48499      566.48499      566.48499      1716.7575      2283.2425      1716.7575      2283.2425      1716.7575      2283.2425      1.81788e+08    0.5            22120700       1.3332255      7886.1685      15772.271      4.8968067    
  43831600   82790.325      915.45382     -15927099       2.3922382      246535.45     -15680564       566.48499      566.48499      566.48499      1716.7575      2283.2425      1716.7575      2283.2425      1716.7575      2283.2425      1.81788e+08    0.5            22120800       1.3453868      8222.8518      16445.702      4.8832621    
  43831800   79519.409      931.33294     -15931462       2.3922382      236795.22     -15694667       566.48499      566.48499      566.48499      1716.7575      2283.2425      1716.7575      2283.2425      1716.7575      2283.2425      1.81788e+08    0.5            22120900       1.3578112      8048.6298      16097.295      4.8706869    
  43832000   75245.744      944.09194     -15931180       2.3922382      224068.98     -15707111       566.48499      566.48499      566.48499      1716.7575      2283.2425      1716.7575      2283.2425      1716.7575      2283.2425      1.81788e+08    0.5            22121000       1.3704331      7922.6923      15845.236      4.8588157    
  43832200   79577.626      951.86382     -15930165       2.3922382      236968.58     -15693197       566.48499      566.48499      566.48499      1716.7575      2283.2425      1716.7575      2283.2425      1716.7575      2283.2425      1.81788e+08    0.5            22121100       1.3827825      8097.6341      16195.44       4.8459735    
  43832400   82266.98       974.54367     -15925696       2.3922382      244977.02     -15680719       566.48499      566.48499      566.48499      1716.7575      2283.2425      1716.7575      2283.2425      1716.7575      2283.2425      1.81788e+08    0.5            22121200       1.3951652      8075.7375      16151.485      4.8332571    
  43832600   84582.424      986.06015     -15931615       2.3922382      251872.02     -15679743       566.48499      566.48499      566.48499      1716.7575      2283.2425      1716.7575      2283.2425      1716.7575      2283.2425      1.81788e+08    0.5            22121300       1.4072862      8250.2009      16500.319      4.8196499    
  43832800   85380.238      997.89539     -15928670       2.3922382      254247.77     -15674422       566.48499      566.48499      566.48499      1716.7575      2283.2425      1716.7575      2283.2425      1716.7575      2283.2425      1.81788e+08    0.5            22121400       1.419685       8065.2153      16130.477      4.8070099    
  43833000   85239.645      1015.0423     -15923556       2.3922382      253829.11     -15669727       566.48499      566.48499      566.48499      1716.7575      2283.2425      1716.7575      2283.2425      1716.7575      2283.2425      1.81788e+08    0.5            22121500       1.4318614      8212.6768      16425.165      4.7936297    
  43833200   86827.442      1032.113      -15920800       2.3922382      258557.3      -15662243       566.48499      566.48499      566.48499      1716.7575      2283.2425      1716.7575      2283.2425      1716.7575      2283.2425      1.81788e+08    0.5            22121600       1.4441854      8114.2269      16228.655      4.7807575    
  43833400   89510.201      1048.408      -15918846       2.3922382      266546.1      -15652300       566.48499      566.48499      566.48499      1716.7575      2283.2425      1716.7575      2283.2425      1716.7575      2283.2425      1.81788e+08    0.5            22121700       1.4565941      8058.8736      16117.755      4.7681725    
  43833600   87893.923      1062.0162     -15907796       2.3922382      261733.09     -15646063       566.48499      566.48499      566.48499      1716.7575      2283.2425      1716.7575      2283.2425      1716.7575      2283.2425      1.81788e+08    0.5            22121800       1.4692039      7930.3493      15860.585      4.7562421    
  43833800   83255.886      1071.0441     -15904720       2.3922382      247921.81     -15656798       566.48499      566.48499      566.48499      1716.7575      2283.2425      1716.7575      2283.2425      1716.7575      2283.2425      1.81788e+08    0.5            22121900       1.4816223      8052.5659      16105.256      4.7436871    
  43834000   86148.032      1089.5817     -15902642       2.3922382      256534.13     -15646108       566.48499      566.48499      566.48499      1716.7575      2283.2425      1716.7575      2283.2425      1716.7575      2283.2425      1.81788e+08    0.5            22122000       1.4938172      8200.1022      16400.012      4.7304276    
  43834200   90154.313      1100.0761     -15901779       2.3922382      268464.15     -15633315       566.48499      566.48499      566.48499      1716.7575      2283.2425      1716.7575      2283.2425      1716.7575      2283.2425      1.81788e+08    0.5            22122100       1.5062104      8068.9501      16138.088      4.717805     
  43834400   90736.126      1108.7692     -15903990       2.3922382      270196.69     -15633794       566.48499      566.48499      566.48499      1716.7575      2283.2425      1716.7575      2283.2425      1716.7575      2283.2425      1.81788e+08    0.5            22122200       1.5186296      8052.0595      16104.11       4.7052677    
  43834600   91206.653      1124.2491     -15898363       2.3922382      271597.84     -15626765       566.48499      566.48499      566.48499      1716.7575      2283.2425      1716.7575      2283.2425      1716.7575      2283.2425      1.81788e+08    0.5            22122300       1.5307534      8248.2608      16496.441      4.691827     
  43834800   92830.047      1136.2994     -15889954       2.3922382      276432.03     -15613522       566.48499      566.48499      566.48499      1716.7575      2283.2425      1716.7575      2283.2425      1716.7575      2283.2425      1.81788e+08    0.5            22122400       1.5432139      8025.3299      16050.731      4.6794283    
  43835000   95177.418      1147.5887     -15891562       2.3922382      283422.1      -15608140       566.48499      566.48499      566.48499      1716.7575      2283.2425      1716.7575      2283.2425      1716.7575      2283.2425      1.81788e+08    0.5            22122500       1.5553061      8269.804       16539.407      4.6659245    
  43835200   94751.103      1161.8356     -15887045       2.3922382      282152.6      -15604893       566.48499      566.48499      566.48499      1716.7575      2283.2425      1716.7575      2283.2425      1716.7575      2283.2425      1.81788e+08    0.5            22122600       1.5682524      7724.1812      15448.482      4.654977     
  43835400   90353.605      1171.2198     -15879467       2.3922382      269057.61     -15610410       566.48499      566.48499      566.48499      1716.7575      2283.2425      1716.7575      2283.2425      1716.7575      2283.2425      1.81788e+08    0.5            22122700       1.5802648      8324.7796      16649.529      4.6412555    
  43835600   91300.535      1177.1053     -15890116       2.3922382      271877.4      -15618239       566.48499      566.48499      566.48499      1716.7575      2283.2425      1716.7575      2283.2425      1716.7575      2283.2425      1.81788e+08    0.5            22122800       1.5925459      8142.5507      16285.144      4.6283419    
  43835800   96466.934      1195.364      -15889712       2.3922382      287262.06     -15602450       566.48499      566.48499      566.48499      1716.7575      2283.2425      1716.7575      2283.2425      1716.7575      2283.2425      1.81788e+08    0.5            22122900       1.6045657      8319.6773      16639.35       4.6146864    
  43836000   96681.875      1199.9175     -15887381       2.3922382      287902.12     -15599479       566.48499      566.48499      566.48499      1716.7575      2283.2425      1716.7575      2283.2425      1716.7575      2283.2425      1.81788e+08    0.5            22123000       1.6169612      8067.4503      16134.918      4.6021252    
  43836200   96345.68       1206.9468     -15887954       2.3922382      286900.98     -15601053       566.48499      566.48499      566.48499      1716.7575      2283.2425      1716.7575      2283.2425      1716.7575      2283.2425      1.81788e+08    0.5            22123100       1.6293572      8067.0807      16134.155      4.5895686    
  43836400   98781.927      1220.4467     -15882490       2.3922382      294155.71     -15588334       566.48499      566.48499      566.48499      1716.7575      2283.2425      1716.7575      2283.2425      1716.7575      2283.2425      1.81788e+08    0.5            22123200       1.6417899      8043.2877      16086.618      4.5771162    
  43836600   102436.48      1231.8804     -15879899       2.3922382      305038.34     -15574861       566.48499      566.48499      566.48499      1716.7575      2283.2425      1716.7575      2283.2425      1716.7575      2283.2425      1.81788e+08    0.5            22123300       1.6540499      8156.6341      16313.207      4.5641877    
  43836800   99315.34       1244.4503     -15869094       2.3922382      295744.12     -15573350       566.48499      566.48499      566.48499      1716.7575      2283.2425      1716.7575      2283.2425      1716.7575      2283.2425      1.81788e+08    0.5            22123400       1.6670386      7698.9863      15398.022      4.5532597    
  43837000   93504.812      1250.8709     -15865999       2.3922382      278441.36     -15587558       566.48499      566.48499      566.48499      1716.7575      2283.2425      1716.7575      2283.2425      1716.7575      2283.2425      1.81788e+08    0.5            22123500       1.6792718      8174.458       16348.742      4.540259     
  43837200   97692.034      1257.7927     -15874153       2.3922382      290910.2      -15583243       566.48499      566.48499      566.48499      1716.7575      2283.2425      1716.7575      2283.2425      1716.7575      2283.2425      1.81788e+08    0.5            22123600       1.6922082      7730.1432      15460.437      4.5291502    
  43837400   100271.19      1270.7194     -15867707       2.3922382      298590.49     -15569116       566.48499      566.48499      566.48499      1716.7575      2283.2425      1716.7575      2283.2425      1716.7575      2283.2425      1.81788e+08    0.5            22123700       1.7045677      8090.9226      16181.808      4.5164872    
  43837600   102929.07      1279.9279     -15864224       2.3922382      306505.19     -15557718       566.48499      566.48499      566.48499      1716.7575      2283.2425      1716.7575      2283.2425      1716.7575      2283.2425      1.81788e+08    0.5            22123800       1.7167221      8227.5057      16454.918      4.5032905    
  43837800   104613.6       1294.2443     -15867333       2.3922382      311521.43     -15555812       566.48499      566.48499      566.48499      1716.7575      2283.2425      1716.7575      2283.2425      1716.7575      2283.2425      1.81788e+08    0.5            22123900       1.7291348      8056.2364      16112.565      4.4907792    
  43838000   103911.09      1296.1264     -15866343       2.3922382      309429.49     -15556913       566.48499      566.48499      566.48499      1716.7575      2283.2425      1716.7575      2283.2425      1716.7575      2283.2425      1.81788e+08    0.5            22124000       1.741227       8269.7609      16539.315      4.4774464    
  43838200   102557.5       1305.7611     -15862676       2.3922382      305398.73     -15557277       566.48499      566.48499      566.48499      1716.7575      2283.2425      1716.7575      2283.2425      1716.7575      2283.2425      1.81788e+08    0.5            22124100       1.7538191      7941.5319      15883.216      4.4654024    
  43838400   105542.04      1322.0164     -15856165       2.3922382      314286.18     -15541879       566.48499      566.48499      566.48499      1716.7575      2283.2425      1716.7575      2283.2425      1716.7575      2283.2425      1.81788e+08    0.5            22124200       1.7663549      7977.1993      15954.378      4.4532091    
  43838600   108917.18      1333.668      -15856117       2.3922382      324336.77     -15531780       566.48499      566.48499      566.48499      1716.7575      2283.2425      1716.7575      2283.2425      1716.7575      2283.2425      1.81788e+08    0.5            22124300       1.7788037      8032.8628      16065.82       4.4407941    
  43838800   106704.1       1343.4981     -15855564       2.3922382      317746.59     -15537818       566.48499      566.48499      566.48499      1716.7575      2283.2425      1716.7575      2283.2425      1716.7575      2283.2425      1.81788e+08    0.5            22124400       1.7910063      8194.9856      16389.881      4.4277702    
  43839000   102291.8       1358.6954     -15852076       2.3922382      304607.5      -15547469       566.48499      566.48499      566.48499      1716.7575      2283.2425      1716.7575      2283.2425      1716.7575      2283.2425      1.81788e+08    0.5            22124500       1.803474       8020.6303      16041.2        4.4154073    
  43839200   104769.83      1362.7229     -15850144       2.3922382      311986.66     -15538157       566.48499      566.48499      566.48499      1716.7575      2283.2425      1716.7575      2283.2425      1716.7575      2283.2425      1.81788e+08    0.5            22124600       1.816148       7890.2255      15780.558      4.4035414    
  43839400   110480.14      1370.5449     -15848244       2.3922382      328990.99     -15519253       566.48499      566.48499      566.48499      1716.7575      2283.2425      1716.7575      2283.2425      1716.7575      2283.2425      1.81788e+08    0.5            22124700       1.828894       7845.5962      15691.175      4.3918383    
  43839600   110485.09      1384.7506     -15843959       2.3922382      329005.73     -15514953       566.48499      566.48499      566.48499      1716.7575      2283.2425      1716.7575      2283.2425      1716.7575      2283.2425      1.81788e+08    0.5            22124800       1.8412304      8106.1563      16212.365      4.3791466    
  43839800   109022.28      1391.0108     -15839551       2.3922382      324649.73     -15514902       566.48499      566.48499      566.48499      1716.7575      2283.2425      1716.7575      2283.2425      1716.7575      2283.2425      1.81788e+08    0.5            22124900       1.8537128      8011.2356      16022.443      4.3668042    
  43840000   110611.74      1407.1733     -15834981       2.3922382      329382.89     -15505598       566.48499      566.48499      566.48499      1716.7575      2283.2425      1716.7575      2283.2425      1716.7575      2283.2425      1.81788e+08    0.5            22125000       1.8664101      7875.6907      15751.234      4.3549617    
  43840200   115481.34      1420.6948     -15822695       2.3922382      343883.72     -15478812       566.48499      566.48499      566.48499      1716.7575      2283.2425      1716.7575      2283.2425      1716.7575      2283.2425      1.81788e+08    0.5            22125100       1.8789606      7967.805       15935.689      4.3427677    
  43840400   114031.11      1429.6307     -15819258       2.3922382      339565.17     -15479693       566.48499      566.48499      566.48499      1716.7575      2283.2425      1716.7575      2283.2425      1716.7575      2283.2425      1.81788e+08    0.5            22125200       1.8914013      8038.1549      16076.403      4.3303175    
  43840600   108114.99      1425.9764     -15818098       2.3922382      321947.99     -15496150       566.48499      566.48499      566.48499      1716.7575      2283.2425      1716.7575      2283.2425      1716.7575      2283.2425      1.81788e+08    0.5            22125300       1.9036288      8178.3281      16356.608      4.3173842    
  43840800   107122.79      1436.7934     -15817957       2.3922382      318993.37     -15498964       566.48499      566.48499      566.48499      1716.7575      2283.2425      1716.7575      2283.2425      1716.7575      2283.2425      1.81788e+08    0.5            22125400       1.9158932      8153.6832      16307.41       4.3045432    
  43841000   115625.83      1454.7007     -15815994       2.3922382      344313.98     -15471680       566.48499      566.48499      566.48499      1716.7575      2283.2425      1716.7575      2283.2425      1716.7575      2283.2425      1.81788e+08    0.5            22125500       1.9283801      8008.3453      16016.701      4.2922047    
  43841200   117152.68      1471.9192     -15813191       2.3922382      348860.67     -15464330       566.48499      566.48499      566.48499      1716.7575      2283.2425      1716.7575      2283.2425      1716.7575      2283.2425      1.81788e+08    0.5            22125600       1.9408415      8024.8121      16049.592      4.2798082    
  43841400   115914         1481.2191     -15820332       2.3922382      345172.1      -15475160       566.48499      566.48499      566.48499      1716.7575      2283.2425      1716.7575      2283.2425      1716.7575      2283.2425      1.81788e+08    0.5            22125700       1.9533101      8020.0861      16040.208      4.2674267    
  43841600   115233.5       1492.5143     -15821124       2.3922382      343145.68     -15477978       566.48499      566.48499      566.48499      1716.7575      2283.2425      1716.7575      2283.2425      1716.7575      2283.2425      1.81788e+08    0.5            22125800       1.9659067      7938.6722      15877.339      4.2553209    
  43841800   119321.97      1507.3567     -15825404       2.3922382      355320.44     -15470084       566.48499      566.48499      566.48499      1716.7575      2283.2425      1716.7575      2283.2425      1716.7575      2283.2425      1.81788e+08    0.5            22125900       1.9780647      8225.0012      16449.901      4.2422687    
  43842000   121957.52      1524.3458     -15836231       2.3922382      363168.67     -15473062       566.48499      566.48499      566.48499      1716.7575      2283.2425      1716.7575      2283.2425      1716.7575      2283.2425      1.81788e+08    0.5            22126000       1.9903875      8115.0902      16230.113      4.2295776    
  43842200   117834.66      1524.0869     -15836738       2.3922382      350891.5      -15485846       566.48499      566.48499      566.48499      1716.7575      2283.2425      1716.7575      2283.2425      1716.7575      2283.2425      1.81788e+08    0.5            22126100       2.0033208      7731.9542      15464.076      4.2181761    
  43842400   110857.69      1528.7531     -15833435       2.3922382      330115.26     -15503319       566.48499      566.48499      566.48499      1716.7575      2283.2425      1716.7575      2283.2425      1716.7575      2283.2425      1.81788e+08    0.5            22126200       2.0155319      8189.2946      16378.585      4.2052492    
  43842600   117514.84      1549.6274     -15829374       2.3922382      349939.13     -15479435       566.48499      566.48499      566.48499      1716.7575      2283.2425      1716.7575      2283.2425      1716.7575      2283.2425      1.81788e+08    0.5            22126300       2.0280037      8018.0933      16036.214      4.1928701    
  43842800   121543.23      1573.5736     -15824298       2.3922382      361934.99     -15462363       566.48499      566.48499      566.48499      1716.7575      2283.2425      1716.7575      2283.2425      1716.7575      2283.2425      1.81788e+08    0.5            22126400       2.0402524      8164.1004      16328.169      4.1800331    
  43843000   123313.84      1592.366      -15823244       2.3922382      367207.55     -15456037       566.48499      566.48499      566.48499      1716.7575      2283.2425      1716.7575      2283.2425      1716.7575      2283.2425      1.81788e+08    0.5            22126500       2.0525086      8159.1418      16318.138      4.1672185    
  43843200   123746.01      1608.3336     -15805442       2.3922382      368494.48     -15436948       566.48499      566.48499      566.48499      1716.7575      2283.2425      1716.7575      2283.2425      1716.7575      2283.2425      1.81788e+08    0.5            22126600       2.0657797      7535.2067      15070.53       4.1564518    
  43843400   123581.86      1627.5074     -15790295       2.3922382      368005.68     -15422289       566.48499      566.48499      566.48499      1716.7575      2283.2425      1716.7575      2283.2425      1716.7575      2283.2425      1.81788e+08    0.5            22126700       2.0780052      8179.5643      16359.083      4.143571     
  43843600   125463.53      1646.2196     -15789779       2.3922382      373608.97     -15416170       566.48499      566.48499      566.48499      1716.7575      2283.2425      1716.7575      2283.2425      1716.7575      2283.2425      1.81788e+08    0.5            22126800       2.0902188      8187.6136      16375.257      4.1306741    
  43843800   128765.46      1657.8195     -15787335       2.3922382      383441.56     -15403893       566.48499      566.48499      566.48499      1716.7575      2283.2425      1716.7575      2283.2425      1716.7575      2283.2425      1.81788e+08    0.5            22126900       2.1026864      8020.8343      16041.707      4.1182825    
  43844000   127387.37      1673.8126     -15781160       2.3922382      379337.84     -15401822       566.48499      566.48499      566.48499      1716.7575      2283.2425      1716.7575      2283.2425      1716.7575      2283.2425      1.81788e+08    0.5            22127000       2.11491        8180.7748      16361.394      4.1054176    
  43844200   120527.67      1691.4701     -15775200       2.3922382      358910.83     -15416290       566.48499      566.48499      566.48499      1716.7575      2283.2425      1716.7575      2283.2425      1716.7575      2283.2425      1.81788e+08    0.5            22127100       2.127691       7824.2168      15648.568      4.093631     
  43844400   122408.81      1699.369      -15774139       2.3922382      364512.54     -15409627       566.48499      566.48499      566.48499      1716.7575      2283.2425      1716.7575      2283.2425      1716.7575      2283.2425      1.81788e+08    0.5            22127200       2.1401867      8002.751       16005.467      4.0812896    
  43844600   128839.33      1719.4794     -15769214       2.3922382      383661.54     -15385552       566.48499      566.48499      566.48499      1716.7575      2283.2425      1716.7575      2283.2425      1716.7575      2283.2425      1.81788e+08    0.5            22127300       2.1524339      8165.1236      16330.242      4.0684767    
  43844800   129372.19      1735.0474     -15758352       2.3922382      385248.29     -15373104       566.48499      566.48499      566.48499      1716.7575      2283.2425      1716.7575      2283.2425      1716.7575      2283.2425      1.81788e+08    0.5            22127400       2.1651172      7884.4095      15768.825      4.0564873    
  43845000   129276.07      1744.5509     -15758872       2.3922382      384962.05     -15373910       566.48499      566.48499      566.48499      1716.7575      2283.2425      1716.7575      2283.2425      1716.7575      2283.2425      1.81788e+08    0.5            22127500       2.1776484      7980.0435      15960.025      4.0442078    
  43845200   131245.54      1750.9557     -15760250       2.3922382      390826.8      -15369424       566.48499      566.48499      566.48499      1716.7575      2283.2425      1716.7575      2283.2425      1716.7575      2283.2425      1.81788e+08    0.5            22127600       2.1900202      8082.893       16165.792      4.0316315    
  43845400   135370.67      1767.4681     -15765392       2.3922382      403110.74     -15362281       566.48499      566.48499      566.48499      1716.7575      2283.2425      1716.7575      2283.2425      1716.7575      2283.2425      1.81788e+08    0.5            22127700       2.2022452      8179.9819      16359.956      4.0187898    
  43845600   133936.4       1773.1851     -15761733       2.3922382      398839.71     -15362893       566.48499      566.48499      566.48499      1716.7575      2283.2425      1716.7575      2283.2425      1716.7575      2283.2425      1.81788e+08    0.5            22127800       2.2147634      7988.3677      15976.784      4.0064853    
  43845800   126208.04      1779.0877     -15757737       2.3922382      375826        -15381911       566.48499      566.48499      566.48499      1716.7575      2283.2425      1716.7575      2283.2425      1716.7575      2283.2425      1.81788e+08    0.5            22127900       2.2269363      8214.9916      16429.945      3.9935594    
  43846000   128846.58      1782.7977     -15756507       2.3922382      383683.1      -15372824       566.48499      566.48499      566.48499      1716.7575      2283.2425      1716.7575      2283.2425      1716.7575      2283.2425      1.81788e+08    0.5            22128000       2.2391662      8176.6416      16353.339      3.9807432    
  43846200   134468.03      1796.2977     -15753393       2.3922382      400422.83     -15352970       566.48499      566.48499      566.48499      1716.7575      2283.2425      1716.7575      2283.2425      1716.7575      2283.2425      1.81788e+08    0.5            22128100       2.2523854      7564.7388      15129.487      3.9696769    
  43846400   134920.19      1804.9296     -15748388       2.3922382      401769.3      -15346618       566.48499      566.48499      566.48499      1716.7575      2283.2425      1716.7575      2283.2425      1716.7575      2283.2425      1.81788e+08    0.5            22128200       2.2648614      8015.4641      16030.888      3.9572883    
  43846600   135301.74      1815.4173     -15744250       2.3922382      402905.49     -15341345       566.48499      566.48499      566.48499      1716.7575      2283.2425      1716.7575      2283.2425      1716.7575      2283.2425      1.81788e+08    0.5            22128300       2.2772603      8065.2108      16130.485      3.9447653    
  43846800   137764.05      1824.3114     -15743240       2.3922382      410237.82     -15333003       566.48499      566.48499      566.48499      1716.7575      2283.2425      1716.7575      2283.2425      1716.7575      2283.2425      1.81788e+08    0.5            22128400       2.2897065      8034.5847      16069.172      3.9323249    
  43847000   141534.99      1837.5951     -15743535       2.3922382      421467.02     -15322068       566.48499      566.48499      566.48499      1716.7575      2283.2425      1716.7575      2283.2425      1716.7575      2283.2425      1.81788e+08    0.5            22128500       2.302067       8090.1646      16180.189      3.9197393    
  43847200   139114.83      1836.3115     -15745186       2.3922382      414260.21     -15330926       566.48499      566.48499      566.48499      1716.7575      2283.2425      1716.7575      2283.2425      1716.7575      2283.2425      1.81788e+08    0.5            22128600       2.3144737      8060.2923      16120.73       3.9072326    
  43847400   131654.09      1841.1581     -15744143       2.3922382      392043.41     -15352100       566.48499      566.48499      566.48499      1716.7575      2283.2425      1716.7575      2283.2425      1716.7575      2283.2425      1.81788e+08    0.5            22128700       2.3269647      8005.7347      16011.473      3.8948689    
  43847600   135618.75      1855.4742     -15742106       2.3922382      403849.48     -15338256       566.48499      566.48499      566.48499      1716.7575      2283.2425      1716.7575      2283.2425      1716.7575      2283.2425      1.81788e+08    0.5            22128800       2.3393577      8069.0393      16138.017      3.8823413    
  43847800   140971.06      1864.3527     -15737534       2.3922382      419787.74     -15317746       566.48499      566.48499      566.48499      1716.7575      2283.2425      1716.7575      2283.2425      1716.7575      2283.2425      1.81788e+08    0.5            22128900       2.3516451      8138.458       16276.83       3.8696413    
  43848000   140765.65      1870.0117     -15736701       2.3922382      419176.06     -15317525       566.48499      566.48499      566.48499      1716.7575      2283.2425      1716.7575      2283.2425      1716.7575      2283.2425      1.81788e+08    0.5            22129000       2.3643454      7873.7591      15747.483      3.8576196    
  43848200   140659.65      1880.2748     -15742962       2.3922382      418860.43     -15324102       566.48499      566.48499      566.48499      1716.7575      2283.2425      1716.7575      2283.2425      1716.7575      2283.2425      1.81788e+08    0.5            22129100       2.3771865      7787.5779      15575.311      3.8458175    
  43848400   144016.09      1885.9866     -15748915       2.3922382      428855.32     -15320059       566.48499      566.48499      566.48499      1716.7575      2283.2425      1716.7575      2283.2425      1716.7575      2283.2425      1.81788e+08    0.5            22129200       2.3894803      8134.1848      16268.363      3.8331274    
  43848600   148599.65      1896.8712     -15749117       2.3922382      442504.39     -15306613       566.48499      566.48499      566.48499      1716.7575      2283.2425      1716.7575      2283.2425      1716.7575      2283.2425      1.81788e+08    0.5            22129300       2.4019637      8010.563       16021.103      3.820743     
  43848800   143576.93      1896.8392     -15753671       2.3922382      427547.57     -15326124       566.48499      566.48499      566.48499      1716.7575      2283.2425      1716.7575      2283.2425      1716.7575      2283.2425      1.81788e+08    0.5            22129400       2.4142646      8129.5479      16259.08       3.8080697    
  43849000   136757.68      1902.0101     -15741371       2.3922382      407241.02     -15334130       566.48499      566.48499      566.48499      1716.7575      2283.2425      1716.7575      2283.2425      1716.7575      2283.2425      1.81788e+08    0.5            22129500       2.4266805      8054.175       16108.167      3.7955803    
  43849200   141995.78      1915.1528     -15733305       2.3922382      422839.18     -15310466       566.48499      566.48499      566.48499      1716.7575      2283.2425      1716.7575      2283.2425      1716.7575      2283.2425      1.81788e+08    0.5            22129600       2.4394541      7828.6484      15657.46       3.7836459    
  43849400   145657.96      1928.7028     -15728755       2.3922382      433744.53     -15295011       566.48499      566.48499      566.48499      1716.7575      2283.2425      1716.7575      2283.2425      1716.7575      2283.2425      1.81788e+08    0.5            22129700       2.451741       8138.7077      16277.421      3.7709547    
  43849600   147251.61      1927.398      -15716538       2.3922382      438490.14     -15278048       566.48499      566.48499      566.48499      1716.7575      2283.2425      1716.7575      2283.2425      1716.7575      2283.2425      1.81788e+08    0.5            22129800       2.4644225      7885.4789      15771.001      3.7588694    
  43849800   148270.37      1940.5421     -15719456       2.3922382      441523.84     -15277932       566.48499      566.48499      566.48499      1716.7575      2283.2425      1716.7575      2283.2425      1716.7575      2283.2425      1.81788e+08    0.5            22129900       2.4771452      7860.0496      15720.066      3.7468403    
  43850000   149331.97      1951.4664     -15711672       2.3922382      444685.1      -15266987       566.48499      566.48499      566.48499      1716.7575      2283.2425      1716.7575      2283.2425      1716.7575      2283.2425      1.81788e+08    0.5            22130000       2.4919989      6732.2976      13464.485      3.7380015    
  43850200   150336.93      1954.1747     -15708177       2.3922382      447677.72     -15260499       566.48499      566.48499      566.48499      1716.7575      2283.2425      1716.7575      2283.2425      1716.7575      2283.2425      1.81788e+08    0.5            22130100       2.5047979      7813.0921      15626.264      3.7260456    
  43850400   149512.79      1959.9733     -15714157       2.3922382      445223.56     -15268934       566.48499      566.48499      566.48499      1716.7575      2283.2425      1716.7575      2283.2425      1716.7575      2283.2425      1.81788e+08    0.5            22130200       2.5171423      8100.8721      16201.843      3.7134106    
  43850600   148455.14      1963.2939     -15711545       2.3922382      442074.05     -15269471       566.48499      566.48499      566.48499      1716.7575      2283.2425      1716.7575      2283.2425      1716.7575      2283.2425      1.81788e+08    0.5            22130300       2.5296133      8018.5659      16037.029      3.7009643    
  43850800   151816.25      1975.7026     -15702593       2.3922382      452082.86     -15250510       566.48499      566.48499      566.48499      1716.7575      2283.2425      1716.7575      2283.2425      1716.7575      2283.2425      1.81788e+08    0.5            22130400       2.5421521      7975.2696      15950.65       3.6886155    
  43851000   156740.46      1992.978      -15699316       2.3922382      466746.32     -15232569       566.48499      566.48499      566.48499      1716.7575      2283.2425      1716.7575      2283.2425      1716.7575      2283.2425      1.81788e+08    0.5            22130500       2.5545476      8067.4751      16134.755      3.6760591    
  43851200   153263.94      1999.6229     -15698067       2.3922382      456393.85     -15241673       566.48499      566.48499      566.48499      1716.7575      2283.2425      1716.7575      2283.2425      1716.7575      2283.2425      1.81788e+08    0.5            22130600       2.5674099      7774.6696      15549.487      3.6641701    
  43851400   144405.35      1995.4305     -15693755       2.3922382      430014.48     -15263741       566.48499      566.48499      566.48499      1716.7575      2283.2425      1716.7575      2283.2425      1716.7575      2283.2425      1.81788e+08    0.5            22130700       2.5800882      7887.4094      15774.821      3.6520115    
  43851600   149777.31      2012.2123     -15696622       2.3922382      446011.25     -15250611       566.48499      566.48499      566.48499      1716.7575      2283.2425      1716.7575      2283.2425      1716.7575      2283.2425      1.81788e+08    0.5            22130800       2.5924281      8103.8912      16207.809      3.6393726    
  43851800   154601.12      2024.7175     -15693027       2.3922382      460375.72     -15232651       566.48499      566.48499      566.48499      1716.7575      2283.2425      1716.7575      2283.2425      1716.7575      2283.2425      1.81788e+08    0.5            22130900       2.6047969      8084.8051      16169.558      3.6267772    
  43852000   155673.98      2032.4466     -15685441       2.3922382      463570.54     -15221871       566.48499      566.48499      566.48499      1716.7575      2283.2425      1716.7575      2283.2425      1716.7575      2283.2425      1.81788e+08    0.5            22131000       2.6175097      7866.0803      15732.011      3.6146591    
  43852200   156993.11      2047.6081     -15678028       2.3922382      467498.69     -15210530       566.48499      566.48499      566.48499      1716.7575      2283.2425      1716.7575      2283.2425      1716.7575      2283.2425      1.81788e+08    0.5            22131100       2.6301108      7935.829       15871.81       3.6023818    
  43852400   158728.24      2058.0763     -15670262       2.3922382      472665.61     -15197596       566.48499      566.48499      566.48499      1716.7575      2283.2425      1716.7575      2283.2425      1716.7575      2283.2425      1.81788e+08    0.5            22131200       2.6427639      7903.1891      15806.388      3.5901724    
  43852600   160120.18      2074.4374     -15667002       2.3922382      476810.56     -15190191       566.48499      566.48499      566.48499      1716.7575      2283.2425      1716.7575      2283.2425      1716.7575      2283.2425      1.81788e+08    0.5            22131300       2.6550924      8111.2869      16222.582      3.5775214    
  43852800   158908.99      2076.7646     -15665434       2.3922382      473203.85     -15192230       566.48499      566.48499      566.48499      1716.7575      2283.2425      1716.7575      2283.2425      1716.7575      2283.2425      1.81788e+08    0.5            22131400       2.667876       7822.5318      15645.099      3.5654815    
  43853000   155989.28      2087.5741     -15661838       2.3922382      464509.44     -15197329       566.48499      566.48499      566.48499      1716.7575      2283.2425      1716.7575      2283.2425      1716.7575      2283.2425      1.81788e+08    0.5            22131500       2.6805356      7899.0907      15798.017      3.5532709    
  43853200   158947.42      2107.8382     -15655178       2.3922382      473318.26     -15181860       566.48499      566.48499      566.48499      1716.7575      2283.2425      1716.7575      2283.2425      1716.7575      2283.2425      1.81788e+08    0.5            22131600       2.6931698      7915.0775      15830.302      3.5410219    
  43853400   165258.59      2121.5834     -15653687       2.3922382      492111.87     -15161575       566.48499      566.48499      566.48499      1716.7575      2283.2425      1716.7575      2283.2425      1716.7575      2283.2425      1.81788e+08    0.5            22131700       2.7055668      8066.4722      16132.941      3.5284604    
  43853600   162861.93      2133.1457     -15647512       2.3922382      484975.02     -15162537       566.48499      566.48499      566.48499      1716.7575      2283.2425      1716.7575      2283.2425      1716.7575      2283.2425      1.81788e+08    0.5            22131800       2.7182151      7906.1971      15812.395      3.5162256    
  43853800   155265.16      2138.8481     -15643716       2.3922382      462353.14     -15181363       566.48499      566.48499      566.48499      1716.7575      2283.2425      1716.7575      2283.2425      1716.7575      2283.2425      1.81788e+08    0.5            22131900       2.730567       8095.8766      16191.765      3.5036066    
  43854000   152767.96      2152.5322     -15635332       2.3922382      454916.9      -15180416       566.48499      566.48499      566.48499      1716.7575      2283.2425      1716.7575      2283.2425      1716.7575      2283.2425      1.81788e+08    0.5            22132000       2.7432248      7900.3182      15800.594      3.4913794    
  43854200   164536.89      2173.815      -15632137       2.3922382      489962.76     -15142174       566.48499      566.48499      566.48499      1716.7575      2283.2425      1716.7575      2283.2425      1716.7575      2283.2425      1.81788e+08    0.5            22132100       2.7565347      7513.1966      15026.431      3.4799714    
  43854400   167021.29      2181.2319     -15629410       2.3922382      497360.87     -15132050       566.48499      566.48499      566.48499      1716.7575      2283.2425      1716.7575      2283.2425      1716.7575      2283.2425      1.81788e+08    0.5            22132200       2.7693771      7786.6962      15573.383      3.467961     
  43854600   164605.42      2188.0166     -15627684       2.3922382      490166.83     -15137517       566.48499      566.48499      566.48499      1716.7575      2283.2425      1716.7575      2283.2425      1716.7575      2283.2425      1.81788e+08    0.5            22132300       2.7820247      7906.6059      15813.237      3.4557011    
  43854800   162203.89      2196.3851     -15616840       2.3922382      483015.49     -15133825       566.48499      566.48499      566.48499      1716.7575      2283.2425      1716.7575      2283.2425      1716.7575      2283.2425      1.81788e+08    0.5            22132400       2.794479       8029.3747      16058.72       3.4431996    
[...]
  44499400   286.15713     -2.2520819     -16127141       2.3907673      852.12707     -16126289       566.60113      566.60113      566.60113      1716.6994      2283.3006      1716.6994      2283.3006      1716.6994      2283.3006      1.8189984e+08  0.5            22454700       21.148915      6898.4191      13796.835      0.77463208   
  44499600   306.59111      1.8239722     -16127143       2.3908624      912.97596     -16126230       566.59362      566.59362      566.59362      1716.7032      2283.2968      1716.7032      2283.2968      1716.7032      2283.2968      1.8189261e+08  0.5            22454800       21.163367      6919.5691      13839.156      0.7600105    
  44499800   294.59131      2.6155475     -16127145       2.3908811      877.24262     -16126268       566.59214      566.59214      566.59214      1716.7039      2283.2961      1716.7039      2283.2961      1716.7039      2283.2961      1.8189118e+08  0.5            22454900       21.178318      6688.5274      13377.024      0.74540671   
  44500000   312.91691     -1.6033693     -16127147       2.3907831      931.81313     -16126215       566.59989      566.59989      566.59989      1716.7001      2283.2999      1716.7001      2283.2999      1716.7001      2283.2999      1.8189864e+08  0.5            22455000       21.194387      6222.9984      12445.901      0.73084103   
  44500200   292.86454      3.818285      -16127148       2.3909165      872.1006      -16126276       566.58935      566.58935      566.58935      1716.7053      2283.2947      1716.7053      2283.2947      1716.7053      2283.2947      1.8188849e+08  0.5            22455100       21.209315      6699.0396      13398.17       0.7162347    
  44500400   306.74468     -1.8922816     -16127149       2.3907886      913.43329     -16126236       566.59946      566.59946      566.59946      1716.7003      2283.2997      1716.7003      2283.2997      1716.7003      2283.2997      1.8189822e+08  0.5            22455200       21.223759      6923.0896      13846.168      0.70161196   
  44500600   284.61613      3.9965097     -16127150       2.3909361      847.53824     -16126302       566.58781      566.58781      566.58781      1716.7061      2283.2939      1716.7061      2283.2939      1716.7061      2283.2939      1.81887e+08    0.5            22455300       21.238177      6936.0244      13872.095      0.68698859   
  44500800   304.63572     -1.5804746     -16127520       2.3908166      907.15317     -16126613       566.59725      566.59725      566.59725      1716.7014      2283.2986      1716.7014      2283.2986      1716.7014      2283.2986      1.818961e+08   0.5            22455400       21.252586      6940.1541      13880.318      0.67236523   
  44501000   294.81576      3.4503843     -16127521       2.390939       877.911       -16126643       566.58758      566.58758      566.58758      1716.7062      2283.2938      1716.7062      2283.2938      1716.7062      2283.2938      1.8188678e+08  0.5            22455500       21.267034      6921.4393      13842.84       0.65774338   
  44501200   305.07963     -0.12703449    -16127521       2.3908533      908.47504     -16126612       566.59434      566.59434      566.59434      1716.7028      2283.2972      1716.7028      2283.2972      1716.7028      2283.2972      1.818933e+08   0.5            22455600       21.282144      6617.9786      13235.973      0.64314178   
  44501400   298.06945     -1.4824769     -16127521       2.390817       887.59993     -16126634       566.59721      566.59721      566.59721      1716.7014      2283.2986      1716.7014      2283.2986      1716.7014      2283.2986      1.8189606e+08  0.5            22455700       21.296563      6935.4515      13870.916      0.62851907   
  44501600   300.74161      4.4569445     -16127522       2.390951       895.55715     -16126627       566.58663      566.58663      566.58663      1716.7067      2283.2933      1716.7067      2283.2933      1716.7067      2283.2933      1.8188587e+08  0.5            22455800       21.310967      6942.5497      13885.134      0.61389622   
  44501800   304.43064      4.6695743     -16127524       2.3909451      906.54246     -16126618       566.58709      566.58709      566.58709      1716.7065      2283.2935      1716.7065      2283.2935      1716.7065      2283.2935      1.8188632e+08  0.5            22455900       21.325409      6924.2439      13848.454      0.59927474   
  44502000   295.30814     -0.92699511    -16127527       2.3907994      879.37721     -16126648       566.5986       566.5986       566.5986       1716.7007      2283.2993      1716.7007      2283.2993      1716.7007      2283.2993      1.818974e+08   0.5            22456000       21.339851      6923.9524      13847.8        0.58465352   
  44502200   304.74657     -5.4527692     -16127531       2.3906784      907.48326     -16126623       566.60816      566.60816      566.60816      1716.6959      2283.3041      1716.6959      2283.3041      1716.6959      2283.3041      1.8190661e+08  0.5            22456100       21.354532      6811.8058      13623.719      0.57003889   
  44502400   293.90004     -5.1009335     -16127904       2.3906805      875.18414     -16127028       566.60799      566.60799      566.60799      1716.696       2283.304       1716.696       2283.304       1716.696       2283.304       1.8190645e+08  0.5            22456200       21.368986      6918.1114      13836.194      0.55541831   
  44502600   301.70179      6.3305351     -16127909       2.3909426      898.41641     -16127011       566.58729      566.58729      566.58729      1716.7064      2283.2936      1716.7064      2283.2936      1716.7064      2283.2936      1.8188651e+08  0.5            22456300       21.383882      6713.2887      13426.603      0.54080911   
  44502800   295.03564      8.4429431     -16127915       2.390984       878.56574     -16127037       566.58402      566.58402      566.58402      1716.708       2283.292       1716.708       2283.292       1716.708       2283.292       1.8188336e+08  0.5            22456400       21.398346      6914.0466      13828.092      0.52618888   
  44503000   304.00502     -9.2823624     -16127922       2.3905561      905.27503     -16127017       566.61782      566.61782      566.61782      1716.6911      2283.3089      1716.6911      2283.3089      1716.6911      2283.3089      1.8191591e+08  0.5            22456500       21.414028      6376.4681      12752.898      0.511598     
  44503200   298.21991      7.2990542     -16127931       2.3909435      888.04798     -16127043       566.58722      566.58722      566.58722      1716.7064      2283.2936      1716.7064      2283.2936      1716.7064      2283.2936      1.8188644e+08  0.5            22456600       21.428911      6719.1003      13438.252      0.49698707   
  44503400   300.07794     -2.2181902     -16127939       2.3907136      893.58085     -16127045       566.60538      566.60538      566.60538      1716.6973      2283.3027      1716.6973      2283.3027      1716.6973      2283.3027      1.8190393e+08  0.5            22456700       21.443334      6933.5136      13866.998      0.48236543   
  44503600   297.8765       3.547104      -16127946       2.3908457      887.02536     -16127059       566.59495      566.59495      566.59495      1716.7025      2283.2975      1716.7025      2283.2975      1716.7025      2283.2975      1.8189388e+08  0.5            22456800       21.457681      6970.1624      13940.35       0.46774241   
  44503800   295.71151     -3.1733229     -16127952       2.390686       880.57837     -16127072       566.60756      566.60756      566.60756      1716.6962      2283.3038      1716.6962      2283.3038      1716.6962      2283.3038      1.8190603e+08  0.5            22456900       21.472287      6846.5511      13693.114      0.45312522   
  44504000   302.06153      7.5011449     -16127958       2.3909388      899.48767     -16127058       566.58759      566.58759      566.58759      1716.7062      2283.2938      1716.7062      2283.2938      1716.7062      2283.2938      1.8188679e+08  0.5            22457000       21.486951      6819.2822      13638.56       0.43850925   
  44504200   293.28902     -5.9706981     -16127962       2.3906251      873.36463     -16127089       566.61237      566.61237      566.61237      1716.6938      2283.3062      1716.6938      2283.3062      1716.6938      2283.3062      1.8191066e+08  0.5            22457100       21.501781      6743.1038      13486.216      0.42389647   
  44504400   312.76018      4.8268586     -16127967       2.3908845      931.3464      -16127036       566.59188      566.59188      566.59188      1716.7041      2283.2959      1716.7041      2283.2959      1716.7041      2283.2959      1.8189093e+08  0.5            22457200       21.516185      6942.3073      13884.598      0.4092753    
  44504600   293.42914      4.3534534     -16127971       2.3908809      873.78188     -16127098       566.59216      566.59216      566.59216      1716.7039      2283.2961      1716.7039      2283.2961      1716.7039      2283.2961      1.818912e+08   0.5            22457300       21.53059       6942.2528      13884.482      0.39465444   
  44504800   305.92316     -7.4143299     -16127976       2.3906121      910.98692     -16127065       566.6134       566.6134       566.6134       1716.6933      2283.3067      1716.6933      2283.3067      1716.6933      2283.3067      1.8191165e+08  0.5            22457400       21.545016      6932.1423      13864.283      0.38003423   
  44505000   282.68597      6.1697911     -16127983       2.3909484      841.79056     -16127142       566.58683      566.58683      566.58683      1716.7066      2283.2934      1716.7066      2283.2934      1716.7066      2283.2934      1.8188606e+08  0.5            22457500       21.559534      6883.1282      13766.194      0.36541603   
  44505200   306.75884      5.6929368     -16128360       2.3909554      913.47543     -16127447       566.58628      566.58628      566.58628      1716.7069      2283.2931      1716.7069      2283.2931      1716.7069      2283.2931      1.8188553e+08  0.5            22457600       21.574648      6620.7075      13241.502      0.35080732   
  44505400   291.84773     -2.5511105     -16128370       2.3907759      869.0727      -16127501       566.60046      566.60046      566.60046      1716.6998      2283.3002      1716.6998      2283.3002      1716.6998      2283.3002      1.8189919e+08  0.5            22457700       21.589071      6933.3439      13866.683      0.33618733   
  44505600   317.68718      0.81813627    -16128749       2.3908766      946.01816     -16127803       566.5925       566.5925       566.5925       1716.7037      2283.2963      1716.7037      2283.2963      1716.7037      2283.2963      1.8189153e+08  0.5            22457800       21.603504      6928.7542      13857.499      0.32156774   
  44505800   296.08638      5.0703331     -16128758       2.390994       881.69467     -16127877       566.58323      566.58323      566.58323      1716.7084      2283.2916      1716.7084      2283.2916      1716.7084      2283.2916      1.818826e+08   0.5            22457900       21.617925      6933.878       13867.724      0.30694826   
  44506000   304.73629      4.5127515     -16128767       2.3909967      907.45264     -16127859       566.58301      566.58301      566.58301      1716.7085      2283.2915      1716.7085      2283.2915      1716.7085      2283.2915      1.8188239e+08  0.5            22458000       21.63236       6927.7265      13855.405      0.29232922   
  44506200   296.67218      3.6025402     -16128773       2.3909854      883.4391      -16127890       566.58391      566.58391      566.58391      1716.708       2283.292       1716.708       2283.292       1716.708       2283.292       1.8188325e+08  0.5            22458100       21.646943      6857.4792      13715.026      0.27771233   
  44506400   301.43275      2.9206979     -16128779       2.3909683      897.61525     -16127881       566.58526      566.58526      566.58526      1716.7074      2283.2926      1716.7074      2283.2926      1716.7074      2283.2926      1.8188455e+08  0.5            22458200       21.661349      6941.2515      13882.515      0.26309334   
  44506600   301.21619      2.6135392     -16128784       2.3909504      896.97037     -16127887       566.58667      566.58667      566.58667      1716.7067      2283.2933      1716.7067      2283.2933      1716.7067      2283.2933      1.8188591e+08  0.5            22458300       21.676224      6723.0904      13446.176      0.24848      
  44506800   299.64392      2.4741024     -16128790       2.3909336      892.28844     -16127898       566.588        566.588        566.588        1716.706       2283.294       1716.706       2283.294       1716.706       2283.294       1.8188719e+08  0.5            22458400       21.690648      6932.6781      13865.359      0.23386146   
  44507000   300.59728      0.54523385    -16129165       2.3908854      895.12736     -16128269       566.5918       566.5918       566.5918       1716.7041      2283.2959      1716.7041      2283.2959      1716.7041      2283.2959      1.8189086e+08  0.5            22458500       21.705088      6925.0078      13849.947      0.21924334   
  44507200   291.31266      0.0080752955  -16129170       2.3908726      867.47934     -16128302       566.59282      566.59282      566.59282      1716.7036      2283.2964      1716.7036      2283.2964      1716.7036      2283.2964      1.8189183e+08  0.5            22458600       21.719736      6826.9903      13654.043      0.20462741   
  44507400   309.14601     -0.12637536    -16128806       2.3908681      920.58403     -16127886       566.59318      566.59318      566.59318      1716.7034      2283.2966      1716.7034      2283.2966      1716.7034      2283.2966      1.8189218e+08  0.5            22458700       21.734438      6801.9507      13603.931      0.19001192   
  44507600   297.35614     -0.15745432    -16128811       2.3908721      885.4758      -16127925       566.59286      566.59286      566.59286      1716.7036      2283.2964      1716.7036      2283.2964      1716.7036      2283.2964      1.8189187e+08  0.5            22458800       21.748833      6946.9396      13893.809      0.17539383   
  44507800   304.36197     -0.40675753    -16128816       2.390872       906.33797     -16127910       566.59286      566.59286      566.59286      1716.7036      2283.2964      1716.7036      2283.2964      1716.7036      2283.2964      1.8189188e+08  0.5            22458900       21.763244      6938.8389      13877.728      0.16077617   
  44508000   291.20743     -0.61320334    -16128821       2.3908769      867.16599     -16127954       566.59248      566.59248      566.59248      1716.7038      2283.2962      1716.7038      2283.2962      1716.7038      2283.2962      1.8189151e+08  0.5            22459000       21.778159      6704.5339      13408.964      0.14616216   
  44508200   310.90961     -0.6204062     -16128828       2.3908904      925.83574     -16127902       566.59141      566.59141      566.59141      1716.7043      2283.2957      1716.7043      2283.2957      1716.7043      2283.2957      1.8189048e+08  0.5            22459100       21.792989      6743.1911      13486.487      0.13154723   
  44508400   289.78292     -0.31209312    -16128834       2.3909153      862.92404     -16127971       566.58945      566.58945      566.58945      1716.7053      2283.2947      1716.7053      2283.2947      1716.7053      2283.2947      1.8188859e+08  0.5            22459200       21.807507      6888.3446      13776.702      0.11693034   
  44508600   304.11199      0.26714946    -16128842       2.3909441      905.59359     -16127936       566.58717      566.58717      566.58717      1716.7064      2283.2936      1716.7064      2283.2936      1716.7064      2283.2936      1.8188639e+08  0.5            22459300       21.821877      6958.6517      13917.269      0.1023129    
  44508800   289.8107       3.2519743     -16129218       2.3910287      863.00677     -16128355       566.58049      566.58049      566.58049      1716.7098      2283.2902      1716.7098      2283.2902      1716.7098      2283.2902      1.8187996e+08  0.5            22459400       21.836232      6966.2032      13932.436      0.08769572   
  44509000   302.87003      3.6564504     -16129226       2.3910413      901.89524     -16128324       566.57949      566.57949      566.57949      1716.7103      2283.2897      1716.7103      2283.2897      1716.7103      2283.2897      1.81879e+08    0.5            22459500       21.85077       6878.5073      13756.964      0.073079538  
  44509200   298.80291      3.9057242     -16129232       2.3910459      889.78405     -16128342       566.57913      566.57913      566.57913      1716.7104      2283.2896      1716.7104      2283.2896      1716.7104      2283.2896      1.8187865e+08  0.5            22459600       21.865479      6798.7251      13597.47       0.058463853  
  44509400   299.82141      4.8767679     -16129236       2.3910656      892.81697     -16128344       566.57757      566.57757      566.57757      1716.7112      2283.2888      1716.7112      2283.2888      1716.7112      2283.2888      1.8187715e+08  0.5            22459700       21.880411      6697.0669      13394.122      0.043848523  
  44509600   304.84642      6.1761202     -16129239       2.3910954      907.78058     -16128331       566.57522      566.57522      566.57522      1716.7124      2283.2876      1716.7124      2283.2876      1716.7124      2283.2876      1.8187488e+08  0.5            22459800       21.894865      6918.6102      13837.281      0.029232132  
  44509800   297.97336     -2.309934      -16129609       2.3909083      887.3138      -16128722       566.59         566.59         566.59         1716.705       2283.295       1716.705       2283.295       1716.705       2283.295       1.8188911e+08  0.5            22459900       21.909345      6905.7812      13811.478      0.014615976  
  44510000   303.61811      0.91362591    -16129611       2.3909937      904.12288     -16128707       566.58325      566.58325      566.58325      1716.7084      2283.2916      1716.7084      2283.2916      1716.7084      2283.2916      1.8188262e+08  0.5            22460000       21.923817      6909.8372      13819.624      0            
Loop time of 21.9238 on 4 procs for 300000 steps with 1000 atoms

Performance: 591.137 ns/day, 0.041 hours/ns, 13683.733 timesteps/s
99.5% CPU use with 4 MPI tasks x no OpenMP threads

MPI task timing breakdown:
Section |  min time  |  avg time  |  max time  |%varavg| %total
---------------------------------------------------------------
Pair    | 10.6       | 11.437     | 12.461     |  19.6 | 52.17
Neigh   | 0.01389    | 0.014916   | 0.016302   |   0.8 |  0.07
Comm    | 4.7487     | 5.7155     | 6.4874     |  26.0 | 26.07
Output  | 0.045719   | 0.050289   | 0.061175   |   2.8 |  0.23
Modify  | 3.883      | 3.9223     | 3.9778     |   1.7 | 17.89
Other   |            | 0.7838     |            |       |  3.58

Nlocal:            250 ave         271 max         238 min
Histogram: 1 1 0 1 0 0 0 0 0 1
Nghost:            916 ave         927 max         904 min
Histogram: 1 0 0 0 1 0 1 0 0 1
Neighs:        1711.25 ave        1912 max        1620 min
Histogram: 2 1 0 0 0 0 0 0 0 1

Total # of neighbors = 6845
Ave neighs/atom = 6.845
Neighbor list builds = 69
Dangerous builds = 0

# run_style
run_style verlet

# write restart
write_restart ${write_res}
write_restart ./pgnpmf/82/equpmf63.res
System init for write_restart ...
Generated 0 of 1 mixed pair_coeff terms from geometric mixing rule

Total wall time: 0:00:47
