LAMMPS (23 Jun 2022 - Update 1)
OMP_NUM_THREADS environment is not set. Defaulting to 1 thread. (src/comm.cpp:98)
  using 1 OpenMP thread(s) per MPI task
# Read restart
read_restart ${read_res}
read_restart ./pgnpmf/trial2/82/equpmf71.res
Reading restart file ...
  restart file = 23 Jun 2022, LAMMPS = 23 Jun 2022
  restoring atom style atomic from restart
  orthogonal box = (1717.0086 1717.0086 1717.0086) to (2282.9914 2282.9914 2282.9914)
  1 by 2 by 2 MPI processor grid
  restoring pair style table from restart
  1000 atoms
  read_restart CPU = 0.044 seconds

# Settings

pair_style table spline 9941

pair_coeff 1 1 ./pgnpmf/N20.txt DE_GNP 75.6
pair_coeff 2 2 ./pgnpmf/N100.txt DE_GNP 115.92
WARNING: 3 of 9941 force values in table DE_GNP are inconsistent with -dE/dr.
WARNING:  Should only be flagged at inflection points (src/pair_table.cpp:463)
pair_coeff 1 2 ./pgnpmf/mixed_potential.txt DE_GNP 95.66
WARNING: 1562 of 9941 force values in table DE_GNP are inconsistent with -dE/dr.
WARNING:  Should only be flagged at inflection points (src/pair_table.cpp:463)

#Neigh_list Calc Frequency

neigh_modify delay 0 every 1 check yes

# computes
compute vor all voronoi/atom

# Saving Frequency (50 frames)
variable ts_save equal ${steps_equ}
variable ts_save equal 5000

# Dump
dump 1 all custom 100000 ./pgnpmf/${folder}/voronoi/voronoi_${usic}_${trial}.custom type x y z ix iy iz c_vor[1] c_vor[2]
dump 1 all custom 100000 ./pgnpmf/trial2/82/voronoi/voronoi_${usic}_${trial}.custom type x y z ix iy iz c_vor[1] c_vor[2]
dump 1 all custom 100000 ./pgnpmf/trial2/82/voronoi/voronoi_1_${trial}.custom type x y z ix iy iz c_vor[1] c_vor[2]
dump 1 all custom 100000 ./pgnpmf/trial2/82/voronoi/voronoi_1_1.custom type x y z ix iy iz c_vor[1] c_vor[2]
dump_modify 1 first no sort id
#dump 2 all cfg 50000 ./pgnpmf/${folder}/equilibration/trajectory/dumpgen.tens_*.cfg mass type xs ys zs fx fy fz
#dump_modify 2 element N20 N100

# thermo_style
thermo_style custom step temp press pe density ke etotal lx ly lz xlo xhi ylo yhi zlo zhi vol dt time cpu tpcpu spcpu cpuremain

# run info
timestep ${ts}
timestep 0.5
thermo 200

# fix

fix 1 all momentum 1000 linear 1 1 1 angular
variable T equal ${temp}
variable T equal 300
fix 2 all nvt temp ${T} ${T} 100.0
fix 2 all nvt temp 300 ${T} 100.0
fix 2 all nvt temp 300 300 100.0

run 100000
Generated 0 of 1 mixed pair_coeff terms from geometric mixing rule
Unused restart file global fix info:
  fix style: npt, fix ID: 5
Neighbor list info ...
  update every 1 steps, delay 0 steps, check yes
  max neighbors/atom: 2000, page size: 100000
  master list distance cutoff = 117.92
  ghost atom cutoff = 117.92
  binsize = 58.96, bins = 10 10 10
  1 neighbor lists, perpetual/occasional/extra = 1 0 0
  (1) pair table, perpetual
      attributes: half, newton on
      pair build: half/bin/atomonly/newton
      stencil: half/bin/3d
      bin: standard
Per MPI rank memory allocation (min/avg/max) = 3.107 | 3.108 | 3.108 Mbytes
   Step          Temp          Press          PotEng        Density         KinEng         TotEng           Lx             Ly             Lz            Xlo            Xhi            Ylo            Yhi            Zlo            Zhi           Volume           Dt            Time           CPU           T/CPU          S/CPU         CPULeft    
  50110000   296.45759     -7.736845      -16286014       2.3986108      882.80008     -16285131       565.98287      565.98287      565.98287      1717.0086      2282.9914      1717.0086      2282.9914      1717.0086      2282.9914      1.8130503e+08  0.5            25260000       0              0              0              0            
  50110200   301.46625     -7.0455047     -16286020       2.3986108      897.71502     -16285123       565.98287      565.98287      565.98287      1717.0086      2282.9914      1717.0086      2282.9914      1717.0086      2282.9914      1.8130503e+08  0.5            25260100       0.017862669    5597.9579      11195.23       8.9151026    
  50110400   309.00559     -6.3122292     -16286027       2.3986108      920.16588     -16285107       565.98287      565.98287      565.98287      1717.0086      2282.9914      1717.0086      2282.9914      1717.0086      2282.9914      1.8130503e+08  0.5            25260200       0.03443635     6033.7296      12067.536      8.5753513    
  50110600   303.16497     -5.635002      -16286033       2.3986108      902.77351     -16285130       565.98287      565.98287      565.98287      1717.0086      2282.9914      1717.0086      2282.9914      1717.0086      2282.9914      1.8130503e+08  0.5            25260300       0.050164235    6358.1906      12716.464      8.3109614    
  50110800   290.94101     -5.0263315     -16286039       2.3986108      866.37265     -16285172       565.98287      565.98287      565.98287      1717.0086      2282.9914      1717.0086      2282.9914      1717.0086      2282.9914      1.8130503e+08  0.5            25260400       0.065737153    6421.4008      12842.818      8.1517151    
  50111000   296.43455     -4.4541511     -16286044       2.3986108      882.73146     -16285161       565.98287      565.98287      565.98287      1717.0086      2282.9914      1717.0086      2282.9914      1717.0086      2282.9914      1.8130503e+08  0.5            25260500       0.081350365    6404.8062      12809.551      8.053942     
  50111200   310.40722     -3.9008579     -16286048       2.3986108      924.33971     -16285124       565.98287      565.98287      565.98287      1717.0086      2282.9914      1717.0086      2282.9914      1717.0086      2282.9914      1.8130503e+08  0.5            25260600       0.096963992    6404.6618      12809.338      7.9835864    
  50111400   305.56536     -3.4047233     -16286051       2.3986108      909.92146     -16285141       565.98287      565.98287      565.98287      1717.0086      2282.9914      1717.0086      2282.9914      1717.0086      2282.9914      1.8130503e+08  0.5            25260700       0.11253112     6423.816       12847.583      7.9255915    
  50111600   286.32373     -3.0744366     -16286054       2.3986108      852.62319     -16285201       565.98287      565.98287      565.98287      1717.0086      2282.9914      1717.0086      2282.9914      1717.0086      2282.9914      1.8130503e+08  0.5            25260800       0.12806853     6436.1118      12872.29       7.8763683    
  50111800   296.45915     -2.7968883     -16286058       2.3986108      882.80473     -16285175       565.98287      565.98287      565.98287      1717.0086      2282.9914      1717.0086      2282.9914      1717.0086      2282.9914      1.8130503e+08  0.5            25260900       0.1435956      6440.3776      12880.737      7.8340695    
  50112000   308.05318     -2.3268632     -16286063       2.3986108      917.32976     -16285146       565.98287      565.98287      565.98287      1717.0086      2282.9914      1717.0086      2282.9914      1717.0086      2282.9914      1.8130503e+08  0.5            25261000       0.15918727     6413.6762      12827.372      7.8002953    
  50112200   303.81171     -1.6020634     -16286068       2.3986108      904.69939     -16285164       565.98287      565.98287      565.98287      1717.0086      2282.9914      1717.0086      2282.9914      1717.0086      2282.9914      1.8130503e+08  0.5            25261100       0.17473602     6431.3819      12862.717      7.7679185    
  50112400   290.87322     -0.81672229    -16286073       2.3986108      866.17077     -16285207       565.98287      565.98287      565.98287      1717.0086      2282.9914      1717.0086      2282.9914      1717.0086      2282.9914      1.8130503e+08  0.5            25261200       0.1902916      6428.565       12857.151      7.7386229    
  50112600   294.14006     -0.17687897    -16286079       2.3986108      875.89886     -16285203       565.98287      565.98287      565.98287      1717.0086      2282.9914      1717.0086      2282.9914      1717.0086      2282.9914      1.8130503e+08  0.5            25261300       0.2058587      6423.8102      12847.652      7.7118718    
  50112800   300.73082      0.32550929    -16286084       2.3986108      895.52502     -16285189       565.98287      565.98287      565.98287      1717.0086      2282.9914      1717.0086      2282.9914      1717.0086      2282.9914      1.8130503e+08  0.5            25261400       0.22140226     6433.528       12867.023      7.6859057    
  50113000   302.71076      0.79577838    -16286091       2.3986108      901.42096     -16285190       565.98287      565.98287      565.98287      1717.0086      2282.9914      1717.0086      2282.9914      1717.0086      2282.9914      1.8130503e+08  0.5            25261500       0.23784622     6081.2085      12162.331      7.69045      
  50113200   299.25153      1.2285199     -16286099       2.3986108      891.11997     -16285208       565.98287      565.98287      565.98287      1717.0086      2282.9914      1717.0086      2282.9914      1717.0086      2282.9914      1.8130503e+08  0.5            25261600       0.25338853     6434.0794      12868.233      7.6650816    
  50113400   291.69         1.2097715     -16288002       2.3986108      868.60302     -16287134       565.98287      565.98287      565.98287      1717.0086      2282.9914      1717.0086      2282.9914      1717.0086      2282.9914      1.8130503e+08  0.5            25261700       0.26891944     6438.8043      12877.609      7.6405461    
  50113600   290.95192      1.1812194     -16288009       2.3986108      866.40515     -16287143       565.98287      565.98287      565.98287      1717.0086      2282.9914      1717.0086      2282.9914      1717.0086      2282.9914      1.8130503e+08  0.5            25261800       0.28446315     6433.4887      12867.017      7.6173543    
  50113800   310.07161      0.70702847    -16288016       2.3986108      923.3403      -16287092       565.98287      565.98287      565.98287      1717.0086      2282.9914      1717.0086      2282.9914      1717.0086      2282.9914      1.8130503e+08  0.5            25261900       0.30002363     6426.5213      12853.05       7.5953964    
  50114000   312.33915     -0.017386059   -16288022       2.3986108      930.09267     -16287092       565.98287      565.98287      565.98287      1717.0086      2282.9914      1717.0086      2282.9914      1717.0086      2282.9914      1.8130503e+08  0.5            25262000       0.31559711     6421.1761      12842.34       7.5743879    
  50114200   298.41011     -0.63565297    -16288030       2.3986108      888.61434     -16287141       565.98287      565.98287      565.98287      1717.0086      2282.9914      1717.0086      2282.9914      1717.0086      2282.9914      1.8130503e+08  0.5            25262100       0.33113904     6434.2036      12868.426      7.5531778    
  50114400   297.88991     -1.0841257     -16288037       2.3986108      887.06528     -16287150       565.98287      565.98287      565.98287      1717.0086      2282.9914      1717.0086      2282.9914      1717.0086      2282.9914      1.8130503e+08  0.5            25262200       0.34668486     6432.6143      12865.197      7.5325674    
  50114600   301.75496     -1.4093585     -16288045       2.3986108      898.57473     -16287146       565.98287      565.98287      565.98287      1717.0086      2282.9914      1717.0086      2282.9914      1717.0086      2282.9914      1.8130503e+08  0.5            25262300       0.36223677     6430.0585      12860.144      7.5125254    
  50114800   301.91712     -1.6183104     -16288051       2.3986108      899.05762     -16287152       565.98287      565.98287      565.98287      1717.0086      2282.9914      1717.0086      2282.9914      1717.0086      2282.9914      1.8130503e+08  0.5            25262400       0.37779458     6427.6531      12855.286      7.4929733    
  50115000   289.71428     -1.8710629     -16288057       2.3986108      862.71964     -16287194       565.98287      565.98287      565.98287      1717.0086      2282.9914      1717.0086      2282.9914      1717.0086      2282.9914      1.8130503e+08  0.5            25262500       0.39336795     6421.2157      12842.44       7.4740361    
  50115200   290.51146     -2.1359769     -16288063       2.3986108      865.09352     -16287198       565.98287      565.98287      565.98287      1717.0086      2282.9914      1717.0086      2282.9914      1717.0086      2282.9914      1.8130503e+08  0.5            25262600       0.40895906     6413.9008      12827.787      7.4556822    
  50115400   309.35812     -2.204299      -16288071       2.3986108      921.21565     -16287150       565.98287      565.98287      565.98287      1717.0086      2282.9914      1717.0086      2282.9914      1717.0086      2282.9914      1.8130503e+08  0.5            25262700       0.42449397     6437.1422      12874.308      7.4365458    
  50115600   310.28213     -1.8944818     -16286184       2.3986108      923.96721     -16285260       565.98287      565.98287      565.98287      1717.0086      2282.9914      1717.0086      2282.9914      1717.0086      2282.9914      1.8130503e+08  0.5            25262800       0.44003473     6434.6814      12869.35       7.4177693    
  50115800   302.5896      -2.0175559     -16286193       2.3986108      901.06016     -16285292       565.98287      565.98287      565.98287      1717.0086      2282.9914      1717.0086      2282.9914      1717.0086      2282.9914      1.8130503e+08  0.5            25262900       0.45556004     6441.0824      12882.156      7.3989633    
  50116000   300.44925     -2.3452957     -16286204       2.3986108      894.68655     -16285309       565.98287      565.98287      565.98287      1717.0086      2282.9914      1717.0086      2282.9914      1717.0086      2282.9914      1.8130503e+08  0.5            25263000       0.47138827     6317.7883      12635.514      7.3851243    
  50116200   299.33464     -2.9181966     -16286215       2.3986108      891.36745     -16285324       565.98287      565.98287      565.98287      1717.0086      2282.9914      1717.0086      2282.9914      1717.0086      2282.9914      1.8130503e+08  0.5            25263100       0.48689982     6446.836       12893.738      7.3663606    
  50116400   295.94574     -3.6221551     -16286226       2.3986108      881.27588     -16285345       565.98287      565.98287      565.98287      1717.0086      2282.9914      1717.0086      2282.9914      1717.0086      2282.9914      1.8130503e+08  0.5            25263200       0.50245915     6426.9971      12854.024      7.3485003    
  50116600   287.74054     -4.2281525     -16286237       2.3986108      856.8422      -16285380       565.98287      565.98287      565.98287      1717.0086      2282.9914      1717.0086      2282.9914      1717.0086      2282.9914      1.8130503e+08  0.5            25263300       0.51797425     6445.3592      12890.718      7.3301539    
  50116800   294.35422     -4.5165369     -16286248       2.3986108      876.5366      -16285371       565.98287      565.98287      565.98287      1717.0086      2282.9914      1717.0086      2282.9914      1717.0086      2282.9914      1.8130503e+08  0.5            25263400       0.53349323     6443.725       12887.382      7.3120291    
  50117000   314.13237     -4.6564939     -16286259       2.3986108      935.43255     -16285324       565.98287      565.98287      565.98287      1717.0086      2282.9914      1717.0086      2282.9914      1717.0086      2282.9914      1.8130503e+08  0.5            25263500       0.54902203     6439.6174      12879.268      7.2941824    
  50117200   308.57549     -4.9493955     -16286271       2.3986108      918.88511     -16285352       565.98287      565.98287      565.98287      1717.0086      2282.9914      1717.0086      2282.9914      1717.0086      2282.9914      1.8130503e+08  0.5            25263600       0.56452481     6450.4955      12901.007      7.2761268    
  50117400   300.45948     -5.4557162     -16286281       2.3986108      894.71702     -16285386       565.98287      565.98287      565.98287      1717.0086      2282.9914      1717.0086      2282.9914      1717.0086      2282.9914      1.8130503e+08  0.5            25263700       0.58000567     6459.5807      12919.182      7.2579381    
  50117600   300.06832     -5.9493161     -16286290       2.3986108      893.55223     -16285397       565.98287      565.98287      565.98287      1717.0086      2282.9914      1717.0086      2282.9914      1717.0086      2282.9914      1.8130503e+08  0.5            25263800       0.59549651     6455.4337      12910.829      7.2400126    
  50117800   300.01146     -6.3508706     -16286302       2.3986108      893.38291     -16285408       565.98287      565.98287      565.98287      1717.0086      2282.9914      1717.0086      2282.9914      1717.0086      2282.9914      1.8130503e+08  0.5            25263900       0.61104227     6432.6217      12865.284      7.2228612    
  50118000   294.95558     -6.7094097     -16286316       2.3986108      878.32735     -16285438       565.98287      565.98287      565.98287      1717.0086      2282.9914      1717.0086      2282.9914      1717.0086      2282.9914      1.8130503e+08  0.5            25264000       0.62657555     6437.7837      12875.557      7.2056461    
  50118200   288.11682     -7.2093685     -16286330       2.3986108      857.96269     -16285472       565.98287      565.98287      565.98287      1717.0086      2282.9914      1717.0086      2282.9914      1717.0086      2282.9914      1.8130503e+08  0.5            25264100       0.64209225     6444.6772      12889.329      7.1883277    
  50118400   299.72568     -7.8777623     -16286344       2.3986108      892.53189     -16285451       565.98287      565.98287      565.98287      1717.0086      2282.9914      1717.0086      2282.9914      1717.0086      2282.9914      1.8130503e+08  0.5            25264200       0.65765829     6424.2419      12848.496      7.1716327    
  50118600   319.08167     -8.476058      -16286359       2.3986108      950.17071     -16285409       565.98287      565.98287      565.98287      1717.0086      2282.9914      1717.0086      2282.9914      1717.0086      2282.9914      1.8130503e+08  0.5            25264300       0.67304514     6499.1016      12998.34       7.1530821    
  50118800   308.36174     -8.8746655     -16286376       2.3986108      918.24859     -16285457       565.98287      565.98287      565.98287      1717.0086      2282.9914      1717.0086      2282.9914      1717.0086      2282.9914      1.8130503e+08  0.5            25264400       0.68818349     6605.7188      13211.42       7.1321043    
  50119000   302.71975     -9.2595061     -16286391       2.3986108      901.44772     -16285489       565.98287      565.98287      565.98287      1717.0086      2282.9914      1717.0086      2282.9914      1717.0086      2282.9914      1.8130503e+08  0.5            25264500       0.70336945     6585.0424      13170.087      7.1118667    
  50119200   298.46511     -9.6113668     -16286404       2.3986108      888.77812     -16285515       565.98287      565.98287      565.98287      1717.0086      2282.9914      1717.0086      2282.9914      1717.0086      2282.9914      1.8130503e+08  0.5            25264600       0.71851953     6600.6182      13201.227      7.0914952    
  50119400   296.42485     -9.6236806     -16286417       2.3986108      882.70258     -16285534       565.98287      565.98287      565.98287      1717.0086      2282.9914      1717.0086      2282.9914      1717.0086      2282.9914      1.8130503e+08  0.5            25264700       0.73366432     6602.9521      13205.907      7.0712941    
  50119600   298.28077     -9.3906179     -16286431       2.3986108      888.2292      -16285542       565.98287      565.98287      565.98287      1717.0086      2282.9914      1717.0086      2282.9914      1717.0086      2282.9914      1.8130503e+08  0.5            25264800       0.74880712     6603.7706      13207.577      7.0512855    
  50119800   300.94221     -9.0456356     -16286443       2.3986108      896.15452     -16285547       565.98287      565.98287      565.98287      1717.0086      2282.9914      1717.0086      2282.9914      1717.0086      2282.9914      1.8130503e+08  0.5            25264900       0.76393962     6608.3139      13216.644      7.0313804    
  50120000   298.8913      -8.5396061     -16286454       2.3986108      890.04727     -16285564       565.98287      565.98287      565.98287      1717.0086      2282.9914      1717.0086      2282.9914      1717.0086      2282.9914      1.8130503e+08  0.5            25265000       0.77909368     6598.8903      13197.741      7.0118608    
  50120200   294.60112     -8.0232266     -16286464       2.3986108      877.27183     -16285587       565.98287      565.98287      565.98287      1717.0086      2282.9914      1717.0086      2282.9914      1717.0086      2282.9914      1.8130503e+08  0.5            25265100       0.79462572     6438.3201      12876.657      6.995839     
  50120400   297.02437     -7.5006492     -16286475       2.3986108      884.48786     -16285590       565.98287      565.98287      565.98287      1717.0086      2282.9914      1717.0086      2282.9914      1717.0086      2282.9914      1.8130503e+08  0.5            25265200       0.81052043     6291.3523      12582.646      6.9829642    
  50120600   308.20767     -7.030165      -16286485       2.3986108      917.7898      -16285567       565.98287      565.98287      565.98287      1717.0086      2282.9914      1717.0086      2282.9914      1717.0086      2282.9914      1.8130503e+08  0.5            25265300       0.82564367     6612.3476      13224.746      6.9634648    
  50120800   309.95601     -6.7475793     -16286494       2.3986108      922.99606     -16285571       565.98287      565.98287      565.98287      1717.0086      2282.9914      1717.0086      2282.9914      1717.0086      2282.9914      1.8130503e+08  0.5            25265400       0.84077001     6610.9894      13221.952      6.9441545    
  50121000   293.74711     -6.659287      -16286502       2.3986108      874.72874     -16285628       565.98287      565.98287      565.98287      1717.0086      2282.9914      1717.0086      2282.9914      1717.0086      2282.9914      1.8130503e+08  0.5            25265500       0.85591188     6604.2093      13208.472      6.9251211    
  50121200   295.4596      -6.6947487     -16286512       2.3986108      879.82825     -16285632       565.98287      565.98287      565.98287      1717.0086      2282.9914      1717.0086      2282.9914      1717.0086      2282.9914      1.8130503e+08  0.5            25265600       0.87105328     6604.4222      13208.815      6.9062235    
  50121400   305.5253      -7.1880342     -16286890       2.3986108      909.80217     -16285980       565.98287      565.98287      565.98287      1717.0086      2282.9914      1717.0086      2282.9914      1717.0086      2282.9914      1.8130503e+08  0.5            25265700       0.88654806     6453.7789      12907.551      6.8902046    
  50121600   306.81973     -7.6182619     -16286900       2.3986108      913.65677     -16285987       565.98287      565.98287      565.98287      1717.0086      2282.9914      1717.0086      2282.9914      1717.0086      2282.9914      1.8130503e+08  0.5            25265800       0.90172382     6589.451       13178.865      6.871773     
  50121800   288.38768     -8.3255261     -16286909       2.3986108      858.76928     -16286050       565.98287      565.98287      565.98287      1717.0086      2282.9914      1717.0086      2282.9914      1717.0086      2282.9914      1.8130503e+08  0.5            25265900       0.91685159     6610.3928      13220.842      6.8530915    
  50122000   294.12454     -9.2514765     -16286916       2.3986108      875.85266     -16286041       565.98287      565.98287      565.98287      1717.0086      2282.9914      1717.0086      2282.9914      1717.0086      2282.9914      1.8130503e+08  0.5            25266000       0.93199192     6604.8575      13209.707      6.8346217    
  50122200   307.81777     -9.4389858     -16285028       2.3986108      916.62876     -16284112       565.98287      565.98287      565.98287      1717.0086      2282.9914      1717.0086      2282.9914      1717.0086      2282.9914      1.8130503e+08  0.5            25266100       0.94714126     6600.9341      13201.903      6.8163254    
  50122400   306.62854     -9.8869148     -16285037       2.3986108      913.08743     -16284124       565.98287      565.98287      565.98287      1717.0086      2282.9914      1717.0086      2282.9914      1717.0086      2282.9914      1.8130503e+08  0.5            25266200       0.96229393     6599.5292      13199.044      6.7981544    
  50122600   293.79163     -10.418529     -16285046       2.3986108      874.8613      -16284171       565.98287      565.98287      565.98287      1717.0086      2282.9914      1717.0086      2282.9914      1717.0086      2282.9914      1.8130503e+08  0.5            25266300       0.97744402     6600.5647      13201.108      6.7800621    
  50122800   296.25658     -10.367346     -16285055       2.3986108      882.20151     -16284173       565.98287      565.98287      565.98287      1717.0086      2282.9914      1717.0086      2282.9914      1717.0086      2282.9914      1.8130503e+08  0.5            25266400       0.99258391     6605.0813      13210.157      6.7619915    
  50123000   303.23893     -10.197311     -16285065       2.3986108      902.99376     -16284162       565.98287      565.98287      565.98287      1717.0086      2282.9914      1717.0086      2282.9914      1717.0086      2282.9914      1.8130503e+08  0.5            25266500       1.0077642      6587.5302      13175.081      6.7442808    
  50123200   304.2159      -10.457299     -16285077       2.3986108      905.903       -16284171       565.98287      565.98287      565.98287      1717.0086      2282.9914      1717.0086      2282.9914      1717.0086      2282.9914      1.8130503e+08  0.5            25266600       1.0228974      6607.9904      13215.963      6.7263378    
  50123400   292.89489     -10.852948     -16285087       2.3986108      872.19096     -16284215       565.98287      565.98287      565.98287      1717.0086      2282.9914      1717.0086      2282.9914      1717.0086      2282.9914      1.8130503e+08  0.5            25266700       1.0380467      6600.9746      13201.954      6.7085826    
  50123600   291.35852     -11.068401     -16285097       2.3986108      867.61592     -16284229       565.98287      565.98287      565.98287      1717.0086      2282.9914      1717.0086      2282.9914      1717.0086      2282.9914      1.8130503e+08  0.5            25266800       1.0531911      6603.0991      13206.217      6.690873     
  50123800   311.83364     -11.053115     -16285108       2.3986108      928.58733     -16284179       565.98287      565.98287      565.98287      1717.0086      2282.9914      1717.0086      2282.9914      1717.0086      2282.9914      1.8130503e+08  0.5            25266900       1.0683337      6603.8809      13207.744      6.6732266    
  50124000   321.20672     -11.170908     -16285119       2.3986108      956.49877     -16284162       565.98287      565.98287      565.98287      1717.0086      2282.9914      1717.0086      2282.9914      1717.0086      2282.9914      1.8130503e+08  0.5            25267000       1.0835093      6589.5209      13179.068      6.6558543    
  50124200   308.91229     -11.379988     -16285129       2.3986108      919.88804     -16284209       565.98287      565.98287      565.98287      1717.0086      2282.9914      1717.0086      2282.9914      1717.0086      2282.9914      1.8130503e+08  0.5            25267100       1.0986596      6600.5359      13201.049      6.638391     
  50124400   299.84243     -11.108777     -16285140       2.3986108      892.87954     -16284247       565.98287      565.98287      565.98287      1717.0086      2282.9914      1717.0086      2282.9914      1717.0086      2282.9914      1.8130503e+08  0.5            25267200       1.1141213      6467.5707      12935.112      6.6228441    
  50124600   294.53496     -10.538458     -16285150       2.3986108      877.07483     -16284273       565.98287      565.98287      565.98287      1717.0086      2282.9914      1717.0086      2282.9914      1717.0086      2282.9914      1.8130503e+08  0.5            25267300       1.1292847      6594.8601      13189.755      6.6055533    
  50124800   298.54061     -10.287218     -16285160       2.3986108      889.00296     -16284271       565.98287      565.98287      565.98287      1717.0086      2282.9914      1717.0086      2282.9914      1717.0086      2282.9914      1.8130503e+08  0.5            25267400       1.1444188      6607.6035      13215.176      6.5881518    
  50125000   308.46098     -10.301485     -16285170       2.3986108      918.54413     -16284252       565.98287      565.98287      565.98287      1717.0086      2282.9914      1717.0086      2282.9914      1717.0086      2282.9914      1.8130503e+08  0.5            25267500       1.1595776      6596.8182      13193.674      6.5709503    
  50125200   306.06828     -10.733604     -16287076       2.3986108      911.41908     -16286164       565.98287      565.98287      565.98287      1717.0086      2282.9914      1717.0086      2282.9914      1717.0086      2282.9914      1.8130503e+08  0.5            25267600       1.1747147      6606.2695      13212.53       6.5536824    
  50125400   292.08057     -11.01359      -16287086       2.3986108      869.76607     -16286217       565.98287      565.98287      565.98287      1717.0086      2282.9914      1717.0086      2282.9914      1717.0086      2282.9914      1.8130503e+08  0.5            25267700       1.1898318      6615.0551      13230.111      6.5363586    
  50125600   297.00994     -11.331544     -16287097       2.3986108      884.44489     -16286213       565.98287      565.98287      565.98287      1717.0086      2282.9914      1717.0086      2282.9914      1717.0086      2282.9914      1.8130503e+08  0.5            25267800       1.2049659      6607.5594      13215.121      6.5191847    
  50125800   308.13679     -11.286624     -16287109       2.3986108      917.57874     -16286192       565.98287      565.98287      565.98287      1717.0086      2282.9914      1717.0086      2282.9914      1717.0086      2282.9914      1.8130503e+08  0.5            25267900       1.2200508      6629.1703      13258.332      6.5017998    
  50126000   303.49626     -11.095336     -16287121       2.3986108      903.76004     -16286217       565.98287      565.98287      565.98287      1717.0086      2282.9914      1717.0086      2282.9914      1717.0086      2282.9914      1.8130503e+08  0.5            25268000       1.2351528      6621.6158      13243.241      6.4845623    
  50126200   288.84189     -10.93765      -16287130       2.3986108      860.12181     -16286270       565.98287      565.98287      565.98287      1717.0086      2282.9914      1717.0086      2282.9914      1717.0086      2282.9914      1.8130503e+08  0.5            25268100       1.250246       6625.4783      13250.932      6.4673324    
  50126400   298.29892     -10.66186      -16287139       2.3986108      888.28325     -16286251       565.98287      565.98287      565.98287      1717.0086      2282.9914      1717.0086      2282.9914      1717.0086      2282.9914      1.8130503e+08  0.5            25268200       1.2653622      6615.484       13230.912      6.4502707    
  50126600   309.88241     -10.457289     -16287148       2.3986108      922.77689     -16286225       565.98287      565.98287      565.98287      1717.0086      2282.9914      1717.0086      2282.9914      1717.0086      2282.9914      1.8130503e+08  0.5            25268300       1.2804921      6609.3879      13218.859      6.4333256    
  50126800   301.7697      -10.204522     -16287157       2.3986108      898.61863     -16286258       565.98287      565.98287      565.98287      1717.0086      2282.9914      1717.0086      2282.9914      1717.0086      2282.9914      1.8130503e+08  0.5            25268400       1.295635       6603.73        13207.421      6.4164879    
  50127000   289.97134     -9.9018434     -16287165       2.3986108      863.48513     -16286301       565.98287      565.98287      565.98287      1717.0086      2282.9914      1717.0086      2282.9914      1717.0086      2282.9914      1.8130503e+08  0.5            25268500       1.3108002      6594.0477      13188.089      6.3997992    
  50127200   297.72484     -9.5385754     -16287172       2.3986108      886.57375     -16286286       565.98287      565.98287      565.98287      1717.0086      2282.9914      1717.0086      2282.9914      1717.0086      2282.9914      1.8130503e+08  0.5            25268600       1.3259142      6616.3892      13232.811      6.3828989    
  50127400   305.6801      -9.0168171     -16287178       2.3986108      910.26313     -16286268       565.98287      565.98287      565.98287      1717.0086      2282.9914      1717.0086      2282.9914      1717.0086      2282.9914      1.8130503e+08  0.5            25268700       1.3410507      6606.5654      13213.108      6.3661462    
  50127600   302.37338     -8.5372839     -16287184       2.3986108      900.41629     -16286284       565.98287      565.98287      565.98287      1717.0086      2282.9914      1717.0086      2282.9914      1717.0086      2282.9914      1.8130503e+08  0.5            25268800       1.3561847      6607.624       13215.266      6.3494195    
  50127800   286.57734     -8.3317918     -16287189       2.3986108      853.37837     -16286336       565.98287      565.98287      565.98287      1717.0086      2282.9914      1717.0086      2282.9914      1717.0086      2282.9914      1.8130503e+08  0.5            25268900       1.3713039      6614.1407      13228.319      6.3326591    
  50128000   291.80011     -8.3458861     -16287194       2.3986108      868.9309      -16286325       565.98287      565.98287      565.98287      1717.0086      2282.9914      1717.0086      2282.9914      1717.0086      2282.9914      1.8130503e+08  0.5            25269000       1.3864445      6604.762       13209.473      6.3160337    
  50128200   303.38174     -8.7299659     -16289092       2.3986108      903.41903     -16288189       565.98287      565.98287      565.98287      1717.0086      2282.9914      1717.0086      2282.9914      1717.0086      2282.9914      1.8130503e+08  0.5            25269100       1.4015852      6604.6891      13209.421      6.2994408    
  50128400   303.20653     -8.7727967     -16289097       2.3986108      902.89727     -16288194       565.98287      565.98287      565.98287      1717.0086      2282.9914      1717.0086      2282.9914      1717.0086      2282.9914      1.8130503e+08  0.5            25269200       1.4167308      6602.5968      13205.188      6.2829012    
  50128600   298.06733     -8.7917392     -16289102       2.3986108      887.59361     -16288215       565.98287      565.98287      565.98287      1717.0086      2282.9914      1717.0086      2282.9914      1717.0086      2282.9914      1.8130503e+08  0.5            25269300       1.4318848      6598.906       13197.759      6.2664292    
  50128800   293.99262     -8.7271464     -16289108       2.3986108      875.45983     -16288233       565.98287      565.98287      565.98287      1717.0086      2282.9914      1717.0086      2282.9914      1717.0086      2282.9914      1.8130503e+08  0.5            25269400       1.4470379      6599.2932      13198.619      6.2499806    
  50129000   298.5691      -8.6706753     -16289115       2.3986108      889.08781     -16288226       565.98287      565.98287      565.98287      1717.0086      2282.9914      1717.0086      2282.9914      1717.0086      2282.9914      1.8130503e+08  0.5            25269500       1.4624953      6469.4134      12938.804      6.2348568    
  50129200   313.08        -8.7503815     -16289122       2.3986108      932.29878     -16288190       565.98287      565.98287      565.98287      1717.0086      2282.9914      1717.0086      2282.9914      1717.0086      2282.9914      1.8130503e+08  0.5            25269600       1.4775872      6626.0824      13252.165      6.2181875    
  50129400   306.39871     -8.8019541     -16289128       2.3986108      912.40303     -16288216       565.98287      565.98287      565.98287      1717.0086      2282.9914      1717.0086      2282.9914      1717.0086      2282.9914      1.8130503e+08  0.5            25269700       1.4927042      6615.0696      13230.167      6.2016553    
  50129600   293.53095     -8.5614472     -16289134       2.3986108      874.08505     -16288260       565.98287      565.98287      565.98287      1717.0086      2282.9914      1717.0086      2282.9914      1717.0086      2282.9914      1.8130503e+08  0.5            25269800       1.5078455      6604.4126      13208.827      6.1852518    
  50129800   297.74768     -8.1336437     -16289140       2.3986108      886.64175     -16288253       565.98287      565.98287      565.98287      1717.0086      2282.9914      1717.0086      2282.9914      1717.0086      2282.9914      1.8130503e+08  0.5            25269900       1.5229814      6606.8622      13213.703      6.1688514    
  50130000   305.7678      -7.8091216     -16289146       2.3986108      910.5243      -16288235       565.98287      565.98287      565.98287      1717.0086      2282.9914      1717.0086      2282.9914      1717.0086      2282.9914      1.8130503e+08  0.5            25270000       1.5381041      6612.5561      13225.141      6.1524238    
  50130200   302.96033     -7.758549      -16289152       2.3986108      902.16413     -16288249       565.98287      565.98287      565.98287      1717.0086      2282.9914      1717.0086      2282.9914      1717.0086      2282.9914      1.8130503e+08  0.5            25270100       1.5531958      6626.1342      13252.26       6.1359001    
  50130400   286.17782     -7.9188808     -16289157       2.3986108      852.18867     -16288304       565.98287      565.98287      565.98287      1717.0086      2282.9914      1717.0086      2282.9914      1717.0086      2282.9914      1.8130503e+08  0.5            25270200       1.5682826      6628.3332      13256.675      6.1193845    
  50130600   294.87154     -8.0955245     -16289162       2.3986108      878.07709     -16288284       565.98287      565.98287      565.98287      1717.0086      2282.9914      1717.0086      2282.9914      1717.0086      2282.9914      1.8130503e+08  0.5            25270300       1.5833788      6624.1902      13248.362      6.1029333    
  50130800   308.04359     -8.1538465     -16289168       2.3986108      917.3012      -16288251       565.98287      565.98287      565.98287      1717.0086      2282.9914      1717.0086      2282.9914      1717.0086      2282.9914      1.8130503e+08  0.5            25270400       1.5984616      6630.0573      13260.1        6.0864572    
  50131000   305.39868     -8.4175817     -16289544       2.3986108      909.42513     -16288634       565.98287      565.98287      565.98287      1717.0086      2282.9914      1717.0086      2282.9914      1717.0086      2282.9914      1.8130503e+08  0.5            25270500       1.6136053      6603.372       13206.757      6.0702368    
  50131200   299.6396      -8.53637       -16289552       2.3986108      892.27557     -16288659       565.98287      565.98287      565.98287      1717.0086      2282.9914      1717.0086      2282.9914      1717.0086      2282.9914      1.8130503e+08  0.5            25270600       1.6287085      6621.1594      13242.342      6.0538857    
  50131400   300.05549     -8.6848647     -16289560       2.3986108      893.51401     -16288666       565.98287      565.98287      565.98287      1717.0086      2282.9914      1717.0086      2282.9914      1717.0086      2282.9914      1.8130503e+08  0.5            25270700       1.6438021      6625.3088      13250.599      6.0375232    
  50131600   301.4095      -8.6956544     -16289568       2.3986108      897.54602     -16288670       565.98287      565.98287      565.98287      1717.0086      2282.9914      1717.0086      2282.9914      1717.0086      2282.9914      1.8130503e+08  0.5            25270800       1.6589094      6619.3274      13238.672      6.0212335    
  50131800   299.61025     -8.5188179     -16289575       2.3986108      892.18817     -16288683       565.98287      565.98287      565.98287      1717.0086      2282.9914      1717.0086      2282.9914      1717.0086      2282.9914      1.8130503e+08  0.5            25270900       1.6740269      6614.832       13229.619      6.0050026    
  50132000   285.83151     -8.2456679     -16289582       2.3986108      851.15743     -16288731       565.98287      565.98287      565.98287      1717.0086      2282.9914      1717.0086      2282.9914      1717.0086      2282.9914      1.8130503e+08  0.5            25271000       1.6891323      6620.1732      13240.346      5.9887486    
  50132200   286.01144     -7.9718641     -16289589       2.3986108      851.69322     -16288737       565.98287      565.98287      565.98287      1717.0086      2282.9914      1717.0086      2282.9914      1717.0086      2282.9914      1.8130503e+08  0.5            25271100       1.7042701      6605.9575      13211.918      5.9726291    
  50132400   306.13166     -7.8358581     -16289965       2.3986108      911.6078      -16289054       565.98287      565.98287      565.98287      1717.0086      2282.9914      1717.0086      2282.9914      1717.0086      2282.9914      1.8130503e+08  0.5            25271200       1.719376       6619.9032      13239.823      5.9564166    
  50132600   307.3825      -7.2568951     -16289606       2.3986108      915.3326      -16288690       565.98287      565.98287      565.98287      1717.0086      2282.9914      1717.0086      2282.9914      1717.0086      2282.9914      1.8130503e+08  0.5            25271300       1.7344774      6621.9421      13243.903      5.9402077    
  50132800   299.19344     -7.0799077     -16289616       2.3986108      890.94698     -16288725       565.98287      565.98287      565.98287      1717.0086      2282.9914      1717.0086      2282.9914      1717.0086      2282.9914      1.8130503e+08  0.5            25271400       1.7495724      6624.7207      13249.456      5.923997     
  50133000   296.34668     -7.1575308     -16289626       2.3986108      882.46982     -16288744       565.98287      565.98287      565.98287      1717.0086      2282.9914      1717.0086      2282.9914      1717.0086      2282.9914      1.8130503e+08  0.5            25271500       1.7646823      6618.177       13236.327      5.9078557    
  50133200   300.72828     -7.4545782     -16289637       2.3986108      895.51747     -16288741       565.98287      565.98287      565.98287      1717.0086      2282.9914      1717.0086      2282.9914      1717.0086      2282.9914      1.8130503e+08  0.5            25271600       1.7797479      6637.6244      13275.255      5.8915855    
  50133400   308.61733     -7.8039892     -16289647       2.3986108      919.0097      -16288728       565.98287      565.98287      565.98287      1717.0086      2282.9914      1717.0086      2282.9914      1717.0086      2282.9914      1.8130503e+08  0.5            25271700       1.7948214      6634.1549      13268.307      5.8753616    
  50133600   305.98337     -8.1560352     -16289658       2.3986108      911.16621     -16288746       565.98287      565.98287      565.98287      1717.0086      2282.9914      1717.0086      2282.9914      1717.0086      2282.9914      1.8130503e+08  0.5            25271800       1.8099329      6617.4733      13234.935      5.8592804    
  50133800   294.05315     -8.6340236     -16289668       2.3986108      875.64008     -16288793       565.98287      565.98287      565.98287      1717.0086      2282.9914      1717.0086      2282.9914      1717.0086      2282.9914      1.8130503e+08  0.5            25271900       1.8250136      6630.9937      13261.989      5.8431168    
  50134000   295.03077     -9.2238753     -16289678       2.3986108      878.55125     -16288799       565.98287      565.98287      565.98287      1717.0086      2282.9914      1717.0086      2282.9914      1717.0086      2282.9914      1.8130503e+08  0.5            25272000       1.8400917      6632.1257      13264.248      5.8269632    
  50134200   306.51785     -9.7820192     -16289687       2.3986108      912.75783     -16288774       565.98287      565.98287      565.98287      1717.0086      2282.9914      1717.0086      2282.9914      1717.0086      2282.9914      1.8130503e+08  0.5            25272100       1.8551391      6645.6889      13291.388      5.8107308    
  50134400   312.01554     -10.153517     -16289694       2.3986108      929.12899     -16288765       565.98287      565.98287      565.98287      1717.0086      2282.9914      1717.0086      2282.9914      1717.0086      2282.9914      1.8130503e+08  0.5            25272200       1.8701858      6645.9574      13291.921      5.7945161    
  50134600   292.87252     -10.263444     -16289702       2.3986108      872.12434     -16288829       565.98287      565.98287      565.98287      1717.0086      2282.9914      1717.0086      2282.9914      1717.0086      2282.9914      1.8130503e+08  0.5            25272300       1.8852418      6641.8708      13283.761      5.7783486    
  50134800   293.40289     -10.145788     -16289709       2.3986108      873.70369     -16288835       565.98287      565.98287      565.98287      1717.0086      2282.9914      1717.0086      2282.9914      1717.0086      2282.9914      1.8130503e+08  0.5            25272400       1.9003208      6631.7589      13263.493      5.7622687    
  50135000   305.14799     -9.8997794     -16289717       2.3986108      908.6786      -16288809       565.98287      565.98287      565.98287      1717.0086      2282.9914      1717.0086      2282.9914      1717.0086      2282.9914      1.8130503e+08  0.5            25272500       1.9154322      6617.5162      13235.036      5.7463022    
  50135200   308.32595     -9.6705097     -16289726       2.3986108      918.14204     -16288808       565.98287      565.98287      565.98287      1717.0086      2282.9914      1717.0086      2282.9914      1717.0086      2282.9914      1.8130503e+08  0.5            25272600       1.9305146      6630.2313      13260.476      5.7302632    
  50135400   288.64022     -9.5079234     -16289733       2.3986108      859.52129     -16288874       565.98287      565.98287      565.98287      1717.0086      2282.9914      1717.0086      2282.9914      1717.0086      2282.9914      1.8130503e+08  0.5            25272700       1.9455948      6631.2056      13262.397      5.7142329    
  50135600   291.61208     -9.323017      -16289740       2.3986108      868.37097     -16288871       565.98287      565.98287      565.98287      1717.0086      2282.9914      1717.0086      2282.9914      1717.0086      2282.9914      1.8130503e+08  0.5            25272800       1.9606797      6629.1598      13258.336      5.6982308    
  50135800   303.8628      -8.8335157     -16289377       2.3986108      904.85152     -16288472       565.98287      565.98287      565.98287      1717.0086      2282.9914      1717.0086      2282.9914      1717.0086      2282.9914      1.8130503e+08  0.5            25272900       1.9757843      6620.4848      13240.971      5.6822999    
  50136000   306.03019     -8.4936248     -16289383       2.3986108      911.30566     -16288471       565.98287      565.98287      565.98287      1717.0086      2282.9914      1717.0086      2282.9914      1717.0086      2282.9914      1.8130503e+08  0.5            25273000       1.9909149      6609.1481      13218.301      5.6664553    
  50136200   294.89975     -8.175672      -16289388       2.3986108      878.16111     -16288510       565.98287      565.98287      565.98287      1717.0086      2282.9914      1717.0086      2282.9914      1717.0086      2282.9914      1.8130503e+08  0.5            25273100       2.006059       6603.1898      13206.355      5.6506602    
  50136400   285.17466     -7.9249311     -16289394       2.3986108      849.20144     -16288545       565.98287      565.98287      565.98287      1717.0086      2282.9914      1717.0086      2282.9914      1717.0086      2282.9914      1.8130503e+08  0.5            25273200       2.0211705      6617.5184      13235.045      5.6347837    
  50136600   306.38879     -7.6506151     -16289401       2.3986108      912.37349     -16288489       565.98287      565.98287      565.98287      1717.0086      2282.9914      1717.0086      2282.9914      1717.0086      2282.9914      1.8130503e+08  0.5            25273300       2.036271       6622.2758      13244.548      5.6188981    
  50136800   315.50954     -7.6197863     -16291304       2.3986108      939.53354     -16290365       565.98287      565.98287      565.98287      1717.0086      2282.9914      1717.0086      2282.9914      1717.0086      2282.9914      1.8130503e+08  0.5            25273400       2.0513779      6619.4878      13238.994      5.6030225    
  50137000   299.31974     -7.2817732     -16291312       2.3986108      891.32306     -16290420       565.98287      565.98287      565.98287      1717.0086      2282.9914      1717.0086      2282.9914      1717.0086      2282.9914      1.8130503e+08  0.5            25273500       2.0665019      6612.0065      13224.03       5.587214     
  50137200   293.99017     -6.9777727     -16291318       2.3986108      875.45252     -16290443       565.98287      565.98287      565.98287      1717.0086      2282.9914      1717.0086      2282.9914      1717.0086      2282.9914      1.8130503e+08  0.5            25273600       2.0818874      6499.6191      12999.183      5.5721159    
  50137400   300.398       -6.6224426     -16291323       2.3986108      894.53396     -16290429       565.98287      565.98287      565.98287      1717.0086      2282.9914      1717.0086      2282.9914      1717.0086      2282.9914      1.8130503e+08  0.5            25273700       2.0970209      6607.8607      13215.734      5.5563453    
  50137600   310.97643     -6.1507682     -16291328       2.3986108      926.03471     -16290402       565.98287      565.98287      565.98287      1717.0086      2282.9914      1717.0086      2282.9914      1717.0086      2282.9914      1.8130503e+08  0.5            25273800       2.1121557      6607.3101      13214.664      5.5405872    
  50137800   303.959       -5.2804532     -16289438       2.3986108      905.138       -16288533       565.98287      565.98287      565.98287      1717.0086      2282.9914      1717.0086      2282.9914      1717.0086      2282.9914      1.8130503e+08  0.5            25273900       2.1272474      6626.1838      13252.352      5.5247265    
  50138000   289.36904     -4.7553614     -16289444       2.3986108      861.69159     -16288582       565.98287      565.98287      565.98287      1717.0086      2282.9914      1717.0086      2282.9914      1717.0086      2282.9914      1.8130503e+08  0.5            25274000       2.1423642      6615.1308      13230.254      5.5089414    
  50138200   297.41345     -4.384879      -16289449       2.3986108      885.64648     -16288563       565.98287      565.98287      565.98287      1717.0086      2282.9914      1717.0086      2282.9914      1717.0086      2282.9914      1.8130503e+08  0.5            25274100       2.1574755      6617.5354      13235.068      5.4931518    
  50138400   308.53351     -4.2857106     -16289454       2.3986108      918.7601      -16288536       565.98287      565.98287      565.98287      1717.0086      2282.9914      1717.0086      2282.9914      1717.0086      2282.9914      1.8130503e+08  0.5            25274200       2.1725526      6632.6078      13265.219      5.4772852    
  50138600   302.73504     -4.4699271     -16289459       2.3986108      901.49324     -16288557       565.98287      565.98287      565.98287      1717.0086      2282.9914      1717.0086      2282.9914      1717.0086      2282.9914      1.8130503e+08  0.5            25274300       2.1876226      6635.697       13271.348      5.4614123    
  50138800   284.60055     -4.6954302     -16289462       2.3986108      847.49183     -16288615       565.98287      565.98287      565.98287      1717.0086      2282.9914      1717.0086      2282.9914      1717.0086      2282.9914      1.8130503e+08  0.5            25274400       2.2027144      6626.1109      13252.272      5.4456042    
  50139000   291.12867     -4.7945871     -16289466       2.3986108      866.93146     -16288599       565.98287      565.98287      565.98287      1717.0086      2282.9914      1717.0086      2282.9914      1717.0086      2282.9914      1.8130503e+08  0.5            25274500       2.2178333      6614.2483      13228.476      5.4298724    
  50139200   302.70192     -4.8075099     -16289469       2.3986108      901.39463     -16288568       565.98287      565.98287      565.98287      1717.0086      2282.9914      1717.0086      2282.9914      1717.0086      2282.9914      1.8130503e+08  0.5            25274600       2.2329169      6629.725       13259.418      5.4140634    
  50139400   307.008       -4.7061415     -16289474       2.3986108      914.2174      -16288560       565.98287      565.98287      565.98287      1717.0086      2282.9914      1717.0086      2282.9914      1717.0086      2282.9914      1.8130503e+08  0.5            25274700       2.2480018      6629.1167      13258.276      5.3982675    
  50139600   296.36017     -4.5171428     -16289479       2.3986108      882.50996     -16288596       565.98287      565.98287      565.98287      1717.0086      2282.9914      1717.0086      2282.9914      1717.0086      2282.9914      1.8130503e+08  0.5            25274800       2.2631153      6616.6356      13233.278      5.3825489    
  50139800   288.43224     -4.6548684     -16289853       2.3986108      858.90197     -16288994       565.98287      565.98287      565.98287      1717.0086      2282.9914      1717.0086      2282.9914      1717.0086      2282.9914      1.8130503e+08  0.5            25274900       2.2782239      6618.7277      13237.447      5.3668272    
  50140000   302.43884     -4.7044109     -16289857       2.3986108      900.61122     -16288957       565.98287      565.98287      565.98287      1717.0086      2282.9914      1717.0086      2282.9914      1717.0086      2282.9914      1.8130503e+08  0.5            25275000       2.2933532      6609.7064      13219.426      5.3511618    
  50140200   316.83267     -4.8003218     -16289860       2.3986108      943.4736      -16288917       565.98287      565.98287      565.98287      1717.0086      2282.9914      1717.0086      2282.9914      1717.0086      2282.9914      1.8130503e+08  0.5            25275100       2.3085224      6592.2859      13184.57       5.3355959    
  50140400   307.8323      -4.9765217     -16289863       2.3986108      916.67201     -16288946       565.98287      565.98287      565.98287      1717.0086      2282.9914      1717.0086      2282.9914      1717.0086      2282.9914      1.8130503e+08  0.5            25275200       2.323632       6618.2936      13236.567      5.3198987    
  50140600   296.19006     -5.2940387     -16289865       2.3986108      882.00341     -16288983       565.98287      565.98287      565.98287      1717.0086      2282.9914      1717.0086      2282.9914      1717.0086      2282.9914      1.8130503e+08  0.5            25275300       2.3387518      6613.8734      13227.763      5.3042321    
  50140800   293.86224     -5.7423648     -16289869       2.3986108      875.07158     -16288994       565.98287      565.98287      565.98287      1717.0086      2282.9914      1717.0086      2282.9914      1717.0086      2282.9914      1.8130503e+08  0.5            25275400       2.3538776      6611.2376      13222.479      5.2885862    
  50141000   304.1938      -6.2324205     -16289873       2.3986108      905.8372      -16288967       565.98287      565.98287      565.98287      1717.0086      2282.9914      1717.0086      2282.9914      1717.0086      2282.9914      1.8130503e+08  0.5            25275500       2.368989       6617.4632      13234.915      5.2729154    
  50141200   313.82639     -6.6864619     -16289878       2.3986108      934.5214      -16288943       565.98287      565.98287      565.98287      1717.0086      2282.9914      1717.0086      2282.9914      1717.0086      2282.9914      1.8130503e+08  0.5            25275600       2.3840977      6618.7412      13237.491      5.2572452    
  50141400   295.4134      -7.1069293     -16289882       2.3986108      879.69067     -16289002       565.98287      565.98287      565.98287      1717.0086      2282.9914      1717.0086      2282.9914      1717.0086      2282.9914      1.8130503e+08  0.5            25275700       2.3992114      6616.5231      13233.058      5.2415932    
  50141600   290.86592     -7.3884117     -16289886       2.3986108      866.14905     -16289020       565.98287      565.98287      565.98287      1717.0086      2282.9914      1717.0086      2282.9914      1717.0086      2282.9914      1.8130503e+08  0.5            25275800       2.4143347      6612.2741      13224.522      5.2259692    
  50141800   302.61385     -7.5585548     -16289892       2.3986108      901.13238     -16288991       565.98287      565.98287      565.98287      1717.0086      2282.9914      1717.0086      2282.9914      1717.0086      2282.9914      1.8130503e+08  0.5            25275900       2.4294505      6615.6008      13231.224      5.2103351    
  50142000   308.73047     -7.7643866     -16289899       2.3986108      919.34662     -16288980       565.98287      565.98287      565.98287      1717.0086      2282.9914      1717.0086      2282.9914      1717.0086      2282.9914      1.8130503e+08  0.5            25276000       2.4445981      6601.7285      13203.452      5.1947749    
  50142200   294.98545     -7.9108296     -16289907       2.3986108      878.41629     -16289028       565.98287      565.98287      565.98287      1717.0086      2282.9914      1717.0086      2282.9914      1717.0086      2282.9914      1.8130503e+08  0.5            25276100       2.4596997      6621.836       13243.591      5.1791232    
  50142400   288.59869     -7.9837057     -16289913       2.3986108      859.39762     -16289054       565.98287      565.98287      565.98287      1717.0086      2282.9914      1717.0086      2282.9914      1717.0086      2282.9914      1.8130503e+08  0.5            25276200       2.4748182      6614.4049      13228.859      5.1635135    
  50142600   298.29735     -8.0438961     -16289920       2.3986108      888.27856     -16289032       565.98287      565.98287      565.98287      1717.0086      2282.9914      1717.0086      2282.9914      1717.0086      2282.9914      1.8130503e+08  0.5            25276300       2.4899424      6611.9104      13223.84       5.1479217    
  50142800   305.68278     -7.8535799     -16289928       2.3986108      910.27113     -16289018       565.98287      565.98287      565.98287      1717.0086      2282.9914      1717.0086      2282.9914      1717.0086      2282.9914      1.8130503e+08  0.5            25276400       2.5050936      6600.1277      13200.276      5.1323907    
  50143000   301.71938     -7.3063319     -16289936       2.3986108      898.46878     -16289038       565.98287      565.98287      565.98287      1717.0086      2282.9914      1717.0086      2282.9914      1717.0086      2282.9914      1.8130503e+08  0.5            25276500       2.5202126      6614.1945      13228.366      5.1167991    
  50143200   288.03959     -6.6688625     -16289944       2.3986108      857.73271     -16289087       565.98287      565.98287      565.98287      1717.0086      2282.9914      1717.0086      2282.9914      1717.0086      2282.9914      1.8130503e+08  0.5            25276600       2.5353422      6609.5548      13219.119      5.1012345    
  50143400   293.33579     -6.1572951     -16289952       2.3986108      873.5039      -16289078       565.98287      565.98287      565.98287      1717.0086      2282.9914      1717.0086      2282.9914      1717.0086      2282.9914      1.8130503e+08  0.5            25276700       2.5504539      6617.3874      13234.779      5.0856395    
  50143600   314.81519     -5.7968758     -16289959       2.3986108      937.46587     -16289022       565.98287      565.98287      565.98287      1717.0086      2282.9914      1717.0086      2282.9914      1717.0086      2282.9914      1.8130503e+08  0.5            25276800       2.5655807      6610.8115      13221.602      5.0700798    
  50143800   313.0847      -5.4153732     -16289968       2.3986108      932.31279     -16289036       565.98287      565.98287      565.98287      1717.0086      2282.9914      1717.0086      2282.9914      1717.0086      2282.9914      1.8130503e+08  0.5            25276900       2.580691       6617.9651      13235.956      5.0544933    
  50144000   301.35075     -5.0024375     -16289977       2.3986108      897.37109     -16289080       565.98287      565.98287      565.98287      1717.0086      2282.9914      1717.0086      2282.9914      1717.0086      2282.9914      1.8130503e+08  0.5            25277000       2.595829       6605.8794      13211.748      5.038966     
  50144200   293.99522     -4.4461622     -16289617       2.3986108      875.46756     -16288742       565.98287      565.98287      565.98287      1717.0086      2282.9914      1717.0086      2282.9914      1717.0086      2282.9914      1.8130503e+08  0.5            25277100       2.610976       6601.9604      13203.892      5.0234606    
  50144400   297.86231     -4.2429045     -16289626       2.3986108      886.98309     -16288739       565.98287      565.98287      565.98287      1717.0086      2282.9914      1717.0086      2282.9914      1717.0086      2282.9914      1.8130503e+08  0.5            25277200       2.6261171      6604.5783      13209.203      5.0079478    
  50144600   308.85111     -4.2326631     -16289634       2.3986108      919.70586     -16288714       565.98287      565.98287      565.98287      1717.0086      2282.9914      1717.0086      2282.9914      1717.0086      2282.9914      1.8130503e+08  0.5            25277300       2.6412648      6601.6684      13203.288      4.9924521    
  50144800   307.9376      -4.3699832     -16289641       2.3986108      916.9856      -16288724       565.98287      565.98287      565.98287      1717.0086      2282.9914      1717.0086      2282.9914      1717.0086      2282.9914      1.8130503e+08  0.5            25277400       2.6564019      6606.2944      13212.602      4.9769404    
  50145000   290.65285     -4.5379473     -16289647       2.3986108      865.51454     -16288781       565.98287      565.98287      565.98287      1717.0086      2282.9914      1717.0086      2282.9914      1717.0086      2282.9914      1.8130503e+08  0.5            25277500       2.6715397      6605.9749      13211.987      4.9614343    
  50145200   294.96447     -4.6730437     -16289653       2.3986108      878.35384     -16288774       565.98287      565.98287      565.98287      1717.0086      2282.9914      1717.0086      2282.9914      1717.0086      2282.9914      1.8130503e+08  0.5            25277600       2.6866703      6609.1058      13218.214      4.9459192    
  50145400   306.90066     -4.8578376     -16289659       2.3986108      913.89775     -16288745       565.98287      565.98287      565.98287      1717.0086      2282.9914      1717.0086      2282.9914      1717.0086      2282.9914      1.8130503e+08  0.5            25277700       2.7017809      6617.8626      13235.689      4.9303721    
  50145600   305.88456     -5.2375205     -16289666       2.3986108      910.87199     -16288755       565.98287      565.98287      565.98287      1717.0086      2282.9914      1717.0086      2282.9914      1717.0086      2282.9914      1.8130503e+08  0.5            25277800       2.7168992      6614.5279      13229.05       4.9148435    
  50145800   285.39969     -5.7810187     -16289672       2.3986108      849.87155     -16288822       565.98287      565.98287      565.98287      1717.0086      2282.9914      1717.0086      2282.9914      1717.0086      2282.9914      1.8130503e+08  0.5            25277900       2.7319972      6623.3772      13246.737      4.8992834    
  50146000   292.09683     -6.1803108     -16289678       2.3986108      869.81448     -16288809       565.98287      565.98287      565.98287      1717.0086      2282.9914      1717.0086      2282.9914      1717.0086      2282.9914      1.8130503e+08  0.5            25278000       2.7474146      6486.1834      12972.388      4.8842961    
  50146200   304.89057     -6.2895459     -16289685       2.3986108      907.91205     -16288777       565.98287      565.98287      565.98287      1717.0086      2282.9914      1717.0086      2282.9914      1717.0086      2282.9914      1.8130503e+08  0.5            25278100       2.7625456      6608.9271      13217.885      4.8687993    
  50146400   306.30692     -6.4606979     -16289690       2.3986108      912.12971     -16288778       565.98287      565.98287      565.98287      1717.0086      2282.9914      1717.0086      2282.9914      1717.0086      2282.9914      1.8130503e+08  0.5            25278200       2.7776601      6616.1646      13232.293      4.8532777    
  50146600   292.98976     -6.6617858     -16289694       2.3986108      872.47347     -16288822       565.98287      565.98287      565.98287      1717.0086      2282.9914      1717.0086      2282.9914      1717.0086      2282.9914      1.8130503e+08  0.5            25278300       2.7928117      6599.9883      13199.995      4.8378246    
  50146800   288.96622     -6.5223329     -16289697       2.3986108      860.49205     -16288836       565.98287      565.98287      565.98287      1717.0086      2282.9914      1717.0086      2282.9914      1717.0086      2282.9914      1.8130503e+08  0.5            25278400       2.8083753      6425.2268      12850.429      4.8230827    
  50147000   311.42429     -6.0256372     -16289700       2.3986108      927.36836     -16288772       565.98287      565.98287      565.98287      1717.0086      2282.9914      1717.0086      2282.9914      1717.0086      2282.9914      1.8130503e+08  0.5            25278500       2.8235322      6597.6704      13195.363      4.8076391    
  50147200   314.49262     -5.6278004     -16289702       2.3986108      936.50533     -16288766       565.98287      565.98287      565.98287      1717.0086      2282.9914      1717.0086      2282.9914      1717.0086      2282.9914      1.8130503e+08  0.5            25278600       2.8386531      6613.3616      13226.727      4.792138     
  50147400   300.05977     -5.4739988     -16289705       2.3986108      893.52674     -16288811       565.98287      565.98287      565.98287      1717.0086      2282.9914      1717.0086      2282.9914      1717.0086      2282.9914      1.8130503e+08  0.5            25278700       2.853754       6622.0995      13244.21       4.7766075    
  50147600   292.58078     -5.1271965     -16289706       2.3986108      871.25561     -16288835       565.98287      565.98287      565.98287      1717.0086      2282.9914      1717.0086      2282.9914      1717.0086      2282.9914      1.8130503e+08  0.5            25278800       2.8688622      6618.9366      13237.862      4.7610936    
  50147800   299.00129     -4.4461425     -16289707       2.3986108      890.37479     -16288817       565.98287      565.98287      565.98287      1717.0086      2282.9914      1717.0086      2282.9914      1717.0086      2282.9914      1.8130503e+08  0.5            25278900       2.883978       6615.6109      13231.238      4.7455965    
  50148000   311.13808     -3.6480641     -16289707       2.3986108      926.51609     -16288781       565.98287      565.98287      565.98287      1717.0086      2282.9914      1717.0086      2282.9914      1717.0086      2282.9914      1.8130503e+08  0.5            25279000       2.8991174      6605.3012      13210.588      4.7301419    
  50148200   303.30275     -3.148562      -16289707       2.3986108      903.18381     -16288804       565.98287      565.98287      565.98287      1717.0086      2282.9914      1717.0086      2282.9914      1717.0086      2282.9914      1.8130503e+08  0.5            25279100       2.9142533      6606.7989      13213.596      4.714685     
  50148400   286.21613     -2.9499718     -16289708       2.3986108      852.30276     -16288856       565.98287      565.98287      565.98287      1717.0086      2282.9914      1717.0086      2282.9914      1717.0086      2282.9914      1.8130503e+08  0.5            25279200       2.9293803      6610.6852      13221.342      4.6992173    
  50148600   295.69812     -3.0540892     -16290079       2.3986108      880.5385      -16289198       565.98287      565.98287      565.98287      1717.0086      2282.9914      1717.0086      2282.9914      1717.0086      2282.9914      1.8130503e+08  0.5            25279300       2.9445009      6613.4867      13227.012      4.6837427    
  50148800   305.60737     -2.9621956     -16290081       2.3986108      910.04657     -16289171       565.98287      565.98287      565.98287      1717.0086      2282.9914      1717.0086      2282.9914      1717.0086      2282.9914      1.8130503e+08  0.5            25279400       2.9595951      6625.0622      13250.091      4.6682303    
  50149000   303.30193     -3.0424202     -16290082       2.3986108      903.18135     -16289179       565.98287      565.98287      565.98287      1717.0086      2282.9914      1717.0086      2282.9914      1717.0086      2282.9914      1.8130503e+08  0.5            25279500       2.9747114      6615.3496      13230.728      4.6527568    
  50149200   290.9595      -3.1345787     -16290083       2.3986108      866.42771     -16289217       565.98287      565.98287      565.98287      1717.0086      2282.9914      1717.0086      2282.9914      1717.0086      2282.9914      1.8130503e+08  0.5            25279600       2.9897969      6628.9211      13257.852      4.6372389    
  50149400   280.04546     -3.0442668     -16290083       2.3986108      833.92757     -16289249       565.98287      565.98287      565.98287      1717.0086      2282.9914      1717.0086      2282.9914      1717.0086      2282.9914      1.8130503e+08  0.5            25279700       3.0049552      6597.0128      13193.994      4.6218377    
  50149600   299.46824     -2.514232      -16289715       2.3986108      891.76527     -16288823       565.98287      565.98287      565.98287      1717.0086      2282.9914      1717.0086      2282.9914      1717.0086      2282.9914      1.8130503e+08  0.5            25279800       3.0200428      6627.9532      13255.924      4.6063308    
  50149800   309.43154     -2.1050408     -16289717       2.3986108      921.43429     -16288796       565.98287      565.98287      565.98287      1717.0086      2282.9914      1717.0086      2282.9914      1717.0086      2282.9914      1.8130503e+08  0.5            25279900       3.0351456      6621.3309      13242.65       4.5908512    
  50150000   300.14848     -1.6664875     -16289719       2.3986108      893.79093     -16288826       565.98287      565.98287      565.98287      1717.0086      2282.9914      1717.0086      2282.9914      1717.0086      2282.9914      1.8130503e+08  0.5            25280000       3.0502496      6620.7404      13241.483      4.5753773    
  50150200   291.37907     -1.3205798     -16289721       2.3986108      867.67712     -16288853       565.98287      565.98287      565.98287      1717.0086      2282.9914      1717.0086      2282.9914      1717.0086      2282.9914      1.8130503e+08  0.5            25280100       3.0653752      6611.2971      13222.594      4.5599391    
  50150400   298.95528     -0.96377462    -16289723       2.3986108      890.23778     -16288833       565.98287      565.98287      565.98287      1717.0086      2282.9914      1717.0086      2282.9914      1717.0086      2282.9914      1.8130503e+08  0.5            25280200       3.0804653      6626.8631      13253.746      4.5444517    
  50150600   315.65274     -0.92411585    -16290095       2.3986108      939.95995     -16289155       565.98287      565.98287      565.98287      1717.0086      2282.9914      1717.0086      2282.9914      1717.0086      2282.9914      1.8130503e+08  0.5            25280300       3.0955974      6608.4969      13216.989      4.5290295    
  50150800   303.89906     -0.810941      -16290098       2.3986108      904.9595      -16289193       565.98287      565.98287      565.98287      1717.0086      2282.9914      1717.0086      2282.9914      1717.0086      2282.9914      1.8130503e+08  0.5            25280400       3.110738       6604.745       13209.432      4.5136227    
  50151000   291.64235     -0.45911424    -16290101       2.3986108      868.46112     -16289232       565.98287      565.98287      565.98287      1717.0086      2282.9914      1717.0086      2282.9914      1717.0086      2282.9914      1.8130503e+08  0.5            25280500       3.1259347      6580.3985      13160.82       4.498299     
  50151200   299.87799     -0.26426902    -16290104       2.3986108      892.98545     -16289211       565.98287      565.98287      565.98287      1717.0086      2282.9914      1717.0086      2282.9914      1717.0086      2282.9914      1.8130503e+08  0.5            25280600       3.1410384      6620.8627      13241.74       4.482844     
  50151400   308.26529     -0.39678367    -16290107       2.3986108      917.96138     -16289189       565.98287      565.98287      565.98287      1717.0086      2282.9914      1717.0086      2282.9914      1717.0086      2282.9914      1.8130503e+08  0.5            25280700       3.1561668      6610.0909      13220.242      4.4674271    
  50151600   301.23785     -0.26259583    -16290110       2.3986108      897.03488     -16289213       565.98287      565.98287      565.98287      1717.0086      2282.9914      1717.0086      2282.9914      1717.0086      2282.9914      1.8130503e+08  0.5            25280800       3.1713101      6603.5857      13207.137      4.4520341    
  50151800   288.95439     -0.11805617    -16290111       2.3986108      860.45684     -16289251       565.98287      565.98287      565.98287      1717.0086      2282.9914      1717.0086      2282.9914      1717.0086      2282.9914      1.8130503e+08  0.5            25280900       3.1867505      6476.5153      12952.985      4.4370573    
  50152000   296.35898     -0.025999644   -16290113       2.3986108      882.50642     -16289230       565.98287      565.98287      565.98287      1717.0086      2282.9914      1717.0086      2282.9914      1717.0086      2282.9914      1.8130503e+08  0.5            25281000       3.2019518      6578.3739      13156.774      4.4217456    
  50152200   311.79642      0.038506484   -16290114       2.3986108      928.4765      -16289186       565.98287      565.98287      565.98287      1717.0086      2282.9914      1717.0086      2282.9914      1717.0086      2282.9914      1.8130503e+08  0.5            25281100       3.2171511      6579.2408      13158.461      4.4064325    
  50152400   307.65604      0.17261173    -16290115       2.3986108      916.14715     -16289199       565.98287      565.98287      565.98287      1717.0086      2282.9914      1717.0086      2282.9914      1717.0086      2282.9914      1.8130503e+08  0.5            25281200       3.2323152      6594.5343      13189.123      4.3910723    
  50152600   298.73139      0.70354965    -16289747       2.3986108      889.57107     -16288857       565.98287      565.98287      565.98287      1717.0086      2282.9914      1717.0086      2282.9914      1717.0086      2282.9914      1.8130503e+08  0.5            25281300       3.2474512      6606.7837      13213.491      4.3756763    
  50152800   293.4172       0.82298758    -16289746       2.3986108      873.74633     -16288872       565.98287      565.98287      565.98287      1717.0086      2282.9914      1717.0086      2282.9914      1717.0086      2282.9914      1.8130503e+08  0.5            25281400       3.2625686      6614.8643      13229.793      4.3602578    
  50153000   301.03568      0.6601172     -16289746       2.3986108      896.43285     -16288849       565.98287      565.98287      565.98287      1717.0086      2282.9914      1717.0086      2282.9914      1717.0086      2282.9914      1.8130503e+08  0.5            25281500       3.2777063      6606.0544      13212.069      4.344869     
  50153200   314.76448      0.65077286    -16289747       2.3986108      937.31486     -16288810       565.98287      565.98287      565.98287      1717.0086      2282.9914      1717.0086      2282.9914      1717.0086      2282.9914      1.8130503e+08  0.5            25281600       3.2928056      6622.7797      13245.593      4.3294322    
  50153400   301.22737      0.8748169     -16289750       2.3986108      897.00368     -16288853       565.98287      565.98287      565.98287      1717.0086      2282.9914      1717.0086      2282.9914      1717.0086      2282.9914      1.8130503e+08  0.5            25281700       3.3079443      6605.5874      13211.182      4.3140497    
  50153600   290.82824      1.0690695     -16289752       2.3986108      866.03685     -16288886       565.98287      565.98287      565.98287      1717.0086      2282.9914      1717.0086      2282.9914      1717.0086      2282.9914      1.8130503e+08  0.5            25281800       3.3230554      6617.6598      13235.306      4.2986338    
  50153800   299.89325      1.0648371     -16289756       2.3986108      893.03088     -16288863       565.98287      565.98287      565.98287      1717.0086      2282.9914      1717.0086      2282.9914      1717.0086      2282.9914      1.8130503e+08  0.5            25281900       3.3381568      6621.9377      13243.863      4.2832081    
  50154000   308.20589      0.90952206    -16291657       2.3986108      917.7845      -16290739       565.98287      565.98287      565.98287      1717.0086      2282.9914      1717.0086      2282.9914      1717.0086      2282.9914      1.8130503e+08  0.5            25282000       3.3532942      6606.1626      13212.348      4.2678313    
  50154200   299.9868       1.2586201     -16291663       2.3986108      893.30947     -16290770       565.98287      565.98287      565.98287      1717.0086      2282.9914      1717.0086      2282.9914      1717.0086      2282.9914      1.8130503e+08  0.5            25282100       3.3684325      6605.7528      13211.493      4.2524578    
  50154400   287.77526      1.8193021     -16289775       2.3986108      856.94558     -16288918       565.98287      565.98287      565.98287      1717.0086      2282.9914      1717.0086      2282.9914      1717.0086      2282.9914      1.8130503e+08  0.5            25282200       3.3835642      6608.624       13217.232      4.2370783    
  50154600   296.26537      1.979177      -16289782       2.3986108      882.22767     -16288900       565.98287      565.98287      565.98287      1717.0086      2282.9914      1717.0086      2282.9914      1717.0086      2282.9914      1.8130503e+08  0.5            25282300       3.3986904      6611.0331      13222.067      4.2216941    
[...]
  50199200   304.31888     -2.3399378     -16266294       2.3986108      906.20965     -16265388       565.98287      565.98287      565.98287      1717.0086      2282.9914      1717.0086      2282.9914      1717.0086      2282.9914      1.8130503e+08  0.5            25304600       6.7713362      6647.992       13295.946      0.81984811   
  50199400   298.21144     -2.4349188     -16266301       2.3986108      888.02274     -16265413       565.98287      565.98287      565.98287      1717.0086      2282.9914      1717.0086      2282.9914      1717.0086      2282.9914      1.8130503e+08  0.5            25304700       6.7863945      6640.8537      13281.738      0.80465103   
  50199600   293.38399     -2.5827395     -16266307       2.3986108      873.64743     -16265433       565.98287      565.98287      565.98287      1717.0086      2282.9914      1717.0086      2282.9914      1717.0086      2282.9914      1.8130503e+08  0.5            25304800       6.8014679      6634.2284      13268.446      0.78945631   
  50199800   298.99614     -2.6919603     -16266314       2.3986108      890.35944     -16265424       565.98287      565.98287      565.98287      1717.0086      2282.9914      1717.0086      2282.9914      1717.0086      2282.9914      1.8130503e+08  0.5            25304900       6.8165676      6622.6218      13245.262      0.77426513   
  50200000   315.47063     -2.7279743     -16266322       2.3986108      939.41768     -16265382       565.98287      565.98287      565.98287      1717.0086      2282.9914      1717.0086      2282.9914      1717.0086      2282.9914      1.8130503e+08  0.5            25305000       6.8479505      3186.4349      6372.8614      0.76088362   
  50200200   306.1968      -2.7296961     -16266329       2.3986108      911.80179     -16265418       565.98287      565.98287      565.98287      1717.0086      2282.9914      1717.0086      2282.9914      1717.0086      2282.9914      1.8130503e+08  0.5            25305100       6.8630669      6615.3693      13230.767      0.74565494   
  50200400   295.43963     -2.7485345     -16266336       2.3986108      879.76876     -16265456       565.98287      565.98287      565.98287      1717.0086      2282.9914      1717.0086      2282.9914      1717.0086      2282.9914      1.8130503e+08  0.5            25305200       6.8781579      6626.4832      13252.933      0.73042406   
  50200600   298.62453     -2.7510748     -16266343       2.3986108      889.25287     -16265454       565.98287      565.98287      565.98287      1717.0086      2282.9914      1717.0086      2282.9914      1717.0086      2282.9914      1.8130503e+08  0.5            25305300       6.8932319      6633.9392      13267.925      0.71519203   
  50200800   305.22778     -2.7605908     -16266350       2.3986108      908.91622     -16265441       565.98287      565.98287      565.98287      1717.0086      2282.9914      1717.0086      2282.9914      1717.0086      2282.9914      1.8130503e+08  0.5            25305400       6.9083009      6636.151       13272.234      0.6999602    
  50201000   303.19625     -2.5719569     -16265989       2.3986108      902.86666     -16265086       565.98287      565.98287      565.98287      1717.0086      2282.9914      1717.0086      2282.9914      1717.0086      2282.9914      1.8130503e+08  0.5            25305500       6.9233967      6624.3692      13248.787      0.68473173   
  50201200   289.03728     -2.6880621     -16265996       2.3986108      860.70366     -16265135       565.98287      565.98287      565.98287      1717.0086      2282.9914      1717.0086      2282.9914      1717.0086      2282.9914      1.8130503e+08  0.5            25305600       6.9384519      6642.2193      13284.461      0.66949993   
  50201400   294.24247     -2.9321023     -16266001       2.3986108      876.20384     -16265125       565.98287      565.98287      565.98287      1717.0086      2282.9914      1717.0086      2282.9914      1717.0086      2282.9914      1.8130503e+08  0.5            25305700       6.9534989      6645.8483      13291.684      0.65426813   
  50201600   309.34153     -3.2131173     -16266006       2.3986108      921.16625     -16265084       565.98287      565.98287      565.98287      1717.0086      2282.9914      1717.0086      2282.9914      1717.0086      2282.9914      1.8130503e+08  0.5            25305800       6.9685409      6648.0154      13296.036      0.63903668   
  50201800   306.94348     -3.1733182     -16264114       2.3986108      914.02528     -16263200       565.98287      565.98287      565.98287      1717.0086      2282.9914      1717.0086      2282.9914      1717.0086      2282.9914      1.8130503e+08  0.5            25305900       6.9835966      6642.0203      13284.058      0.62380727   
  50202000   300.16386     -3.5180511     -16264118       2.3986108      893.83672     -16263224       565.98287      565.98287      565.98287      1717.0086      2282.9914      1717.0086      2282.9914      1717.0086      2282.9914      1.8130503e+08  0.5            25306000       6.9986393      6647.7357      13295.433      0.6085775    
  50202200   299.80786     -3.9959528     -16264122       2.3986108      892.77661     -16263229       565.98287      565.98287      565.98287      1717.0086      2282.9914      1717.0086      2282.9914      1717.0086      2282.9914      1.8130503e+08  0.5            25306100       7.0137186      6631.5975      13263.179      0.59335163   
  50202400   300.26496     -4.5491073     -16264126       2.3986108      894.13778     -16263232       565.98287      565.98287      565.98287      1717.0086      2282.9914      1717.0086      2282.9914      1717.0086      2282.9914      1.8130503e+08  0.5            25306200       7.0287677      6644.9443      13289.94       0.57812391   
  50202600   298.97991     -5.0145309     -16264131       2.3986108      890.31113     -16263241       565.98287      565.98287      565.98287      1717.0086      2282.9914      1717.0086      2282.9914      1717.0086      2282.9914      1.8130503e+08  0.5            25306300       7.0438464      6631.8583      13263.669      0.56289933   
  50202800   293.97064     -5.28417       -16264136       2.3986108      875.39437     -16263261       565.98287      565.98287      565.98287      1717.0086      2282.9914      1717.0086      2282.9914      1717.0086      2282.9914      1.8130503e+08  0.5            25306400       7.058922       6633.2088      13266.44       0.54767514   
  50203000   294.60686     -5.3845246     -16264141       2.3986108      877.28893     -16263263       565.98287      565.98287      565.98287      1717.0086      2282.9914      1717.0086      2282.9914      1717.0086      2282.9914      1.8130503e+08  0.5            25306500       7.0742983      6503.5431      13007.085      0.53247421   
  50203200   307.68347     -5.0987466     -16263775       2.3986108      916.22883     -16262859       565.98287      565.98287      565.98287      1717.0086      2282.9914      1717.0086      2282.9914      1717.0086      2282.9914      1.8130503e+08  0.5            25306600       7.0893882      6626.9606      13253.904      0.51725164   
  50203400   310.51901     -4.9618156     -16263777       2.3986108      924.6726      -16262853       565.98287      565.98287      565.98287      1717.0086      2282.9914      1717.0086      2282.9914      1717.0086      2282.9914      1.8130503e+08  0.5            25306700       7.1044564      6636.4822      13272.963      0.50202811   
  50203600   291.69672     -4.9518299     -16263778       2.3986108      868.62301     -16262910       565.98287      565.98287      565.98287      1717.0086      2282.9914      1717.0086      2282.9914      1717.0086      2282.9914      1.8130503e+08  0.5            25306800       7.1195396      6629.8845      13259.779      0.48680626   
  50203800   291.75451     -5.1932089     -16263779       2.3986108      868.79512     -16262910       565.98287      565.98287      565.98287      1717.0086      2282.9914      1717.0086      2282.9914      1717.0086      2282.9914      1.8130503e+08  0.5            25306900       7.1345971      6641.2277      13282.462      0.4715833    
  50204000   300.99905     -5.6511965     -16263780       2.3986108      896.32376     -16262883       565.98287      565.98287      565.98287      1717.0086      2282.9914      1717.0086      2282.9914      1717.0086      2282.9914      1.8130503e+08  0.5            25307000       7.1496872      6626.842       13253.634      0.45636314   
  50204200   304.58398     -6.1425726     -16263781       2.3986108      906.99907     -16262874       565.98287      565.98287      565.98287      1717.0086      2282.9914      1717.0086      2282.9914      1717.0086      2282.9914      1.8130503e+08  0.5            25307100       7.1647566      6636.003       13272.058      0.44114224   
  50204400   298.92424     -6.4722725     -16263782       2.3986108      890.14535     -16262892       565.98287      565.98287      565.98287      1717.0086      2282.9914      1717.0086      2282.9914      1717.0086      2282.9914      1.8130503e+08  0.5            25307200       7.1798087      6643.556       13287.065      0.42592097   
  50204600   281.15759     -6.5759516     -16263785       2.3986108      837.23928     -16262948       565.98287      565.98287      565.98287      1717.0086      2282.9914      1717.0086      2282.9914      1717.0086      2282.9914      1.8130503e+08  0.5            25307300       7.1948627      6642.7483      13285.563      0.41070052   
  50204800   286.18018     -6.4759565     -16263789       2.3986108      852.1957      -16262937       565.98287      565.98287      565.98287      1717.0086      2282.9914      1717.0086      2282.9914      1717.0086      2282.9914      1.8130503e+08  0.5            25307400       7.2099513      6627.5408      13255.032      0.39548266   
  50205000   304.23865     -6.2742211     -16263794       2.3986108      905.97074     -16262888       565.98287      565.98287      565.98287      1717.0086      2282.9914      1717.0086      2282.9914      1717.0086      2282.9914      1.8130503e+08  0.5            25307500       7.2250187      6636.8522      13273.722      0.38026424   
  50205200   304.21787     -6.1258461     -16263801       2.3986108      905.90887     -16262895       565.98287      565.98287      565.98287      1717.0086      2282.9914      1717.0086      2282.9914      1717.0086      2282.9914      1.8130503e+08  0.5            25307600       7.2400771      6640.7765      13281.566      0.365046     
  50205400   296.34435     -6.0631567     -16263808       2.3986108      882.46289     -16262926       565.98287      565.98287      565.98287      1717.0086      2282.9914      1717.0086      2282.9914      1717.0086      2282.9914      1.8130503e+08  0.5            25307700       7.2551252      6645.3797      13290.777      0.34982793   
  50205600   293.21237     -6.0662661     -16263815       2.3986108      873.13638     -16262942       565.98287      565.98287      565.98287      1717.0086      2282.9914      1717.0086      2282.9914      1717.0086      2282.9914      1.8130503e+08  0.5            25307800       7.2701597      6651.3827      13302.741      0.33460995   
  50205800   304.61831     -6.314388      -16264190       2.3986108      907.10131     -16263283       565.98287      565.98287      565.98287      1717.0086      2282.9914      1717.0086      2282.9914      1717.0086      2282.9914      1.8130503e+08  0.5            25307900       7.2851866      6654.6984      13309.416      0.3193924    
  50206000   318.37022     -6.2548661     -16264195       2.3986108      948.05214     -16263247       565.98287      565.98287      565.98287      1717.0086      2282.9914      1717.0086      2282.9914      1717.0086      2282.9914      1.8130503e+08  0.5            25308000       7.3002335      6645.9075      13291.821      0.30417647   
  50206200   300.58189     -6.0396569     -16264200       2.3986108      895.08155     -16263305       565.98287      565.98287      565.98287      1717.0086      2282.9914      1717.0086      2282.9914      1717.0086      2282.9914      1.8130503e+08  0.5            25308100       7.3153028      6635.9973      13271.979      0.28896214   
  50206400   296.08972     -5.6647842     -16264205       2.3986108      881.70461     -16263323       565.98287      565.98287      565.98287      1717.0086      2282.9914      1717.0086      2282.9914      1717.0086      2282.9914      1.8130503e+08  0.5            25308200       7.3303386      6650.7718      13301.52       0.27374716   
  50206600   301.01519     -5.1884328     -16264209       2.3986108      896.37184     -16263313       565.98287      565.98287      565.98287      1717.0086      2282.9914      1717.0086      2282.9914      1717.0086      2282.9914      1.8130503e+08  0.5            25308300       7.3453842      6646.4809      13292.979      0.25853326   
  50206800   305.73318     -4.5242153     -16263846       2.3986108      910.4212      -16262936       565.98287      565.98287      565.98287      1717.0086      2282.9914      1717.0086      2282.9914      1717.0086      2282.9914      1.8130503e+08  0.5            25308400       7.3604453      6639.6072      13279.214      0.24332057   
  50207000   297.74706     -4.2531113     -16263852       2.3986108      886.63991     -16262965       565.98287      565.98287      565.98287      1717.0086      2282.9914      1717.0086      2282.9914      1717.0086      2282.9914      1.8130503e+08  0.5            25308500       7.3754969      6643.8464      13287.711      0.22810821   
  50207200   287.79018     -4.1257398     -16263858       2.3986108      856.99001     -16263001       565.98287      565.98287      565.98287      1717.0086      2282.9914      1717.0086      2282.9914      1717.0086      2282.9914      1.8130503e+08  0.5            25308600       7.3905406      6647.2889      13294.563      0.21289629   
  50207400   299.86125     -4.0574563     -16263866       2.3986108      892.93559     -16262973       565.98287      565.98287      565.98287      1717.0086      2282.9914      1717.0086      2282.9914      1717.0086      2282.9914      1.8130503e+08  0.5            25308700       7.4055706      6653.3312      13306.672      0.19768469   
  50207600   313.14149     -4.0857065     -16263873       2.3986108      932.48189     -16262941       565.98287      565.98287      565.98287      1717.0086      2282.9914      1717.0086      2282.9914      1717.0086      2282.9914      1.8130503e+08  0.5            25308800       7.4206247      6642.7219      13285.438      0.18247443   
  50207800   307.19056     -4.2370574     -16263880       2.3986108      914.76102     -16262966       565.98287      565.98287      565.98287      1717.0086      2282.9914      1717.0086      2282.9914      1717.0086      2282.9914      1.8130503e+08  0.5            25308900       7.4356545      6653.456       13306.902      0.16726425   
  50208000   301.24209     -4.5406259     -16263886       2.3986108      897.04752     -16262989       565.98287      565.98287      565.98287      1717.0086      2282.9914      1717.0086      2282.9914      1717.0086      2282.9914      1.8130503e+08  0.5            25309000       7.4506948      6648.7938      13297.604      0.15205503   
  50208200   296.55907     -4.9676174     -16263892       2.3986108      883.10226     -16263009       565.98287      565.98287      565.98287      1717.0086      2282.9914      1717.0086      2282.9914      1717.0086      2282.9914      1.8130503e+08  0.5            25309100       7.465714       6658.1318      13316.263      0.13684612   
  50208400   297.30825     -4.9863468     -16262005       2.3986108      885.33319     -16261120       565.98287      565.98287      565.98287      1717.0086      2282.9914      1717.0086      2282.9914      1717.0086      2282.9914      1.8130503e+08  0.5            25309200       7.4807443      6653.2617      13306.514      0.12163815   
  50208600   305.73834     -5.0611569     -16262013       2.3986108      910.43657     -16261103       565.98287      565.98287      565.98287      1717.0086      2282.9914      1717.0086      2282.9914      1717.0086      2282.9914      1.8130503e+08  0.5            25309300       7.4957642      6657.81        13315.634      0.10643076   
  50208800   310.5115      -4.9714271     -16262022       2.3986108      924.65022     -16261098       565.98287      565.98287      565.98287      1717.0086      2282.9914      1717.0086      2282.9914      1717.0086      2282.9914      1.8130503e+08  0.5            25309400       7.5108013      6650.2047      13300.393      0.091224331  
  50209000   295.77432     -4.9649314     -16262031       2.3986108      880.76543     -16261150       565.98287      565.98287      565.98287      1717.0086      2282.9914      1717.0086      2282.9914      1717.0086      2282.9914      1.8130503e+08  0.5            25309500       7.525843       6648.1905      13296.376      0.076018636  
  50209200   293.57282     -5.0748935     -16262039       2.3986108      874.20973     -16261164       565.98287      565.98287      565.98287      1717.0086      2282.9914      1717.0086      2282.9914      1717.0086      2282.9914      1.8130503e+08  0.5            25309600       7.540891       6645.4199      13290.83       0.060813653  
  50209400   303.49078     -5.1290418     -16262047       2.3986108      903.74371     -16261143       565.98287      565.98287      565.98287      1717.0086      2282.9914      1717.0086      2282.9914      1717.0086      2282.9914      1.8130503e+08  0.5            25309700       7.5559292      6649.7422      13299.521      0.045609242  
  50209600   311.4534      -4.3411949     -16254677       2.3986108      927.45505     -16253749       565.98287      565.98287      565.98287      1717.0086      2282.9914      1717.0086      2282.9914      1717.0086      2282.9914      1.8130503e+08  0.5            25309800       7.5709734      6647.0826      13294.129      0.030405523  
  50209800   295.04898     -4.5382934     -16255052       2.3986108      878.60549     -16254173       565.98287      565.98287      565.98287      1717.0086      2282.9914      1717.0086      2282.9914      1717.0086      2282.9914      1.8130503e+08  0.5            25309900       7.5860015      6654.1821      13308.353      0.015202412  
  50210000   290.18462     -4.5372462     -16255058       2.3986108      864.12025     -16254194       565.98287      565.98287      565.98287      1717.0086      2282.9914      1717.0086      2282.9914      1717.0086      2282.9914      1.8130503e+08  0.5            25310000       7.6010279      6654.9646      13309.967      0            
Loop time of 7.60104 on 4 procs for 100000 steps with 1000 atoms

Performance: 568.343 ns/day, 0.042 hours/ns, 13156.088 timesteps/s
99.9% CPU use with 4 MPI tasks x 1 OpenMP threads

MPI task timing breakdown:
Section |  min time  |  avg time  |  max time  |%varavg| %total
---------------------------------------------------------------
Pair    | 4.255      | 4.5023     | 4.8417     |  10.1 | 59.23
Neigh   | 0.0034348  | 0.0036242  | 0.0040037  |   0.4 |  0.05
Comm    | 1.83       | 2.1573     | 2.386      |  13.9 | 28.38
Output  | 0.027865   | 0.029242   | 0.033144   |   1.3 |  0.38
Modify  | 0.59676    | 0.61112    | 0.64911    |   2.8 |  8.04
Other   |            | 0.2975     |            |       |  3.91

Nlocal:            250 ave         272 max         240 min
Histogram: 1 2 0 0 0 0 0 0 0 1
Nghost:         920.75 ave         933 max         913 min
Histogram: 1 0 1 1 0 0 0 0 0 1
Neighs:           1724 ave        1924 max        1603 min
Histogram: 1 0 2 0 0 0 0 0 0 1

Total # of neighbors = 6896
Ave neighs/atom = 6.896
Neighbor list builds = 16
Dangerous builds = 0

# run_style
run_style verlet


Total wall time: 0:00:07
