ITEM: TIMESTEP
0
ITEM: NUMBER OF ATOMS
1000
ITEM: BOX BOUNDS pp pp pp
-1.0000000000000000e+02 5.1000000000000000e+03
-1.0000000000000000e+02 5.1000000000000000e+03
-1.0000000000000000e+02 5.1000000000000000e+03
ITEM: ATOMS type x y z ix iy iz
1 1843.01 32.254 2472.62 0 0 0
1 96.684 1843.87 674.557 0 0 0
1 2248.75 861.726 2117.9 0 0 0
1 161.065 419.376 496.974 0 0 0
1 385.128 627.134 776.553 0 0 0
1 87.269 888.858 828.33 0 0 0
1 805.962 47.642 441.106 0 0 0
1 885.047 490.63 156.708 0 0 0
1 885.753 612.983 756.954 0 0 0
1 755.868 855.645 165.789 0 0 0
1 885.356 361.186 849.06 0 0 0
1 600.142 648.372 708.039 0 0 0
1 109.963 950.663 279.047 0 0 0
1 638.587 585.939 37.28 0 0 0
1 34.45 924.872 404.699 0 0 0
1 521.998 197.288 914.059 0 0 0
1 292.974 178.687 2.015 0 0 0
1 274.884 508.303 479.168 0 0 0
1 624.613 393.515 467.063 0 0 0
1 983.909 709.635 283.713 0 0 0
1 317.91 746.351 807.658 0 0 0
1 253.62 619.424 851.076 0 0 0
1 864.897 825.779 929.798 0 0 0
1 183.012 488.24 120.644 0 0 0
1 576.619 355.513 194.761 0 0 0
1 643.193 1001.83 854.169 0 0 0
1 843.144 717.182 702.931 0 0 0
1 261.718 425.478 979.056 0 0 0
1 155.133 539.494 547.755 0 0 0
1 68.024 34.014 193.882 0 0 0
1 781.231 721.64 990.684 0 0 0
1 731.158 673.787 464.133 0 0 0
1 659.517 812.245 444.901 0 0 0
1 807.41 699.458 5.095 0 0 0
1 836.39 482.733 359.964 0 0 0
1 15.432 684.216 889.71 0 0 0
1 750.049 628.479 229.668 0 0 0
1 134.152 468.265 687.722 0 0 0
1 189.577 340.846 598.351 0 0 0
1 668.936 915.002 372.383 0 0 0
1 116.373 634.778 248.404 0 0 0
1 505.996 642.003 836.169 0 0 0
1 306.893 969.742 723.961 0 0 0
1 552.445 528.48 183.685 0 0 0
1 633.763 541.56 808.45 0 0 0
1 48.971 696.646 157.811 0 0 0
1 682.619 91.319 622.665 0 0 0
1 495.561 531.487 316.491 0 0 0
1 910.815 999.108 879.739 0 0 0
1 403.244 707.674 327.722 0 0 0
1 10.244 466.861 528.889 0 0 0
1 44.579 262.056 788.129 0 0 0
1 358.256 230.493 458.786 0 0 0
1 1209.69 2254.46 1214.11 0 0 0
1 859.198 574.736 276.648 0 0 0
1 382.65 134.785 618.075 0 0 0
1 620.769 854.593 225.339 0 0 0
1 678.334 451.352 317.982 0 0 0
1 69.643 89.024 966.809 0 0 0
1 168.975 411.263 376.219 0 0 0
1 719.428 431.561 693.11 0 0 0
1 9.016 854.042 251.585 0 0 0
1 615.455 709.234 876.954 0 0 0
1 476.353 213.552 303.388 0 0 0
1 296.618 656.161 22.377 0 0 0
1 700.885 282.518 439.743 0 0 0
1 435.616 772.177 756.849 0 0 0
1 775.251 905.707 785.426 0 0 0
1 465.032 850.24 97.473 0 0 0
1 205.901 890.671 803.539 0 0 0
1 237.101 18.479 807.787 0 0 0
1 782.938 64.447 707.392 0 0 0
1 767.818 194.847 137.571 0 0 0
1 227.682 1547.8 2294.82 0 0 0
1 544.235 663.235 300.077 0 0 0
1 2500.98 3.247 2097.26 0 0 0
1 2646.22 2365.49 2214.36 0 0 0
1 2500.36 2499.98 989.161 0 0 0
1 2530.39 92.793 2486.65 0 0 0
1 4007.19 1550.94 2290.23 0 0 0
1 2526.94 29.453 167.555 0 0 0
1 3983.41 469.09 2341.53 0 0 0
1 2556.36 335.611 0.506 0 0 0
1 2561.38 898.957 1.174 0 0 0
1 2536.12 459.7 829.899 0 0 0
1 2539.95 774.163 822.814 0 0 0
1 2533.12 802.301 480.662 0 0 0
1 2500.48 579.767 897.901 0 0 0
1 2681.98 491.493 0.032 0 0 0
1 2500.47 497.922 452.891 0 0 0
1 2607.5 730.532 1010.8 0 0 0
1 2514.65 278.97 492.467 0 0 0
1 2500.12 264.491 361.916 0 0 0
1 2509.55 605.413 2400.5 0 0 0
1 2500.44 291.729 101.25 0 0 0
1 2500.18 878.472 576.943 0 0 0
1 2650.47 88.711 383.005 0 0 0
1 2511.15 145.388 206.617 0 0 0
1 2534.75 640.325 474.575 0 0 0
1 2500.04 700.708 926.981 0 0 0
1 2566.81 602.613 796.507 0 0 0
1 2571.36 517.836 986.044 0 0 0
1 2501.1 936.472 905.032 0 0 0
1 2531.38 280.135 767.905 0 0 0
1 2554.97 808.287 660.802 0 0 0
1 2594.07 108.726 529.95 0 0 0
1 2500.06 960.079 1075.39 0 0 0
1 2500.1 941.617 305.962 0 0 0
1 2543.4 779.455 124.464 0 0 0
1 2501.1 379.043 428.192 0 0 0
1 2500.39 401.021 574.996 0 0 0
1 3073.59 2168.48 2.463 0 0 0
1 2549.39 1029.39 963.841 0 0 0
1 2530.71 1007.68 516.99 0 0 0
1 3542.14 354.332 0.108 0 0 0
1 3516.41 16.143 20.715 0 0 0
1 2522.6 565.14 352.849 0 0 0
1 2528.08 398.652 966.29 0 0 0
1 2501.03 522.929 48.681 0 0 0
1 2500.08 442.388 692.311 0 0 0
1 2567.76 388.62 138.746 0 0 0
1 2500.67 21.252 683.933 0 0 0
1 2607.39 2499.38 1537.91 0 0 0
1 2524.67 1059.77 245.435 0 0 0
1 2501.15 905.497 105.136 0 0 0
1 2500.02 31.014 875.221 0 0 0
1 2617.63 187.872 303.083 0 0 0
1 2586.41 425.602 347.14 0 0 0
1 2542.93 548.237 556.463 0 0 0
1 2522.27 23.001 440.896 0 0 0
1 2582.4 969.432 809.304 0 0 0
1 2543.8 154.663 838.877 0 0 0
1 2558.5 152.28 994.613 0 0 0
1 2534.83 668.843 288.201 0 0 0
1 2501.05 824.839 256.474 0 0 0
1 2563.28 135.382 96.368 0 0 0
1 2500.07 710.051 611.254 0 0 0
1 2500.71 313.651 883.749 0 0 0
1 2534.45 146.584 701.329 0 0 0
1 2598.81 531.682 133.056 0 0 0
1 2552.68 264.169 221.447 0 0 0
1 2575.34 946.204 411.126 0 0 0
1 2512.8 502.755 220.692 0 0 0
1 2500.22 672.987 164.449 0 0 0
1 2612.85 395.3 684.373 0 0 0
1 2500.39 571.16 671.933 0 0 0
1 4527.78 411.569 540.53 0 0 0
1 2651.86 289.318 638.864 0 0 0
1 2500.34 365.817 276.306 0 0 0
1 2514.09 823.474 945.681 0 0 0
1 1808.82 2990.31 2496.8 0 0 0
1 1277.24 3461.25 111.078 0 0 0
1 0.029 4871.1 1637.45 0 0 0
1 2488.78 3906.68 2485.22 0 0 0
1 46.821 2500.96 108.844 0 0 0
1 2361.16 2500.04 0.189 0 0 0
1 10.979 4192.2 2455.89 0 0 0
1 1623.65 3461.26 1112.49 0 0 0
1 718.011 2500 353.114 0 0 0
1 787.78 2500 915.206 0 0 0
1 307.621 2500.07 257.775 0 0 0
1 164.737 2500 118.562 0 0 0
1 142.982 2500.02 724.919 0 0 0
1 905.823 2500 296.161 0 0 0
1 807.996 2500 635.082 0 0 0
1 190.887 2507 8.769 0 0 0
1 120.299 2500 379.026 0 0 0
1 689.444 2500 608.939 0 0 0
1 296.708 2500.04 393.053 0 0 0
1 782.884 2500 250.379 0 0 0
1 957.92 2500 78.429 0 0 0
1 423.096 2500 1021.71 0 0 0
1 143.268 2500.03 602.875 0 0 0
1 38.905 2650.29 2439.77 0 0 0
1 827.152 2500 515.278 0 0 0
1 607.621 2500.01 408.562 0 0 0
1 10.245 2500 829.368 0 0 0
1 1525.7 4821.11 2263.43 0 0 0
1 1035.57 2500 384.437 0 0 0
1 376.666 2500.06 486.326 0 0 0
1 735.937 2500 69.325 0 0 0
1 938.234 2500 456.707 0 0 0
1 869.55 2500 161.084 0 0 0
1 952.978 2500 944.845 0 0 0
1 366.215 2500 611.971 0 0 0
1 0.056 2500 310.875 0 0 0
1 403.438 2500.23 332.941 0 0 0
1 181.916 2500.12 980.196 0 0 0
1 338.705 2909.31 1841.49 0 0 0
1 539.529 2500 976.04 0 0 0
1 765.419 2500 767.983 0 0 0
1 616.54 2500 282.303 0 0 0
1 642.806 2500 846.351 0 0 0
1 257.428 2500 558.933 0 0 0
1 1010.16 2500 832.37 0 0 0
1 0.453 2500.62 457.011 0 0 0
1 884.765 2500 842.763 0 0 0
1 437.405 2500 757.303 0 0 0
1 1027.82 2500 538.046 0 0 0
1 991.31 2500 206.527 0 0 0
1 711.078 2500 481.039 0 0 0
1 286.687 2500.05 137.092 0 0 0
1 683.81 2500 180.821 0 0 0
1 797.138 2500 1035.84 0 0 0
1 832.583 2500 392.478 0 0 0
1 132.732 2500.67 489.241 0 0 0
1 97.865 2502.33 241.697 0 0 0
1 9.087 2544.11 1.191 0 0 0
1 568.185 2500 14.513 0 0 0
1 2480.93 2507.41 17.64 0 0 0
1 137.735 2500 852.324 0 0 0
1 210.137 2504.71 310.307 0 0 0
1 979.632 2500 715.283 0 0 0
1 597.272 2500 529.285 0 0 0
1 497.617 2500.01 254.463 0 0 0
1 506.293 2500 856.946 0 0 0
1 264.43 2500 738.519 0 0 0
1 481.589 2500 565.373 0 0 0
1 664.233 2500 975.357 0 0 0
1 421.752 2500 24.379 0 0 0
1 566.894 2500 142.84 0 0 0
1 422.508 2500.69 155.869 0 0 0
1 2489.86 3389.01 2473.09 0 0 0
1 2449.95 3417.91 280.097 0 0 0
1 310.931 2500 971.088 0 0 0
1 585.807 807.414 2512.96 0 0 0
1 2305.72 1236.6 3602.98 0 0 0
1 1.496 0.664 2500.17 0 0 0
1 254.456 304.193 2556.03 0 0 0
1 8.502 2206.68 4856.98 0 0 0
1 2457.79 2453.19 4698.11 0 0 0
1 945.814 0.571 2503.07 0 0 0
1 432.408 502.508 2500.04 0 0 0
1 703.826 776.408 2500.16 0 0 0
1 1030.18 187.148 2504.36 0 0 0
1 574.697 927.512 2500.06 0 0 0
1 272.413 909.784 2500.68 0 0 0
1 794.412 120.594 2605.6 0 0 0
1 654.04 232.163 2500.03 0 0 0
1 362.351 601.359 2500.45 0 0 0
1 271.646 16.225 2501.56 0 0 0
1 126.321 366.381 2500 0 0 0
1 195.676 813.95 2522.33 0 0 0
1 580.729 539.485 2572.68 0 0 0
1 385.375 720.498 2500.33 0 0 0
1 31.099 286.959 2500.65 0 0 0
1 1848.84 1999.02 2500 0 0 0
1 65.203 814.654 2541.63 0 0 0
1 477.025 67.807 2513 0 0 0
1 721.196 647.866 2515.34 0 0 0
1 121.264 205.718 2500.92 0 0 0
1 22.859 532.097 2502.62 0 0 0
1 912.811 811.83 2500.67 0 0 0
1 10.586 407.531 2503.14 0 0 0
1 685.535 475.065 2500.01 0 0 0
1 254.879 702.72 2500.34 0 0 0
1 357.304 383.031 2542.39 0 0 0
1 698.985 946.065 2505.89 0 0 0
1 466.721 190.613 2500.04 0 0 0
1 929.866 305.019 2500.57 0 0 0
1 823.082 730.725 2504.1 0 0 0
1 963.934 701.076 2501.24 0 0 0
1 122.66 602.429 2535 0 0 0
1 562.186 296.183 2546.51 0 0 0
1 454.399 324.24 2500.59 0 0 0
1 246.921 410.121 2500.64 0 0 0
1 154.4 489.587 2500.3 0 0 0
1 354.341 121.418 2509.25 0 0 0
1 461.862 982.436 2500.04 0 0 0
1 702.553 1.407 2500.07 0 0 0
1 2259.35 997.821 2842.59 0 0 0
1 467.121 618.541 2564.71 0 0 0
1 107.406 43.342 2500.6 0 0 0
1 574.311 0.663 2500.09 0 0 0
1 884.401 185.36 2500.07 0 0 0
1 709.38 121.738 2500 0 0 0
1 836.549 71.14 2500.02 0 0 0
1 1739.35 429.243 3070.48 0 0 0
1 1272.64 1861.97 2681.53 0 0 0
1 462.044 844.499 2512.1 0 0 0
1 1004.71 490.099 2500.79 0 0 0
1 798.222 857.739 2500.01 0 0 0
1 669.367 353.455 2500.03 0 0 0
1 314.146 805.476 2548.78 0 0 0
1 985.935 912.686 2500.97 0 0 0
1 208.383 1019.91 2511.89 0 0 0
1 834.078 424.478 2500.88 0 0 0
1 193.637 105.092 2548.63 0 0 0
1 124.371 720.441 2501.17 0 0 0
1 604.636 667.394 2550.18 0 0 0
1 353.238 250.878 2503.77 0 0 0
1 780.194 303.353 2500.06 0 0 0
1 26.783 1031.74 2500.11 0 0 0
1 2497.74 513.333 4999.34 0 0 0
1 527.648 419.823 2513.49 0 0 0
1 120.573 923.52 2500.53 0 0 0
1 245.005 578.288 2516.2 0 0 0
1 507.089 716.262 2501.26 0 0 0
1 510.374 2257.01 2991.72 0 0 0
1 855.607 979.681 2501.9 0 0 0
1 4998.5 2505.59 2.552 0 0 0
1 3437.84 4883.15 853.926 0 0 0
1 2500 2511.4 1801.33 0 0 0
1 3642.31 4402.87 0.016 0 0 0
1 4928.04 4889.27 1671.81 0 0 0
1 4913.61 2612.34 399.811 0 0 0
1 2507.92 2740.19 549.321 0 0 0
1 2535.67 3634.76 1696.52 0 0 0
1 2785.67 2821.51 218.912 0 0 0
1 2500.33 4999.75 2499.93 0 0 0
1 2847.35 2500 2049.7 0 0 0
1 2500 2500 1946.82 0 0 0
1 2624.38 2507.51 300.609 0 0 0
1 2518.04 2651.19 36.984 0 0 0
1 2683.5 2935.3 885.476 0 0 0
1 2500.43 2500.09 593.559 0 0 0
1 2516.45 3558.53 1291.14 0 0 0
1 2664.4 2500.03 796.979 0 0 0
1 2673.35 2696.37 1004.74 0 0 0
1 2855.07 2767.05 121.871 0 0 0
1 2603.4 2637.12 1119.25 0 0 0
1 2735.29 2690.51 105.399 0 0 0
1 2500.92 2500.79 780.925 0 0 0
1 2650.41 2771.94 154.969 0 0 0
1 2502.21 2710.94 381.765 0 0 0
1 2622.04 2500.19 1365.23 0 0 0
1 2598.59 2604.86 958.782 0 0 0
1 2500 3020.97 0 0 0 0
1 2500 2619.5 1630.55 0 0 0
1 2650.28 2744.76 672.768 0 0 0
1 3026.97 2500 1264.62 0 0 0
1 2606.51 2531.35 622.993 0 0 0
1 2501.26 2500 1656.63 0 0 0
1 2735.62 2670.41 375.791 0 0 0
1 2611.85 2500.5 1081.03 0 0 0
1 2500.06 2593.32 1151.62 0 0 0
1 2500 5000 93.125 0 0 0
1 2619.23 2500 1697.37 0 0 0
1 2717.07 2526.54 469.642 0 0 0
1 2615.47 3693.09 1368.86 0 0 0
1 2756.47 2500.29 352.212 0 0 0
1 2506.35 2545.05 322.377 0 0 0
1 2708.01 2500.12 593.963 0 0 0
1 2608.51 2505.05 15.735 0 0 0
1 2535.75 2790.39 661.281 0 0 0
1 2502.5 2614.97 186.953 0 0 0
1 2710.26 2687.83 1198.09 0 0 0
1 2909.29 2500 275.397 0 0 0
1 2932.61 2500.03 0.064 0 0 0
1 2653.46 2500.04 1195.5 0 0 0
1 2839.73 2536.04 70.604 0 0 0
1 2614.2 2678.32 225.046 0 0 0
1 4999.98 4999.96 2499.99 0 0 0
1 2621.65 2500.91 911.815 0 0 0
1 2611.09 2647.2 590.833 0 0 0
1 2601.87 2565.92 1796.73 0 0 0
1 2969.83 2741.89 0 0 0 0
1 2706.02 2555.9 1004.29 0 0 0
1 2501.43 2606.38 1501.44 0 0 0
1 2529.11 2501.07 131.56 0 0 0
1 3342.83 4995.65 743.047 0 0 0
1 2744.92 2797.77 25.985 0 0 0
1 2671.49 2501.13 181.382 0 0 0
1 2621.95 3084.95 527.692 0 0 0
1 2500 2634.38 651.338 0 0 0
1 2500 2941.34 370.375 0 0 0
1 4431.66 2500 2500 0 0 0
1 4031.14 2500 2500 0 0 0
1 2869.63 3423.08 933.661 0 0 0
1 2621.88 2587.69 113.645 0 0 0
1 2500.05 2900.28 617.86 0 0 0
1 2590.19 2533.6 491.736 0 0 0
1 4023.9 5000 2500 0 0 0
1 2554.38 2680.06 1748.77 0 0 0
1 2529.53 2500.53 1243.19 0 0 0
1 3917.84 1014.1 2905.89 0 0 0
1 3002.33 235.683 3028.08 0 0 0
1 3241.38 135.67 2954.9 0 0 0
1 2867.09 461.142 3917.23 0 0 0
1 2782.61 1570.82 3609.48 0 0 0
1 2688.52 859.356 3257.68 0 0 0
1 3098.08 1943.29 2899.59 0 0 0
1 3571.74 2014.19 3421.85 0 0 0
1 3229.07 983.755 4665.19 0 0 0
1 4080.74 496.174 2957.38 0 0 0
1 3516.85 1153.04 3771.36 0 0 0
1 4694.51 370.999 3738.95 0 0 0
1 4000.07 489.269 3216.76 0 0 0
1 2767.87 2043.23 2688.59 0 0 0
1 4986.76 1096.09 4739.72 0 0 0
1 3480 856.256 3381.66 0 0 0
1 4907.32 764.529 3334.21 0 0 0
1 3981.4 296.062 3165.9 0 0 0
1 4839.69 494.572 2639.29 0 0 0
1 2849.67 868.966 3357.51 0 0 0
1 4914.33 2126.24 3761.91 0 0 0
1 4949.73 2061.02 4848.99 0 0 0
1 3457.88 396.374 2876.09 0 0 0
1 3636.64 982.17 4232.07 0 0 0
1 3008.89 1423.13 2748.86 0 0 0
1 3026.55 1119.46 3657.05 0 0 0
1 3381.34 682.337 4052.28 0 0 0
1 4688.39 292.383 4009.06 0 0 0
1 3303.52 526.586 4231.03 0 0 0
1 4121.38 248.556 3010.9 0 0 0
1 2568.67 1581.75 3743.47 0 0 0
1 3002.24 232.78 3386.96 0 0 0
1 3603.02 583.434 3565.92 0 0 0
1 3364.53 2072.47 3836.58 0 0 0
1 4756.96 383.17 3160.13 0 0 0
1 2559.35 786.082 3692.67 0 0 0
1 3894.8 1432.07 2543.28 0 0 0
1 4268.41 1121.15 3752.59 0 0 0
1 4305.59 913.177 2604.18 0 0 0
1 4162.36 508.436 4455.49 0 0 0
1 2779.83 1537.58 3169.36 0 0 0
1 3836.82 290.741 3470.21 0 0 0
1 3864.24 496.412 4541.74 0 0 0
1 2583.1 739.744 2590.68 0 0 0
1 3472.38 1065.59 3301.21 0 0 0
1 4826.96 187.453 4849.68 0 0 0
1 3652.57 1089.03 2928.56 0 0 0
1 3369.61 1852.26 4830.21 0 0 0
1 3548.83 749.696 3636.4 0 0 0
1 3460.27 1235.45 3401.62 0 0 0
1 3017.26 1912.2 4491.3 0 0 0
1 4715.22 990 2930.78 0 0 0
1 4284.88 26.639 2920.12 0 0 0
1 3882.9 2113.95 2667.49 0 0 0
1 3026.76 1903.93 3101.14 0 0 0
1 4504.61 816.954 3457.61 0 0 0
1 2942.64 1291.44 2576.2 0 0 0
1 3015.51 2266.8 3851.16 0 0 0
1 3510.39 1588.19 3616.99 0 0 0
1 2665.08 431.596 3411.06 0 0 0
1 3480.9 174.305 3610.11 0 0 0
1 4331.26 0.523 2802.16 0 0 0
1 3277.66 1276.02 3157.26 0 0 0
1 2673.53 1093.05 3144.46 0 0 0
1 3686.01 657.665 2941.2 0 0 0
1 4092.75 26.787 4607.14 0 0 0
1 3780.12 383.93 3326.63 0 0 0
1 3697.65 232.094 3561.54 0 0 0
1 2554.51 987.339 2530.32 0 0 0
1 3743.7 909.549 2575.55 0 0 0
1 4994.42 1186.86 4582.76 0 0 0
1 4379.64 958.888 3426.63 0 0 0
1 4908.2 1305.64 3886.15 0 0 0
1 4671.88 1312.67 3377.11 0 0 0
1 2812.92 1309.97 3510.78 0 0 0
1 53.546 2500.59 2554.83 0 0 0
1 2498.35 2500.5 4999.29 0 0 0
1 1596.33 3742.02 4619.31 0 0 0
1 2.038 2500.7 3478.87 0 0 0
1 871.076 2835.61 2500 0 0 0
1 1061.77 2516.86 2777.53 0 0 0
1 131.398 3449.8 2796.74 0 0 0
1 696.807 2522.54 2719.45 0 0 0
1 2452.77 2840.49 2798.55 0 0 0
1 820.583 2500.17 2500.46 0 0 0
1 846.594 2715.15 2500 0 0 0
1 0 2925.09 2500 0 0 0
1 425.136 2552.95 2502.51 0 0 0
1 447.507 2922.9 2666.86 0 0 0
1 493.783 2500.24 2736.11 0 0 0
1 1592 2641.95 2500 0 0 0
1 0 2569.54 3114.61 0 0 0
1 535.435 2604.35 2508.06 0 0 0
1 616.91 2500 3645.49 0 0 0
1 114.068 2625.38 2594.53 0 0 0
1 1.629 4995.56 2502.69 0 0 0
1 1194.96 2500.17 2788.13 0 0 0
1 2489.51 2840.61 2512.46 0 0 0
1 1111.96 2943.09 2500 0 0 0
1 988.319 2500.1 2678.72 0 0 0
1 2.673 3110.06 3094.12 0 0 0
1 706.992 2773.75 2500 0 0 0
1 848.291 2656.61 2784.98 0 0 0
1 1883.97 2537.66 2536.89 0 0 0
1 614.67 2780.45 2606.95 0 0 0
1 0 2500 3925.34 0 0 0
1 760.425 2884.37 2505.33 0 0 0
1 1098.48 2500.17 2500.03 0 0 0
1 575.012 2743.26 2752.13 0 0 0
1 852.749 3844.95 4870.9 0 0 0
1 569.382 3009.1 3687.74 0 0 0
1 912.452 2607.04 2500 0 0 0
1 883.508 2509.5 2612.32 0 0 0
1 0 2976.79 3073.55 0 0 0
1 764.327 2754.03 3003.14 0 0 0
1 569.203 3776.03 3123.16 0 0 0
1 345.909 3046.57 2500 0 0 0
1 1128.88 2500 2660.82 0 0 0
1 303.044 2987.59 3108.21 0 0 0
1 658.346 2614.73 2500.23 0 0 0
1 2.176 2500.85 2684.11 0 0 0
1 977.754 2501.12 2509.23 0 0 0
1 1491.89 2968.43 2500 0 0 0
1 2435.14 2562.2 2502.35 0 0 0
1 181.608 2584.04 2511.56 0 0 0
1 2298.43 3336 3281.74 0 0 0
1 861.078 2783.13 2654.41 0 0 0
1 310.13 2500.55 2658.16 0 0 0
1 0.159 2611.76 2893.66 0 0 0
1 2498.91 4999.18 4467.19 0 0 0
1 264.549 2500.01 2788.23 0 0 0
1 607.643 2524.91 2806.44 0 0 0
1 200.11 2500 2602.91 0 0 0
1 121.499 2541.91 2932.93 0 0 0
1 26.19 2539.14 2786.53 0 0 0
1 2500 2669.18 2816.14 0 0 0
1 479.194 2973.9 2875.48 0 0 0
1 684.753 2700.69 2677.11 0 0 0
1 342.661 3750.95 2500 0 0 0
1 378.838 2500 2872.97 0 0 0
1 706.385 2516.1 2558.03 0 0 0
1 924.144 2684.33 2685.54 0 0 0
1 358.84 2667.18 2500 0 0 0
1 2500 4731.24 4644.86 0 0 0
1 508.198 2501.93 2576.91 0 0 0
1 968.335 3391.34 3400.12 0 0 0
1 0 3278.14 2500 0 0 0
1 2499.27 4275.02 4961.49 0 0 0
1 993.145 2500 2984.28 0 0 0
1 1226.54 2500.4 2500 0 0 0
1 2565.6 2500.29 2753.01 0 0 0
1 3584.18 2673.43 4335.76 0 0 0
1 4995.44 4995.12 3749.31 0 0 0
1 4931.51 4302.82 4703.8 0 0 0
1 3274.1 2500.07 4999.99 0 0 0
1 2635.55 2578.83 4911.77 0 0 0
1 2869.29 3905.43 2628.88 0 0 0
1 4922.55 4369.56 4158.68 0 0 0
1 4866.02 3537.92 2679.84 0 0 0
1 2570.36 3309.03 4938.86 0 0 0
1 3893.36 2500.06 2500.04 0 0 0
1 2987.74 4726.82 4998.96 0 0 0
1 2782.89 4871.99 2586.53 0 0 0
1 2902.87 2500.02 4999.97 0 0 0
1 2500.03 4690.5 3778.46 0 0 0
1 4975.9 4980.52 4987.82 0 0 0
1 4121.72 2676.89 4960.66 0 0 0
1 2500.01 3716.71 4350.33 0 0 0
1 3242.46 2500.03 2500.03 0 0 0
1 2848.24 2500.72 4020.32 0 0 0
1 2500.06 3969.33 3517.08 0 0 0
1 2500.06 4999.94 2815.35 0 0 0
1 2908.59 5000 2500.02 0 0 0
1 3010.7 3581.94 4993.86 0 0 0
1 4998.12 3702.51 2501.67 0 0 0
1 2515.78 3772.98 2534.67 0 0 0
1 3442.28 3018.47 3759.6 0 0 0
1 4994.91 2510.91 2509.7 0 0 0
1 2500.04 4155.36 2500.02 0 0 0
1 2776.17 2567.15 2502.92 0 0 0
1 3580.96 2511.61 4999.28 0 0 0
1 3025.21 2500.01 5000 0 0 0
1 4101.81 2500.04 4999.98 0 0 0
1 2500.07 4401.65 4998.32 0 0 0
1 3109.85 2500.04 2500.03 0 0 0
1 2703.21 4999.94 2678.9 0 0 0
1 2923.42 2500.34 2609.6 0 0 0
1 2978.01 2500.01 3258.26 0 0 0
1 2500.01 2500.03 4455.52 0 0 0
1 2500.01 4282.36 2500.01 0 0 0
1 2889.41 2500.01 4839.13 0 0 0
1 4045.2 5000 4999.98 0 0 0
1 2680.23 2521.75 2663.06 0 0 0
1 4710.23 4404.96 4077.86 0 0 0
1 2501.31 3076.96 4290.08 0 0 0
1 3163.95 2511.99 4998.17 0 0 0
1 2500.03 3831.99 4527.24 0 0 0
1 3802.79 4782.82 4999.98 0 0 0
1 2506.97 2500.99 4818.01 0 0 0
1 2847.29 2619.88 4938.33 0 0 0
1 2509.34 3622.66 2524.71 0 0 0
1 4991.21 4993.67 4458.1 0 0 0
1 2500.06 4505.8 2500.03 0 0 0
1 4999.99 3787.04 3698.76 0 0 0
1 4999.98 3555.33 3101.57 0 0 0
1 2500.06 4433.48 3204.04 0 0 0
1 3010.08 2500.02 3560.16 0 0 0
1 4848.06 4720.05 2500.07 0 0 0
1 2500.06 2500.04 2660.76 0 0 0
1 3672.89 2500.02 2500.06 0 0 0
1 5000 2500.04 4297.95 0 0 0
1 4794.78 2500.04 2500.06 0 0 0
1 4999.99 2533.81 4489.06 0 0 0
1 2500.01 2669.27 4209.01 0 0 0
1 2500.18 2714.46 2578.93 0 0 0
1 2589.58 2659.64 2514.28 0 0 0
1 2502.2 4669.94 2503.45 0 0 0
1 2503.2 2500 2995.29 0 0 0
1 4999.98 4172.82 2736.21 0 0 0
1 2502.74 3207.42 4997.69 0 0 0
1 4999.98 3661.61 4999.99 0 0 0
1 4940.67 2572.45 2981.09 0 0 0
1 2585.31 4882.53 2500.15 0 0 0
1 2500.17 4805.81 2500.46 0 0 0
1 4210.88 2500.75 2770.36 0 0 0
2 800.427 942.054 908.563 0 0 0
2 610.731 260.006 327.844 0 0 0
2 472.493 645.353 693.84 0 0 0
2 875.533 122.941 361.585 0 0 0
2 887.484 79.743 547.269 0 0 0
2 900.833 13.898 838.652 0 0 0
2 929.068 628.656 64.243 0 0 0
2 684.534 391.351 40.189 0 0 0
2 787.867 947.865 567.694 0 0 0
2 806.222 192.945 667.732 0 0 0
2 654.506 707.806 615.816 0 0 0
2 59.768 373.551 599.041 0 0 0
2 936.566 598.6 184.283 0 0 0
2 540.257 461.03 916.727 0 0 0
2 657.144 733.35 283.094 0 0 0
2 662.132 539.628 665.348 0 0 0
2 737.369 994.248 708.399 0 0 0
2 623.627 54.288 138.952 0 0 0
2 4.065 656.67 503.157 0 0 0
2 607.593 319.894 778.255 0 0 0
2 945.489 617.98 374.417 0 0 0
2 232.312 794.376 694.756 0 0 0
2 653.911 872.247 26.66 0 0 0
2 871.536 14.176 291.718 0 0 0
2 197.239 210.806 248.548 0 0 0
2 654.79 138.544 790.309 0 0 0
2 525.887 184.971 606.99 0 0 0
2 465.496 308.346 225.858 0 0 0
2 903.909 451.48 41.575 0 0 0
2 832.023 862.964 672.884 0 0 0
2 993.31 854.935 93.55 0 0 0
2 429.162 312.154 18.573 0 0 0
2 198.581 532.533 325.395 0 0 0
2 213.298 58.611 237.718 0 0 0
2 709.681 699.987 795.867 0 0 0
2 500.311 765.517 505.579 0 0 0
2 294.506 431.572 361.166 0 0 0
2 733.505 482.46 855.364 0 0 0
2 967.547 756.76 847.004 0 0 0
2 893.792 574.369 610.69 0 0 0
2 115.468 340.784 132.146 0 0 0
2 366.972 963.268 5.653 0 0 0
2 79.446 62.375 436.061 0 0 0
2 100.207 764.897 858.731 0 0 0
2 248.506 353.255 713.854 0 0 0
2 657.427 865.191 797.084 0 0 0
2 434.828 147.311 414.631 0 0 0
2 284.988 706.272 356.858 0 0 0
2 829.519 733.045 852.951 0 0 0
2 491.772 297.296 414.399 0 0 0
2 3823.04 380.162 1788.83 0 0 0
2 3581.64 1025.33 564.088 0 0 0
2 4995.02 0.214 2499.32 0 0 0
2 3942.17 1554.14 1812.39 0 0 0
2 4011.14 241.728 467.07 0 0 0
2 4260.44 753.186 94.915 0 0 0
2 4787.56 549.835 497.318 0 0 0
2 4701.15 1158.4 1571.52 0 0 0
2 3945.99 223.335 826.734 0 0 0
2 4953.73 424.038 193.498 0 0 0
2 3963.33 600.263 844.748 0 0 0
2 4901.83 97.164 29.328 0 0 0
2 4607.07 636.904 755.761 0 0 0
2 3984.21 464.197 72.372 0 0 0
2 3978.15 528.493 395.475 0 0 0
2 4737.51 29.944 838.65 0 0 0
2 4120.01 681.25 773.715 0 0 0
2 4168.9 274.383 910.797 0 0 0
2 3653.55 872.727 825.125 0 0 0
2 4244.45 324.731 716.802 0 0 0
2 5000 893.618 828.091 0 0 0
2 3864.29 784.236 26.976 0 0 0
2 4345.61 525.188 187.851 0 0 0
2 4503.85 948.226 524.546 0 0 0
2 3811.13 24.804 634.225 0 0 0
2 4568.62 0 832.819 0 0 0
2 3647.44 574.733 99.508 0 0 0
2 3986.88 749.207 433.155 0 0 0
2 4478.7 927.826 393.372 0 0 0
2 3687.65 488.888 295.994 0 0 0
2 4807.11 321.304 371.107 0 0 0
2 3999.32 872.253 871.708 0 0 0
2 4614.95 850.279 551.122 0 0 0
2 4835 174.798 1295.6 0 0 0
2 3750.62 710.994 596.048 0 0 0
2 4703 840.698 690.029 0 0 0
2 4270.68 1852.79 1531.13 0 0 0
2 4553.27 518.528 842.312 0 0 0
2 4028.63 0 1438.57 0 0 0
2 4211.01 43.388 660.135 0 0 0
2 4623.22 803.743 78.585 0 0 0
2 3716.08 651.697 467.983 0 0 0
2 3435.33 0 196.213 0 0 0
2 4334.53 1154.81 1156.96 0 0 0
2 3670.18 591.56 892.343 0 0 0
2 5000 1189.86 0 0 0 0
2 3908.37 675.219 229.64 0 0 0
2 4182.25 482.324 70.881 0 0 0
2 3995.9 1815.02 357.251 0 0 0
2 3738.09 0 0 0 0 0
2 379.502 3580.32 1714.87 0 0 0
2 429.267 3860.94 769.79 0 0 0
2 629.541 4242.48 145.557 0 0 0
2 536.71 4643.82 367.782 0 0 0
2 89.714 4066.14 219.027 0 0 0
2 558.263 3551.64 87.342 0 0 0
2 723.163 3575.5 96.818 0 0 0
2 2008.94 2500 1642.88 0 0 0
2 488.179 4413.01 526.394 0 0 0
2 682.121 4232.06 0 0 0 0
2 326.6 3499.89 212.095 0 0 0
2 938.345 4262.94 835.426 0 0 0
2 388.882 3738.17 256.083 0 0 0
2 43.874 4140.26 400.671 0 0 0
2 0 5000 0 0 0 0
2 50.471 3696.45 444.629 0 0 0
2 847.541 3488.42 341.247 0 0 0
2 670.883 3816.58 353.267 0 0 0
2 154.751 3720.01 718.741 0 0 0
2 599.662 4058.35 67.551 0 0 0
2 965.961 3703.04 786.984 0 0 0
2 118 4128.01 666.933 0 0 0
2 701.555 3683.54 543.657 0 0 0
2 423.39 4957.84 0 0 0 0
2 780.187 4310.14 320.732 0 0 0
2 898.538 3674.77 74.693 0 0 0
2 859.836 4460.98 257.605 0 0 0
2 579.547 3487.22 198.442 0 0 0
2 931.355 4321.81 74.281 0 0 0
2 69.464 3496.76 253.639 0 0 0
2 928.442 3695.07 528.067 0 0 0
2 17.925 4464.28 654.035 0 0 0
2 276.715 4641.5 404.897 0 0 0
2 618.351 3496.79 532.69 0 0 0
2 497.783 3988.5 330.135 0 0 0
2 41.474 4352.96 701.617 0 0 0
2 159.812 4146.69 160.897 0 0 0
2 703.165 3987.14 177.486 0 0 0
2 899.891 3875.25 428.225 0 0 0
2 301.734 4514.48 723.506 0 0 0
2 482.449 3989.15 668.642 0 0 0
2 948.162 3824.78 314.149 0 0 0
2 770.051 4123.03 669.548 0 0 0
2 741.083 4620.45 352.513 0 0 0
2 371.206 3797.28 593.79 0 0 0
2 505.722 4201.19 608.266 0 0 0
2 409.344 4472.19 791.992 0 0 0
2 53.661 4482.66 779.414 0 0 0
2 473.34 4230.05 11.469 0 0 0
2 719.335 3787.84 98.382 0 0 0
2 657.77 367.599 4306 0 0 0
2 16.664 905.029 4699.31 0 0 0
2 344.416 374.745 3488.08 0 0 0
2 1565.83 1628.11 4105.46 0 0 0
2 486.732 2500 5000 0 0 0
2 779.692 69.501 3796.43 0 0 0
2 83.798 361.964 3480.74 0 0 0
2 795.318 635.917 3828.01 0 0 0
2 915.193 443.436 3717.32 0 0 0
2 2353.03 0 4799.42 0 0 0
2 567.75 56.9 3582.55 0 0 0
2 56.998 753.137 3658.34 0 0 0
2 449.133 301.909 3556.18 0 0 0
2 0 273.141 4333.61 0 0 0
2 710.799 932.978 4669.51 0 0 0
2 939.206 10.688 4556.52 0 0 0
2 531.37 571.002 3691.38 0 0 0
2 906.538 290.957 4016.22 0 0 0
2 873.963 334.431 3828.6 0 0 0
2 62.625 572.029 3660.69 0 0 0
2 572.303 45.907 3844.36 0 0 0
2 0 1323.71 5000 0 0 0
2 1835.14 153.349 2501.71 0 0 0
2 722.651 844.533 3829.46 0 0 0
2 192.253 825.866 4636.34 0 0 0
2 0 309.185 4647.84 0 0 0
2 205.456 189.699 3892.87 0 0 0
2 2.298 702.277 4288.16 0 0 0
2 470.109 385.076 4080.58 0 0 0
2 439.715 47.733 4040.99 0 0 0
2 1012.72 185.28 4661.56 0 0 0
2 381.127 466.33 3819.56 0 0 0
2 962.748 734.146 3818.45 0 0 0
2 232.533 174.5 4706.99 0 0 0
2 144.588 65.129 3786.82 0 0 0
2 217.265 508.582 3515.42 0 0 0
2 826.108 473.002 3930.42 0 0 0
2 555.628 618.281 3497.69 0 0 0
2 228.114 24.607 4740.07 0 0 0
2 207.139 68.977 4127.06 0 0 0
2 532.548 395.847 4660.68 0 0 0
2 232.377 765.763 4009.3 0 0 0
2 3.635 307.427 3975.22 0 0 0
2 421.822 167.966 4293.84 0 0 0
2 795.661 302.611 3725.68 0 0 0
2 0 1588.64 4253.71 0 0 0
2 219.599 121.34 3474.73 0 0 0
2 429.76 971.543 4724.23 0 0 0
2 303.045 325.917 4156.54 0 0 0
2 941.98 874.707 3810.61 0 0 0
2 3957.26 4446.94 479.911 0 0 0
2 3500.26 4308.22 151.523 0 0 0
2 4535.98 4433.21 879.69 0 0 0
2 3449.93 3498.63 798.886 0 0 0
2 4183.84 4136.8 467.131 0 0 0
2 4178.38 4476.21 549.907 0 0 0
2 4253.69 4554.87 849.643 0 0 0
2 4425.34 4541.46 734.556 0 0 0
2 4404.21 3887.6 827.468 0 0 0
2 4169.89 3686.4 929.558 0 0 0
2 3451.39 3759.36 925.254 0 0 0
2 3444.97 3867.27 784.649 0 0 0
2 4540.22 3568.12 645.733 0 0 0
2 3700.67 4469.58 666.026 0 0 0
2 4440.21 3921.68 146.148 0 0 0
2 4489.04 3539.55 801.13 0 0 0
2 4328.55 4156.65 495.379 0 0 0
2 3568.77 3823.02 209.516 0 0 0
2 3618.79 4239.69 737.341 0 0 0
2 3466.7 3646.57 716.539 0 0 0
2 4491.68 3446.77 540.656 0 0 0
2 4250.25 3503.84 239.466 0 0 0
2 3998.3 3799.83 607.721 0 0 0
2 3866.93 3815.27 514.411 0 0 0
2 3957.59 3583.41 90.573 0 0 0
2 4365.13 3414.99 645.85 0 0 0
2 4116.95 3550.95 805.329 0 0 0
2 3676.47 3806.57 327.54 0 0 0
2 4339.37 3897.07 75.393 0 0 0
2 4152.65 3640.65 239.055 0 0 0
2 3701.99 3847.49 897.12 0 0 0
2 4244.29 3514.3 774.742 0 0 0
2 4461.3 4218.03 399.897 0 0 0
2 4752.2 4495.2 750.662 0 0 0
2 3541.24 4500.64 782.676 0 0 0
2 3944.46 3783.87 800.368 0 0 0
2 3862.49 4055.64 403.23 0 0 0
2 3693.34 4366.91 778.18 0 0 0
2 3544.17 4409.88 60.323 0 0 0
2 3496.02 4579.65 901.256 0 0 0
2 3860.45 4452.06 680.882 0 0 0
2 3982.62 3591.07 415.296 0 0 0
2 4114.55 3644.76 113.349 0 0 0
2 4490.3 4322.11 219.512 0 0 0
2 3793.63 4110.18 49.17 0 0 0
2 4432.83 4496.07 866.915 0 0 0
2 3758.35 4038.68 229.477 0 0 0
2 4020.84 3658.14 247.278 0 0 0
2 4276.94 4301.85 542.06 0 0 0
2 4193.35 3891.54 413.068 0 0 0
2 3493.28 860 3800.92 0 0 0
2 3772.61 304.211 3943.16 0 0 0
2 3904.92 667.073 4368.41 0 0 0
2 4092.32 829.202 3432.58 0 0 0
2 3521.8 291.978 4390.48 0 0 0
2 4070.5 296.161 4146.85 0 0 0
2 3790.35 617.959 4237.67 0 0 0
2 4104.23 35.181 3667.92 0 0 0
2 3575.01 821.946 3946.08 0 0 0
2 3327.79 954.349 3905.16 0 0 0
2 3399.28 697.323 3559.21 0 0 0
2 3883.27 346.141 3641.93 0 0 0
2 4041.28 734.529 3936.18 0 0 0
2 3437.15 608.438 4384.32 0 0 0
2 3512.96 215.331 4284.83 0 0 0
2 4170.92 344.149 4070.37 0 0 0
2 3791.35 780.542 3538.98 0 0 0
2 3970.32 162.635 3792.33 0 0 0
2 4089.74 465.185 4308.62 0 0 0
2 4206.9 496.737 4102.94 0 0 0
2 3972.35 589.565 3433.61 0 0 0
2 4036.45 791.096 3807.24 0 0 0
2 3854.27 145.41 3730.59 0 0 0
2 3550.16 544.198 4242.8 0 0 0
2 3678.59 109.533 3539.98 0 0 0
2 3648.91 557.493 3428.66 0 0 0
2 4274.44 436.058 4407.29 0 0 0
2 3878.04 345.64 4026.37 0 0 0
2 3432.7 767.508 3940.23 0 0 0
2 3967.3 780.911 4068.58 0 0 0
2 3960.48 827.815 4377.31 0 0 0
2 4147.71 225.811 3518.32 0 0 0
2 3702.14 339.826 3485.8 0 0 0
2 3906.31 373.761 3386.71 0 0 0
2 4329.6 287.269 4207.86 0 0 0
2 3686.29 777.968 3672.79 0 0 0
2 3521.12 482.341 3960.33 0 0 0
2 3951.92 59.418 3562.18 0 0 0
2 3872.51 686.774 3961.87 0 0 0
2 3619.83 474.891 3686.59 0 0 0
2 3626.3 866.277 4148.6 0 0 0
2 4356.98 282.608 3924.77 0 0 0
2 3360.53 89.588 3435.31 0 0 0
2 4202.15 863.199 3514.63 0 0 0
2 3667.61 927.099 3748.88 0 0 0
2 4104.03 636.534 3468.5 0 0 0
2 3651.12 707.121 3968.1 0 0 0
2 3435.93 930.876 3522.33 0 0 0
2 3609.64 557.941 4032.57 0 0 0
2 3601.62 408.492 3873.47 0 0 0
2 442.019 4396.08 3450.54 0 0 0
2 33.559 4080.56 3701.34 0 0 0
2 694.489 3443.97 4189.85 0 0 0
2 499.056 4146.53 3614.28 0 0 0
2 584.131 4227.59 4204.44 0 0 0
2 974.052 3902.3 4421.04 0 0 0
2 627.382 3796.22 3963.08 0 0 0
2 823.261 4070.94 4594.42 0 0 0
2 24.652 3537.16 4479.71 0 0 0
2 637.406 4008.7 3526.79 0 0 0
2 854.144 3458.68 4001.57 0 0 0
2 515.18 4020.26 3518.05 0 0 0
2 804.19 4390.77 4392.03 0 0 0
2 733.652 4278.25 3607.53 0 0 0
2 915.723 4478.78 3440.79 0 0 0
2 892.628 4194.17 3821.09 0 0 0
2 693.085 4049.3 3740.71 0 0 0
2 314.417 3983.23 4210.97 0 0 0
2 973.744 3639.3 3961.12 0 0 0
2 254.677 4071.53 3950.6 0 0 0
2 704.499 3809.73 3642.95 0 0 0
2 650.893 3632.83 3620.67 0 0 0
2 781.183 4448.91 3558.87 0 0 0
2 201.341 3675.22 4406.66 0 0 0
2 772.973 3437.79 4374.53 0 0 0
2 245.956 3894.52 4136.23 0 0 0
2 153.262 4472.31 4099.42 0 0 0
2 646.663 3880.88 3532.96 0 0 0
2 616.171 4214.78 3544.92 0 0 0
2 257.937 4149.44 3774.85 0 0 0
2 900.821 3591.7 3713.28 0 0 0
2 842.993 3991.22 3885.43 0 0 0
2 157.104 3977.92 3507.11 0 0 0
2 159.626 4461.94 3605.6 0 0 0
2 577.52 4503.13 4119.11 0 0 0
2 809.871 3530.47 4245.36 0 0 0
2 565.657 3846.36 3811.47 0 0 0
2 191.01 4001.41 4040.55 0 0 0
2 129.724 4418.57 3491.52 0 0 0
2 549.543 4583.7 4405.3 0 0 0
2 149.216 4252.88 3572.3 0 0 0
2 289.912 3735.26 4066.63 0 0 0
2 701.068 3893.01 3878.73 0 0 0
2 395.555 4529.01 3933.32 0 0 0
2 351.609 3516.55 3698.26 0 0 0
2 827.028 4285.82 3497.78 0 0 0
2 182.611 4147.05 3500.21 0 0 0
2 588.683 3976.42 3677.95 0 0 0
2 309.286 4269.17 3996.03 0 0 0
2 113.339 3588.67 3599.1 0 0 0
2 3682.67 4119.06 4132.65 0 0 0
2 4567.4 4043.8 4242.65 0 0 0
2 4251.11 4269.99 4333.23 0 0 0
2 4520.32 4435.55 3871.19 0 0 0
2 4009.36 4093.68 3913.9 0 0 0
2 4524.43 3648.97 4061.2 0 0 0
2 4340.73 4014.37 4092.26 0 0 0
2 4451.49 3600.45 4339.62 0 0 0