ITEM: TIMESTEP
0
ITEM: NUMBER OF ATOMS
1000
ITEM: BOX BOUNDS pp pp pp
-1.0000000000000000e+02 5.1000000000000000e+03
-1.0000000000000000e+02 5.1000000000000000e+03
-1.0000000000000000e+02 5.1000000000000000e+03
ITEM: ATOMS type x y z ix iy iz
1 26.397 49.529 109.99 0 0 0
1 1609.56 2226.23 1868.74 0 0 0
1 1779.68 2500 2500 0 0 0
1 2217.41 341.13 1868.74 0 0 0
1 1879.47 1371.67 643.719 0 0 0
1 2500 2015.97 2500 0 0 0
1 820.055 95.076 456.073 0 0 0
1 895.507 504.697 138.483 0 0 0
1 914.277 605.393 702.869 0 0 0
1 728.198 855.454 176.582 0 0 0
1 881.503 361.186 849.06 0 0 0
1 603.436 659.13 679.872 0 0 0
1 104.923 941.558 262.956 0 0 0
1 635.807 585.939 37.28 0 0 0
1 29.093 923.642 415.149 0 0 0
1 519.726 197.288 914.059 0 0 0
1 124.154 2440 2413.96 0 0 0
1 294.152 514.306 469.57 0 0 0
1 646.809 383.367 479.87 0 0 0
1 987.391 711.813 276.572 0 0 0
1 331.617 805.094 806.112 0 0 0
1 263.808 611.272 836.415 0 0 0
1 866.059 827.61 939.475 0 0 0
1 182.215 488.24 120.644 0 0 0
1 539.493 327.07 219.979 0 0 0
1 661.007 974.984 843.317 0 0 0
1 839.173 717.949 702.783 0 0 0
1 260.579 425.478 979.056 0 0 0
1 76.732 539.201 522.162 0 0 0
1 55.177 22.341 212.726 0 0 0
1 770.04 711.9 996.378 0 0 0
1 713.513 682.953 462.291 0 0 0
1 656.646 812.245 444.901 0 0 0
1 803.896 699.458 5.095 0 0 0
1 833.097 534.665 322.854 0 0 0
1 28.433 662.04 901.777 0 0 0
1 768.083 612.404 219.291 0 0 0
1 105.468 467.383 691.688 0 0 0
1 197.522 358.974 588.449 0 0 0
1 666.024 915.002 372.383 0 0 0
1 133.099 613.252 264.613 0 0 0
1 549.734 659.297 825.899 0 0 0
1 305.557 969.742 723.961 0 0 0
1 536.956 508.332 163.487 0 0 0
1 644.213 533.612 783.427 0 0 0
1 48.758 696.646 157.811 0 0 0
1 4.153 63.366 0.056 0 0 0
1 182.857 1824.51 2499.23 0 0 0
1 1312.62 341.124 854.054 0 0 0
1 368.476 719.213 365.666 0 0 0
1 3575.77 482.656 502.484 0 0 0
1 3547.91 288.481 720.429 0 0 0
1 4927.46 68.155 78.049 0 0 0
1 4445.55 173.295 8.393 0 0 0
1 4594.72 582.304 312.231 0 0 0
1 4012.51 175.487 576.502 0 0 0
1 4315.88 866.507 230.661 0 0 0
1 4360.62 474.307 322.325 0 0 0
1 3567.86 120.989 879.008 0 0 0
1 2699.17 288.839 51.394 0 0 0
1 4389.03 484.782 644.296 0 0 0
1 3501.82 875.847 267.446 0 0 0
1 2520.33 225.754 2417.46 0 0 0
1 4123.34 286.055 294.741 0 0 0
1 3862.82 673.134 65.039 0 0 0
1 4388.17 309.367 424.75 0 0 0
1 4057.09 753.487 687.993 0 0 0
1 4459 934.508 755.958 0 0 0
1 4081.68 862.083 129.761 0 0 0
1 3758.61 876.613 720.483 0 0 0
1 3785.47 52.308 741.953 0 0 0
1 4494.8 97.061 655.426 0 0 0
1 4475.15 224.014 164.32 0 0 0
1 3675.5 278.719 674.107 0 0 0
1 4176.7 664.009 306.144 0 0 0
1 4932.29 117.535 201.31 0 0 0
1 4657.95 934.358 212.593 0 0 0
1 4121.69 255.562 529.817 0 0 0
1 4049 637.17 59.119 0 0 0
1 3875.78 128.388 500.204 0 0 0
1 4602 65.522 170.57 0 0 0
1 4719.2 414.457 551.761 0 0 0
1 4534.35 357.893 87.819 0 0 0
1 4847.98 2394.92 213.592 0 0 0
1 4526.01 497.258 719.722 0 0 0
1 4881.98 2385.11 84.352 0 0 0
1 4196.09 811.262 512.373 0 0 0
1 3521.12 612.845 839.479 0 0 0
1 4094.72 54.146 87.163 0 0 0
1 4881.34 605.645 1368.86 0 0 0
1 4754.37 815.025 860.694 0 0 0
1 2500 1912.96 2391.34 0 0 0
1 3582.88 267.734 455.281 0 0 0
1 3582.69 93.296 108.919 0 0 0
1 3586.3 298.791 108.789 0 0 0
1 3818.48 856.887 555.536 0 0 0
1 3503.04 804.652 1252.16 0 0 0
1 3812.02 202.66 195.138 0 0 0
1 3871.54 676.128 535.381 0 0 0
1 3561.56 734.464 827.34 0 0 0
1 1003.71 4042.77 687.083 0 0 0
1 956.75 3999.77 911.419 0 0 0
1 168.17 4490.55 937.019 0 0 0
1 405.015 3742.67 812.349 0 0 0
1 699.413 4416.66 645.616 0 0 0
1 273.885 3666.82 498.991 0 0 0
1 50.654 4566.76 978.31 0 0 0
1 96.292 4555.03 327.592 0 0 0
1 210.271 4307.35 151.875 0 0 0
1 182.236 3823.34 389.782 0 0 0
1 656.759 3888.68 575.144 0 0 0
1 34.161 3568.14 483.266 0 0 0
1 715.03 4578.02 951.188 0 0 0
1 564.478 4593.77 536.71 0 0 0
1 167.036 3425.59 443.099 0 0 0
1 993.042 3441.46 148.581 0 0 0
1 424.397 3990.56 356.972 0 0 0
1 355.085 3898.75 937.522 0 0 0
1 750.823 3917.35 136.969 0 0 0
1 411.369 3942.28 634.103 0 0 0
1 937.36 3976.21 123.085 0 0 0
1 56.506 3562.77 613.092 0 0 0
1 30.365 3683.78 613.013 0 0 0
1 695.467 4587.81 227.587 0 0 0
1 104.605 4517.17 109.812 0 0 0
1 303.777 3532.68 907.416 0 0 0
1 982.896 3753.61 417.983 0 0 0
1 854.193 3906.2 375.963 0 0 0
1 12.226 4063.16 640.106 0 0 0
1 386.242 3499.55 452.309 0 0 0
1 971.142 4565.74 921.687 0 0 0
1 741.452 3676.23 847.136 0 0 0
1 822.623 3563.81 920.259 0 0 0
1 483.969 4235.99 231.013 0 0 0
1 49.182 4486.89 237.97 0 0 0
1 512.256 3508.03 99.993 0 0 0
1 29.298 4222.24 596.538 0 0 0
1 535.701 3927.39 786.417 0 0 0
1 159.378 3609.55 658.642 0 0 0
1 815.349 4148.6 74.493 0 0 0
1 862.425 3733.06 199.56 0 0 0
1 854.178 4558.04 357.517 0 0 0
1 493.603 4003.48 207.778 0 0 0
1 27.487 4233.84 138.328 0 0 0
1 738.618 3982.43 753.273 0 0 0
1 191.779 3991.47 774.28 0 0 0
1 172.496 4208.25 628.756 0 0 0
1 884.72 3772.68 566.609 0 0 0
1 552.557 3785.09 329.24 0 0 0
1 367.143 4419.81 930.335 0 0 0
1 193.943 73.125 3624.29 0 0 0
1 500.416 356.942 3689.71 0 0 0
1 411.856 368.126 4657.67 0 0 0
1 204.279 28.949 4072.68 0 0 0
1 10.163 572.63 4231.9 0 0 0
1 519.939 96.347 4311.19 0 0 0
1 534.695 383.852 4085.76 0 0 0
1 708.429 620.735 4461.22 0 0 0
1 703.533 720.813 4017.37 0 0 0
1 805.632 645.162 4765.59 0 0 0
1 240.373 403.728 3921.96 0 0 0
1 192.965 798.602 3588.79 0 0 0
1 191.09 577.74 4450.69 0 0 0
1 855.937 31.418 3820.63 0 0 0
1 767.996 888.615 4339.88 0 0 0
1 176.604 265.825 3529.83 0 0 0
1 172.895 885.828 4057.35 0 0 0
1 665.967 777.412 4269.63 0 0 0
1 307.434 215.054 4055.59 0 0 0
1 777.762 760.771 3864.78 0 0 0
1 953.295 250.971 3706.36 0 0 0
1 402.265 420.261 4806.62 0 0 0
1 200.366 71.997 4223.57 0 0 0
1 296.87 726.741 3546.95 0 0 0
1 828.631 92.002 4266.06 0 0 0
1 637.674 536.713 4069.38 0 0 0
1 94.449 778.187 4660.67 0 0 0
1 131.398 746.85 3815.04 0 0 0
1 968.687 731.126 3964.83 0 0 0
1 369.239 512.551 4084.55 0 0 0
1 737.344 497.173 3724.04 0 0 0
1 834.745 98.68 4060.68 0 0 0
1 797.341 430.568 3878.83 0 0 0
1 898.02 88.254 4774.7 0 0 0
1 377.092 254.68 4225.43 0 0 0
1 45.046 218.36 3727.67 0 0 0
1 424.529 110.297 3970.94 0 0 0
1 188.895 62.878 4766.05 0 0 0
1 89.082 756.482 3538.64 0 0 0
1 555.984 271.822 4805.92 0 0 0
1 763.97 516.041 4612.27 0 0 0
1 668.96 438.358 3863.87 0 0 0
1 556.442 428.507 4608.1 0 0 0
1 272.992 784.84 4170.26 0 0 0
1 954.4 318.784 4573.64 0 0 0
1 12.869 701.196 4187.06 0 0 0
1 906.341 115.254 4595.32 0 0 0
1 476.446 751.077 4615.69 0 0 0
1 957.371 530.573 4225.59 0 0 0
1 946.935 890.573 3806.57 0 0 0
1 4317.18 4585.04 506.273 0 0 0
1 3711.41 4245.69 178.47 0 0 0
1 3733.85 4430.34 306.947 0 0 0
1 4371.2 3751.39 942.082 0 0 0
1 4385.11 4282.19 384.115 0 0 0
1 3563.21 3626.44 459.556 0 0 0
1 3466.03 3698.91 309.302 0 0 0
1 3436.89 4410.15 50.374 0 0 0
1 4021.67 4596.81 122.371 0 0 0
1 3775.67 4391.11 3.582 0 0 0
1 3545.22 4481.87 857.918 0 0 0
1 3575.53 4140.67 119.291 0 0 0
1 4529.44 4289.79 660.355 0 0 0
1 4044.28 3583.55 473.65 0 0 0
1 4044.66 4567.56 266.853 0 0 0
1 4040.8 4567.99 823.879 0 0 0
1 3723.95 3619.51 777.242 0 0 0
1 4024.99 4381.05 538.667 0 0 0
1 4168.93 4508.3 960.159 0 0 0
1 3844.08 3999.81 83.513 0 0 0
1 4101.03 3873.7 196.053 0 0 0
1 3743.14 3797.02 170.881 0 0 0
1 3761.92 3729.65 843.188 0 0 0
1 4500.18 3850.05 606.867 0 0 0
1 3803.18 3582.43 895.58 0 0 0
1 4150.94 4417.88 351.394 0 0 0
1 4027.68 3633.27 344.107 0 0 0
1 3832.26 4397.28 806.503 0 0 0
1 3783.65 3862.9 850.152 0 0 0
1 4535.93 4137.92 61.226 0 0 0
1 3849.41 4123.67 839.575 0 0 0
1 4462.94 3522.64 369.887 0 0 0
1 3920.51 4104.65 234.224 0 0 0
1 4197.33 4430.68 165.512 0 0 0
1 4492.62 3668.2 667.745 0 0 0
1 4105.18 4396.26 80.772 0 0 0
1 3775.99 4501.36 405.07 0 0 0
1 4387.18 3613.1 885.81 0 0 0
1 4215.33 3720.44 486.262 0 0 0
1 3787.82 4226.35 601.813 0 0 0
1 3763.96 3515.92 111.513 0 0 0
1 3667.94 3947.81 198.976 0 0 0
1 3677.67 4373.98 153.531 0 0 0
1 4071.17 4164.26 639.378 0 0 0
1 3857.56 4358.87 498.299 0 0 0
1 3522.37 3845.9 518.92 0 0 0
1 3906.68 3491.95 677.097 0 0 0
1 3580.33 4422.85 425.769 0 0 0
1 3997.14 3605.78 889.771 0 0 0
1 4181.32 4247.86 564.323 0 0 0
1 3758.84 213.291 3701.51 0 0 0
1 3530.45 509.98 3669.03 0 0 0
1 4499.16 785.999 4282.13 0 0 0
1 3556.56 372.995 4549.5 0 0 0
1 4193.57 484.375 3923.39 0 0 0
1 3843.73 701.774 3755.84 0 0 0
1 3868.32 375.161 4161.01 0 0 0
1 4261.56 844.658 4274.56 0 0 0
1 4050.35 186.444 3799.9 0 0 0
1 4586.49 272.733 3729.67 0 0 0
1 4382.89 787.483 3707.56 0 0 0
1 4595.01 729.848 4626.85 0 0 0
1 3804.88 687.151 4541.12 0 0 0
1 4143.18 239.202 4641.08 0 0 0
1 3991.34 365.284 4015.86 0 0 0
1 3815.52 355.717 4577.09 0 0 0
1 3713.68 545.141 4620.84 0 0 0
1 3917.62 180.039 4552.84 0 0 0
1 4005.37 904.16 3920.68 0 0 0
1 4363.2 17.163 3668.53 0 0 0
1 4153.62 644.674 4063.14 0 0 0
1 3990.56 636.07 3881.82 0 0 0
1 3590.61 49.703 3517.94 0 0 0
1 4148.01 14.424 3580.59 0 0 0
1 4524.95 142.257 4175.44 0 0 0
1 4330.25 145.885 3921.84 0 0 0
1 4454.28 100.436 3744.76 0 0 0
1 4441.68 61.575 4230.16 0 0 0
1 3804.51 215.7 3492.28 0 0 0
1 4049.05 822.729 4373.55 0 0 0
1 4652.51 512.138 3788.97 0 0 0
1 4397.9 800.997 3491.93 0 0 0
1 4184.82 422.592 3485.43 0 0 0
1 3909.75 707.252 4118.51 0 0 0
1 4627.87 883.586 4398.16 0 0 0
1 3743.13 874.585 4362.51 0 0 0
1 4476.06 425.566 4087.14 0 0 0
1 3771.8 105.039 4612.51 0 0 0
1 3738.69 712.052 4147.66 0 0 0
1 4144.87 678 4342.22 0 0 0
1 3860.53 207.621 3610.59 0 0 0
1 4323.45 182.571 3484.72 0 0 0
1 3528.05 953.982 3906.95 0 0 0
1 3539.64 913.419 4076.69 0 0 0
1 4039.65 508.102 4417.61 0 0 0
1 3560.53 909.518 3545.82 0 0 0
1 3870.91 640.774 4355.77 0 0 0
1 3965.68 701.605 3752.99 0 0 0
1 3917.21 558.743 4019.59 0 0 0
1 4475.65 942.135 4461.31 0 0 0
1 853.145 3659.57 3422.22 0 0 0
1 441.821 4335.86 4059.7 0 0 0
1 464.326 4450.8 4374.15 0 0 0
1 176.518 4045.41 3892.21 0 0 0
1 358.399 3829.48 3915.15 0 0 0
1 134.27 3850.54 3487.06 0 0 0
1 246.134 4221.16 4098.63 0 0 0
1 633.265 3457.53 4183.39 0 0 0
1 593.186 3847.08 3701.79 0 0 0
1 793.122 3957.29 4238.35 0 0 0
1 131.578 3693.93 4418.43 0 0 0
1 308.172 4129.17 4429.04 0 0 0
1 278.052 3512.07 3965.27 0 0 0
1 790.661 3957.27 4388.23 0 0 0
1 245.366 4456.35 4676.88 0 0 0
1 388.344 4492.68 3696.68 0 0 0
1 452.678 3693.34 3827.38 0 0 0
1 913.774 3300.74 4110.96 0 0 0
1 758.156 4188.4 4264.78 0 0 0
1 672.171 3988.81 3552.11 0 0 0
1 78.64 4045.34 4493.79 0 0 0
1 623.429 3505.97 3611.95 0 0 0
1 578.258 4006.76 4228.69 0 0 0
1 247.226 3843.86 3541.7 0 0 0
1 487.615 3874.8 3402.75 0 0 0
1 898.182 3649.19 4482.31 0 0 0
1 560.218 4240.08 4106.71 0 0 0
1 190.578 4108.77 3789.05 0 0 0
1 52.171 4345.12 4456.65 0 0 0
1 459.816 3749.2 3642.42 0 0 0
1 861.14 3487.45 4483.9 0 0 0
1 650.961 4196.74 4176.01 0 0 0
1 259.114 3883.84 4526.17 0 0 0
1 686.301 4524.58 4365.35 0 0 0
1 653.864 3824.83 4210.35 0 0 0
1 206.197 4225.94 4476.86 0 0 0
1 275.102 3644.37 3978.86 0 0 0
1 560.796 3866.28 4435.63 0 0 0
1 378.841 4233.36 3901 0 0 0
1 228.173 4139.29 3438.16 0 0 0
1 511.872 3941.24 4127.83 0 0 0
1 77.444 3639.83 4281.42 0 0 0
1 743.133 3841.48 4102.8 0 0 0
1 300.393 3534.66 3823.42 0 0 0
1 318.836 4361.25 4030.28 0 0 0
1 429.365 4296.22 4277.51 0 0 0
1 562.093 4459.86 3883.32 0 0 0
1 691.258 4453.86 3662.49 0 0 0
1 350.753 3592.77 3549.77 0 0 0
1 940.923 4148.23 4363.07 0 0 0
1 4047.33 3985.72 3678.38 0 0 0
1 2500 3350.85 3655.08 0 0 0
1 5000 4938.75 3843.56 0 0 0
1 5000 2746.94 4543.05 0 0 0
1 4989.13 2885.29 2797.95 0 0 0
1 5000 2807.24 5000 0 0 0
1 4198.43 3699.54 4273.01 0 0 0
1 4655.37 3985.07 4300.64 0 0 0
1 3942.37 4429 4558.46 0 0 0
1 4484.14 3685.12 3825.5 0 0 0
1 3513.72 4231.89 4565.36 0 0 0
1 4484.5 4237.05 3616.85 0 0 0
1 4405.91 3983.21 3929.78 0 0 0
1 4054.31 4313.69 3753.45 0 0 0
1 2500 5000 3436.23 0 0 0
1 3478.74 3689.74 3956.98 0 0 0
1 3693.42 4582.62 4614 0 0 0
1 4511.16 4241.34 4539.42 0 0 0
1 4519.81 3841.44 3813.71 0 0 0
1 4316.66 3925.1 4084.85 0 0 0
1 3724.19 4699.15 4103.36 0 0 0
1 4596.41 3892.55 4382.55 0 0 0
1 5000 3297.48 3557.76 0 0 0
1 3715.88 3509.04 4218.44 0 0 0
1 3886.32 4125.81 4003.86 0 0 0
1 4786.52 2500 4798.08 0 0 0
1 3710.6 3723.47 3744.66 0 0 0
1 4051.2 3804 3785.71 0 0 0
1 3912.53 4468 3805.51 0 0 0
1 4104.52 4413.82 3917.45 0 0 0
1 4969.12 5000 4897.87 0 0 0
1 3553.25 4656.63 4352.04 0 0 0
1 4324.57 4661.93 4581.32 0 0 0
1 3661.08 3664.95 4618.86 0 0 0
1 2500 4014.81 2500 0 0 0
1 3497.76 2500 5000 0 0 0
1 3612.66 4292.56 3831.68 0 0 0
1 5000 4586.34 5000 0 0 0
1 3856.25 4611.74 4231.89 0 0 0
1 4565.78 4512.22 4646.54 0 0 0
1 3543.05 4082.36 3857.1 0 0 0
1 4646.48 3922.37 3838.97 0 0 0
1 4473.58 4145.06 4262.15 0 0 0
1 4576.91 3597.66 3920.07 0 0 0
1 4080.32 4101.71 4446.47 0 0 0
1 3957.23 4997.45 4999.18 0 0 0
1 4556.09 4364.95 4594.84 0 0 0
1 2500 5000 5000 0 0 0
1 5000 4418.72 3391.9 0 0 0
1 3749.99 4053.85 4346.84 0 0 0
2 483.301 8.069 610.236 0 0 0
2 474.117 2499.81 1105.77 0 0 0
2 1175.73 1896.44 171.411 0 0 0
2 0 986.575 1446.7 0 0 0
2 690.878 1260.1 146.282 0 0 0
2 2500 2500 2094.73 0 0 0
2 2183.68 1788.27 1866.21 0 0 0
2 242.224 812.842 583.868 0 0 0
2 317.112 664.733 243.96 0 0 0
2 802.237 273.128 177.559 0 0 0
2 371.016 126.87 55.693 0 0 0
2 556.013 1461.34 2500 0 0 0
2 826.995 558.678 619.706 0 0 0
2 831.512 608.169 477.318 0 0 0
2 779.213 89.419 771.257 0 0 0
2 178.421 0.891 757.777 0 0 0
2 5.89 246.527 488.253 0 0 0
2 344.298 726.781 700.177 0 0 0
2 423.493 92.704 373.1 0 0 0
2 159.33 90.303 134.536 0 0 0
2 839.358 617.34 812.533 0 0 0
2 31.5 50.346 463.177 0 0 0
2 326.09 671.606 75.555 0 0 0
2 72.625 162.978 7.882 0 0 0
2 183.961 344.266 149.006 0 0 0
2 420.63 712.358 847.842 0 0 0
2 937.112 800.831 581.636 0 0 0
2 644.128 228.803 201.411 0 0 0
2 207.929 696.313 491.879 0 0 0
2 121.094 899.547 716.697 0 0 0
2 167.42 630.539 608.443 0 0 0
2 605.673 552.96 443.932 0 0 0
2 502.026 843.225 195.277 0 0 0
2 170.948 827.82 260.999 0 0 0
2 364.753 276.358 480.25 0 0 0
2 96.271 390.785 808.68 0 0 0
2 671.169 183.548 389.399 0 0 0
2 524.983 432.988 417.247 0 0 0
2 371.873 79.755 193.761 0 0 0
2 28.547 244.739 276.982 0 0 0
2 677.198 231.753 733.755 0 0 0
2 626.619 386.541 664.027 0 0 0
2 623.193 393.674 795.352 0 0 0
2 437.693 789.233 515.339 0 0 0
2 133.83 803.341 519.726 0 0 0
2 878.375 652.236 930.408 0 0 0
2 22.346 548.665 188.551 0 0 0
2 863.269 818.843 176.31 0 0 0
2 901.107 634.799 364.263 0 0 0
2 307.695 419.255 850.591 0 0 0
2 578.702 878.916 107.327 0 0 0
2 141.44 600.284 757.793 0 0 0
2 208.209 285.07 338.311 0 0 0
2 349.665 661.425 572.041 0 0 0
2 403.517 878.356 361.446 0 0 0
2 356.481 386.173 565.751 0 0 0
2 597.955 600.932 254.792 0 0 0
2 846.454 113.284 654.991 0 0 0
2 455.549 573.406 889.972 0 0 0
2 889.292 881.864 811.79 0 0 0
2 724.082 670.408 342.184 0 0 0
2 258.551 827.662 406.426 0 0 0
2 877.946 425.707 409.717 0 0 0
2 537.781 277.983 356.759 0 0 0
2 219.736 458.709 745.853 0 0 0
2 909.454 79.918 162.207 0 0 0
2 274.612 645.613 961.32 0 0 0
2 153.639 298.785 477.497 0 0 0
2 908.39 5.538 634.593 0 0 0
2 118.148 0 376.098 0 0 0
2 649.188 668.104 912.479 0 0 0
2 1308.56 0 898.3 0 0 0
2 1920.54 1444.56 870.578 0 0 0
2 991.096 2472.19 1933.9 0 0 0
2 593.884 111.892 573.81 0 0 0
2 3972.86 1.853 2171.43 0 0 0
2 4999.44 151.594 450.868 0 0 0
2 2503.84 3.31 0.64 0 0 0
2 2500 0 531.182 0 0 0
2 4445.59 2499.98 2493.66 0 0 0
2 2500.03 1.876 2498.48 0 0 0
2 2500.03 1253.3 0.003 0 0 0
2 4980.71 2050.77 2227.81 0 0 0
2 2927.77 267.974 672.775 0 0 0
2 2530.56 363.447 553.368 0 0 0
2 2500 810.586 1408.84 0 0 0
2 2500.32 1.736 679.94 0 0 0
2 2580.93 52.599 368.068 0 0 0
2 2500 745.423 567.559 0 0 0
2 2500 906.124 931.305 0 0 0
2 2500 64.93 1095.47 0 0 0
2 2628.84 386.602 463.38 0 0 0
2 2500.05 633.384 522.534 0 0 0
2 2500 418.712 149.411 0 0 0
2 2620.2 1242.87 3.66 0 0 0
2 2500 22.337 276.946 0 0 0
2 2620.68 618.929 363.665 0 0 0
2 2500 401.654 428.567 0 0 0
2 4202.98 2500 2482.25 0 0 0
2 2500.09 550.555 887.296 0 0 0
2 2500 436.828 928.615 0 0 0
2 2500 814.039 1259.81 0 0 0
2 3510.33 951.554 0 0 0 0
2 2511.7 566.108 702.958 0 0 0
2 2508.48 2500 1557.73 0 0 0
2 2865.03 0 52.319 0 0 0
2 2500.05 497.542 552.293 0 0 0
2 2500 1027.81 1009.91 0 0 0
2 2500 321.613 1121.08 0 0 0
2 2500.19 891.843 800.329 0 0 0
2 2500.11 763.169 748.594 0 0 0
2 2500 452.247 664.461 0 0 0
2 2500 879.097 526.309 0 0 0
2 2532.57 2436.31 1651.03 0 0 0
2 2500.02 136.963 822.294 0 0 0
2 2500 139.641 378.449 0 0 0
2 2500 240.76 754.18 0 0 0
2 2500.09 690.745 941.345 0 0 0
2 2500 523.128 214.075 0 0 0
2 2500 287.649 649.641 0 0 0
2 2501.02 1.459 956.614 0 0 0
2 2500 845.946 387.968 0 0 0
2 2500 434.576 24.588 0 0 0
2 2500 366.884 1446.39 0 0 0
2 2507.15 398.245 298.259 0 0 0
2 2603.87 266.906 1336.45 0 0 0
2 2500 118.814 221.978 0 0 0
2 2549.7 1242.92 445.104 0 0 0
2 2500 613.464 1037.51 0 0 0
2 2500 237.518 65.816 0 0 0
2 2500 36.972 1225.87 0 0 0
2 2500.07 365.079 767.862 0 0 0
2 2506.1 286.147 390.319 0 0 0
2 2500 987.748 715.971 0 0 0
2 2500 503.039 1109.83 0 0 0
2 2500 672.551 412.577 0 0 0
2 2500 224.173 1406.28 0 0 0
2 2500 998.478 594.379 0 0 0
2 2500 599.346 1215.91 0 0 0
2 2500 961.342 351.162 0 0 0
2 2500 977.457 0.002 0 0 0
2 2500 2.699 790.439 0 0 0
2 2500 666.623 821.446 0 0 0
2 2617.86 1.274 12.766 0 0 0
2 2500 1197.84 178.291 0 0 0
2 2634.44 2191.34 1708.72 0 0 0
2 3204.29 2496.93 2468.63 0 0 0
2 2508.08 112.579 14.233 0 0 0
2 4999.91 907.074 2056.55 0 0 0
2 2500 216.291 281.335 0 0 0
2 2500 4775.81 822.042 0 0 0
2 2400.63 4955.34 691.846 0 0 0
2 2253.82 2527.94 970.499 0 0 0
2 24.667 2505.21 2471.43 0 0 0
2 1740.46 4733.71 2278.74 0 0 0
2 104.858 2500.81 243.68 0 0 0
2 2375.89 3370.22 436.183 0 0 0
2 2499.99 2500.4 1119.63 0 0 0
2 347.323 2500 916.638 0 0 0
2 618.164 2500.01 270.799 0 0 0
2 399.598 2500 377.435 0 0 0
2 424.659 2500 187.64 0 0 0
2 26.012 2500.01 155.957 0 0 0
2 418.641 2500 808.449 0 0 0
2 500.274 2500 479.972 0 0 0
2 630.847 2500 841.686 0 0 0
2 751.512 2500 1104.1 0 0 0
2 499.629 2500 303.476 0 0 0
2 962.266 2500 773.43 0 0 0
2 224.68 2500 914.869 0 0 0
2 630.979 2500 1089.92 0 0 0
2 308.153 2500 759.11 0 0 0
2 637.079 2500 962.587 0 0 0
2 87.136 2500 840.224 0 0 0
2 1513.99 2511.1 2332.83 0 0 0
2 184.778 2500.47 40.736 0 0 0
2 430.548 2500 26.826 0 0 0
2 10.085 2500.01 303.031 0 0 0
2 949.913 2500 648.741 0 0 0
2 1076.81 2500 610.365 0 0 0
2 116.673 2500 553.266 0 0 0
2 539.718 2500 594.362 0 0 0
2 2397.26 3015.12 539.061 0 0 0
2 42.701 2500 417.624 0 0 0
2 1291.59 2592.47 0 0 0 0
2 842.407 2500 751.321 0 0 0
2 830.29 2573.13 48.181 0 0 0
2 1081.24 2500 797.762 0 0 0
2 318.161 2500 636.951 0 0 0
2 312.304 2500 512.813 0 0 0
2 208.238 2500.04 296.804 0 0 0
2 298.93 2500.16 94.206 0 0 0
2 419.994 2500 571.599 0 0 0
2 1070.18 2500 486.023 0 0 0
2 918.036 2500 447.468 0 0 0
2 1078.57 2500 964.746 0 0 0
2 635.072 2500 497.934 0 0 0
2 528.032 2500 99.561 0 0 0
2 0 2500 772.541 0 0 0
2 844.67 2500 351.047 0 0 0
2 860.15 2500 890.751 0 0 0
2 587.54 2500 386.657 0 0 0
2 450.656 2500 690.145 0 0 0
2 739.219 2500 410.384 0 0 0
2 869.232 2500 558.53 0 0 0
2 981.179 2500 892.943 0 0 0
2 798.279 2500 125.331 0 0 0
2 757.01 2504.08 0 0 0 0
2 751.125 2500 532.201 0 0 0
2 774.93 2500 650.866 0 0 0
2 658.885 2500 616.569 0 0 0
2 146.002 2500 676.407 0 0 0
2 1143.76 2500 274.943 0 0 0
2 532.774 2500.01 1012.39 0 0 0
2 739.953 2500 289.322 0 0 0
2 686.675 2500 734.335 0 0 0
2 752.044 2500 836.303 0 0 0
2 116.567 2500 1459.47 0 0 0
2 1535.28 5000 0 0 0 0
2 1500.2 2500.33 2202.63 0 0 0
2 1046.51 2504.33 326.302 0 0 0
2 470.157 2654.6 113.041 0 0 0
2 2498.25 3320.02 0.307 0 0 0
2 0 2501.2 1499.66 0 0 0
2 211.125 2500.36 165.557 0 0 0
2 549.571 2272.81 4420.03 0 0 0
2 1564.01 0.001 3113.89 0 0 0
2 1681.67 317.837 4889.13 0 0 0
2 2499.81 2498.41 4982.81 0 0 0
2 52.889 2486.88 4884.82 0 0 0
2 0.007 2280.45 2500.08 0 0 0
2 875.226 1177.16 4999.06 0 0 0
2 0.044 152.593 2500.47 0 0 0
2 104.464 608.373 2500 0 0 0
2 667.501 700.7 2604.55 0 0 0
2 225.057 1083.07 2509.06 0 0 0
2 197.176 2498.71 4879.07 0 0 0
2 678.346 382.74 2599.01 0 0 0
2 986.702 767.777 2520.6 0 0 0
2 781.452 2500 2539.92 0 0 0
2 860.311 1160.98 3061.04 0 0 0
2 375.077 946.689 2515.06 0 0 0
2 152.796 49.53 2622.07 0 0 0
2 7.34 517.321 2858.81 0 0 0
2 114.472 357.747 2634.81 0 0 0
2 601.258 904.68 2582.48 0 0 0
2 521.341 341.873 2729.28 0 0 0
2 1240.39 2302.91 2500 0 0 0
2 844.206 756.839 2541.82 0 0 0
2 633.372 173.398 2500 0 0 0
2 0.016 407.102 2500.02 0 0 0
2 276.516 0.017 3507.45 0 0 0
2 739.435 40.533 2518.16 0 0 0
2 2266.65 2433.91 3809.68 0 0 0
2 1019.17 757.174 2728.42 0 0 0
2 456.601 812.539 2502.85 0 0 0
2 457.533 1103.65 2500 0 0 0
2 638.408 575.181 3196.69 0 0 0
2 0 103.584 2808.13 0 0 0
2 1054.26 368.49 2532.08 0 0 0
2 192.201 789.497 2728.54 0 0 0
2 944.358 116.685 2507.38 0 0 0
2 710.306 462.628 2500 0 0 0
2 1947.78 1435.99 2510.88 0 0 0
2 157.543 317.427 2500.04 0 0 0
2 853.209 8.352 2531.51 0 0 0
2 337.105 596.276 2509.48 0 0 0
2 207.138 171.997 2630.79 0 0 0
2 14.685 1251.66 2500.02 0 0 0
2 509.204 925.572 2500 0 0 0
2 2101.83 604.409 3564.68 0 0 0
2 160.836 842.31 2500 0 0 0
2 1109.08 875.859 2500.01 0 0 0
2 1108.83 574.184 2700.73 0 0 0
2 8.734 0 2734.76 0 0 0
2 849.297 226.129 2638.51 0 0 0
2 0 543.352 2500 0 0 0
2 334.483 791.089 2600.66 0 0 0
2 598.929 1010.09 2517.73 0 0 0
2 137.96 854.795 2641.71 0 0 0
2 884.701 222.758 2506.92 0 0 0
2 251.003 907.827 2554.41 0 0 0
2 710.679 890.357 2500 0 0 0
2 646.707 603.185 2825.66 0 0 0
2 126.028 726.856 2548.43 0 0 0
2 166.677 0 2512.32 0 0 0
2 44.472 107.441 2951.49 0 0 0
2 625.082 545.887 2515.42 0 0 0
2 806.162 327.691 2526.62 0 0 0
2 977.814 0 2500 0 0 0
2 2500 582.554 2500 0 0 0
2 0 682.33 2500.01 0 0 0
2 321.411 408.076 2796.34 0 0 0
2 840.787 628.19 2500 0 0 0
2 2500 1894.62 2501.55 0 0 0
2 1001.44 260.865 2500 0 0 0
2 0 669.853 4302.22 0 0 0
2 1490.75 714.58 3952.45 0 0 0
2 0.046 0.609 3175.43 0 0 0
2 559.85 4.605 2519.11 0 0 0
2 4303.84 2500 2431.15 0 0 0
2 4828.05 2627.82 1309.29 0 0 0
2 3080.42 2520.89 159.493 0 0 0
2 4998.2 2501.03 1.81 0 0 0
2 3929.33 4902.74 2099.99 0 0 0
2 5000 5000 0.006 0 0 0
2 2775.36 2964.53 2424.54 0 0 0
2 4999.99 2690.51 2146.43 0 0 0
2 4861.95 2501.71 0.169 0 0 0
2 3043.84 3440.43 0 0 0 0
2 2503.87 4970.61 19.863 0 0 0
2 4979.7 2500 1414.38 0 0 0
2 5000 2756.3 2500 0 0 0
2 2611.32 3678.77 365.807 0 0 0
2 3796.98 3747.68 62.123 0 0 0
2 2500.01 2586.65 1048.96 0 0 0
2 3545.69 2500 189.317 0 0 0
2 2875.99 2500.47 0.636 0 0 0
2 2500 2634.13 413.827 0 0 0
2 2708.39 3237.67 6.1 0 0 0
2 4581.11 2500.04 2491.94 0 0 0
2 2509.89 2653.83 243.398 0 0 0
2 2824.7 2500 109.257 0 0 0
2 2500 4214.72 1947.95 0 0 0
2 3534.94 4323.22 1528.96 0 0 0
2 4231.99 2500 32.67 0 0 0
2 4195.31 5000 1968.83 0 0 0
2 2723.64 2500 0 0 0 0
2 4370.37 4300.34 34.233 0 0 0
2 2500 4508.51 626.564 0 0 0
2 4113.4 2517.86 0 0 0 0
2 2500 3785.3 249.269 0 0 0
2 2500 4343.57 830.364 0 0 0
2 3753.16 2609.24 382.059 0 0 0
2 2796.14 2555.87 769.389 0 0 0
2 2500.81 3518.44 108.147 0 0 0
2 2500 3590.85 0 0 0 0
2 3484.69 2788.19 0 0 0 0
2 4535.58 2500 1592.22 0 0 0
2 2500 4143.15 1232.26 0 0 0
2 2511.95 2537.5 325.519 0 0 0
2 4157.18 2500 1514.08 0 0 0
2 3855.93 2653.07 410.901 0 0 0
2 2987.02 4345.5 0 0 0 0
2 2558.72 2500 961.067 0 0 0
2 2500 2952.36 989.391 0 0 0
2 2500 3400.69 2499.99 0 0 0
2 2500 3810.39 1664.67 0 0 0
2 2500.01 3434.49 4.029 0 0 0
2 3232.31 2589.1 433.792 0 0 0
2 2574 2500 513.605 0 0 0
2 2542.01 3118.77 2453.47 0 0 0
2 2847.2 2684.3 31.928 0 0 0
2 2500 4431.97 414.433 0 0 0
2 4999.99 4593.17 1996.11 0 0 0
2 3994.78 2500 35.138 0 0 0
2 2500.16 2768.07 49.687 0 0 0
2 4020.12 4020.55 1365.52 0 0 0
2 4645.3 2846.53 0 0 0 0
2 4874.54 2609.96 18.407 0 0 0
2 2618.79 2514.38 141.866 0 0 0
2 2500 2500.01 1242.73 0 0 0
2 4024.35 5000 2500 0 0 0
2 2500 4269.06 209.154 0 0 0
2 3651.37 3744.88 2500 0 0 0
2 4697.97 2500 540.299 0 0 0
2 2535.78 3715.11 29.91 0 0 0
2 3884.22 2542.8 0 0 0 0
2 4558.74 2500 1333.69 0 0 0
2 4988.61 4979.23 2500 0 0 0
2 5000 4011.43 0 0 0 0
2 2988.35 2500 0 0 0 0
2 4912.47 4012.37 372.898 0 0 0
2 3313.39 3176.42 435.605 0 0 0
2 2500 2608.07 2160.18 0 0 0
2 3244.11 2112.06 3758.31 0 0 0
2 4905.34 1937.39 2500.03 0 0 0
2 4973.76 2499.94 4984.15 0 0 0
2 3082.85 1704.16 3943.23 0 0 0
2 2732.14 0.241 4998.68 0 0 0
2 4344.32 391.22 4829.41 0 0 0
2 4658.96 617.738 2597.66 0 0 0
2 4231.61 1464.89 3285.67 0 0 0
2 4993.65 2298.63 5000 0 0 0
2 4999.91 1311.68 2500.03 0 0 0
2 2500.06 1506.79 3141.21 0 0 0
2 2799.44 398.36 2501.78 0 0 0
2 2854.81 527.155 2500 0 0 0
2 2500 1212.61 2614.75 0 0 0
2 2665.24 20.085 2514.1 0 0 0
2 3159.28 71.872 2500 0 0 0
2 2500 1455.6 2712.34 0 0 0
2 4973.98 65.429 4914.01 0 0 0
2 2849.4 0.014 2715.51 0 0 0
2 2611.18 269.033 2518.83 0 0 0
2 2500.1 183.902 2759.65 0 0 0
2 2538.85 138.138 2502.98 0 0 0
2 2534.49 1584.7 2601.76 0 0 0
2 2587.17 0.039 2895.47 0 0 0
2 2997.21 1499.13 2500.01 0 0 0
2 2500 2353.04 2895.47 0 0 0
2 2500.05 1297.59 2544.3 0 0 0
2 3259.51 1340.98 2712.89 0 0 0
2 2598.94 525.47 2500.46 0 0 0
2 2500 499.683 2652.06 0 0 0
2 2500 1636.43 2715.84 0 0 0
2 2500 1213.85 3177.97 0 0 0
2 2504.82 1731.91 2615.52 0 0 0
2 4031.26 0.007 5000 0 0 0
2 2500 0 3259.28 0 0 0
2 2675.3 382.694 2500 0 0 0
2 2500.07 652.014 2603.12 0 0 0
2 2560.72 5.781 2750.79 0 0 0
2 2500 2150.37 3133.91 0 0 0
2 2957.31 350.865 2500.01 0 0 0
2 3414.68 281.603 3107.72 0 0 0
2 2548.81 443.197 2748.63 0 0 0
2 4967.12 2444.89 2500.06 0 0 0
2 2654.66 716.833 2861.53 0 0 0
2 2707.43 187.725 3121.27 0 0 0
2 4999.96 1084.78 2500.15 0 0 0
2 2709.56 2500 3294.46 0 0 0
2 2518.39 24.737 3854.31 0 0 0
2 3149.93 1408.22 2745.64 0 0 0
2 2500.18 382.432 2877.15 0 0 0
2 2673.3 964.116 2913.49 0 0 0
2 2618.19 55.213 2631.5 0 0 0
2 2500 1525.69 2500 0 0 0
2 3295.81 2272.03 2500 0 0 0
2 4991.13 24.592 2538.76 0 0 0
2 2519.4 1847.1 2845.45 0 0 0
2 2967.23 486.043 2533.76 0 0 0
2 2500 181.097 4323.79 0 0 0
2 2696.19 1235.01 2500 0 0 0
2 3044.72 1476.13 2619.59 0 0 0
2 2500.01 743.001 2676.77 0 0 0
2 2870.35 546.147 3288.37 0 0 0
2 2919.28 399.646 2846.82 0 0 0
2 3162.32 936.758 2500.01 0 0 0
2 2500 731.292 4089.1 0 0 0
2 2613.88 872.703 2525.19 0 0 0
2 2750.34 13.437 2602.83 0 0 0
2 3057.97 0 2500.01 0 0 0
2 3064.21 2469.74 2598.17 0 0 0
2 2661.44 2500 2655.45 0 0 0
2 3001.66 239.368 4622.79 0 0 0
2 2500 0 3116.25 0 0 0
2 2500 2490.46 3537.53 0 0 0
2 4999.95 0.127 4999.83 0 0 0
2 3014.43 1122.1 2500 0 0 0
2 139.685 4740.64 4482.17 0 0 0
2 623.227 4830.59 2771.85 0 0 0
2 2456.91 4993.39 2508.09 0 0 0
2 1996.58 3412.73 2714.31 0 0 0
2 2500 4413.44 2672.62 0 0 0
2 6.09 2512.23 4986.74 0 0 0
2 609.351 2500 2500 0 0 0
2 1783.7 3963.24 4163.8 0 0 0
2 1331.97 5000 4992.08 0 0 0
2 672.299 4568.85 2907.03 0 0 0
2 1424.18 2534.06 2609.61 0 0 0
2 1385.19 2500 2500 0 0 0
2 666.697 2961.71 2500 0 0 0
2 1991.19 2512.4 3202.66 0 0 0
2 1668.47 4995.32 4112.77 0 0 0
2 337.859 2611.3 2500 0 0 0
2 1450.95 2687.48 2501.42 0 0 0
2 984.427 2500 2500 0 0 0
2 753.996 2500 2655.74 0 0 0
2 2084.54 2641.61 2500 0 0 0
2 937.695 3674.1 2500.52 0 0 0
2 823.891 2868.48 2500 0 0 0
2 0 3189.68 2725.65 0 0 0
2 865.951 2500 2955.11 0 0 0
2 1717.72 2500.01 3523.07 0 0 0
2 281.251 3394.24 2506.63 0 0 0
2 100.399 2535.49 2606.3 0 0 0
2 5.839 4999.3 2789.7 0 0 0
2 371.568 2517.72 4052.86 0 0 0
2 169.855 2848.36 3239.25 0 0 0
2 745.105 2596.77 2735.1 0 0 0
2 30.844 2500 3190.5 0 0 0
2 1252.52 2500.58 2500 0 0 0
2 184.042 2631.48 2500.88 0 0 0
2 1695.88 2500 2758.3 0 0 0
2 2467.34 4925.7 2594.87 0 0 0
2 1615.86 5000 3909.39 0 0 0
2 222.04 3043.99 2500.3 0 0 0
2 721.341 2500 2943.17 0 0 0
2 25.338 2570.03 2823.14 0 0 0
2 303.848 2763.59 2624.25 0 0 0
2 1634.37 2514.15 2665.76 0 0 0
2 248.213 2500 2500 0 0 0
2 1088.34 3316.95 2500 0 0 0
2 17.388 4955.44 2599.21 0 0 0
2 2310.17 2500 2500.26 0 0 0
2 854.226 2595.03 2651.46 0 0 0
2 322.268 4082.57 2500 0 0 0
2 778.49 3095.86 3379.53 0 0 0
2 121.881 2749.38 2533.6 0 0 0
2 2454.94 3108.37 2549.91 0 0 0
2 10.779 2507.97 4389.57 0 0 0
2 1110.66 2500 3081.11 0 0 0
2 524.877 2667.23 2500 0 0 0
2 130.002 2672.16 2613.19 0 0 0
2 2060.86 2500 4620.6 0 0 0
2 0.002 3386.14 2500 0 0 0
2 474.866 2500 3586.75 0 0 0
2 66.137 2657.47 2509.96 0 0 0
2 864.386 2563.04 2817.09 0 0 0
2 986.341 2500 2728.09 0 0 0
2 235.391 2586.33 2591.04 0 0 0
2 1306.93 3790.84 3028.17 0 0 0
2 485.915 2998.32 3264.76 0 0 0
2 2195.05 2500.01 2525.53 0 0 0
2 2075.82 2502.06 2500 0 0 0
2 281.154 3271.07 2852.04 0 0 0
2 2484.42 4980.67 4279.87 0 0 0
2 0.003 2845.3 5000 0 0 0
2 35.623 2539.52 3072.57 0 0 0
2 0 5000 3949.78 0 0 0
2 0.001 2500 3842.69 0 0 0
2 1689.03 5000 2500 0 0 0
2 2500 3108.55 4531.7 0 0 0
2 1116.52 2500 2500 0 0 0
2 4908.72 4582.58 4758.61 0 0 0
2 4930.18 3306.14 4674.01 0 0 0
2 4908.9 4680.92 2792.32 0 0 0
2 2804.41 2500 5000 0 0 0
2 3768.36 5000 5000 0 0 0
2 3874.48 2831.03 3913.13 0 0 0
2 2694.32 2562.18 3567.87 0 0 0
2 2581.28 4939.53 2562.88 0 0 0
2 4024.49 4303.23 5000 0 0 0
2 3187.45 2500 5000 0 0 0
2 4857.75 2500 4077.69 0 0 0
2 3112.04 5000 2612.99 0 0 0
2 2507.7 2513.99 2930.2 0 0 0
2 2500 4390.01 2532.66 0 0 0
2 3035.45 5000 5000 0 0 0
2 2500 3235.15 2508.57 0 0 0
2 2529.64 2530.03 3047.18 0 0 0
2 3986.72 2500 2514.15 0 0 0
2 2742.61 4940.27 2682.82 0 0 0
2 2583.89 4299.96 2500 0 0 0
2 4977.85 3605.16 2500 0 0 0
2 2583.22 2838.89 2506.75 0 0 0
2 3356.33 2500 2500 0 0 0
2 2500 3508.19 2624.22 0 0 0
2 2500 5000 2909.82 0 0 0
2 2503.33 2528.17 3203.86 0 0 0
2 5000 2500 3853.03 0 0 0
2 3876.44 3459.94 4465.48 0 0 0
2 5000 4296.78 2500 0 0 0
2 2658.44 2525.5 2500 0 0 0
2 5000 2500 2872.42 0 0 0
2 4303.89 2500 2847.76 0 0 0
2 5000 2500 4434.18 0 0 0
2 2565.86 2510.38 2717.13 0 0 0
2 2500 4582.85 3224.54 0 0 0
2 2522.52 2564.91 3621.96 0 0 0
2 4979.78 4171.45 2500 0 0 0
2 2506.94 2923.7 2513.86 0 0 0
2 2951.49 4663.23 2500 0 0 0
2 2694.37 3119.53 2500 0 0 0
2 2675 2934.77 2629.4 0 0 0
2 2682.02 2796.89 5000 0 0 0
2 2500 2500 2821.29 0 0 0
2 2567.1 2500.47 3450.79 0 0 0
2 2633.61 2508.17 4994.17 0 0 0
2 5000 4022.35 2500 0 0 0
2 2528.5 2500 3736.66 0 0 0
2 5000 2500 3294.78 0 0 0
2 2557.73 3712.11 2517.75 0 0 0
2 3044.97 3842.3 4740.22 0 0 0
2 4722.64 4600.04 2500 0 0 0
2 3016.36 3196.88 2500 0 0 0