ITEM: TIMESTEP
0
ITEM: NUMBER OF ATOMS
1000
ITEM: BOX BOUNDS pp pp pp
-1.0000000000000000e+02 4.1000000000000000e+03
-1.0000000000000000e+02 4.1000000000000000e+03
-1.0000000000000000e+02 4.1000000000000000e+03
ITEM: ATOMS type x y z ix iy iz
1 540.59 314.332 202.211 0 0 0
1 1287.29 1996.96 1970.69 0 0 0
1 36.373 516.862 534.095 0 0 0
1 897.037 1115.96 0.036 0 0 0
1 903.648 0.02 562.481 0 0 0
1 779.37 373.211 827.075 0 0 0
1 653.575 763.059 460.062 0 0 0
1 666.418 1102.53 175.857 0 0 0
1 680.553 505.074 1042.19 0 0 0
1 785.159 721.285 452.756 0 0 0
1 64.811 172.43 717.562 0 0 0
1 894.549 136.18 988.486 0 0 0
1 802.627 540.359 376.993 0 0 0
1 950.342 200.414 854.309 0 0 0
1 714.711 22.413 603.005 0 0 0
1 436.66 586.543 597.307 0 0 0
1 377.167 953.04 173.343 0 0 0
1 787.543 20.508 899.653 0 0 0
1 25.251 690.919 859.447 0 0 0
1 449.367 512.772 80.6 0 0 0
1 798.761 93.19 239.673 0 0 0
1 756.223 437.65 275.657 0 0 0
1 287.434 219.731 979.478 0 0 0
1 72.91 375.709 274.547 0 0 0
1 775.997 652.123 599.758 0 0 0
1 379.099 958.126 542.868 0 0 0
1 448.446 462.269 497.409 0 0 0
1 22.777 15.496 61.169 0 0 0
1 783.785 704.242 47.937 0 0 0
1 364.047 0.079 657.817 0 0 0
1 86.078 0.167 889.937 0 0 0
1 245.417 662.161 911.341 0 0 0
1 559.922 677.592 565.126 0 0 0
1 631.567 322.237 0.068 0 0 0
1 162.46 964.515 186.019 0 0 0
1 354.025 150.78 817.522 0 0 0
1 231.862 347.325 499.988 0 0 0
1 56.874 967.972 71.927 0 0 0
1 3517.75 417.95 717.412 0 0 0
1 3624.69 706.013 880.606 0 0 0
1 3818.06 293.223 433.075 0 0 0
1 3418.08 572.73 322.948 0 0 0
1 2958.5 678.702 207.227 0 0 0
1 4000 0 978.514 0 0 0
1 2817.08 485.047 210.444 0 0 0
1 3180.49 47.249 312.869 0 0 0
1 3040.07 89.469 748.882 0 0 0
1 3760.87 82.42 512.362 0 0 0
1 3178.32 1395.68 0 0 0 0
1 3743.89 929.604 540.24 0 0 0
1 3345.99 968.497 898.881 0 0 0
1 3317.6 143.122 129.85 0 0 0
1 3805.77 504.441 189.806 0 0 0
1 3093.38 460.948 918.65 0 0 0
1 3741.22 923.746 769.157 0 0 0
1 3634.94 124.521 130.453 0 0 0
1 3582.07 17.338 58.223 0 0 0
1 3596.28 610.971 275.905 0 0 0
1 3204.28 766.646 80.868 0 0 0
1 3519.76 488.277 432.684 0 0 0
1 3399.43 371.778 682.341 0 0 0
1 2947.56 854.259 315.928 0 0 0
1 2802.14 529.932 837.67 0 0 0
1 3492.14 613.332 213.196 0 0 0
1 3572.99 702.021 197.745 0 0 0
1 3306.59 620.644 801.219 0 0 0
1 2963.16 322.97 490.525 0 0 0
1 3464.03 682.498 46.436 0 0 0
1 2934.25 665.895 88.025 0 0 0
1 3374.47 402.581 338.504 0 0 0
1 3058.03 568.919 876.948 0 0 0
1 3297.03 275.973 695.464 0 0 0
1 3152.36 376.07 711.601 0 0 0
1 3093.89 204.471 432.247 0 0 0
1 3413.83 103.385 801.037 0 0 0
1 811.06 2855.16 206.633 0 0 0
1 101.579 3317.19 272.091 0 0 0
1 560.723 3240.42 158.965 0 0 0
1 839.303 3704.15 287.489 0 0 0
1 619.014 3063.84 361.316 0 0 0
1 282.93 3522.56 294.835 0 0 0
1 52.75 3501.7 355.591 0 0 0
1 793.622 3399.49 175.935 0 0 0
1 182.512 2961.99 809.177 0 0 0
1 845.618 3650.7 519.947 0 0 0
1 424.977 3070.27 366.415 0 0 0
1 588.862 2982.1 104.176 0 0 0
1 753.507 2925.87 349.75 0 0 0
1 840.321 3825.56 268.047 0 0 0
1 121.408 2907.73 971.311 0 0 0
1 515.309 3567.88 658.393 0 0 0
1 865.068 3149.7 620.328 0 0 0
1 657.499 3434.87 722.127 0 0 0
1 15.087 3572.14 469.211 0 0 0
1 579.795 3859.91 673.127 0 0 0
1 868.673 3207.86 739.437 0 0 0
1 386.19 3856.42 492.089 0 0 0
1 647.015 3853.98 968.166 0 0 0
1 201.868 3139.06 554.654 0 0 0
1 911.195 3989.03 245.577 0 0 0
1 749.441 3728.74 102.521 0 0 0
1 875.769 3411.67 929.058 0 0 0
1 682.191 3868.99 578.061 0 0 0
1 774.13 3532.02 669.724 0 0 0
1 831.828 3204.82 53.093 0 0 0
1 594.475 3616.19 573.339 0 0 0
1 269.863 3205.02 876.452 0 0 0
1 512.899 3934.09 770.327 0 0 0
1 346.228 3150.1 629.361 0 0 0
1 648.657 3259.52 410.061 0 0 0
1 445.963 3644.3 893.479 0 0 0
1 627.004 2727.62 298.639 0 0 0
1 229.643 2784.28 683.618 0 0 0
1 273.52 874.471 3420.15 0 0 0
1 70.752 833.167 2948.6 0 0 0
1 547.604 689.849 2925.67 0 0 0
1 486.953 861.352 3402.76 0 0 0
1 37.65 576.059 2762.86 0 0 0
1 182.105 63.239 3409.63 0 0 0
1 426.814 385.372 2800.84 0 0 0
1 103.865 210.975 3471.78 0 0 0
1 885.549 364.544 3219.4 0 0 0
1 251.835 568.962 3333.68 0 0 0
1 609.528 331.057 3461.96 0 0 0
1 727.08 135.836 3501.04 0 0 0
1 847.605 785.436 3111.61 0 0 0
1 539.504 0 3548 0 0 0
1 670.979 296.547 3181.93 0 0 0
1 539.746 450.465 3454.54 0 0 0
1 237.73 687.094 3432.99 0 0 0
1 96.478 438.32 2869.1 0 0 0
1 332.762 708.09 2702.84 0 0 0
1 115.143 851.08 3462.54 0 0 0
1 453.268 329.615 3003.14 0 0 0
1 374.584 765.437 2836.45 0 0 0
1 737.621 704.734 2716.02 0 0 0
1 627.452 42.171 2738.34 0 0 0
1 122.747 182.641 3240.15 0 0 0
1 670.975 751.683 2856.88 0 0 0
1 22.168 82.762 3405.43 0 0 0
1 140.68 710.028 2644.73 0 0 0
1 112.244 421.688 2619.92 0 0 0
1 302.037 191.783 3209.45 0 0 0
1 821.905 247.913 2909.51 0 0 0
1 959.553 648.7 3515.67 0 0 0
1 420.111 885.655 2601.9 0 0 0
1 473.85 190.534 3381.08 0 0 0
1 522.92 531.799 2875.99 0 0 0
1 181.801 36.295 3568.03 0 0 0
1 869.332 269.266 3541.95 0 0 0
1 3758.05 3776.7 378.976 0 0 0
1 3235.41 3510.01 81.178 0 0 0
1 2796.42 3783.36 1240.56 0 0 0
1 3360.8 3114.22 394.745 0 0 0
1 3473.63 3595.87 237.33 0 0 0
1 3145.29 2666.67 300.386 0 0 0
1 2749.2 3434.03 39.816 0 0 0
1 3648.14 3158.56 508.448 0 0 0
1 2751.59 3123.83 258.211 0 0 0
1 2727.34 3580.42 388.016 0 0 0
1 3105.25 3011.29 325.259 0 0 0
1 3143.79 3574.53 235.636 0 0 0
1 2952.75 3252.04 307.447 0 0 0
1 3006.13 3377.03 54.368 0 0 0
1 2936.61 3533.04 985.101 0 0 0
1 2978.7 3050.01 243.543 0 0 0
1 2811.9 3419.87 446.833 0 0 0
1 3554.75 3465.74 607.578 0 0 0
1 2762.97 3741.59 417.92 0 0 0
1 3347.1 2650.72 878.332 0 0 0
1 2989.15 3571.66 423.13 0 0 0
1 2990.27 2723.39 781.921 0 0 0
1 2850.5 3309.92 742.131 0 0 0
1 3732.83 3641.71 781.726 0 0 0
1 3780.21 3680.1 912.804 0 0 0
1 3418.47 2833.2 239.251 0 0 0
1 3609.43 3545.56 981.987 0 0 0
1 3296.41 3625.67 618.998 0 0 0
1 3683.93 2810.39 724.782 0 0 0
1 3794.64 3540.9 388.979 0 0 0
1 2979.95 3259.42 148.088 0 0 0
1 2810.28 3108.27 610.726 0 0 0
1 2773.12 3259.23 131.091 0 0 0
1 3675.69 3044.3 60.443 0 0 0
1 2882.32 3303.91 223.47 0 0 0
1 3569.76 3374.65 105.021 0 0 0
1 2832.12 3670.11 901.259 0 0 0
1 3368.88 3071.52 281.816 0 0 0
1 2762.12 384.026 2972.24 0 0 0
1 2911.1 312.11 3133.36 0 0 0
1 3365.04 131.803 2919.92 0 0 0
1 3628.52 165.631 3213.88 0 0 0
1 3031.44 939.233 3789.67 0 0 0
1 3351.22 815.026 3789.91 0 0 0
1 2910.42 594.397 3457.76 0 0 0
1 3550.89 973.697 3010.68 0 0 0
1 3635.15 868.209 3676.88 0 0 0
1 2711.33 167.64 3802.94 0 0 0
1 3626.32 223.067 2708.24 0 0 0
1 3643.44 496.584 2850.39 0 0 0
1 3312.97 502.605 3523.96 0 0 0
1 3553.24 199.241 3435.86 0 0 0
1 3723.28 412.777 2887.15 0 0 0
1 3428.23 629.101 3458.82 0 0 0
1 3136.48 111.082 3729.03 0 0 0
1 3345.78 376.669 2713.09 0 0 0
1 2654.86 790.65 2797.84 0 0 0
1 3062.49 432.817 2800.83 0 0 0
1 3261.97 618.661 3664.05 0 0 0
1 3343.7 743.865 3650.8 0 0 0
1 2871.76 717.54 3665.73 0 0 0
1 3625.76 52.949 3794.25 0 0 0
1 3684.61 744.677 3028.67 0 0 0
1 3731.02 752.934 3451.95 0 0 0
1 3312.26 404.768 3615.47 0 0 0
1 3883.42 74.663 2719.41 0 0 0
1 3613.65 845.122 2924.05 0 0 0
1 3592.29 655.992 2854.69 0 0 0
1 3544.47 441.182 2985.12 0 0 0
1 2807.8 717.906 2756.48 0 0 0
1 2861.6 447.786 3740.86 0 0 0
1 3415.03 475.935 2711.33 0 0 0
1 2971.09 883.017 3647.77 0 0 0
1 2968.04 271.665 2765.62 0 0 0
1 3352.8 789.887 2937.93 0 0 0
1 458.091 3884.22 3055.98 0 0 0
1 1142.64 3178.28 2000 0 0 0
1 657.427 2830.93 3243.81 0 0 0
1 324.741 2989.41 3718.48 0 0 0
1 19.509 3782.03 2793.82 0 0 0
1 827.221 3504.2 3201.37 0 0 0
1 816.223 3765.29 2766.19 0 0 0
1 549.539 3178.93 3066.53 0 0 0
1 0 4000 4000 0 0 0
1 875.182 2684.47 3028.22 0 0 0
1 616.269 3531.07 2931.17 0 0 0
1 326.225 3421.17 3725.09 0 0 0
1 118.993 3667.36 2877.88 0 0 0
1 737.554 3594.31 3581.23 0 0 0
1 392.332 3395.44 3233.68 0 0 0
1 944.228 3878.9 3385.32 0 0 0
1 372.385 3046.89 3069.66 0 0 0
1 306.605 3084.17 3926.45 0 0 0
1 540.385 2735.97 3714.24 0 0 0
1 833.849 3409.38 3633.88 0 0 0
1 736.577 3165.58 3117.63 0 0 0
1 0 2000 2000 0 0 0
1 398.996 3594.29 2735.24 0 0 0
1 48.567 3066.01 2920.9 0 0 0
1 39.914 3568.65 3742.13 0 0 0
1 1955.74 4000 4000 0 0 0
1 984.126 3088.6 3084.64 0 0 0
1 109.674 2891.69 3197.8 0 0 0
1 7.98 2912.65 2947.15 0 0 0
1 213.651 3853.03 3024.26 0 0 0
1 996.416 3368.45 3705.62 0 0 0
1 228.194 3474.44 2912.29 0 0 0
1 466.489 3448.17 3144.18 0 0 0
1 667.249 3972.87 3144.33 0 0 0
1 215.814 3290.34 3770.42 0 0 0
1 174.747 3887.58 3457.28 0 0 0
1 277.111 3263.61 3104.6 0 0 0
1 152.086 3587.55 3646.83 0 0 0
1 2809.72 3447.17 3722.89 0 0 0
1 4000 3739.59 2956.39 0 0 0
1 3039.56 3819.14 3880.59 0 0 0
1 3217.41 3400.32 3631.89 0 0 0
1 3598.41 3042.62 3238.93 0 0 0
1 2865.17 3684.33 3676.63 0 0 0
1 3373 2911.43 3839.34 0 0 0
1 3143 3064.23 3554.72 0 0 0
1 3480.51 3765.36 3663.95 0 0 0
1 3966.66 3661.9 3865.43 0 0 0
1 2855.23 3956.66 3852.1 0 0 0
1 3859.12 2981.46 3974.75 0 0 0
1 3098.26 3139.42 2949.4 0 0 0
1 3535.53 3071.99 3458.15 0 0 0
1 3981.08 3944.94 2838.77 0 0 0
1 2000 3481.13 3015.87 0 0 0
1 3086.5 3941.15 3135.19 0 0 0
1 4000 2000 2993.49 0 0 0
1 3287.36 3213.89 3844.32 0 0 0
1 3804.02 2811.81 3026.02 0 0 0
1 3956.45 3419.11 3678.67 0 0 0
1 4000 2000 3186.29 0 0 0
1 2850.4 3370.81 3285.51 0 0 0
1 3178.08 3768.03 3784.77 0 0 0
1 2966.27 3047.74 3852.62 0 0 0
1 2948.6 2971.8 2928.6 0 0 0
1 3072.52 2765.62 3686.24 0 0 0
1 3146.09 2813.63 2870.78 0 0 0
1 3590.3 2812.65 3893.54 0 0 0
1 3776.16 3617.91 2985.16 0 0 0
1 3315.18 2817.05 2909.12 0 0 0
1 3143.74 3852.2 3372.89 0 0 0
1 3077.01 2967.11 3356.35 0 0 0
1 2706.72 3166.63 4000 0 0 0
1 3506.71 2927.09 3883.73 0 0 0
1 2778.26 2999.15 3109.82 0 0 0
1 2790.88 3843.22 3609.79 0 0 0
2 2000 148.054 0 0 0 0
2 -0 0 2000 0 0 0
2 1407.97 36.48 683.97 0 0 0
2 30.517 376.833 566.592 0 0 0
2 916.974 125.18 473.698 0 0 0
2 28.288 1927.28 674.969 0 0 0
2 48.155 929.813 212.318 0 0 0
2 21.478 317.664 452.997 0 0 0
2 427.328 301.303 486.967 0 0 0
2 1024.79 63.053 708.479 0 0 0
2 572.016 805.811 121.769 0 0 0
2 540.667 275.052 661.43 0 0 0
2 545.652 489.408 621.859 0 0 0
2 0 343.936 807.7 0 0 0
2 225.216 567.669 379.733 0 0 0
2 418.91 836.842 893.471 0 0 0
2 182.196 776.55 788.031 0 0 0
2 642.37 540.122 366.567 0 0 0
2 477.844 145.486 153.898 0 0 0
2 363.244 272.116 794.275 0 0 0
2 522.11 52.469 70.49 0 0 0
2 676.315 109.859 953.08 0 0 0
2 339.422 798.149 171.276 0 0 0
2 333.131 622.916 702.083 0 0 0
2 559.218 305.241 380.094 0 0 0
2 247.488 586.549 566.403 0 0 0
2 249.809 488.392 640.69 0 0 0
2 31.308 876.263 909.158 0 0 0
2 345.583 656.435 454.936 0 0 0
2 970.046 394.575 723.363 0 0 0
2 702.331 262.978 836.531 0 0 0
2 121.108 843.678 15.503 0 0 0
2 607.244 1090.87 670.527 0 0 0
2 547.066 961.832 239.258 0 0 0
2 371.36 435.234 677.52 0 0 0
2 1033.51 743.292 809.793 0 0 0
2 415.382 731.295 4.595 0 0 0
2 836.794 588.89 956.633 0 0 0
2 192.363 126.184 566.727 0 0 0
2 547.237 763.768 660.2 0 0 0
2 319.965 567.008 150.035 0 0 0
2 922.418 88.704 206.796 0 0 0
2 92.925 290.528 729.578 0 0 0
2 437.118 57.934 468.123 0 0 0
2 172.765 629.733 757.208 0 0 0
2 534.189 212.221 542.618 0 0 0
2 594.294 528.113 500.608 0 0 0
2 735.621 604.669 278.727 0 0 0
2 779.586 953.098 821.326 0 0 0
2 202.696 112.434 426.784 0 0 0
2 275.425 649.425 235.125 0 0 0
2 753.163 753.514 273.483 0 0 0
2 499.722 322.473 796.97 0 0 0
2 342.108 166.907 568.312 0 0 0
2 940.793 729.038 234.269 0 0 0
2 1020.57 999.613 611.01 0 0 0
2 149.128 826.512 491.005 0 0 0
2 391.957 139.267 937.569 0 0 0
2 65.173 194.278 469.439 0 0 0
2 61.425 918.845 473.917 0 0 0
2 1207.49 424.127 134.298 0 0 0
2 706.757 931.089 963.413 0 0 0
2 500.772 672.135 130.83 0 0 0
2 472.788 50.787 600.526 0 0 0
2 607.6 387.714 792.574 0 0 0
2 43.261 757.732 969.96 0 0 0
2 666.026 814.634 2.616 0 0 0
2 822.238 128.228 389.233 0 0 0
2 120.787 710.377 95.74 0 0 0
2 690.8 508.346 596.065 0 0 0
2 227.349 337.491 195.11 0 0 0
2 636.202 74.306 410.218 0 0 0
2 898.912 700.062 552.282 0 0 0
2 299.761 286.039 632.491 0 0 0
2 552.895 365.785 578.044 0 0 0
2 170.946 369.777 680.63 0 0 0
2 419.561 1025.84 46.938 0 0 0
2 728.267 894.291 427.225 0 0 0
2 492.115 603.548 955.289 0 0 0
2 390.213 205.192 673.286 0 0 0
2 873.693 211.469 134.105 0 0 0
2 1941.84 90.878 1981.83 0 0 0
2 838.061 516.34 568.647 0 0 0
2 254.245 249.146 743.944 0 0 0
2 939.34 504.641 997.285 0 0 0
2 713.465 349.918 959.434 0 0 0
2 457.485 749.285 491.309 0 0 0
2 50.375 611.297 976.184 0 0 0
2 2407.08 1009.76 761.583 0 0 0
2 2390.89 675.647 538.586 0 0 0
2 2275.8 990.196 404.554 0 0 0
2 2582.47 531.033 946.425 0 0 0
2 2455.16 954.359 250.04 0 0 0
2 2336.26 566.163 25.729 0 0 0
2 2541.75 261.83 442.192 0 0 0
2 2350.26 783.811 903.195 0 0 0
2 2321.88 630.255 334.844 0 0 0
2 2538 540.645 117.719 0 0 0
2 2517.14 49.756 631.462 0 0 0
2 2383.87 804.642 170.875 0 0 0
2 2408.69 749.093 364.48 0 0 0
2 2462.36 417.728 923.489 0 0 0
2 2248.3 10.904 478.569 0 0 0
2 2243.17 138.855 528.887 0 0 0
2 2615.88 487.219 600.165 0 0 0
2 2660.24 852.309 678.8 0 0 0
2 2186.56 956.491 267.755 0 0 0
2 2237.08 723.27 336.831 0 0 0
2 2574.05 305.256 177.344 0 0 0
2 2586.92 400.273 679.356 0 0 0
2 2578.99 186.677 9.892 0 0 0
2 2221.53 447.692 931.27 0 0 0
2 2261.38 387.857 346.439 0 0 0
2 2588.59 679.214 909.337 0 0 0
2 2300.59 98.875 630.093 0 0 0
2 2418.68 858.622 556.972 0 0 0
2 2211.72 398.192 234.62 0 0 0
2 2525.41 687.704 193.558 0 0 0
2 2324.39 724.452 800.97 0 0 0
2 2268.97 747.426 29.559 0 0 0
2 2225.82 506.865 345.149 0 0 0
2 2237.87 550.082 782.92 0 0 0
2 2230.25 171.41 868.059 0 0 0
2 2407.06 879.334 955.943 0 0 0
2 2624.87 499.25 322.783 0 0 0
2 2531.83 683.574 374.709 0 0 0
2 2272.23 743.437 150.52 0 0 0
2 2622.93 622.297 224.196 0 0 0
2 2458.4 193.333 612.627 0 0 0
2 2614.8 50.552 903.083 0 0 0
2 2374.99 521.211 180.911 0 0 0
2 2541.99 221.885 803.375 0 0 0
2 2337.55 326.622 245.356 0 0 0
2 2204.32 657.306 212.028 0 0 0
2 2596.17 144.626 462.542 0 0 0
2 2418.88 881.419 833.061 0 0 0
2 2469.51 978.335 129.648 0 0 0
2 2474.15 521.062 861.649 0 0 0
2 2461.35 857.334 339.707 0 0 0
2 2500.2 110.086 736.711 0 0 0
2 2411.26 443.548 391.879 0 0 0
2 2205.21 860.75 541.77 0 0 0
2 2584.65 590.839 809.695 0 0 0
2 2402.59 38.685 677.27 0 0 0
2 2499.39 343.981 352.884 0 0 0
2 2558.1 390.038 455.386 0 0 0
2 2321.01 785.821 586.138 0 0 0
2 2250.22 787.997 691.055 0 0 0
2 2389.82 640.359 230.999 0 0 0
2 2240.72 17.052 770.792 0 0 0
2 2550.87 418.128 120.835 0 0 0
2 2215.64 836.75 204.442 0 0 0
2 2248.61 360.196 480.781 0 0 0
2 2498.59 767.641 94.188 0 0 0
2 2292.34 583.092 659.337 0 0 0
2 2542.4 798.048 712.067 0 0 0
2 2319.6 126.336 189.147 0 0 0
2 2463.2 528.75 307.842 0 0 0
2 2331.12 379.026 125.87 0 0 0
2 2416.22 460.964 65.54 0 0 0
2 2586.6 677.261 722.281 0 0 0
2 2307.5 452.423 833.38 0 0 0
2 2287.31 809.538 440.362 0 0 0
2 2312.66 867.139 274.239 0 0 0
2 2381.91 491.112 607.044 0 0 0
2 2556.86 921.264 434.48 0 0 0
2 2360.33 347.243 861.456 0 0 0
2 2562.47 964.129 566.136 0 0 0
2 2398.55 505.119 768.247 0 0 0
2 2638.06 346.167 538.107 0 0 0
2 2346.68 960.095 113.074 0 0 0
2 2417.18 291.912 101.265 0 0 0
2 2492.55 229.081 913.739 0 0 0
2 2623.38 828.058 353.983 0 0 0
2 2432.99 983.111 451.223 0 0 0
2 353.901 2480.54 34.131 0 0 0
2 2000 2000 0 0 0 0
2 1507.2 2000 0 0 0 0
2 0 2359.79 228.937 0 0 0
2 388.709 2000 0 0 0 0
2 972.567 3324.79 749.384 0 0 0
2 846.367 2601.34 999.232 0 0 0
2 769.227 2568.49 516.09 0 0 0
2 312.112 2512.86 977.189 0 0 0
2 719.421 2500.9 39.605 0 0 0
2 32.089 2374.73 857.668 0 0 0
2 852.826 2672.59 252.474 0 0 0
2 100.163 2424.26 30.473 0 0 0
2 96.266 2599.91 494.275 0 0 0
2 20.063 2679.64 4.368 0 0 0
2 131.624 2425.51 207.791 0 0 0
2 858.919 2440.45 330.771 0 0 0
2 767.198 2327.47 387.264 0 0 0
2 548.246 2604.01 214.605 0 0 0
2 542.858 2749.27 830.98 0 0 0
2 545.295 2374.92 8.549 0 0 0
2 53.578 2358.5 459.749 0 0 0
2 908.018 2517.12 517.048 0 0 0
2 641.591 3008.04 683.065 0 0 0
2 334.594 2517.98 674.033 0 0 0
2 607.184 2609.74 779.494 0 0 0
2 416.57 2375.88 256.364 0 0 0
2 125.737 2435.66 337.86 0 0 0
2 882.029 2431.22 63.964 0 0 0
2 1333.83 3587.55 2000 0 0 0
2 770.721 2465.95 423.671 0 0 0
2 554.214 2464.17 775.475 0 0 0
2 383.467 2402.06 403.018 0 0 0
2 732.264 2692.74 10.525 0 0 0
2 612.629 2668.31 898.149 0 0 0
2 308.993 2392.5 568.272 0 0 0
2 121.111 2626.86 919.239 0 0 0
2 652.279 2505.08 977.897 0 0 0
2 351.618 2720.66 629.031 0 0 0
2 730.11 2521.3 827.859 0 0 0
2 477.616 2270.8 404.684 0 0 0
2 112.723 2769.74 141.912 0 0 0
2 262.001 2359.19 361.394 0 0 0
2 69.546 2293.27 654.14 0 0 0
2 281.332 2225.79 383.943 0 0 0
2 60.567 2258.24 176.259 0 0 0
2 117.107 2587.88 293.977 0 0 0
2 901.088 2639.55 586.576 0 0 0
2 601.839 2554 0 0 0 0
2 271.159 2506.6 391.104 0 0 0
2 563.539 2300.49 319.452 0 0 0
2 432.018 2404.14 640.38 0 0 0
2 134.041 2323.97 793.541 0 0 0
2 402.242 2585.54 73.733 0 0 0
2 450 2438.89 889.554 0 0 0
2 183.178 2415.87 640.833 0 0 0
2 254.451 2636.7 320.167 0 0 0
2 305.746 2576.69 1121.76 0 0 0
2 299.073 2433.31 874.817 0 0 0
2 41.213 2673.01 400.485 0 0 0
2 99.734 2598.5 785.475 0 0 0
2 82.952 2483.45 551.791 0 0 0
2 248.323 2302.97 179.947 0 0 0
2 405.034 2517.23 319.93 0 0 0
2 880.786 2431.11 754.588 0 0 0
2 750.964 2327.36 153.854 0 0 0
2 437.57 2545.99 832.923 0 0 0
2 561.952 2255.23 578.088 0 0 0
2 829.998 2586.17 794.529 0 0 0
2 186.711 2223.18 459.738 0 0 0
2 816.874 2289.96 56.074 0 0 0
2 647.867 2399.49 861.099 0 0 0
2 560.711 2255.07 742.84 0 0 0
2 143.317 2257.85 331.805 0 0 0
2 834.341 2467.53 871.673 0 0 0
2 751.213 2355.4 670.805 0 0 0
2 288.468 2593.38 886.072 0 0 0
2 844.866 2286.21 504.857 0 0 0
2 -0 4000 1032.69 0 0 0
2 510.401 2603.09 445.736 0 0 0
2 946.319 2261.59 733.067 0 0 0
2 723.896 2591.82 928.95 0 0 0
2 616.701 2634.14 613.208 0 0 0
2 829.633 2254.58 626.445 0 0 0
2 901.903 2693.75 459.923 0 0 0
2 673.65 2252.49 91.777 0 0 0
2 650.575 2366.89 473.128 0 0 0
2 66.054 2222.72 468.89 0 0 0
2 870.673 190.401 2458.69 0 0 0
2 538.609 122.113 2381.47 0 0 0
2 334.282 762.826 2588.79 0 0 0
2 368.816 242.31 2361.78 0 0 0
2 243.838 616.478 2258.64 0 0 0
2 614.717 185.876 2507.37 0 0 0
2 529.706 556.828 2412.69 0 0 0
2 847.501 406.94 2237.47 0 0 0
2 377.159 348.775 2569.77 0 0 0
2 909.961 403.411 2488.33 0 0 0
2 675.46 122.719 2423.89 0 0 0
2 765.699 317.977 2261.29 0 0 0
2 33.839 124.327 2372.59 0 0 0
2 710.227 718.154 2408.83 0 0 0
2 598.968 249.163 2387.81 0 0 0
2 654.016 547.368 2285.88 0 0 0
2 579.781 17.13 2336.79 0 0 0
2 316.231 25.319 2560.96 0 0 0
2 504.586 723.755 2585.62 0 0 0
2 52.754 323.777 2566.65 0 0 0
2 62.75 903.826 2498.49 0 0 0
2 888.723 121.182 2358.95 0 0 0
2 284.354 479.377 2512.7 0 0 0
2 935.579 909.916 2346.25 0 0 0
2 629.591 938.023 2581.74 0 0 0
2 114.951 865.675 2199.07 0 0 0
2 69.452 734.687 2305.19 0 0 0
2 150.103 550.17 2487.92 0 0 0
2 102.346 68.028 2218.53 0 0 0
2 780.672 825.759 2572.55 0 0 0
2 463.631 415.831 2337.81 0 0 0
2 123.898 842.057 2317.43 0 0 0
2 143.595 199.884 2316.34 0 0 0
2 509.544 755.046 2449.39 0 0 0
2 919.254 847.271 2211.03 0 0 0
2 567.719 142.945 2262.72 0 0 0
2 613.651 913.515 2447.86 0 0 0
2 16.246 740.451 2592.41 0 0 0
2 583.029 749.677 2258.06 0 0 0
2 224.701 761.925 2261.77 0 0 0
2 51.918 682.637 2488.51 0 0 0
2 691.459 461.629 2384.29 0 0 0
2 583.655 682.857 2364.73 0 0 0
2 849.466 203.983 2581.49 0 0 0
2 764.907 21.016 2458.58 0 0 0
2 425.515 737.049 2222.39 0 0 0
2 499.579 146.029 2512.8 0 0 0
2 882.824 222.144 2248.36 0 0 0
2 259.68 331.607 2312.44 0 0 0
2 822.183 320.864 2473.2 0 0 0
2 849.157 711.846 2492.02 0 0 0
2 155.212 107.958 2650.25 0 0 0
2 708.288 291.888 2530.01 0 0 0
2 579.62 442.771 2436.24 0 0 0
2 486.84 922.344 2386.82 0 0 0
2 710.782 866.167 2392.88 0 0 0
2 174.395 743.232 2531.97 0 0 0
2 431.023 456.898 2224.01 0 0 0
2 589.688 305.984 2640.2 0 0 0
2 491.179 304.139 2388.68 0 0 0
2 143.758 950.632 2383.19 0 0 0
2 835.569 496.898 2368.59 0 0 0
2 658.821 236.448 2283.4 0 0 0
2 327.329 668.453 2502.45 0 0 0
2 251.187 126.628 2371.76 0 0 0
2 412.249 576.563 2245.62 0 0 0
2 175.352 659.594 2441.22 0 0 0
2 442.343 61.36 2591.71 0 0 0
2 182.721 834.265 2423.22 0 0 0
2 179.633 26.128 2548.13 0 0 0
2 35.013 345.942 2389.51 0 0 0
2 540.577 623.294 2520.21 0 0 0
2 135.881 63.64 2439.97 0 0 0
2 574.244 367.762 2323.46 0 0 0
2 289.572 200.492 2259.64 0 0 0
2 787.632 835.852 2282.38 0 0 0
2 474.974 262.044 2259.38 0 0 0
2 293.435 679.714 2381.02 0 0 0
2 70.5 291.874 2283.57 0 0 0
2 783.79 193.798 2350.92 0 0 0
2 556.017 498.939 2215.07 0 0 0
2 916.752 890.608 2500.49 0 0 0
2 734.466 931.999 2493.72 0 0 0
2 85.206 454.831 2337.1 0 0 0
2 218.179 933.831 2281.83 0 0 0
2 26.107 250.996 2468.39 0 0 0
2 373.01 53.761 2406.1 0 0 0
2 2558.13 2527.5 199.967 0 0 0
2 2000 2000 2000 0 0 0
2 2352.19 2401.21 587.698 0 0 0
2 2692.54 2377.09 405.166 0 0 0
2 2257.86 2473.72 747.23 0 0 0
2 2507.24 2425.93 253.265 0 0 0
2 2487.55 2215.93 430.885 0 0 0
2 2496.32 2678.92 442.932 0 0 0
2 2339.93 2672.77 312.832 0 0 0
2 2233.8 2626.86 685.031 0 0 0
2 2433.36 2359.88 61.758 0 0 0
2 2639.86 2326.26 798.527 0 0 0
2 2443.99 2396.53 468.586 0 0 0
2 2572.87 2348.99 692.252 0 0 0
2 2397.14 2392.43 291.82 0 0 0
2 2669.06 2443.7 763.11 0 0 0
2 2597.77 2506.05 64.891 0 0 0
2 2532.22 2216.81 678.779 0 0 0
2 2629.84 2650.04 410.55 0 0 0
2 2570.3 2522.39 564.087 0 0 0
2 2630.09 2625.34 81.266 0 0 0
2 2468.75 2640.64 654.407 0 0 0
2 2394.15 2208.63 277.124 0 0 0
2 2235.4 2517.97 625.827 0 0 0
2 2165.31 2583.61 428.046 0 0 0
2 2442.92 2235.15 787.296 0 0 0
2 2363.94 2522.99 965.27 0 0 0
2 2290.86 2440.24 17.877 0 0 0
2 2591.71 2285.26 468.032 0 0 0
2 2332.02 2201.2 89.842 0 0 0
2 2660.77 2626.81 661.217 0 0 0
2 2374.32 2456.48 104.502 0 0 0
2 2588.14 2424.45 457.648 0 0 0
2 2611.49 2313.97 135.514 0 0 0
2 2171.91 2275.03 805.071 0 0 0
2 2603.04 2502.03 322.237 0 0 0
2 2486.73 2474.68 918.623 0 0 0
2 2443.64 2604.69 808.384 0 0 0
2 2271.69 2689.43 521.414 0 0 0
2 2389.49 2492.22 848.793 0 0 0
2 2179.41 2174.04 738.851 0 0 0
2 2000 4000 0 0 0 0
2 2184.04 2566.75 787.943 0 0 0
2 2334.28 2529.36 309.857 0 0 0
2 2501.37 2675.95 142.471 0 0 0
2 2207.79 2327.12 338.636 0 0 0
2 2490.03 2658.63 18.285 0 0 0
2 2687.38 2556.74 533.527 0 0 0
2 2527.39 2357.03 557.812 0 0 0
2 2606.88 2533.65 846.226 0 0 0
2 2453.93 2537.96 61.809 0 0 0
2 2436.57 2357.56 182.709 0 0 0
2 2352.22 2719.28 817.213 0 0 0
2 2533.16 2492.39 705.749 0 0 0
2 2567.58 2540.95 431.182 0 0 0
2 2682.4 2488.48 641.966 0 0 0
2 2445.05 2373.11 719.616 0 0 0
2 2575.55 2641.8 235.647 0 0 0
2 2393.33 2224.92 592.104 0 0 0
2 2247.46 2460.76 1013.71 0 0 0
2 2207.33 2620.26 961.062 0 0 0
2 2619.53 2363.16 921.889 0 0 0
2 2219.94 2460.23 511.03 0 0 0
2 2306.28 2418.11 198.257 0 0 0
2 2554.34 2602.6 753.291 0 0 0
2 2212.6 2395.78 827.965 0 0 0
2 2456.81 2598.29 249.214 0 0 0
2 2558.94 2237.27 822.452 0 0 0
2 2336.01 2364.58 921.996 0 0 0
2 2321.14 2497.16 449.869 0 0 0
2 4000 2000 1317.65 0 0 0
2 2267.39 2334.45 507.55 0 0 0
2 2598.39 2492.01 961.941 0 0 0
2 2350.07 2350.28 402.985 0 0 0
2 2456.82 2480.44 566.22 0 0 0
2 2160.42 2266.13 659.444 0 0 0
2 2216.44 2477.86 375.599 0 0 0
2 2317.08 2303.88 153.162 0 0 0
2 2616.38 2224.24 329.004 0 0 0
2 2397.03 2583.47 487.75 0 0 0
2 2492.62 2320.5 311.665 0 0 0
2 2426.84 2487.14 375.356 0 0 0
2 2260.21 2216.43 563.45 0 0 0
2 2265.42 2331.59 664.986 0 0 0
2 2291.89 2275.21 268.831 0 0 0
2 2355.35 2630.13 723.485 0 0 0
2 2332.27 2236.66 736.893 0 0 0
2 2254.54 2675.99 400.167 0 0 0
2 2567.59 194.358 2782.3 0 0 0
2 2726.47 433.361 2551.24 0 0 0
2 2310.02 726.721 2864.51 0 0 0
2 2817.67 959.143 2582.46 0 0 0
2 2366.09 314.358 2605.15 0 0 0
2 2374.91 453.801 2418.55 0 0 0
2 2301.91 743.026 2656.19 0 0 0
2 2416.32 962.34 2598.22 0 0 0
2 2759.74 576.746 3030.09 0 0 0
2 2734.36 365.783 2419.79 0 0 0
2 2552.51 223.89 2419.39 0 0 0
2 2581.58 677.215 2912.68 0 0 0
2 2501.89 576.117 2678.64 0 0 0
2 2518.05 172.334 2902.22 0 0 0
2 2895.46 384.525 2452.36 0 0 0
2 2656.82 743.187 2504.78 0 0 0
2 2905.96 787.635 2483.71 0 0 0
2 2776.1 135.981 2382.19 0 0 0
2 2349.92 971.615 2816.39 0 0 0
2 2887 957.883 2332.8 0 0 0
2 2437.06 814.477 2541.34 0 0 0
2 2630.73 556.605 2462.55 0 0 0
2 2635.98 253.175 2699.36 0 0 0
2 2759.46 750.347 2916.35 0 0 0
2 2711.69 933.051 2696.89 0 0 0
2 2889.69 599.648 2608.99 0 0 0
2 2381.66 536.655 2518.35 0 0 0
2 2605.85 532.719 2944.58 0 0 0
2 2462 927.893 2866.64 0 0 0
2 2411.06 127.073 2522.83 0 0 0
2 2417.37 916.66 2312.16 0 0 0
2 2827.53 886.257 2453.84 0 0 0
2 2647.33 382.856 2897.15 0 0 0
2 2348.53 613.978 2340.31 0 0 0
2 2707.19 614.746 2907.18 0 0 0
2 2443.97 384.351 2532.47 0 0 0
2 2909.57 145.925 2835.79 0 0 0
2 2392.87 856.266 2660.58 0 0 0
2 2768.16 644.054 2414.89 0 0 0
2 2502.24 440.715 2888.6 0 0 0
2 2347.66 459.375 2685.48 0 0 0
2 2408.39 772.013 2414.01 0 0 0
2 2700.51 138.401 2510.43 0 0 0
2 2772.77 787.766 2545.46 0 0 0
2 2969.9 779.615 2638.45 0 0 0
2 2504.41 386.02 2763.84 0 0 0
2 2901.25 716.918 2865.2 0 0 0
2 2329.38 88.182 2333.65 0 0 0
2 2414.92 559.494 2906.83 0 0 0
2 2432.55 272.89 2407.98 0 0 0
2 2471.83 191.918 2286.41 0 0 0
2 2626.69 578.015 2810.6 0 0 0
2 2797.22 296.4 2660.88 0 0 0
2 2765.48 152.803 2904 0 0 0
2 2629 374.96 2733.77 0 0 0
2 2334.62 829.751 2337.06 0 0 0
2 2795.73 845.119 2831.59 0 0 0
2 2517.63 706.496 2453.86 0 0 0
2 2853.47 261.699 2469.19 0 0 0
2 2696.11 137.781 2752.37 0 0 0
2 2813.33 472.91 2354.5 0 0 0
2 2523.47 822.053 2820.64 0 0 0
2 2753.67 191.505 2616.81 0 0 0
2 2605.03 454.443 2536.86 0 0 0
2 2947.91 343.241 2598.92 0 0 0
2 2532.78 492.027 2372.11 0 0 0
2 2537.29 389.772 2437.73 0 0 0
2 2559.64 917.284 2359.85 0 0 0
2 2779.74 580.003 2296.84 0 0 0
2 2531.68 427.657 2650.8 0 0 0
2 2714.89 475.428 2752.07 0 0 0
2 3054.19 1135.01 2658.05 0 0 0
2 2342.42 603.739 2648.62 0 0 0
2 2304.82 453.283 2290.89 0 0 0
2 2553.73 818.497 2693.86 0 0 0
2 2611.27 81.706 2450.24 0 0 0
2 2681.83 271.703 2523.61 0 0 0
2 2643.22 542.899 2664.1 0 0 0
2 2519 723.569 2624.34 0 0 0
2 2402.8 386.655 2315.65 0 0 0
2 2410.66 715.208 2749.08 0 0 0
2 2488.16 888.698 2453.8 0 0 0
2 2817.94 708.785 2324.18 0 0 0
2 2819.67 495.528 2817.27 0 0 0
2 2426.75 489.629 2807.41 0 0 0
2 2644.72 867.889 2432.03 0 0 0
2 2506.12 769.145 2938.28 0 0 0
2 239.286 2359.63 2881.88 0 0 0
2 66.088 2354.34 2602.2 0 0 0
2 119.432 2700.19 2386.76 0 0 0
2 705.319 2891.43 2641.09 0 0 0
2 887.197 2484.97 2342 0 0 0
2 375.24 2561.62 2528.33 0 0 0
2 934.269 2462.66 2765.66 0 0 0
2 54.747 2317.88 2733.25 0 0 0
2 327.747 2300.75 2636.66 0 0 0
2 794.641 2879.44 2410.31 0 0 0
2 86.977 2453.98 2696.99 0 0 0
2 53.777 2371.61 2476.24 0 0 0
2 559.547 2313.16 2525.65 0 0 0
2 678.952 2518.96 2638.73 0 0 0
2 632.33 2695.54 2614.32 0 0 0
2 806.941 2741.5 2539.03 0 0 0
2 398.976 2628.36 2375.79 0 0 0
2 906.331 2786.45 2601.05 0 0 0
2 99.277 2614.67 2588.75 0 0 0
2 171.208 2364.71 2740.5 0 0 0
2 939.998 2319.57 2530.01 0 0 0
2 811.21 2835.58 2676.43 0 0 0
2 169.134 2515.17 2532.74 0 0 0
2 891.796 2695.09 2442.61 0 0 0
2 767.091 2461.13 2347.67 0 0 0
2 195.864 2295.33 2643.99 0 0 0
2 274.579 2613.35 2620.09 0 0 0
2 641.84 2377.35 2621.67 0 0 0
2 595.139 2454.05 2446.42 0 0 0
2 272.525 2534.41 2912.11 0 0 0
2 602.953 2885.13 2480.93 0 0 0
2 355.823 2690.05 2672.39 0 0 0
2 469.153 2666.86 2534.1 0 0 0
2 487.458 2705.37 2876.02 0 0 0
2 530.797 2641.67 2340.93 0 0 0
2 951.607 2740.17 2328.55 0 0 0
2 368.861 2308.41 2750.24 0 0 0
2 683.59 2805.62 2437.95 0 0 0
2 0.93 2470.1 2586.61 0 0 0
2 570.412 2761.46 2349.79 0 0 0
2 614.049 2720.93 2828.54 0 0 0
2 621.87 2790.65 2726.01 0 0 0
2 62.679 2701.95 2808.18 0 0 0
2 704.995 2307.02 2763.39 0 0 0
2 726.376 2737.01 2691.56 0 0 0
2 93.476 2803.53 2477.74 0 0 0
2 969.51 2474.92 2561.92 0 0 0
2 133.223 2530.74 2875.03 0 0 0
2 751.71 2386.06 2569.24 0 0 0
2 544.249 2489.13 2774.7 0 0 0
2 870.026 2710.91 2703.61 0 0 0
2 79.822 2354.91 2900.2 0 0 0
2 889.849 2562.02 2671.64 0 0 0
2 13.248 2897.24 2395.52 0 0 0
2 198.16 2500.3 2677.63 0 0 0
2 808.554 2333.65 2670.73 0 0 0
2 525.775 2871.98 2810.42 0 0 0
2 195.029 2716.25 2507.19 0 0 0
2 729.414 2628.85 2556.3 0 0 0
2 598.606 2362.4 2747.12 0 0 0
2 383.818 2422.38 2597.34 0 0 0
2 153.578 2515.44 2394.48 0 0 0
2 443.378 2863.1 2491.13 0 0 0
2 621.909 2595.82 2866.93 0 0 0
2 669.211 2658.43 2455.29 0 0 0
2 345.956 2373.8 2441.82 0 0 0
2 248.123 2711.89 2386.88 0 0 0
2 812.826 2630.75 2323.12 0 0 0
2 420.186 2344.45 2323.05 0 0 0
2 139.643 2601.09 2711.07 0 0 0
2 299.503 2559.61 2368.79 0 0 0
2 792.598 2866.94 2546.79 0 0 0
2 775.453 2601.28 2728.71 0 0 0
2 413.544 2788.84 2592.3 0 0 0
2 51.692 2740.05 2662.74 0 0 0
2 778.81 2734.05 2399.36 0 0 0
2 25.105 2770.16 2333.67 0 0 0
2 51.036 2543.4 2491 0 0 0
2 845.844 2692.21 2828.39 0 0 0
2 548.5 2584.88 2449.9 0 0 0
2 616.159 2389.94 2320.56 0 0 0
2 269.552 2716.4 2777.74 0 0 0
2 740.903 2336.64 2386.84 0 0 0
2 687.602 2533.65 2439.05 0 0 0
2 338.933 2705.67 2470.22 0 0 0
2 636.691 2445.83 2862.55 0 0 0
2 15.128 2666.47 2450.45 0 0 0
2 152.379 2665.7 2882.61 0 0 0
2 2509.51 2396.99 2517.26 0 0 0
2 2560.29 2194.44 2549.31 0 0 0
2 2413.07 2190.09 2726.35 0 0 0
2 2333.07 2579.9 2326.68 0 0 0
2 2083.6 2627.74 2493.53 0 0 0
2 2239.83 2693.43 2554.51 0 0 0
2 2316.75 2171.43 2411.81 0 0 0
2 2564.78 2275.56 2029.75 0 0 0
2 2497.62 2088.18 2260.32 0 0 0
2 2417.91 2547.57 2589.5 0 0 0
2 2429.02 2512.07 2075.92 0 0 0
2 2242.97 2643.93 2273.13 0 0 0
2 2272.49 2286.06 2723.53 0 0 0
2 2460.27 2339.84 2001.08 0 0 0
2 2497.21 2461.13 2623.13 0 0 0
2 2367.93 2282.28 2160.81 0 0 0
2 2057.58 2336.91 2551.41 0 0 0
2 2486.18 2502.76 2304.5 0 0 0
2 2772.69 2501.25 2296.38 0 0 0
2 2621.41 2262.44 2353.01 0 0 0
2 2525.9 2529.07 2526.48 0 0 0
2 2538.66 2775.62 2466.43 0 0 0
2 2213.95 2622.86 2148.8 0 0 0
2 2502.98 2297.59 2427.01 0 0 0
2 2265 2827.24 2391.17 0 0 0
2 2612.46 2333.51 2690.33 0 0 0
2 2430.2 2410.06 2896.93 0 0 0
2 2422.68 2890.97 2497.42 0 0 0
2 2029.84 2433.64 2322.81 0 0 0
2 2705.57 2612.5 2229.83 0 0 0
2 2497.34 2410.14 2132.38 0 0 0
2 2504.71 2202.39 2331.52 0 0 0
2 2315.89 2665.49 2092.3 0 0 0
2 2254.6 2453.77 2330.93 0 0 0
2 2670.3 2250.21 2504.34 0 0 0
2 2159.44 2197.86 2091.29 0 0 0
2 2258.85 2061.85 2705.24 0 0 0