LAMMPS (23 Jun 2022 - Update 1)
OMP_NUM_THREADS environment is not set. Defaulting to 1 thread. (src/comm.cpp:98)
  using 1 OpenMP thread(s) per MPI task
###

# Read restart info
read_restart ${read_res}
read_restart equpmf1.45.res
Reading restart file ...
  restart file = 24 Mar 2022, LAMMPS = 23 Jun 2022
WARNING: Old restart file format revision. Switching to compatibility mode. (src/read_restart.cpp:609)
  restoring atom style atomic from restart
  orthogonal box = (1174.8196 1174.8196 1174.8196) to (1825.1804 1825.1804 1825.1804)
  1 by 1 by 1 MPI processor grid
  restoring pair style table from restart
  1000 atoms
  read_restart CPU = 0.034 seconds

# Settings
pair_style table/pgn spline 9941
pair_coeff 1 1 N20.txt DE_GNP 75.6
pair_coeff 2 2 N100.txt DE_GNP 115.92
WARNING: 3 of 9941 force values in table DE_GNP are inconsistent with -dE/dr.
WARNING:  Should only be flagged at inflection points (src/pair_table_pgn.cpp:478)
pair_coeff 1 2 mixed_potential.txt DE_GNP 95.66
WARNING: 1562 of 9941 force values in table DE_GNP are inconsistent with -dE/dr.
WARNING:  Should only be flagged at inflection points (src/pair_table_pgn.cpp:478)

# Neighbor list
neigh_modify delay 0 every 1 check yes

# Temperature
variable T equal ${Temp}
variable T equal 300

# Deformation
reset_timestep 0
variable tmp equal "lx"
variable L0 equal ${tmp}
variable L0 equal 650.360736164999
variable strain equal "(lx - v_L0)/v_L0"
variable stp equal "step"
variable tmpe equal "temp"
variable p1 equal "v_strain"
variable p2 equal "-pxx*1.01325/10000"
variable p3 equal "-pyy*1.01325/10000"
variable p4 equal "-pzz*1.01325/10000"
variable p5 equal "lx"
variable p6 equal "ly"
variable p7 equal "lz"
variable p8 equal "press"
variable p9 equal "epair"
variable p10 equal "etotal"

# Thermo
thermo_style custom step temp v_p1 v_p2 v_p3 v_p4 press lx ly lz vol density epair pe ke etotal pxx pyy pzz pxy pxz pyz spcpu
thermo ${ts_save}
thermo 100

# Dump
dump 1 all custom 1000 ./tensile/trajectory/trajectory_${usic}_${trial}_*.tensile.custom id type x y z ix iy iz
dump 1 all custom 1000 ./tensile/trajectory/trajectory_1_${trial}_*.tensile.custom id type x y z ix iy iz
dump 1 all custom 1000 ./tensile/trajectory/trajectory_1_1_*.tensile.custom id type x y z ix iy iz
dump_modify 1 sort id
dump 2 all cfg 1000 ./tensile/trajectory/ovito/dumpten.tens_*.cfg mass type xs ys zs fx fy fz
dump_modify 2 element N20 N100

fix 1 all nvt temp ${T} ${T} 100
fix 1 all nvt temp 300 ${T} 100
fix 1 all nvt temp 300 300 100
fix 2 all deform 1 x erate ${strain_rate} y erate ${strain_rate} z erate ${strain_rate} units box
fix 2 all deform 1 x erate 5e-6 y erate ${strain_rate} z erate ${strain_rate} units box
fix 2 all deform 1 x erate 5e-6 y erate 5e-6 z erate ${strain_rate} units box
fix 2 all deform 1 x erate 5e-6 y erate 5e-6 z erate 5e-6 units box
fix             def1 all print ${ts_save} "${p1} ${p2} ${p3} ${p4}" file tensile_${usic}_${trial}.txt screen no
fix             def1 all print 100 "${p1} ${p2} ${p3} ${p4}" file tensile_${usic}_${trial}.txt screen no
fix             def1 all print 100 "${p1} ${p2} ${p3} ${p4}" file tensile_1_${trial}.txt screen no
fix             def1 all print 100 "${p1} ${p2} ${p3} ${p4}" file tensile_1_1.txt screen no

timestep       		${ts}
timestep       		1
run				${steps_tensile}
run				1000000
Generated 0 of 1 mixed pair_coeff terms from geometric mixing rule
Unused restart file global fix info:
  fix style: npt, fix ID: 5
Neighbor list info ...
  update every 1 steps, delay 0 steps, check yes
  max neighbors/atom: 2000, page size: 100000
  master list distance cutoff = 0
  ghost atom cutoff = 0
  binsize = 650.36074, bins = 1 1 1
  1 neighbor lists, perpetual/occasional/extra = 1 0 0
  (1) pair table/pgn, perpetual
      attributes: half, newton on
      pair build: half/bin/atomonly/newton
      stencil: half/bin/3d
      bin: standard
WARNING: No pairwise cutoff or binsize set. Atom sorting therefore disabled. (src/atom.cpp:2127)
WARNING: Communication cutoff is 0.0. No ghost atoms will be generated. Atoms may get lost. (src/comm_brick.cpp:210)
Per MPI rank memory allocation (min/avg/max) = 5.631 | 5.631 | 5.631 Mbytes
   Step          Temp           v_p1           v_p2           v_p3           v_p4          Press            Lx             Ly             Lz           Volume        Density         E_pair         PotEng         KinEng         TotEng          Pxx            Pyy            Pzz            Pxy            Pxz            Pyz           S/CPU     
         0   295.40626     -3.4961163e-16 -1.3936302e-05 -1.5371883e-05 -1.5127027e-05  0.14618048     650.36074      650.36074      650.36074      2.7508249e+08  1.9434647      0              0              879.66939      879.66939      0.1375406      0.15170869     0.14929215    -0.0015694749  -0.0023346178   0.0054136428   0            
       100   299.99679      0.0005        -1.413166e-05  -1.5587366e-05 -1.5339077e-05  0.14822963     650.68592      650.68592      650.68592      2.7549532e+08  1.9405524      0              0              893.33923      893.33923      0.13946864     0.15383534     0.15138492    -0.0015914757  -0.0023673444   0.0054895311   27355.792    
WARNING: Communication cutoff is 0.0. No ghost atoms will be generated. Atoms may get lost. (src/comm_brick.cpp:210)
       200   313.06825      0.001         -1.4725317e-05 -1.6242175e-05 -1.5983456e-05  0.15445661     651.0111       651.0111       651.0111       2.7590856e+08  1.937646       0              0              932.26379      932.26379      0.14532758     0.1602978      0.15774444    -0.0016583319  -0.0024667941   0.0057201406   19684.474    
       300   313.08623      0.0015        -1.4704117e-05 -1.6218791e-05 -1.5960445e-05  0.15423424     651.33628      651.33628      651.33628      2.7632222e+08  1.9347453      0              0              932.31732      932.31732      0.14511835     0.16006703     0.15751734    -0.0016559445  -0.0024632427   0.0057119055   28157.093    
WARNING: Communication cutoff is 0.0. No ghost atoms will be generated. Atoms may get lost. (src/comm_brick.cpp:210)
       400   291.69303      0.002         -1.3678887e-05 -1.5087952e-05 -1.4847618e-05  0.1434804      651.66146      651.66146      651.66146      2.7673629e+08  1.9318504      0              0              868.61205      868.61205      0.13500011     0.1489065      0.1465346     -0.0015404853  -0.0022914955   0.0053136483   19564.824    
       500   294.1305       0.0025        -1.3772563e-05 -1.5191278e-05 -1.4949298e-05  0.144463       651.98664      651.98664      651.98664      2.7715077e+08  1.9289613      0              0              875.8704       875.8704       0.13592463     0.14992625     0.1475381     -0.001551035   -0.0023071882   0.0053500375   28154.77     
WARNING: Communication cutoff is 0.0. No ghost atoms will be generated. Atoms may get lost. (src/comm_brick.cpp:210)
       600   305.82148      0.003         -1.4298584e-05 -1.5771485e-05 -1.5520263e-05  0.14998053     652.31182      652.31182      652.31182      2.7756566e+08  1.926078       0              0              910.68416      910.68416      0.14111606     0.15565245     0.15317309    -0.0016102743  -0.0023953076   0.0055543738   19804.086    
       700   306.6218       0.0035        -1.4314585e-05 -1.5789133e-05 -1.5537631e-05  0.15014836     652.637        652.637        652.637        2.7798097e+08  1.9232004      0              0              913.06737      913.06737      0.14127397     0.15582663     0.15334449    -0.0016120762  -0.002397988    0.0055605892   28257.967    
WARNING: Communication cutoff is 0.0. No ghost atoms will be generated. Atoms may get lost. (src/comm_brick.cpp:210)
       800   288.47187      0.004         -1.3447148e-05 -1.4832342e-05 -1.459608e-05   0.14104966     652.96218      652.96218      652.96218      2.783967e+08   1.9203285      0              0              859.01998      859.01998      0.13271303     0.14638383     0.14405211    -0.0015143875  -0.0022526745   0.0052236281   19491.24     
       900   284.93755      0.0045        -1.3262571e-05 -1.4628751e-05 -1.4395732e-05  0.13911359     653.28736      653.28736      653.28736      2.7881284e+08  1.9174623      0              0              848.49538      848.49538      0.1308914      0.14437455     0.14207483    -0.0014936008  -0.002221754    0.0051519279   28182.947    
WARNING: Communication cutoff is 0.0. No ghost atoms will be generated. Atoms may get lost. (src/comm_brick.cpp:210)
      1000   295.63261      0.005         -1.3739851e-05 -1.5155195e-05 -1.4913791e-05  0.14411987     653.61254      653.61254      653.61254      2.7922939e+08  1.9146019      0              0              880.34344      880.34344      0.13560178     0.14957015     0.14718767    -0.001547351   -0.0023017082   0.0053373301   6303.0627    
WARNING: Communication cutoff is 0.0. No ghost atoms will be generated. Atoms may get lost. (src/comm_brick.cpp:210)
      1100   302.41906      0.0055        -1.4034301e-05 -1.5479978e-05 -1.5233399e-05  0.14720842     653.93772      653.93772      653.93772      2.7964636e+08  1.9117471      0              0              900.55233      900.55233      0.13850778     0.1527755      0.15034196    -0.0015805113  -0.0023510347   0.0054517113   19536.313    
      1200   304.21755      0.006         -1.4096723e-05 -1.554883e-05  -1.5301155e-05  0.14786317     654.2629       654.2629       654.2629       2.8006374e+08  1.908898       0              0              905.90792      905.90792      0.13912384     0.15345502     0.15101066    -0.0015875412  -0.0023614917   0.0054759596   27738.089    
WARNING: Communication cutoff is 0.0. No ghost atoms will be generated. Atoms may get lost. (src/comm_brick.cpp:210)
      1300   296.07618      0.0065        -1.3699035e-05 -1.5110176e-05 -1.4869488e-05  0.14369175     654.58808      654.58808      654.58808      2.8048154e+08  1.9060546      0              0              881.6643       881.6643       0.13519897     0.14912584     0.14675044    -0.0015427544  -0.0022948708   0.0053214752   19697.684    
      1400   286.51619      0.007         -1.3236971e-05 -1.4600514e-05 -1.4367944e-05  0.13884507     654.91326      654.91326      654.91326      2.8089975e+08  1.9032168      0              0              853.19628      853.19628      0.13063874     0.14409587     0.14180059    -0.0014907178  -0.0022174654   0.0051419833   28139.48     
WARNING: Communication cutoff is 0.0. No ghost atoms will be generated. Atoms may get lost. (src/comm_brick.cpp:210)
      1500   300.64269      0.0075        -1.3868942e-05 -1.5297585e-05 -1.5053912e-05  0.14547393     655.23844      655.23844      655.23844      2.8131838e+08  1.9003846      0              0              895.26258      895.26258      0.13687582     0.15097542     0.14857056    -0.0015618889  -0.0023233337   0.0053874765   14900.261    
      1600   311.13359      0.008         -1.433155e-05  -1.5807846e-05 -1.5556045e-05  0.15032631     655.56362      655.56362      655.56362      2.8173742e+08  1.897558       0              0              926.5027       926.5027       0.1414414      0.15601131     0.15352623    -0.0016139868  -0.00240083     0.0055671794   28285.407    
WARNING: Communication cutoff is 0.0. No ghost atoms will be generated. Atoms may get lost. (src/comm_brick.cpp:210)
      1700   301.11896      0.0085        -1.3849632e-05 -1.5276286e-05 -1.5032953e-05  0.14527139     655.8888       655.8888       655.8888       2.8215688e+08  1.8947371      0              0              896.68085      896.68085      0.13668525     0.15076522     0.14836371    -0.0015597144  -0.0023200989   0.0053799756   19828.393    
      1800   294.11035      0.009         -1.3507179e-05 -1.4898557e-05 -1.466124e-05   0.14167934     656.21398      656.21398      656.21398      2.8257676e+08  1.8919217      0              0              875.81041      875.81041      0.1333055      0.14703732     0.14469519    -0.0015211481  -0.002262731    0.0052469476   27816.752    
WARNING: Communication cutoff is 0.0. No ghost atoms will be generated. Atoms may get lost. (src/comm_brick.cpp:210)
      1900   298.36204      0.0095        -1.368209e-05  -1.5091485e-05 -1.4851096e-05  0.14351401     656.53916      656.53916      656.53916      2.8299705e+08  1.8891119      0              0              888.47122      888.47122      0.13503173     0.14894138     0.14656892    -0.0015408461  -0.0022920322   0.0053148928   19766.725    
WARNING: Communication cutoff is 0.0. No ghost atoms will be generated. Atoms may get lost. (src/comm_brick.cpp:210)
      2000   311.68777      0.01          -1.4271956e-05 -1.5742113e-05 -1.5491359e-05  0.14970122     656.86434      656.86434      656.86434      2.8341776e+08  1.8863077      0              0              928.15295      928.15295      0.14085325     0.15536258     0.15288783    -0.0016072755  -0.0023908468   0.0055440297   6957.0289    
      2100   327.48457      0.0105        -1.4973032e-05 -1.6515407e-05 -1.6252336e-05  0.15705494     657.18952      657.18952      657.18952      2.8383889e+08  1.883509       0              0              975.19314      975.19314      0.14777233     0.16299439     0.16039808    -0.0016862291  -0.0025082915   0.005816367    27843.31     
WARNING: Communication cutoff is 0.0. No ghost atoms will be generated. Atoms may get lost. (src/comm_brick.cpp:210)
      2200   303.05923      0.011         -1.3835724e-05 -1.5260945e-05 -1.5017856e-05  0.14512551     657.5147       657.5147       657.5147       2.8426043e+08  1.8807159      0              0              902.45864      902.45864      0.13654798     0.15061382     0.14821472    -0.0015581481  -0.002317769    0.005374573    19358.225    
      2300   295.48475      0.0115        -1.3469928e-05 -1.4857468e-05 -1.4620805e-05  0.14128859     657.83988      657.83988      657.83988      2.8468239e+08  1.8779283      0              0              879.90312      879.90312      0.13293785     0.14663181     0.14429613    -0.0015169528  -0.0022564905   0.0052324769   28039.181    
WARNING: Communication cutoff is 0.0. No ghost atoms will be generated. Atoms may get lost. (src/comm_brick.cpp:210)
      2400   297.70416      0.012         -1.3550996e-05 -1.4946887e-05 -1.47088e-05    0.14213894     658.16506      658.16506      658.16506      2.8510477e+08  1.8751462      0              0              886.51214      886.51214      0.13373793     0.1475143      0.14516457    -0.0015260826  -0.0022700711   0.0052639684   19806.655    
      2500   306.04618      0.0125        -1.3910083e-05 -1.5342964e-05 -1.5098568e-05  0.14590547     658.49025      658.49025      658.49025      2.8552756e+08  1.8723695      0              0              911.35326      911.35326      0.13728185     0.15142328     0.14901128    -0.0015665221  -0.0023302256   0.005403458    28181.342    
WARNING: Communication cutoff is 0.0. No ghost atoms will be generated. Atoms may get lost. (src/comm_brick.cpp:210)
      2600   306.20562      0.013         -1.3896732e-05 -1.5328237e-05 -1.5084076e-05  0.14576543     658.81543      658.81543      658.81543      2.8595078e+08  1.8695984      0              0              911.82806      911.82806      0.13715008     0.15127794     0.14886826    -0.0015650186  -0.002327989    0.0053982717   19549.559    
      2700   289.94945      0.0135        -1.3139501e-05 -1.4493004e-05 -1.4262147e-05  0.13782269     659.14061      659.14061      659.14061      2.8637441e+08  1.8668327      0              0              863.41994      863.41994      0.12967679     0.14303483     0.14075645    -0.001479741   -0.0022011373   0.0051041207   28247.949    
WARNING: Communication cutoff is 0.0. No ghost atoms will be generated. Atoms may get lost. (src/comm_brick.cpp:210)
      2800   289.0243       0.014         -1.3078211e-05 -1.4425401e-05 -1.4195621e-05  0.13717981     659.46579      659.46579      659.46579      2.8679845e+08  1.8640725      0              0              860.66503      860.66503      0.12907191     0.14236764     0.14009988    -0.0014728387  -0.00219087     0.0050803123   19826.935    
WARNING: Communication cutoff is 0.0. No ghost atoms will be generated. Atoms may get lost. (src/comm_brick.cpp:210)
      2900   304.36899      0.0145        -1.3752198e-05 -1.5168815e-05 -1.4927193e-05  0.14424938     659.79097      659.79097      659.79097      2.8722292e+08  1.8613177      0              0              906.35889      906.35889      0.13572364     0.14970456     0.14731994    -0.0015487415  -0.0023037766   0.0053421265   19498.445    
      3000   304.571        0.015         -1.3740998e-05 -1.5156461e-05 -1.4915036e-05  0.1441319      660.11615      660.11615      660.11615      2.8764781e+08  1.8585684      0              0              906.96043      906.96043      0.13561311     0.14958264     0.14719996    -0.0015474802  -0.0023019004   0.0053377759   8012.3936    
WARNING: Communication cutoff is 0.0. No ghost atoms will be generated. Atoms may get lost. (src/comm_brick.cpp:210)
      3100   298.45921      0.0155        -1.3445379e-05 -1.483039e-05  -1.4594159e-05  0.1410311      660.44133      660.44133      660.44133      2.8807311e+08  1.8558244      0              0              888.76055      888.76055      0.13269557     0.14636457     0.14403316    -0.0015141882  -0.0022523781   0.0052229409   19408.529    
      3200   294.65532      0.016         -1.3254429e-05 -1.461977e-05  -1.4386894e-05  0.13902819     660.76651      660.76651      660.76651      2.8849884e+08  1.8530859      0              0              877.43322      877.43322      0.13081104     0.14428591     0.14198761    -0.0014926838  -0.00222039     0.005148765    28016.682    
WARNING: Communication cutoff is 0.0. No ghost atoms will be generated. Atoms may get lost. (src/comm_brick.cpp:210)
      3300   302.75277      0.0165        -1.3598588e-05 -1.4999382e-05 -1.4760459e-05  0.14263814     661.09169      661.09169      661.09169      2.8892498e+08  1.8503527      0              0              901.54605      901.54605      0.13420763     0.14803239     0.14567441    -0.0015314423  -0.0022780439   0.005282456    19813.9      
      3400   315.98219      0.017         -1.4171884e-05 -1.5631733e-05 -1.5382738e-05  0.14865155     661.41687      661.41687      661.41687      2.8935154e+08  1.8476249      0              0              940.94099      940.94099      0.13986562     0.15427321     0.15181582    -0.0015960056  -0.0023740827   0.0055051563   27825.305    
WARNING: Communication cutoff is 0.0. No ghost atoms will be generated. Atoms may get lost. (src/comm_brick.cpp:210)
      3500   301.30032      0.0175        -1.3493487e-05 -1.4883454e-05 -1.4646378e-05  0.14153572     661.74205      661.74205      661.74205      2.8977852e+08  1.8449025      0              0              897.22091      897.22091      0.13317036     0.14688827     0.14454851    -0.0015196061  -0.0022604372   0.0052416287   19872.423    
      3600   293.01478      0.018         -1.31031e-05   -1.4452853e-05 -1.4222636e-05  0.13744087     662.06723      662.06723      662.06723      2.9020593e+08  1.8421854      0              0              872.54798      872.54798      0.12931754     0.14263857     0.1403665     -0.0014756415  -0.0021950393   0.0050899803   27967.796    
WARNING: Communication cutoff is 0.0. No ghost atoms will be generated. Atoms may get lost. (src/comm_brick.cpp:210)
      3700   298.68898      0.0185        -1.3337178e-05 -1.4711044e-05 -1.4476714e-05  0.13989616     662.39241      662.39241      662.39241      2.9063375e+08  1.8394736      0              0              889.44478      889.44478      0.13162771     0.14518671     0.14287406    -0.0015020029  -0.0022342523   0.0051809095   19598.509    
      3800   305.44255      0.019         -1.3618674e-05 -1.5021537e-05 -1.4782261e-05  0.14284883     662.71759      662.71759      662.71759      2.9106199e+08  1.8367672      0              0              909.55575      909.55575      0.13440587     0.14825104     0.14588958    -0.0015337044  -0.0022814087   0.0052902585   28339.321    
WARNING: Communication cutoff is 0.0. No ghost atoms will be generated. Atoms may get lost. (src/comm_brick.cpp:210)
      3900   302.08589      0.0195        -1.3449205e-05 -1.483461e-05  -1.4598312e-05  0.14107123     663.04277      663.04277      663.04277      2.9149065e+08  1.8340661      0              0              899.56019      899.56019      0.13273333     0.14640622     0.14407414    -0.0015146191  -0.002253019    0.0052244269   19842.364    
WARNING: Communication cutoff is 0.0. No ghost atoms will be generated. Atoms may get lost. (src/comm_brick.cpp:210)
      4000   283.53066      0.02          -1.260455e-05  -1.3902948e-05 -1.368149e-05   0.13221149     663.36795      663.36795      663.36795      2.9191974e+08  1.8313702      0              0              844.30588      844.30588      0.12439724     0.13721143     0.13502581    -0.001419496   -0.002111522    0.0048963158   5946.7517    
      4100   291.40662      0.0205        -1.2935649e-05 -1.4268154e-05 -1.4040878e-05  0.13568445     663.69313      663.69313      663.69313      2.9234924e+08  1.8286797      0              0              867.75915      867.75915      0.12766493     0.14081573     0.1385727     -0.0014567837  -0.0021669879   0.0050249332   27600.94     
WARNING: Communication cutoff is 0.0. No ghost atoms will be generated. Atoms may get lost. (src/comm_brick.cpp:210)
      4200   304.11894      0.021         -1.3480131e-05 -1.4868722e-05 -1.463188e-05   0.14139562     664.01831      664.01831      664.01831      2.9277917e+08  1.8259944      0              0              905.61428      905.61428      0.13303855     0.14674287     0.14440543    -0.0015181019  -0.0022581997   0.0052364403   19591.056    
      4300   303.04492      0.0215        -1.3412809e-05 -1.4794465e-05 -1.4558807e-05  0.14068947     664.34349      664.34349      664.34349      2.9320951e+08  1.8233144      0              0              902.41601      902.41601      0.13237413     0.14601002     0.14368425    -0.0015105203  -0.002246922    0.0052102889   28201.704    
WARNING: Communication cutoff is 0.0. No ghost atoms will be generated. Atoms may get lost. (src/comm_brick.cpp:210)
      4400   296.1707       0.022         -1.3089325e-05 -1.4437659e-05 -1.4207684e-05  0.13729639     664.66867      664.66867      664.66867      2.9364028e+08  1.8206396      0              0              881.94577      881.94577      0.1291816      0.14248862     0.14021894    -0.0014740903  -0.0021927318   0.0050846295   19469.969    
      4500   291.19478      0.0225        -1.2850543e-05 -1.417428e-05  -1.3948501e-05  0.13479176     664.99385      664.99385      664.99385      2.9407147e+08  1.81797        0              0              867.12833      867.12833      0.126825       0.13988927     0.137661      -0.0014471992  -0.0021527309   0.0049918732   28257.719    
WARNING: Communication cutoff is 0.0. No ghost atoms will be generated. Atoms may get lost. (src/comm_brick.cpp:210)
      4600   301.83096      0.023         -1.3300401e-05 -1.4670478e-05 -1.4436794e-05  0.1395104      665.31903      665.31903      665.31903      2.9450308e+08  1.8153057      0              0              898.80106      898.80106      0.13126475     0.14478636     0.14248008    -0.0014978612  -0.0022280913   0.0051666232   15208.633    
      4700   312.48698      0.0235        -1.3749795e-05 -1.5166165e-05 -1.4924585e-05  0.14422418     665.64421      665.64421      665.64421      2.9493512e+08  1.8126465      0              0              930.53286      930.53286      0.13569993     0.14967841     0.1472942     -0.0015484709  -0.0023033741   0.0053411933   27822.069    
WARNING: Communication cutoff is 0.0. No ghost atoms will be generated. Atoms may get lost. (src/comm_brick.cpp:210)
      4800   300.13696      0.024         -1.3187044e-05 -1.4545445e-05 -1.4313752e-05  0.13832138     665.96939      665.96939      665.96939      2.9536757e+08  1.8099926      0              0              893.75662      893.75662      0.13014601     0.14355238     0.14126575    -0.0014850952  -0.0022091018   0.0051225891   19740.406    
WARNING: Communication cutoff is 0.0. No ghost atoms will be generated. Atoms may get lost. (src/comm_brick.cpp:210)
      4900   291.6017       0.0245        -1.2793283e-05 -1.4111122e-05 -1.3886348e-05  0.13419115     666.29457      666.29457      666.29457      2.9580045e+08  1.8073438      0              0              868.34007      868.34007      0.12625989     0.13926595     0.1370476     -0.0014407507  -0.0021431387   0.0049696302   19852.129    
      5000   297.55522      0.025         -1.3035384e-05 -1.4378162e-05 -1.4149134e-05  0.13673059     666.61975      666.61975      666.61975      2.9623375e+08  1.8047002      0              0              886.06863      886.06863      0.12864924     0.14190142     0.1396411     -0.0014680155  -0.0021836955   0.0050636757   3183.8496    
WARNING: Communication cutoff is 0.0. No ghost atoms will be generated. Atoms may get lost. (src/comm_brick.cpp:210)
      5100   302.53254      0.0255        -1.3234055e-05 -1.4597298e-05 -1.436478e-05   0.13881449     666.94493      666.94493      666.94493      2.9666748e+08  1.8020618      0              0              900.89023      900.89023      0.13060997     0.14406413     0.14176936    -0.0014903895  -0.0022169771   0.0051408509   19433.8      
      5200   301.51471      0.026         -1.3170258e-05 -1.4526929e-05 -1.4295532e-05  0.1381453      667.27012      667.27012      667.27012      2.9710162e+08  1.7994284      0              0              897.85932      897.85932      0.12998034     0.14336964     0.14108593    -0.0014832047  -0.0022062897   0.0051160683   28091.34     
WARNING: Communication cutoff is 0.0. No ghost atoms will be generated. Atoms may get lost. (src/comm_brick.cpp:210)
      5300   299.2966       0.0265        -1.3054276e-05 -1.4398999e-05 -1.416964e-05   0.13692874     667.5953       667.5953       667.5953       2.9753619e+08  1.7968003      0              0              891.25417      891.25417      0.12883568     0.14210708     0.13984347    -0.0014701431  -0.0021868603   0.0050710143   19810.874    
      5400   298.8801       0.027         -1.3017078e-05 -1.435797e-05  -1.4129264e-05  0.13653857     667.92048      667.92048      667.92048      2.9797119e+08  1.7941772      0              0              890.01389      890.01389      0.12846857     0.14170215     0.139445      -0.001465954   -0.0021806289   0.0050565648   28138.11     
WARNING: Communication cutoff is 0.0. No ghost atoms will be generated. Atoms may get lost. (src/comm_brick.cpp:210)
      5500   303.14796      0.0275        -1.3183691e-05 -1.4541746e-05 -1.4310113e-05  0.13828621     668.24566      668.24566      668.24566      2.9840661e+08  1.7915592      0              0              902.72287      902.72287      0.13011291     0.14351587     0.14122983    -0.0014847175  -0.00220854     0.0051212865   19573.946    
      5600   313.39417      0.028         -1.3609414e-05 -1.5011323e-05 -1.477221e-05   0.1427517      668.57084      668.57084      668.57084      2.9884245e+08  1.7889464      0              0              933.23434      933.23434      0.13431447     0.14815024     0.14579038    -0.0015326615  -0.0022798574   0.0052866613   28046.282    
WARNING: Communication cutoff is 0.0. No ghost atoms will be generated. Atoms may get lost. (src/comm_brick.cpp:210)
      5700   301.97176      0.0285        -1.309427e-05  -1.4443114e-05 -1.4213052e-05  0.13734825     668.89602      668.89602      668.89602      2.9927871e+08  1.7863386      0              0              899.22034      899.22034      0.1292304      0.14254245     0.14027191    -0.0014746472  -0.0021935602   0.0050865504   19863.301    
WARNING: Communication cutoff is 0.0. No ghost atoms will be generated. Atoms may get lost. (src/comm_brick.cpp:210)
      5800   290.80959      0.029         -1.2591876e-05 -1.3888968e-05 -1.3667733e-05  0.13207855     669.2212       669.2212       669.2212       2.9971541e+08  1.7837358      0              0              865.9813       865.9813       0.12427216     0.13707346     0.13489004    -0.0014180687  -0.0021093989   0.0048913925   19579.169    
      5900   297.53249      0.0295        -1.2864212e-05 -1.4189357e-05 -1.3963337e-05  0.13493513     669.54638      669.54638      669.54638      3.0015252e+08  1.7811382      0              0              886.00094      886.00094      0.1269599      0.14003807     0.13780742    -0.0014487385  -0.0021550207   0.0049971829   28267.113    
WARNING: Communication cutoff is 0.0. No ghost atoms will be generated. Atoms may get lost. (src/comm_brick.cpp:210)
      6000   309.62996      0.03          -1.3367776e-05 -1.4744793e-05 -1.4509926e-05  0.14021711     669.87156      669.87156      669.87156      3.0059006e+08  1.7785455      0              0              922.02515      922.02515      0.13192969     0.1455198      0.14320184    -0.0015054488  -0.002239378    0.0051927955   3456.6394    
      6100   303.7954       0.0305        -1.3096796e-05 -1.4445899e-05 -1.4215793e-05  0.13737474     670.19674      670.19674      670.19674      3.0102803e+08  1.7759579      0              0              904.65081      904.65081      0.12925532     0.14256994     0.14029897    -0.0014749316  -0.0021939832   0.0050875315   27793.311    
WARNING: Communication cutoff is 0.0. No ghost atoms will be generated. Atoms may get lost. (src/comm_brick.cpp:210)
      6200   282.73412      0.031         -1.2171107e-05 -1.3424855e-05 -1.3211013e-05  0.12766502     670.52192      670.52192      670.52192      3.0146642e+08  1.7733754      0              0              841.93392      841.93392      0.12011949     0.13249302     0.13038256    -0.0013706826  -0.0020389113   0.0047279419   19395.519    
      6300   287.89047      0.0315        -1.2375064e-05 -1.3649822e-05 -1.3432396e-05  0.12980436     670.8471       670.8471       670.8471       3.0190523e+08  1.7707978      0              0              857.28867      857.28867      0.12213238     0.13471327     0.13256744    -0.0013936518  -0.0020730783   0.0048071703   27813.719    
WARNING: Communication cutoff is 0.0. No ghost atoms will be generated. Atoms may get lost. (src/comm_brick.cpp:210)
      6400   301.27557      0.032         -1.2931612e-05 -1.42637e-05   -1.4036496e-05  0.1356421      671.17228      671.17228      671.17228      3.0234447e+08  1.7682252      0              0              897.14719      897.14719      0.12762509     0.14077178     0.13852945    -0.001456329   -0.0021663116   0.005023365    19659.776    
      6500   307.78341      0.0325        -1.3191764e-05 -1.4550651e-05 -1.4318876e-05  0.13837089     671.49746      671.49746      671.49746      3.0278414e+08  1.7656576      0              0              916.52645      916.52645      0.13019259     0.14360376     0.14131632    -0.0014856267  -0.0022098924   0.0051244226   27677.999    
WARNING: Communication cutoff is 0.0. No ghost atoms will be generated. Atoms may get lost. (src/comm_brick.cpp:210)
      6600   299.28316      0.033         -1.2808821e-05 -1.4128261e-05 -1.3903214e-05  0.13435413     671.82264      671.82264      671.82264      3.0322423e+08  1.7630949      0              0              891.21415      891.21415      0.12641324     0.13943509     0.13721405    -0.0014425006  -0.0021457416   0.0049756661   19726.889    
WARNING: Communication cutoff is 0.0. No ghost atoms will be generated. Atoms may get lost. (src/comm_brick.cpp:210)
      6700   288.54299      0.0335        -1.2331245e-05 -1.3601489e-05 -1.3384833e-05  0.12934474     672.14782      672.14782      672.14782      3.0366475e+08  1.7605373      0              0              859.23175      859.23175      0.12169993     0.13423626     0.13209804    -0.001388717   -0.0020657378   0.0047901487   19821.256    
      6800   299.87939      0.034         -1.2797138e-05 -1.4115374e-05 -1.3890532e-05  0.13423158     672.473        672.473        672.473        3.041057e+08   1.7579845      0              0              892.98961      892.98961      0.12629793     0.13930791     0.1370889     -0.0014411848  -0.0021437844   0.0049711276   27767.488    
WARNING: Communication cutoff is 0.0. No ghost atoms will be generated. Atoms may get lost. (src/comm_brick.cpp:210)
      6900   314.63197      0.0345        -1.3407235e-05 -1.4788317e-05 -1.4552756e-05  0.140631       672.79818      672.79818      672.79818      3.0454707e+08  1.7554367      0              0              936.92029      936.92029      0.13231912     0.14594934     0.14362454    -0.0015098926  -0.0022459882   0.0052081236   19805.898    
      7000   303.52046      0.035         -1.2915011e-05 -1.4245389e-05 -1.4018476e-05  0.13546797     673.12336      673.12336      673.12336      3.0498887e+08  1.7528938      0              0              903.8321       903.8321       0.12746125     0.14059106     0.1383516     -0.0014544594  -0.0021635305   0.005016916    1694.2331    
WARNING: Communication cutoff is 0.0. No ghost atoms will be generated. Atoms may get lost. (src/comm_brick.cpp:210)
      7100   294.73507      0.0355        -1.2523028e-05 -1.3813028e-05 -1.3593002e-05  0.13135639     673.44854      673.44854      673.44854      3.054311e+08   1.7503559      0              0              877.67071      877.67071      0.12359268     0.13632399     0.1341525     -0.0014103152  -0.0020978654   0.0048646479   19378.087    
      7200   297.04696      0.036         -1.2602993e-05 -1.390123e-05  -1.36798e-05    0.13219516     673.77372      673.77372      673.77372      3.0587375e+08  1.7478228      0              0              884.55513      884.55513      0.12438187     0.13719448     0.13500913    -0.0014193207  -0.0021112612   0.0048957109   28124.656    
WARNING: Communication cutoff is 0.0. No ghost atoms will be generated. Atoms may get lost. (src/comm_brick.cpp:210)
      7300   310.64103      0.0365        -1.3160693e-05 -1.4516379e-05 -1.428515e-05   0.13804497     674.0989       674.0989       674.0989       3.0631683e+08  1.7452946      0              0              925.03595      925.03595      0.12988594     0.14326552     0.14098346    -0.0014821275  -0.0022046873   0.0051123528   16844.511    
      7400   317.64564      0.037         -1.3437995e-05 -1.4822246e-05 -1.4586145e-05  0.14095365     674.42408      674.42408      674.42408      3.0676034e+08  1.7427713      0              0              945.89449      945.89449      0.1326227      0.1462842      0.14395406    -0.0015133567  -0.0022511412   0.0052200726   28012.774    
WARNING: Communication cutoff is 0.0. No ghost atoms will be generated. Atoms may get lost. (src/comm_brick.cpp:210)
      7500   293.10299      0.0375        -1.23818e-05   -1.3657252e-05 -1.3439708e-05  0.12987502     674.74926      674.74926      674.74926      3.0720428e+08  1.7402528      0              0              872.81065      872.81065      0.12219887     0.1347866      0.1326396     -0.0013944104  -0.0020742067   0.004809787    19285.291    
      7600   292.70623      0.038         -1.234718e-05  -1.3619065e-05 -1.3402129e-05  0.12951188     675.07444      675.07444      675.07444      3.0764864e+08  1.7377392      0              0              871.62918      871.62918      0.12185719     0.13440972     0.13226873    -0.0013905115  -0.0020684071   0.0047963385   28091.568    
WARNING: Communication cutoff is 0.0. No ghost atoms will be generated. Atoms may get lost. (src/comm_brick.cpp:210)
      7700   304.69799      0.0385        -1.283447e-05  -1.4156551e-05 -1.3931054e-05  0.13462316     675.39962      675.39962      675.39962      3.0809344e+08  1.7352305      0              0              907.33857      907.33857      0.12666637     0.1397143      0.13748881    -0.001445389   -0.0021500383   0.0049856294   19859.372    
WARNING: Communication cutoff is 0.0. No ghost atoms will be generated. Atoms may get lost. (src/comm_brick.cpp:210)
      7800   307.95451      0.039         -1.2952923e-05 -1.4287206e-05 -1.4059628e-05  0.13586564     675.7248       675.7248       675.7248       3.0853866e+08  1.7327265      0              0              917.03594      917.03594      0.12783541     0.14100376     0.13875774    -0.0014587289  -0.0021698816   0.0050316432   19840.931    
      7900   293.04309      0.0395        -1.2307954e-05 -1.3575799e-05 -1.3359552e-05  0.12910043     676.04999      676.04999      676.04999      3.0898431e+08  1.7302274      0              0              872.63228      872.63228      0.12147006     0.13398272     0.13184853    -0.001386094   -0.002061836    0.0047811009   28258.462    
WARNING: Communication cutoff is 0.0. No ghost atoms will be generated. Atoms may get lost. (src/comm_brick.cpp:210)
      8000   285.91695      0.04          -1.1991341e-05 -1.3226571e-05 -1.3015887e-05  0.12577942     676.37517      676.37517      676.37517      3.0943039e+08  1.7277331      0              0              851.41186      851.41186      0.11834533     0.13053611     0.12845682    -0.0013504377  -0.0020087967   0.0046581106   7563.7335    
      8100   298.12127      0.0405        -1.2485173e-05 -1.3771273e-05 -1.3551913e-05  0.13095932     676.70035      676.70035      676.70035      3.0987689e+08  1.7252435      0              0              887.75423      887.75423      0.12321908     0.1359119      0.13374698    -0.001406052   -0.0020915238   0.0048499428   27874.829    
WARNING: Communication cutoff is 0.0. No ghost atoms will be generated. Atoms may get lost. (src/comm_brick.cpp:210)
      8200   301.3066       0.041         -1.2600399e-05 -1.3898369e-05 -1.3676984e-05  0.13216795     677.02553      677.02553      677.02553      3.1032383e+08  1.7227588      0              0              897.23961      897.23961      0.12435627     0.13716624     0.13498134    -0.0014190285  -0.0021108266   0.0048947033   19557.11     
      8300   300.71211      0.0415        -1.2557435e-05 -1.385098e-05  -1.3630349e-05  0.13171729     677.35071      677.35071      677.35071      3.107712e+08   1.7202788      0              0              895.46932      895.46932      0.12393225     0.13669854     0.13452109    -0.00141419    -0.0021036293   0.0048780136   28282.775    
WARNING: Communication cutoff is 0.0. No ghost atoms will be generated. Atoms may get lost. (src/comm_brick.cpp:210)
      8400   297.9726       0.042         -1.2425132e-05 -1.3705048e-05 -1.3486742e-05  0.13032954     677.67589      677.67589      677.67589      3.11219e+08    1.7178036      0              0              887.31151      887.31151      0.12262652     0.13525831     0.1331038     -0.0013992904  -0.0020814658   0.0048266197   19820.073    
      8500   296.73078      0.0425        -1.2355555e-05 -1.3628303e-05 -1.341122e-05   0.12959973     678.00107      678.00107      678.00107      3.1166722e+08  1.7153331      0              0              883.61359      883.61359      0.12193985     0.1345009      0.13235845    -0.0013914547  -0.0020698101   0.0047995919   28243.178    
WARNING: Communication cutoff is 0.0. No ghost atoms will be generated. Atoms may get lost. (src/comm_brick.cpp:210)
      8600   303.08281      0.043         -1.2601906e-05 -1.3900031e-05 -1.367862e-05   0.13218375     678.32625      678.32625      678.32625      3.1211588e+08  1.7128674      0              0              902.52886      902.52886      0.12437114     0.13718264     0.13499748    -0.0014191982  -0.002111079    0.0048952885   19872.632    
WARNING: Communication cutoff is 0.0. No ghost atoms will be generated. Atoms may get lost. (src/comm_brick.cpp:210)
      8700   309.77596      0.0435        -1.2861695e-05 -1.4186581e-05 -1.3960605e-05  0.13490873     678.65143      678.65143      678.65143      3.1256497e+08  1.7104064      0              0              922.45992      922.45992      0.12693506     0.14001067     0.13778046    -0.0014484551  -0.002154599    0.0049962052   19817.811    
      8800   298.30094      0.044         -1.2367473e-05 -1.3641449e-05 -1.3424157e-05  0.12972474     678.97661      678.97661      678.97661      3.1301449e+08  1.7079501      0              0              888.28926      888.28926      0.12205747     0.13463064     0.13248613    -0.0013927969  -0.0020718067   0.0048042216   28097.078    
WARNING: Communication cutoff is 0.0. No ghost atoms will be generated. Atoms may get lost. (src/comm_brick.cpp:210)
      8900   287.93822      0.0445        -1.1920702e-05 -1.3148656e-05 -1.2939214e-05  0.12503848     679.30179      679.30179      679.30179      3.1346444e+08  1.7054985      0              0              857.43086      857.43086      0.11764818     0.12976715     0.12770011    -0.0013424826  -0.0019969634   0.0046306707   19838.81     
      9000   298.25509      0.045         -1.2330107e-05 -1.3600234e-05 -1.3383598e-05  0.1293328      679.62697      679.62697      679.62697      3.1391482e+08  1.7030515      0              0              888.15273      888.15273      0.1216887      0.13422387     0.13208584    -0.0013885888  -0.0020655471   0.0047897065   8615.455     
WARNING: Communication cutoff is 0.0. No ghost atoms will be generated. Atoms may get lost. (src/comm_brick.cpp:210)
      9100   305.25573      0.0455        -1.2601423e-05 -1.3899498e-05 -1.3678095e-05  0.13217868     679.95215      679.95215      679.95215      3.1436563e+08  1.7006093      0              0              908.99945      908.99945      0.12436637     0.13717738     0.1349923     -0.0014191438  -0.002110998    0.0048951007   19555.836    
      9200   301.80841      0.046         -1.2441253e-05 -1.372283e-05  -1.3504241e-05  0.13049864     680.27733      680.27733      680.27733      3.1481687e+08  1.6981717      0              0              898.73391      898.73391      0.12278563     0.1354338      0.13327649    -0.0014011059  -0.0020841664   0.004832882    28011.126    
WARNING: Communication cutoff is 0.0. No ghost atoms will be generated. Atoms may get lost. (src/comm_brick.cpp:210)
      9300   297.0933       0.0465        -1.222934e-05  -1.3489087e-05 -1.3274221e-05  0.12827584     680.60251      680.60251      680.60251      3.1526854e+08  1.6957388      0              0              884.69311      884.69311      0.1206942      0.13312693     0.13100638    -0.0013772406  -0.0020486665   0.0047505629   19840.841    
      9400   296.84944      0.047         -1.2201804e-05 -1.3458714e-05 -1.3244333e-05  0.12798701     680.92769      680.92769      680.92769      3.1572065e+08  1.6933106      0              0              883.96695      883.96695      0.12042244     0.13282718     0.1307114     -0.0013741396  -0.0020440537   0.0047398664   28367.788    
WARNING: Communication cutoff is 0.0. No ghost atoms will be generated. Atoms may get lost. (src/comm_brick.cpp:210)
      9500   309.38603      0.0475        -1.269891e-05  -1.4007028e-05 -1.3783912e-05  0.13320125     681.25287      681.25287      681.25287      3.1617319e+08  1.6908869      0              0              921.29877      921.29877      0.1253285      0.13823862     0.13603664    -0.0014301226  -0.0021273292   0.0049329705   19766.436    
WARNING: Communication cutoff is 0.0. No ghost atoms will be generated. Atoms may get lost. (src/comm_brick.cpp:210)
      9600   312.64399      0.048         -1.2814276e-05 -1.4134278e-05 -1.3909135e-05  0.13441135     681.57805      681.57805      681.57805      3.1662616e+08  1.6884679      0              0              931.00041      931.00041      0.12646708     0.13949448     0.13727249    -0.0014431149  -0.0021466554   0.0049777851   19721.396    
      9700   294.47288      0.0485        -1.2052242e-05 -1.3293746e-05 -1.3081992e-05  0.12641823     681.90323      681.90323      681.90323      3.1707956e+08  1.6860535      0              0              876.88994      876.88994      0.11894638     0.13119907     0.12910922    -0.0013572963  -0.002018999    0.0046817682   28326.421    
WARNING: Communication cutoff is 0.0. No ghost atoms will be generated. Atoms may get lost. (src/comm_brick.cpp:210)
      9800   293.10875      0.049         -1.1979265e-05 -1.3213252e-05 -1.300278e-05   0.12565276     682.22841      682.22841      682.22841      3.1753339e+08  1.6836437      0              0              872.82781      872.82781      0.11822615     0.13040465     0.12832746    -0.0013490778  -0.0020067738   0.0046534198   19369.95     
      9900   301.6446       0.0495        -1.2310511e-05 -1.357862e-05  -1.3362328e-05  0.12912726     682.55359      682.55359      682.55359      3.1798766e+08  1.6812385      0              0              898.24612      898.24612      0.1214953      0.13401056     0.13187592    -0.001386382   -0.0020622644   0.0047820944   28128.2      
WARNING: Communication cutoff is 0.0. No ghost atoms will be generated. Atoms may get lost. (src/comm_brick.cpp:210)
     10000   305.30126      0.05          -1.2441953e-05 -1.3723601e-05 -1.3505e-05     0.13050598     682.87877      682.87877      682.87877      3.1844236e+08  1.6788379      0              0              909.13502      909.13502      0.12279253     0.13544141     0.13328399    -0.0014011847  -0.0020842836   0.0048331538   7800.3503    
     10100   295.57532      0.0505        -1.20284e-05   -1.3267448e-05 -1.3056112e-05  0.12616814     683.20395      683.20395      683.20395      3.188975e+08   1.6764418      0              0              880.17282      880.17282      0.11871107     0.13093953     0.12885381    -0.0013546112  -0.0020150049   0.0046725064   27921.356    
WARNING: Communication cutoff is 0.0. No ghost atoms will be generated. Atoms may get lost. (src/comm_brick.cpp:210)
     10200   277.47086      0.051         -1.1275533e-05 -1.2437028e-05 -1.2238921e-05  0.11827118     683.52913      683.52913      683.52913      3.1935307e+08  1.6740503      0              0              826.26083      826.26083      0.11128086     0.12274392     0.12078876    -0.0012698251  -0.0018888842   0.0043800507   19656.34     
     10300   291.70109      0.0515        -1.1836903e-05 -1.3056224e-05 -1.2848254e-05  0.12415949     683.85431      683.85431      683.85431      3.1980907e+08  1.6716634      0              0              868.63603      868.63603      0.11682115     0.12885492     0.12680241    -0.0013330453  -0.0019829252   0.0045981182   27947.676    
WARNING: Communication cutoff is 0.0. No ghost atoms will be generated. Atoms may get lost. (src/comm_brick.cpp:210)
     10400   302.16373      0.052         -1.224399e-05  -1.3505246e-05 -1.3290123e-05  0.1284295      684.17949      684.17949      684.17949      3.202655e+08   1.669281       0              0              899.79198      899.79198      0.12083878     0.13328641     0.13116332    -0.0013788905  -0.0020511207   0.0047562538   19833.254    
WARNING: Communication cutoff is 0.0. No ghost atoms will be generated. Atoms may get lost. (src/comm_brick.cpp:210)
     10500   304.58417      0.0525        -1.2324487e-05 -1.3594035e-05 -1.3377498e-05  0.12927386     684.50467      684.50467      684.50467      3.2072237e+08  1.6669031      0              0              906.99964      906.99964      0.12163323     0.1341627      0.13202564    -0.001387956   -0.0020646057   0.0047875235   19847.366    
     10600   297.24125      0.053         -1.2010244e-05 -1.3247422e-05 -1.3036406e-05  0.1259777      684.82986      684.82986      684.82986      3.2117968e+08  1.6645297      0              0              885.1337       885.1337       0.11853189     0.13074189     0.12865932    -0.0013525666  -0.0020119634   0.0046654537   28238.887    
WARNING: Communication cutoff is 0.0. No ghost atoms will be generated. Atoms may get lost. (src/comm_brick.cpp:210)
     10700   287.68501      0.0535        -1.1607574e-05 -1.2803273e-05 -1.2599332e-05  0.12175402     685.15504      685.15504      685.15504      3.2163741e+08  1.6621608      0              0              856.67684      856.67684      0.11455785     0.12635848     0.12434574    -0.0013072188  -0.001944508    0.0045090342   19835.878    
     10800   298.65878      0.054         -1.2033205e-05 -1.3272748e-05 -1.3061328e-05  0.12621854     685.48022      685.48022      685.48022      3.2209559e+08  1.6597964      0              0              889.35486      889.35486      0.1187585      0.13099184     0.12890529    -0.0013551524  -0.0020158099   0.0046743731   28265.643    
WARNING: Communication cutoff is 0.0. No ghost atoms will be generated. Atoms may get lost. (src/comm_brick.cpp:210)
     10900   312.33503      0.0545        -1.256634e-05  -1.3860801e-05 -1.3640015e-05  0.13181069     685.8054       685.8054       685.8054       3.2255419e+08  1.6574366      0              0              930.08038      930.08038      0.12402013     0.13679547     0.13461648    -0.0014151928  -0.0021051209   0.0048814726   19834.536    
     11000   302.24398      0.055         -1.214306e-05  -1.3393919e-05 -1.3180569e-05  0.12737083     686.13058      686.13058      686.13058      3.2301324e+08  1.6550811      0              0              900.03097      900.03097      0.11984268     0.1321877      0.13008211    -0.001367524   -0.0020342128   0.0047170469   8331.767     
WARNING: Communication cutoff is 0.0. No ghost atoms will be generated. Atoms may get lost. (src/comm_brick.cpp:210)
     11100   294.09191      0.0555        -1.1798756e-05 -1.3014148e-05 -1.2806848e-05  0.12375936     686.45576      686.45576      686.45576      3.2347272e+08  1.6527302      0              0              875.75548      875.75548      0.11644467     0.12843966     0.12639376    -0.0013287493  -0.0019765348   0.0045832999   19582.582    
     11200   297.58724      0.056         -1.1922035e-05 -1.3150127e-05 -1.294066e-05   0.12505246     686.78094      686.78094      686.78094      3.2393263e+08  1.6503836      0              0              886.16398      886.16398      0.11766134     0.12978166     0.12771439    -0.0013426327  -0.0019971866   0.0046311885   27912.525    
WARNING: Communication cutoff is 0.0. No ghost atoms will be generated. Atoms may get lost. (src/comm_brick.cpp:210)
     11300   304.1998       0.0565        -1.2169655e-05 -1.3423254e-05 -1.3209437e-05  0.1276498      687.10612      687.10612      687.10612      3.2439298e+08  1.6480416      0              0              905.85507      905.85507      0.12010516     0.13247722     0.13036701    -0.0013705191  -0.0020386681   0.0047273781   19835.76     
     11400   303.56673      0.057         -1.2127103e-05 -1.3376318e-05 -1.3163249e-05  0.12720345     687.4313       687.4313       687.4313       3.2485376e+08  1.6457039      0              0              903.96988      903.96988      0.1196852      0.132014       0.12991117    -0.001365727   -0.0020315397   0.0047108483   28266.386    
WARNING: Communication cutoff is 0.0. No ghost atoms will be generated. Atoms may get lost. (src/comm_brick.cpp:210)
     11500   286.92606      0.0575        -1.1446078e-05 -1.2625141e-05 -1.2424037e-05  0.12006006     687.75648      687.75648      687.75648      3.2531499e+08  1.6433707      0              0              854.4168       854.4168       0.11296401     0.12460046     0.12261572    -0.0012890315  -0.0019174541   0.0044463001   19819.826    
WARNING: Communication cutoff is 0.0. No ghost atoms will be generated. Atoms may get lost. (src/comm_brick.cpp:210)
     11600   291.37597      0.058         -1.1607123e-05 -1.2802775e-05 -1.2598842e-05  0.12174929     688.08166      688.08166      688.08166      3.2577664e+08  1.6410419      0              0              867.66787      867.66787      0.1145534      0.12635356     0.1243409     -0.001307168   -0.0019444323   0.0045088588   19699.678    
     11700   307.11707      0.0585        -1.2216849e-05 -1.347531e-05  -1.3260664e-05  0.12814482     688.40684      688.40684      688.40684      3.2623874e+08  1.6387174      0              0              914.54218      914.54218      0.12057093     0.13299097     0.13087257    -0.001375834   -0.0020465741   0.0047457109   28237.014    
WARNING: Communication cutoff is 0.0. No ghost atoms will be generated. Atoms may get lost. (src/comm_brick.cpp:210)
     11800   306.07173      0.059         -1.2158029e-05 -1.341043e-05  -1.3196818e-05  0.12752785     688.73202      688.73202      688.73202      3.2670127e+08  1.6363974      0              0              911.42933      911.42933      0.11999042     0.13235066     0.13024247    -0.0013692098  -0.0020367205   0.0047228618   19833.325    
     11900   293.33578      0.0595        -1.1635633e-05 -1.2834222e-05 -1.2629788e-05  0.12204833     689.0572       689.0572       689.0572       3.2716424e+08  1.6340818      0              0              873.50386      873.50386      0.11483477     0.12666392     0.12464631    -0.0013103787  -0.0019492083   0.0045199337   28282.415    
WARNING: Communication cutoff is 0.0. No ghost atoms will be generated. Atoms may get lost. (src/comm_brick.cpp:210)
     12000   291.49739      0.06          -1.1546356e-05 -1.2735748e-05 -1.2532882e-05  0.12111189     689.38238      689.38238      689.38238      3.2762764e+08  1.6317705      0              0              868.02945      868.02945      0.11395367     0.12569206     0.12368993    -0.0013003245  -0.0019342526   0.0044852534   7458.3824    
     12100   315.19384      0.0605        -1.2467333e-05 -1.3751595e-05 -1.3532548e-05  0.13077219     689.70756      689.70756      689.70756      3.2809149e+08  1.6294635      0              0              938.59342      938.59342      0.12304301     0.13571769     0.13355587    -0.0014040429  -0.0020885352   0.0048430127   27911.598    
WARNING: Communication cutoff is 0.0. No ghost atoms will be generated. Atoms may get lost. (src/comm_brick.cpp:210)
     12200   312.57693      0.061         -1.2346351e-05 -1.3618151e-05 -1.340123e-05   0.12950319     690.03274      690.03274      690.03274      3.2855577e+08  1.6271609      0              0              930.80071      930.80071      0.12184901     0.1344007      0.13225986    -0.0013904182  -0.0020682683   0.0047960166   19748.487    
     12300   298.45164      0.0615        -1.1771772e-05 -1.2984384e-05 -1.2777558e-05  0.12347632     690.35792      690.35792      690.35792      3.2902048e+08  1.6248627      0              0              888.73802      888.73802      0.11617835     0.12814591     0.12610469    -0.0013257103  -0.0019720144   0.0045728176   28134.254    
WARNING: Communication cutoff is 0.0. No ghost atoms will be generated. Atoms may get lost. (src/comm_brick.cpp:210)
     12400   294.01892      0.062         -1.158056e-05  -1.2773476e-05 -1.257001e-05   0.12147067     690.6831       690.6831       690.6831       3.2948564e+08  1.6225688      0              0              875.53813      875.53813      0.11429125     0.12606441     0.12405635    -0.0013041766  -0.0019399826   0.0044985405   19820.454    
WARNING: Communication cutoff is 0.0. No ghost atoms will be generated. Atoms may get lost. (src/comm_brick.cpp:210)
     12500   301.53458      0.0625        -1.1859822e-05 -1.3081505e-05 -1.2873131e-05  0.12439989     691.00828      691.00828      691.00828      3.2995123e+08  1.6202792      0              0              897.9185       897.9185       0.11704734     0.12910441     0.12704793    -0.0013356264  -0.0019867646   0.0046070213   19858.141    
     12600   314.17003      0.063         -1.2339365e-05 -1.3610446e-05 -1.3393647e-05  0.12942991     691.33346      691.33346      691.33346      3.3041727e+08  1.6179939      0              0              935.54471      935.54471      0.12178007     0.13432466     0.13218502    -0.0013896315  -0.002067098    0.0047933029   28260.035    
WARNING: Communication cutoff is 0.0. No ghost atoms will be generated. Atoms may get lost. (src/comm_brick.cpp:210)
     12700   302.92649      0.0635        -1.188099e-05  -1.3104853e-05 -1.2896108e-05  0.12462193     691.65864      691.65864      691.65864      3.3088374e+08  1.6157129      0              0              902.06337      902.06337      0.11725625     0.12933485     0.12727469    -0.0013380103  -0.0019903107   0.0046152442   19781.975    
     12800   288.17498      0.064         -1.1286499e-05 -1.2449123e-05 -1.2250823e-05  0.1183862      691.98382      691.98382      691.98382      3.3135065e+08  1.6134361      0              0              858.13588      858.13588      0.11138908     0.1228633      0.12090623    -0.00127106    -0.0018907212   0.0043843104   28325.659    
WARNING: Communication cutoff is 0.0. No ghost atoms will be generated. Atoms may get lost. (src/comm_brick.cpp:210)
     12900   297.93575      0.0645        -1.1652349e-05 -1.285266e-05  -1.2647932e-05  0.12222367     692.309        692.309        692.309        3.31818e+08    1.6111637      0              0              887.2018       887.2018       0.11499974     0.12684589     0.12482538    -0.0013122612  -0.0019520086   0.0045264272   6159.936     
     13000   307.57423      0.065         -1.2012378e-05 -1.3249775e-05 -1.3038722e-05  0.12600008     692.63418      692.63418      692.63418      3.3228579e+08  1.6088955      0              0              915.90354      915.90354      0.11855295     0.13076511     0.12868218    -0.0013528069  -0.0020123209   0.0046662826   2833.7891    
WARNING: Communication cutoff is 0.0. No ghost atoms will be generated. Atoms may get lost. (src/comm_brick.cpp:210)
     13100   302.29362      0.0655        -1.178953e-05  -1.3003972e-05 -1.2796833e-05  0.12366259     692.95936      692.95936      692.95936      3.3275401e+08  1.6066316      0              0              900.17879      900.17879      0.11635361     0.12833922     0.12629493    -0.0013277102  -0.0019749892   0.0045797159   3001.0255    
     13200   288.14086      0.066         -1.1221763e-05 -1.2377719e-05 -1.2180556e-05  0.11770717     693.28454      693.28454      693.28454      3.3322268e+08  1.6043719      0              0              858.03428      858.03428      0.11075019     0.12215859     0.12021274    -0.0012637696  -0.0018798766   0.0043591634   28255.859    
WARNING: Communication cutoff is 0.0. No ghost atoms will be generated. Atoms may get lost. (src/comm_brick.cpp:210)
     13300   284.69562      0.0665        -1.1071999e-05 -1.2212528e-05 -1.2017997e-05  0.11613628     693.60973      693.60973      693.60973      3.3369179e+08  1.6021165      0              0              847.77493      847.77493      0.10927214     0.12052828     0.11860841    -0.0012469036  -0.0018547881   0.0043009868   19815.569    
WARNING: Communication cutoff is 0.0. No ghost atoms will be generated. Atoms may get lost. (src/comm_brick.cpp:210)
     13400   307.98865      0.067         -1.196105e-05  -1.319316e-05  -1.2983008e-05  0.12546169     693.93491      693.93491      693.93491      3.3416134e+08  1.5998653      0              0              917.1376       917.1376       0.11804638     0.13020637     0.12813233    -0.0013470264  -0.0020037224   0.004646344    19844.656    
     13500   308.57038      0.0675        -1.1966811e-05 -1.3199515e-05 -1.2989262e-05  0.12552212     694.26009      694.26009      694.26009      3.3463132e+08  1.5976182      0              0              918.8699       918.8699       0.11810324     0.13026908     0.12819405    -0.0013476753  -0.0020046875   0.004648582    28267.217    
WARNING: Communication cutoff is 0.0. No ghost atoms will be generated. Atoms may get lost. (src/comm_brick.cpp:210)
     13600   294.55297      0.068         -1.1407159e-05 -1.2582213e-05 -1.2381793e-05  0.11965183     694.58527      694.58527      694.58527      3.3510175e+08  1.5953755      0              0              877.12844      877.12844      0.11257991     0.12417679     0.1221988     -0.0012846485  -0.0019109343   0.0044311817   19463.159    
     13700   292.02944      0.0685        -1.1293561e-05 -1.2456913e-05 -1.2258489e-05  0.11846028     694.91045      694.91045      694.91045      3.3557262e+08  1.5931369      0              0              869.61381      869.61381      0.11145878     0.12294018     0.12098188    -0.0012718554  -0.0018919043   0.0043870539   28158.623    
WARNING: Communication cutoff is 0.0. No ghost atoms will be generated. Atoms may get lost. (src/comm_brick.cpp:210)
     13800   305.75778      0.069         -1.1807889e-05 -1.3024222e-05 -1.2816761e-05  0.12385516     695.23563      695.23563      695.23563      3.3604393e+08  1.5909024      0              0              910.49447      910.49447      0.1165348      0.12853908     0.1264916     -0.0013297778  -0.0019780648   0.0045868477   19694.957    
     13900   311.7111       0.0695        -1.2020921e-05 -1.3259199e-05 -1.3047995e-05  0.1260897      695.56081      695.56081      695.56081      3.3651568e+08  1.5886722      0              0              928.22242      928.22242      0.11863727     0.13085812     0.1287737     -0.001353769   -0.0020137521   0.0046696014   28267.936    
WARNING: Communication cutoff is 0.0. No ghost atoms will be generated. Atoms may get lost. (src/comm_brick.cpp:210)
     14000   293.78614      0.07          -1.1313783e-05 -1.2479218e-05 -1.2280438e-05  0.11867239     695.88599      695.88599      695.88599      3.3698787e+08  1.5864461      0              0              874.84496      874.84496      0.11165835     0.1231603      0.1211985     -0.0012741327  -0.0018952918   0.004394909    4621.9365    
     14100   289.00604      0.0705        -1.1114112e-05 -1.2258979e-05 -1.2063707e-05  0.116578       696.21117      696.21117      696.21117      3.3746051e+08  1.5842242      0              0              860.61064      860.61064      0.10968775     0.12098671     0.11905954    -0.0012516462  -0.0018618428   0.0043173456   27835.668    
WARNING: Communication cutoff is 0.0. No ghost atoms will be generated. Atoms may get lost. (src/comm_brick.cpp:210)
     14200   299.34655      0.071         -1.1495654e-05 -1.2679824e-05 -1.2477849e-05  0.12058007     696.53635      696.53635      696.53635      3.3793358e+08  1.5820065      0              0              891.40292      891.40292      0.11345329     0.12514014     0.1231468     -0.0012946147  -0.0019257591   0.0044655583   19650.535    
WARNING: Communication cutoff is 0.0. No ghost atoms will be generated. Atoms may get lost. (src/comm_brick.cpp:210)
     14300   308.09939      0.0715        -1.1815229e-05 -1.3032319e-05 -1.2824729e-05  0.12393216     696.86153      696.86153      696.86153      3.384071e+08   1.5797928      0              0              917.46736      917.46736      0.11660725     0.12861899     0.12657023    -0.0013306045  -0.0019792945   0.0045896991   19788.567    
     14400   301.87685      0.072         -1.1560412e-05 -1.2751252e-05 -1.254814e-05   0.12125933     697.18671      697.18671      697.18671      3.3888106e+08  1.5775833      0              0              898.93772      898.93772      0.1140924      0.12584508     0.12384051    -0.0013019075  -0.0019366073   0.0044907137   28224.238    
WARNING: Communication cutoff is 0.0. No ghost atoms will be generated. Atoms may get lost. (src/comm_brick.cpp:210)
     14500   289.37868      0.0725        -1.1066301e-05 -1.2206243e-05 -1.2011812e-05  0.11607651     697.51189      697.51189      697.51189      3.3935546e+08  1.5753779      0              0              861.72031      861.72031      0.1092159      0.12046626     0.11854737    -0.0012462619  -0.0018538336   0.0042987733   19684.098    
     14600   295.5634       0.073         -1.1287021e-05 -1.24497e-05   -1.225139e-05   0.11839168     697.83707      697.83707      697.83707      3.3983031e+08  1.5731767      0              0              880.13733      880.13733      0.11139424     0.12286898     0.12091182    -0.0012711189  -0.0018908087   0.0043845134   28213.432    
WARNING: Communication cutoff is 0.0. No ghost atoms will be generated. Atoms may get lost. (src/comm_brick.cpp:210)
     14700   314.50767      0.0735        -1.1993693e-05 -1.3229166e-05 -1.3018441e-05  0.1258041      698.16225      698.16225      698.16225      3.4030559e+08  1.5709795      0              0              936.55013      936.55013      0.11836855     0.13056172     0.12848202    -0.0013507027  -0.0020091909   0.0046590246   19795.054    
     14800   306.87964      0.074         -1.1686463e-05 -1.2890288e-05 -1.2684961e-05  0.1225815      698.48743      698.48743      698.48743      3.4078132e+08  1.5687864      0              0              913.83518      913.83518      0.11533642     0.12721725     0.12519083    -0.0013161031  -0.0019577235   0.004539679    27259.328    
WARNING: Communication cutoff is 0.0. No ghost atoms will be generated. Atoms may get lost. (src/comm_brick.cpp:210)
     14900   296.49009      0.0745        -1.1275058e-05 -1.2436504e-05 -1.2238405e-05  0.11826619     698.81261      698.81261      698.81261      3.412575e+08   1.5665974      0              0              882.89686      882.89686      0.11127617     0.12273875     0.12078366    -0.0012697716  -0.0018888046   0.0043798661   19709.296    
     15000   294.99333      0.075         -1.1202492e-05 -1.2356464e-05 -1.2159639e-05  0.11750504     699.13779      699.13779      699.13779      3.4173411e+08  1.5644125      0              0              878.43977      878.43977      0.11056        0.12194881     0.12000631    -0.0012615994  -0.0018766484   0.0043516776   7995.6261    
WARNING: Communication cutoff is 0.0. No ghost atoms will be generated. Atoms may get lost. (src/comm_brick.cpp:210)
     15100   306.11857      0.0755        -1.1608772e-05 -1.2804594e-05 -1.2600632e-05  0.12176659     699.46297      699.46297      699.46297      3.4221117e+08  1.5622316      0              0              911.56884      911.56884      0.11456967     0.12637152     0.12435857    -0.0013073537  -0.0019447086   0.0045094995   19548.397    
     15200   317.93001      0.076         -1.2039891e-05 -1.3280123e-05 -1.3068586e-05  0.12628867     699.78815      699.78815      699.78815      3.4268868e+08  1.5600548      0              0              946.74127      946.74127      0.11882449     0.13106462     0.12897691    -0.0013559054  -0.0020169299   0.0046769703   28168.998    
WARNING: Communication cutoff is 0.0. No ghost atoms will be generated. Atoms may get lost. (src/comm_brick.cpp:210)
     15300   295.96742      0.0765        -1.1192566e-05 -1.2345514e-05 -1.2148865e-05  0.11740092     700.11333      700.11333      700.11333      3.4316663e+08  1.557882       0              0              881.34044      881.34044      0.11046204     0.12184075     0.11989997    -0.0012604815  -0.0018749855   0.0043478216   19783.994    
WARNING: Communication cutoff is 0.0. No ghost atoms will be generated. Atoms may get lost. (src/comm_brick.cpp:210)
     15400   291.63513      0.077         -1.1013379e-05 -1.2147869e-05 -1.1954368e-05  0.1155214      700.43851      700.43851      700.43851      3.4364502e+08  1.5557133      0              0              868.43961      868.43961      0.1086936      0.11989015     0.11798044    -0.0012403019  -0.001844968    0.0042782153   19685.237    
     15500   302.28098      0.0775        -1.1399527e-05 -1.2573795e-05 -1.2373509e-05  0.11957178     700.76369      700.76369      700.76369      3.4412385e+08  1.5535485      0              0              900.14115      900.14115      0.11250459     0.12409371     0.12211704    -0.001283789   -0.0019096558   0.0044282171   28121.2      
WARNING: Communication cutoff is 0.0. No ghost atoms will be generated. Atoms may get lost. (src/comm_brick.cpp:210)
     15600   308.19804      0.078         -1.1606505e-05 -1.2802093e-05 -1.2598171e-05  0.1217428      701.08887      701.08887      701.08887      3.4460314e+08  1.5513878      0              0              917.76115      917.76115      0.11454729     0.12634684     0.12433428    -0.0013070984  -0.0019443288   0.0045086187   19704.472    
     15700   296.79655      0.0785        -1.1161595e-05 -1.2311353e-05 -1.2115247e-05  0.11707606     701.41405      701.41405      701.41405      3.4508286e+08  1.5492311      0              0              883.80944      883.80944      0.11015638     0.12150361     0.1195682     -0.0012569936  -0.0018697972   0.0043357907   28255.236    
WARNING: Communication cutoff is 0.0. No ghost atoms will be generated. Atoms may get lost. (src/comm_brick.cpp:210)
     15800   284.49929      0.079         -1.0684266e-05 -1.1784855e-05 -1.1597136e-05  0.11206927     701.73923      701.73923      701.73923      3.4556303e+08  1.5470784      0              0              847.1903       847.1903       0.10544551     0.11630747     0.11445483    -0.001203238   -0.0017898348   0.0041503695   19625.521    
     15900   296.91523      0.0795        -1.1135055e-05 -1.228208e-05  -1.2086441e-05  0.11679768     702.06441      702.06441      702.06441      3.4604365e+08  1.5449297      0              0              884.16285      884.16285      0.10989445     0.1212147      0.11928389    -0.0012540048  -0.0018653513   0.0043254813   28280.639    
WARNING: Communication cutoff is 0.0. No ghost atoms will be generated. Atoms may get lost. (src/comm_brick.cpp:210)
     16000   302.44633      0.08          -1.1326739e-05 -1.2493509e-05 -1.2294502e-05  0.11880829     702.3896       702.3896       702.3896       3.4652471e+08  1.542785       0              0              900.63351      900.63351      0.11178622     0.12330135     0.1213373     -0.0012755918  -0.0018974623   0.0043999421   7684.0556    
     16100   300.45296      0.0805        -1.1236473e-05 -1.2393945e-05 -1.2196524e-05  0.11786148     702.71478      702.71478      702.71478      3.4700622e+08  1.5406442      0              0              894.69761      894.69761      0.11089537     0.12231873     0.12037033    -0.0012654263  -0.0018823409   0.0043648778   27899.194    
WARNING: Communication cutoff is 0.0. No ghost atoms will be generated. Atoms may get lost. (src/comm_brick.cpp:210)
     16200   296.74273      0.081         -1.1082324e-05 -1.2223917e-05 -1.2029204e-05  0.11624458     703.03996      703.03996      703.03996      3.4748817e+08  1.5385074      0              0              883.64918      883.64918      0.10937404     0.12064068     0.11871902    -0.0012480664  -0.0018565178   0.0043049976   19647.153    
WARNING: Communication cutoff is 0.0. No ghost atoms will be generated. Atoms may get lost. (src/comm_brick.cpp:210)
     16300   297.42395      0.0815        -1.1092367e-05 -1.2234994e-05 -1.2040104e-05  0.11634991     703.36514      703.36514      703.36514      3.4797057e+08  1.5363745      0              0              885.67772      885.67772      0.10947315     0.12075        0.11882659    -0.0012491973  -0.0018582      0.0043088986   19744.643    
     16400   307.58211      0.082         -1.1455318e-05 -1.2635333e-05 -1.2434066e-05  0.12015698     703.69032      703.69032      703.69032      3.4845341e+08  1.5342456      0              0              915.927        915.927        0.1130552      0.12470104     0.12271469    -0.001290072   -0.0019190019   0.0044498892   28253.304    
WARNING: Communication cutoff is 0.0. No ghost atoms will be generated. Atoms may get lost. (src/comm_brick.cpp:210)
     16500   310.34965      0.0825        -1.1542381e-05 -1.2731364e-05 -1.2528568e-05  0.1210702      704.0155       704.0155       704.0155       3.4893671e+08  1.5321206      0              0              924.16827      924.16827      0.11391444     0.12564879     0.12364735    -0.0012998769  -0.0019335867   0.0044837094   19811.215    
     16600   292.13284      0.083         -1.0849828e-05 -1.1967471e-05 -1.1776843e-05  0.11380588     704.34068      704.34068      704.34068      3.4942044e+08  1.5299995      0              0              869.92171      869.92171      0.10707948     0.11810976     0.11622841    -0.0012218832  -0.0018175699   0.004214683    28209.843    
WARNING: Communication cutoff is 0.0. No ghost atoms will be generated. Atoms may get lost. (src/comm_brick.cpp:210)
     16700   290.74777      0.0835        -1.0783444e-05 -1.1894249e-05 -1.1704788e-05  0.11310957     704.66586      704.66586      704.66586      3.4990463e+08  1.5278824      0              0              865.79722      865.79722      0.10642432     0.11738711     0.11551727    -0.0012144072  -0.0018064492   0.0041888958   19727.987    
     16800   300.97144      0.084         -1.1147187e-05 -1.2295461e-05 -1.2099609e-05  0.11692494     704.99104      704.99104      704.99104      3.5038926e+08  1.5257691      0              0              896.24155      896.24155      0.11001418     0.12134677     0.11941385    -0.0012553711  -0.0018673836   0.004330194    28230.158    
WARNING: Communication cutoff is 0.0. No ghost atoms will be generated. Atoms may get lost. (src/comm_brick.cpp:210)
     16900   303.64068      0.0845        -1.1230501e-05 -1.2387357e-05 -1.2190041e-05  0.11779883     705.31622      705.31622      705.31622      3.5087434e+08  1.5236597      0              0              904.19009      904.19009      0.11083643     0.12225371     0.12030635    -0.0012647537  -0.0018813404   0.0043625578   19868.613    
     17000   300.35022      0.085         -1.1093449e-05 -1.2236188e-05 -1.2041279e-05  0.11636127     705.6414       705.6414       705.6414       3.5135987e+08  1.5215543      0              0              894.39167      894.39167      0.10948383     0.12076178     0.11883819    -0.0012493192  -0.0018583814   0.0043093191   8178.6746    
WARNING: Communication cutoff is 0.0. No ghost atoms will be generated. Atoms may get lost. (src/comm_brick.cpp:210)
     17100   297.75268      0.0855        -1.0982319e-05 -1.211361e-05  -1.1920654e-05  0.1151956      705.96658      705.96658      705.96658      3.5184584e+08  1.5194527      0              0              886.65664      886.65664      0.10838706     0.11955203     0.11764771    -0.001236804   -0.0018397648   0.0042661499   19568.53     
WARNING: Communication cutoff is 0.0. No ghost atoms will be generated. Atoms may get lost. (src/comm_brick.cpp:210)
     17200   300.34247      0.086         -1.1062547e-05 -1.2202102e-05 -1.2007737e-05  0.11603713     706.29176      706.29176      706.29176      3.5233227e+08  1.517355       0              0              894.36859      894.36859      0.10917885     0.12042539     0.11850715    -0.0012458391  -0.0018532047   0.004297315    19748.698    
     17300   315.37983      0.0865        -1.1600389e-05 -1.2795348e-05 -1.2591533e-05  0.12167866     706.61694      706.61694      706.61694      3.5281914e+08  1.5152611      0              0              939.14727      939.14727      0.11448694     0.12628027     0.12426877    -0.0013064097  -0.0019433044   0.0045062432   26321.629    
WARNING: Too many warnings: 101 vs 100. All future warnings will be suppressed (src/thermo.cpp:465)
     17400   306.89801      0.087         -1.1272839e-05 -1.2434056e-05 -1.2235996e-05  0.11824292     706.94212      706.94212      706.94212      3.5330646e+08  1.5131711      0              0              913.88987      913.88987      0.11125427     0.12271459     0.12075989    -0.0012695217  -0.0018884329   0.0043790041   19446.389    
     17500   292.45929      0.0875        -1.0727672e-05 -1.1832732e-05 -1.164425e-05   0.11252456     707.2673       707.2673       707.2673       3.5379422e+08  1.5110849      0              0              870.89382      870.89382      0.10587389     0.11677998     0.11491981    -0.0012081262  -0.0017971062   0.0041672306   28155.206    
     17600   295.54796      0.088         -1.0826028e-05 -1.1941219e-05 -1.1751009e-05  0.11355623     707.59248      707.59248      707.59248      3.5428244e+08  1.5090026      0              0              880.09135      880.09135      0.10684459     0.11785067     0.11597344    -0.0012192028  -0.0018135828   0.0042054375   19841.313    
     17700   307.46845      0.0885        -1.1247166e-05 -1.2405739e-05 -1.220813e-05   0.11797363     707.91766      707.91766      707.91766      3.5477111e+08  1.506924       0              0              915.58854      915.58854      0.1110009      0.12243513     0.12048488    -0.0012666305  -0.0018841322   0.0043690314   27998.625    
     17800   307.1852       0.089         -1.1221334e-05 -1.2377246e-05 -1.2180091e-05  0.11770268     708.24284      708.24284      708.24284      3.5526022e+08  1.5048493      0              0              914.74507      914.74507      0.11074596     0.12215392     0.12020815    -0.0012637213  -0.0018798048   0.0043589969   19829.077    
     17900   283.7846       0.0895        -1.0352255e-05 -1.1418643e-05 -1.1236757e-05  0.10858674     708.56802      708.56802      708.56802      3.5574978e+08  1.5027785      0              0              845.06207      845.06207      0.10216881     0.11269325     0.11089817    -0.0011658476  -0.0017342161   0.0040213977   28308.651    
     18000   290.18017      0.09          -1.0571e-05    -1.1659921e-05 -1.1474192e-05  0.1108812      708.8932       708.8932       708.8932       3.562398e+08   1.5007114      0              0              864.10699      864.10699      0.10432766     0.11507448     0.11324147    -0.0011904822  -0.0017708605   0.0041063707   5913.8984    
     18100   303.3825       0.0905        -1.1036754e-05 -1.2173653e-05 -1.197974e-05   0.11576658     709.21838      709.21838      709.21838      3.5673026e+08  1.4986481      0              0              903.42128      903.42128      0.1089243      0.12014461     0.11823085    -0.0012429344  -0.0018488838   0.0042872956   27849.669    
     18200   304.91805      0.091         -1.1077372e-05 -1.2218454e-05 -1.2023829e-05  0.11619263     709.54356      709.54356      709.54356      3.5722117e+08  1.4965885      0              0              907.99389      907.99389      0.10932516     0.12058677     0.11866596    -0.0012475086  -0.0018556881   0.0043030738   19715.031    
     18300   296.069        0.0915        -1.074112e-05  -1.1847565e-05 -1.1658847e-05  0.11266562     709.86874      709.86874      709.86874      3.5771254e+08  1.4945328      0              0              881.64294      881.64294      0.10600661     0.11692638     0.11506388    -0.0012096407  -0.001799359    0.0041724547   18377.208    
     18400   285.47651      0.092         -1.0342614e-05 -1.1408009e-05 -1.1226292e-05  0.10848562     710.19392      710.19392      710.19392      3.5820435e+08  1.4924808      0              0              850.10029      850.10029      0.10207366     0.11258829     0.11079489    -0.0011647618  -0.001732601    0.0040176525   27318.277    
     18500   295.83615      0.0925        -1.0703228e-05 -1.1805769e-05 -1.1617717e-05  0.11226816     710.5191       710.5191       710.5191       3.5869662e+08  1.4904326      0              0              880.94954      880.94954      0.10563264     0.11651388     0.11465795    -0.0012053733  -0.0017930113   0.0041577351   19749.646    
     18600   310.95467      0.093         -1.1234777e-05 -1.2392074e-05 -1.2194682e-05  0.11784368     710.84428      710.84428      710.84428      3.5918933e+08  1.4883881      0              0              925.96992      925.96992      0.11087863     0.12230026     0.12035216    -0.0012652352  -0.0018820567   0.0043642188   28335.242    
[...]
    994700   302.59633      4.9735        -6.6973795e-08 -7.387278e-08  -7.2696072e-08  0.00070250069  3884.9299      3884.9299      3884.9299      5.8634003e+10  0.0091178      0              0              901.0802       901.0802       0.00066097997  0.00072906765  0.00071745445 -7.5424376e-06 -1.1219491e-05  2.6016386e-05  28277.784    
    994800   302.04532      4.974         -6.6835055e-08 -7.3719748e-08 -7.2545478e-08  0.00070104542  3885.255       3885.255       3885.255       5.8648728e+10  0.0091155108   0              0              899.43938      899.43938      0.00065961071  0.00072755734  0.0007159682  -7.526813e-06  -1.1196249e-05  2.5962491e-05  19807.593    
    994900   295.12069      4.9745        -6.5286413e-08 -7.2011581e-08 -7.0864519e-08  0.00068480142  3885.5802      3885.5802      3885.5802      5.8663455e+10  0.0091132224   0              0              878.81901      878.81901      0.0006443268   0.00071069904  0.00069937843 -7.3524085e-06 -1.093682e-05   2.5360912e-05  28201.418    
    995000   283.80171      4.975         -6.2766676e-08 -6.9232284e-08 -6.8129494e-08  0.00065837143  3885.9054      3885.9054      3885.9054      5.8678185e+10  0.0091109347   0              0              845.11302      845.11302      0.00061945893  0.00068326952  0.00067238583 -7.0686414e-06 -1.0514712e-05  2.4382104e-05  4822.9444    
    995100   295.53976      4.9755        -6.5346303e-08 -7.207764e-08  -7.0929526e-08  0.00068542962  3886.2306      3886.2306      3886.2306      5.8692917e+10  0.0091086478   0              0              880.06695      880.06695      0.00064491787  0.000711351    0.00070002    -7.3591532e-06 -1.0946853e-05  2.5384177e-05  27807.47     
    995200   308.52478      4.976         -6.8200276e-08 -7.5225601e-08 -7.4027345e-08  0.00071536548  3886.5558      3886.5558      3886.5558      5.8707652e+10  0.0091063617   0              0              918.7341       918.7341       0.0006730844   0.00074241896  0.00073059309 -7.6805612e-06 -1.1424952e-05  2.649282e-05   19731.509    
    995300   302.22631      4.9765        -6.6791217e-08 -7.3671394e-08 -7.2497894e-08  0.00070058559  3886.8809      3886.8809      3886.8809      5.8722389e+10  0.0091040764   0              0              899.97835      899.97835      0.00065917806  0.00072708013  0.00071549858 -7.5218761e-06 -1.1188906e-05  2.5945462e-05  28149.04     
    995400   292.63134      4.977         -6.4654526e-08 -7.1314602e-08 -7.0178643e-08  0.00067817344  3887.2061      3887.2061      3887.2061      5.8737128e+10  0.0091017918   0              0              871.40618      871.40618      0.00063809056  0.0007038204   0.00069260936 -7.2812468e-06 -1.0830966e-05  2.5115451e-05  19753.133    
    995500   296.55419      4.9775        -6.5504805e-08 -7.2252469e-08 -7.1101571e-08  0.00068709218  3887.5313      3887.5313      3887.5313      5.875187e+10   0.009099508    0              0              883.08773      883.08773      0.00064648216  0.00071307643  0.00070171795 -7.3770033e-06 -1.0973405e-05  2.5445748e-05  19815.851    
    995600   318.52141      4.978         -7.0339416e-08 -7.7585094e-08 -7.6349253e-08  0.00073780332  3887.8565      3887.8565      3887.8565      5.8766615e+10  0.0090972249   0              0              948.50238      948.50238      0.00069419606  0.00076570534  0.00075350854 -7.9214663e-06 -1.1783302e-05  2.7323782e-05  28231.983    
    995700   308.98888      4.9785        -6.8217217e-08 -7.5244287e-08 -7.4045733e-08  0.00071554317  3888.1817      3888.1817      3888.1817      5.8781362e+10  0.0090949426   0              0              920.11611      920.11611      0.00067325159  0.00074260337  0.00073077456 -7.682469e-06  -1.142779e-05   2.6499401e-05  19798.201    
    995800   297.82433      4.979         -6.5735862e-08 -7.2507327e-08 -7.1352369e-08  0.00068951578  3888.5068      3888.5068      3888.5068      5.8796111e+10  0.0090926611   0              0              886.86999      886.86999      0.00064876252  0.00071559168  0.00070419313 -7.4030244e-06 -1.1012112e-05  2.5535503e-05  28207.05     
    995900   296.17775      4.9795        -6.535603e-08  -7.2088369e-08 -7.0940085e-08  0.00068553165  3888.832       3888.832       3888.832       5.8810863e+10  0.0090903803   0              0              881.96675      881.96675      0.00064501387  0.00071145689  0.0007001242  -7.3602486e-06 -1.0948482e-05  2.5387955e-05  19422.907    
    996000   302.90464      4.98          -6.6823655e-08 -7.3707174e-08 -7.2533104e-08  0.00070092584  3889.1572      3889.1572      3889.1572      5.8825617e+10  0.0090881003   0              0              901.99829      901.99829      0.0006594982   0.00072743325  0.00071584608 -7.5255292e-06 -1.119434e-05   2.5958063e-05  7524.4681    
    996100   314.43299      4.9805        -6.9349522e-08 -7.6493231e-08 -7.5274783e-08  0.00072742014  3889.4824      3889.4824      3889.4824      5.8840374e+10  0.0090858211   0              0              936.32775      936.32775      0.00068442657  0.0007549295   0.00074290434 -7.8099867e-06 -1.1617474e-05  2.6939252e-05  19630.611    
    996200   305.13265      4.981         -6.7281417e-08 -7.421209e-08  -7.3029978e-08  0.0007057274   3889.8076      3889.8076      3889.8076      5.8855134e+10  0.0090835426   0              0              908.63294      908.63294      0.00066401596  0.00073241639  0.00072074984 -7.5770814e-06 -1.1271024e-05  2.6135884e-05  27920.1      
    996300   289.81105      4.9815        -6.3886998e-08 -7.0468011e-08 -6.9345537e-08  0.00067012269  3890.1327      3890.1327      3890.1327      5.8869895e+10  0.0090812649   0              0              863.00783      863.00783      0.00063051564  0.00069546519  0.00068438724 -7.1948095e-06 -1.0702389e-05  2.48173e-05    19667.722    
    996400   296.70771      4.982         -6.5390921e-08 -7.2126854e-08 -7.0977957e-08  0.00068589763  3890.4579      3890.4579      3890.4579      5.8884659e+10  0.0090789879   0              0              883.54489      883.54489      0.00064535822  0.0007118367   0.00070049797 -7.364178e-06  -1.0954327e-05  2.5401509e-05  19720.214    
    996500   307.19085      4.9825        -6.7684309e-08 -7.4656484e-08 -7.3467293e-08  0.00070995341  3890.7831      3890.7831      3890.7831      5.8899426e+10  0.0090767117   0              0              914.76188      914.76188      0.0006679922   0.00073680222  0.00072506581 -7.6224542e-06 -1.1338517e-05  2.629239e-05   28246.633    
    996600   303.67337      4.983         -6.689252e-08  -7.3783133e-08 -7.2607853e-08  0.00070164818  3891.1083      3891.1083      3891.1083      5.8914195e+10  0.0090744363   0              0              904.28745      904.28745      0.00066017785  0.00072818291  0.0007165838  -7.5332847e-06 -1.1205876e-05  2.5984814e-05  19821.979    
    996700   286.26207      4.9835        -6.304139e-08  -6.9535297e-08 -6.842768e-08   0.00066125295  3891.4335      3891.4335      3891.4335      5.8928967e+10  0.0090721616   0              0              852.43957      852.43957      0.00062217014  0.00068626002  0.0006753287  -7.0995791e-06 -1.0560732e-05  2.4488819e-05  28110.054    
    996800   280.51657      4.984         -6.1760616e-08 -6.812259e-08  -6.7037476e-08  0.00064781868  3891.7586      3891.7586      3891.7586      5.8943741e+10  0.0090698877   0              0              835.33044      835.33044      0.00060952989  0.00067231769  0.00066160845 -6.9553412e-06 -1.0346176e-05  2.3991294e-05  19826.349    
    996900   307.39276      4.9845        -6.7660916e-08 -7.4630682e-08 -7.3441901e-08  0.00070970803  3892.0838      3892.0838      3892.0838      5.8958518e+10  0.0090676145   0              0              915.36315      915.36315      0.00066776133  0.00073654756  0.00072481521 -7.6198197e-06 -1.1334598e-05  2.6283302e-05  28158.425    
    997000   305.54616      4.985         -6.7237603e-08 -7.4163763e-08 -7.298242e-08   0.00070526782  3892.409       3892.409       3892.409       5.8973297e+10  0.0090653421   0              0              909.8643       909.8643       0.00066358355  0.00073193943  0.00072028048 -7.5721471e-06 -1.1263684e-05  2.6118864e-05  6795.3899    
    997100   293.87984      4.9855        -6.4654142e-08 -7.1314178e-08 -7.0178226e-08  0.00067816941  3892.7342      3892.7342      3892.7342      5.8988078e+10  0.0090630705   0              0              875.12399      875.12399      0.00063808677  0.00070381622  0.00069260524 -7.2812035e-06 -1.0830901e-05  2.5115302e-05  27939.891    
    997200   292.69121      4.986         -6.4376505e-08 -7.1007943e-08 -6.9876869e-08  0.00067525723  3893.0594      3893.0594      3893.0594      5.9002862e+10  0.0090607996   0              0              871.58445      871.58445      0.00063534671  0.00070079391  0.00068963107 -7.2499368e-06 -1.0784392e-05  2.5007453e-05  19702.947    
    997300   306.52641      4.9865        -6.7402622e-08 -7.434578e-08  -7.3161538e-08  0.00070699873  3893.3845      3893.3845      3893.3845      5.9017649e+10  0.0090585295   0              0              912.7833       912.7833       0.00066521216  0.0007337358   0.00072204824 -7.5907311e-06 -1.1291329e-05  2.6182966e-05  19792.629    
    997400   310.04627      4.987         -6.8159531e-08 -7.5180659e-08 -7.3983118e-08  0.0007149381   3893.7097      3893.7097      3893.7097      5.9032438e+10  0.0090562601   0              0              923.26486      923.26486      0.00067268227  0.00074197542  0.00073015661 -7.6759726e-06 -1.1418126e-05  2.6476993e-05  28067.78     
    997500   292.62639      4.9875        -6.4313887e-08 -7.0938874e-08 -6.98089e-08    0.00067460042  3894.0349      3894.0349      3894.0349      5.9047229e+10  0.0090539915   0              0              871.39141      871.39141      0.00063472872  0.00070011226  0.00068896028 -7.2428848e-06 -1.0773902e-05  2.4983128e-05  19770.95     
    997600   289.25222      4.988         -6.3556385e-08 -7.0103341e-08 -6.8986676e-08  0.00066665483  3894.3601      3894.3601      3894.3601      5.9062023e+10  0.0090517237   0              0              861.34373      861.34373      0.00062725275  0.00069186619  0.00068084556 -7.1575766e-06 -1.0647005e-05  2.4688872e-05  28272.971    
    997700   297.73043      4.9885        -6.5402887e-08 -7.2140052e-08 -7.0990944e-08  0.00068602314  3894.6853      3894.6853      3894.6853      5.9076819e+10  0.0090494566   0              0              886.59038      886.59038      0.00064547631  0.00071196696  0.00070062615 -7.3655255e-06 -1.0956332e-05  2.5406157e-05  19492.775    
    997800   305.57395      4.989         -6.7109074e-08 -7.4021994e-08 -7.2842909e-08  0.00070391965  3895.0104      3895.0104      3895.0104      5.9091618e+10  0.0090471903   0              0              909.94705      909.94705      0.00066231506  0.00073054028  0.00071890362 -7.5576724e-06 -1.1242153e-05  2.6068936e-05  28305.502    
    997900   303.17033      4.9895        -6.6564527e-08 -7.3421353e-08 -7.2251836e-08  0.0006982078   3895.3356      3895.3356      3895.3356      5.9106419e+10  0.0090449247   0              0              902.78949      902.78949      0.0006569408   0.00072461241  0.00071307018 -7.4963468e-06 -1.115093e-05   2.5857403e-05  19491.859    
    998000   288.2143       4.99          -6.3264912e-08 -6.9781844e-08 -6.86703e-08    0.00066359752  3895.6608      3895.6608      3895.6608      5.9121223e+10  0.0090426599   0              0              858.25297      858.25297      0.00062437614  0.00068869326  0.00067772317 -7.1247517e-06 -1.0598177e-05  2.4575647e-05  7872.1041    
    998100   288.14848      4.9905        -6.3234628e-08 -6.974844e-08  -6.8637428e-08  0.00066327986  3895.986       3895.986       3895.986       5.9136029e+10  0.0090403958   0              0              858.05696      858.05696      0.00062407725  0.00068836358  0.00067739875 -7.1213411e-06 -1.0593104e-05  2.4563883e-05  19648.361    
    998200   309.59795      4.991         -6.7924738e-08 -7.492168e-08  -7.3728264e-08  0.00071247531  3896.3112      3896.3112      3896.3112      5.9150838e+10  0.0090381325   0              0              921.92983      921.92983      0.00067036504  0.00073941949  0.00072764139 -7.6495307e-06 -1.1378794e-05  2.6385786e-05  19672.442    
    998300   305.50715      4.9915        -6.7010451e-08 -7.3913212e-08 -7.273586e-08   0.00070288519  3896.6364      3896.6364      3896.6364      5.9165649e+10  0.00903587     0              0              909.74813      909.74813      0.00066134174  0.00072946669  0.00071784713 -7.5465658e-06 -1.1225632e-05  2.6030625e-05  27858.343    
    998400   294.81943      4.992         -6.4650003e-08 -7.1309613e-08 -7.0173734e-08  0.000678126    3896.9615      3896.9615      3896.9615      5.9180463e+10  0.0090336082   0              0              877.92193      877.92193      0.00063804592  0.00070377117  0.00069256091 -7.2807374e-06 -1.0830208e-05  2.5113694e-05  19834.654    
    998500   294.03888      4.9925        -6.4462699e-08 -7.1103016e-08 -6.9970427e-08  0.00067616134  3897.2867      3897.2867      3897.2867      5.9195279e+10  0.0090313471   0              0              875.59758      875.59758      0.00063619738  0.00070173221  0.00069055442 -7.2596437e-06 -1.0798831e-05  2.5040935e-05  28214.308    
    998600   310.07116      4.993         -6.7960473e-08 -7.4961096e-08 -7.3767052e-08  0.00071285014  3897.6119      3897.6119      3897.6119      5.9210097e+10  0.0090290869   0              0              923.33896      923.33896      0.00067071772  0.00073980849  0.0007280242  -7.6535551e-06 -1.138478e-05   2.6399667e-05  19791.814    
    998700   314.99521      4.9935        -6.9022435e-08 -7.613245e-08  -7.4919748e-08  0.00072398925  3897.9371      3897.9371      3897.9371      5.9224918e+10  0.0090268273   0              0              938.00195      938.00195      0.00068119847  0.00075136887  0.00073940043 -7.7731508e-06 -1.1562681e-05  2.6812193e-05  28286.167    
    998800   296.81226      4.994         -6.5021873e-08 -7.171979e-08  -7.0577376e-08  0.00068202661  3898.2623      3898.2623      3898.2623      5.9239742e+10  0.0090245685   0              0              883.85623      883.85623      0.00064171599  0.00070781929  0.00069654455 -7.3226166e-06 -1.0892504e-05  2.525815e-05   19847.638    
    998900   296.40254      4.9945        -6.491587e-08  -7.1602868e-08 -7.0462317e-08  0.00068091473  3898.5874      3898.5874      3898.5874      5.9254568e+10  0.0090223105   0              0              882.63615      882.63615      0.00064066982  0.00070666536  0.000695409   -7.3106788e-06 -1.0874746e-05  2.5216972e-05  27053.986    
    999000   302.39786      4.995         -6.621235e-08  -7.3032898e-08 -7.1869568e-08  0.00069451375  3898.9126      3898.9126      3898.9126      5.9269396e+10  0.0090200533   0              0              900.48918      900.48918      0.00065346508  0.00072077866  0.00070929749 -7.4566854e-06 -1.1091933e-05  2.5720598e-05  7015.17      
    999100   305.86307      4.9955        -6.6954331e-08 -7.3851311e-08 -7.2674945e-08  0.00070229653  3899.2378      3899.2378      3899.2378      5.9284227e+10  0.0090177967   0              0              910.80799      910.80799      0.00066078787  0.00072885577  0.00071724594 -7.5402456e-06 -1.1216231e-05  2.6008825e-05  19613.246    
    999200   296.72542      4.996         -6.4937823e-08 -7.1627082e-08 -7.0486146e-08  0.000681145    3899.563       3899.563       3899.563       5.9299061e+10  0.009015541    0              0              883.59762      883.59762      0.00064088649  0.00070690434  0.00069564417 -7.3131511e-06 -1.0878424e-05  2.52255e-05    28030.755    
    999300   286.11757      4.9965        -6.2600654e-08 -6.9049161e-08 -6.7949288e-08  0.00065663     3899.8882      3899.8882      3899.8882      5.9313897e+10  0.009013286    0              0              852.00928      852.00928      0.00061782042  0.00068146224  0.00067060733 -7.0499444e-06 -1.04869e-05    2.4317612e-05  19754.066    
    999400   300.70905      4.997         -6.5776718e-08 -7.2552392e-08 -7.1396716e-08  0.00068994432  3900.2133      3900.2133      3900.2133      5.9328735e+10  0.0090110317   0              0              895.46019      895.46019      0.00064916573  0.00071603643  0.0007046308  -7.4076255e-06 -1.1018956e-05  2.5551374e-05  28298.285    
    999500   310.09191      4.9975        -6.7812151e-08 -7.4797495e-08 -7.3606058e-08  0.00071129437  3900.5385      3900.5385      3900.5385      5.9343576e+10  0.0090087782   0              0              923.40076      923.40076      0.0006692539   0.00073819389  0.00072643531 -7.6368514e-06 -1.1359933e-05  2.6342051e-05  19853.607    
    999600   301.40156      4.998         -6.5895228e-08 -7.2683109e-08 -7.1525351e-08  0.00069118739  3900.8637      3900.8637      3900.8637      5.9358419e+10  0.0090065254   0              0              897.52237      897.52237      0.00065033533  0.00071732651  0.00070590033 -7.4209718e-06 -1.1038809e-05  2.559741e-05   28277.976    
    999700   294.41241      4.9985        -6.43511e-08   -7.0979921e-08 -6.9849293e-08  0.00067499075  3901.1889      3901.1889      3901.1889      5.9373265e+10  0.0090042734   0              0              876.70988      876.70988      0.00063509598  0.00070051735  0.00068935892 -7.2470757e-06 -1.0780136e-05  2.4997584e-05  19729.368    
    999800   298.3565       4.999         -6.5196874e-08 -7.1912818e-08 -7.076733e-08   0.00068386223  3901.5141      3901.5141      3901.5141      5.9388113e+10  0.0090020222   0              0              888.45471      888.45471      0.00064344312  0.00070972433  0.00069841924 -7.3423248e-06 -1.092182e-05   2.532613e-05   27955.302    
    999900   317.96685      4.9995        -6.9464758e-08 -7.6620338e-08 -7.5399865e-08  0.00072862887  3901.8392      3901.8392      3901.8392      5.9402964e+10  0.0089997717   0              0              946.85099      946.85099      0.00068556386  0.00075618394  0.00074413881 -7.8229643e-06 -1.1636779e-05  2.6984016e-05  19845.845    
   1000000   312.0888       5             -6.8163563e-08 -7.5185106e-08 -7.3987495e-08  0.00071498039  3902.1644      3902.1644      3902.1644      5.9417817e+10  0.0089975219   0              0              929.34715      929.34715      0.00067272206  0.00074201931  0.0007301998  -7.6764267e-06 -1.1418802e-05  2.6478559e-05  6085.8128    
Loop time of 59.0724 on 1 procs for 1000000 steps with 1000 atoms

Performance: 1462.612 ns/day, 0.016 hours/ns, 16928.382 timesteps/s
82.5% CPU use with 1 MPI tasks x 1 OpenMP threads

MPI task timing breakdown:
Section |  min time  |  avg time  |  max time  |%varavg| %total
---------------------------------------------------------------
Pair    | 3.7776     | 3.7776     | 3.7776     |   0.0 |  6.39
Neigh   | 8.4131     | 8.4131     | 8.4131     |   0.0 | 14.24
Comm    | 0.1657     | 0.1657     | 0.1657     |   0.0 |  0.28
Output  | 14.286     | 14.286     | 14.286     |   0.0 | 24.18
Modify  | 28.821     | 28.821     | 28.821     |   0.0 | 48.79
Other   |            | 3.61       |            |       |  6.11

Nlocal:           1000 ave        1000 max        1000 min
Histogram: 1 0 0 0 0 0 0 0 0 0
Nghost:              0 ave           0 max           0 min
Histogram: 1 0 0 0 0 0 0 0 0 0
Neighs:              0 ave           0 max           0 min
Histogram: 1 0 0 0 0 0 0 0 0 0

Total # of neighbors = 0
Ave neighs/atom = 0
Neighbor list builds = 5552
Dangerous builds = 0

# restart file
write_restart ./tensile/restart/restart_${usic}_${trial}.tensile.restart
write_restart ./tensile/restart/restart_1_${trial}.tensile.restart
write_restart ./tensile/restart/restart_1_1.tensile.restart
System init for write_restart ...
Generated 0 of 1 mixed pair_coeff terms from geometric mixing rule
Total wall time: 0:00:59
